<event>
 9    2  0.1723348E-004  0.1037743E+03  0.7546771E-02  0.1276109E+00
          2   -1    0    0  502    0 -0.00000000000E+00  0.00000000000E+00  0.20078700633E+03  0.20078700633E+03  0.00000000000E+00 0. -1.
         21   -1    0    0  501  502  0.00000000000E+00 -0.00000000000E+00 -0.11338069151E+03  0.11338069151E+03  0.00000000000E+00 0. -1.
         24    2    1    2    0    0  0.35633193645E+02 -0.26924170501E+02  0.92787153454E+02  0.13037205047E+03  0.79954863838E+02 0.  0.
         23    2    1    2    0    0 -0.50565314176E+02  0.79529416321E+02 -0.34402812021E+01  0.12907777209E+03  0.88133175682E+02 0.  0.
        -13    1    3    3    0    0  0.17833640032E+01 -0.27559531080E+02 -0.39346893019E+01  0.27896055643E+02  0.00000000000E+00 0.  1.
         14    1    3    3    0    0  0.33849829642E+02  0.63536057916E+00  0.96721842756E+02  0.10247599483E+03  0.00000000000E+00 0. -1.
        -13    1    4    4    0    0 -0.12353130005E+02  0.88540407338E+02  0.21356754654E+01  0.89423512915E+02  0.00000000000E+00 0. -1.
         13    1    4    4    0    0 -0.38212184171E+02 -0.90109910166E+01 -0.55759566675E+01  0.39654259178E+02  0.00000000000E+00 0.  1.
          1    1    1    2  501    0  0.14932120531E+02 -0.52605245820E+02 -0.19405574387E+01  0.54717875274E+02  0.00000000000E+00 0. -1.
<scales pt_clust_5="13000.00000" pt_clust_6="13000.00000" pt_clust_7="13000.00000" pt_clust_8="13000.00000" pt_clust_9="54.68345"></scales>
<clustering>
<clus scale="   54.683">  2  9  1 -1</clus>
<clus scale="   79.955">  5  6 -1 -1</clus>
<clus scale="   88.133">  7  8 -1 -1</clus>
<clus scale="   96.925">  1  5  2 -1</clus>
<clus scale="   54.683">  2  5  1 -1</clus>
</clustering>
</event>
<event>
 9    2  0.1723348E-004  0.1465322E+03  0.7546771E-02  0.1206584E+00
         21   -1    0    0  501  502  0.00000000000E+00  0.00000000000E+00  0.28116934991E+02  0.28116934991E+02  0.00000000000E+00 0. -1.
          2   -1    0    0  502    0 -0.00000000000E+00 -0.00000000000E+00 -0.98132701570E+03  0.98132701570E+03  0.00000000000E+00 0. -1.
         23    2    1    2    0    0  0.11687815224E+03  0.19801034037E+02 -0.57157442271E+03  0.59009553327E+03  0.86387697424E+02 0.  0.
         24    2    1    2    0    0 -0.11055112577E+03 -0.47038774315E+02 -0.28349648789E+03  0.31730321926E+03  0.76660789238E+02 0.  0.
        -11    1    4    4    0    0 -0.19998143197E+02  0.20481514130E+02 -0.73062190638E+02  0.78469751199E+02  0.00000000000E+00 0.  1.
         12    1    4    4    0    0 -0.90552982572E+02 -0.67520288445E+02 -0.21043429725E+03  0.23883346806E+03  0.00000000000E+00 0. -1.
        -13    1    3    3    0    0  0.68694494433E+02  0.53616500817E+02 -0.31289972202E+03  0.32480747954E+03  0.00000000000E+00 0. -1.
         13    1    3    3    0    0  0.48183657807E+02 -0.33815466780E+02 -0.25867470070E+03  0.26528805373E+03  0.00000000000E+00 0.  1.
          1    1    1    2  501    0 -0.63270264700E+01  0.27237740278E+02 -0.98139170101E+02  0.10204519816E+03  0.00000000000E+00 0. -1.
<scales pt_clust_5="13000.00000" pt_clust_6="13000.00000" pt_clust_7="13000.00000" pt_clust_8="13000.00000" pt_clust_9="27.96295"></scales>
<clustering>
<clus scale="   27.963">  1  9  2 -1</clus>
<clus scale="   76.661">  5  6 -1 -1</clus>
<clus scale="   86.388">  7  8 -1 -1</clus>
<clus scale="  141.017">  1  5  2 -1</clus>
<clus scale="   27.963">  1  5  2 -1</clus>
</clustering>
</event>
<event>
 9    2  0.1723348E-004  0.1087881E+03  0.7546771E-02  0.1266939E+00
          4   -1    0    0  502    0 -0.00000000000E+00  0.00000000000E+00  0.36949183854E+03  0.36949183854E+03  0.00000000000E+00 0. -1.
         21   -1    0    0  501  502  0.00000000000E+00 -0.00000000000E+00 -0.61901573921E+02  0.61901573921E+02  0.00000000000E+00 0. -1.
         24    2    1    2    0    0 -0.66150513291E+02  0.16687669577E+02  0.26530372349E+03  0.28577524198E+03  0.81406722711E+02 0.  0.
         23    2    1    2    0    0  0.25318007574E+02 -0.17745257178E+02  0.40413498992E+02  0.10472904844E+03  0.91537025441E+02 0.  0.
        -13    1    3    3    0    0 -0.25076847329E+01  0.33182323962E+02  0.45637764207E+02  0.56481506957E+02  0.00000000000E+00 0.  1.
         14    1    3    3    0    0 -0.63642828558E+02 -0.16494654385E+02  0.21966595928E+03  0.22929373502E+03  0.00000000000E+00 0. -1.
        -13    1    4    4    0    0 -0.66633236058E+01 -0.19576160109E+02  0.62491485874E+02  0.65824096900E+02  0.00000000000E+00 0.  1.
         13    1    4    4    0    0  0.31981331179E+02  0.18309029305E+01 -0.22077986882E+02  0.38904951539E+02  0.00000000000E+00 0. -1.
          3    1    1    2  501    0  0.40832505718E+02  0.10575876011E+01  0.18730421333E+01  0.40889122044E+02  0.00000000000E+00 0. -1.
<scales pt_clust_5="13000.00000" pt_clust_6="13000.00000" pt_clust_7="13000.00000" pt_clust_8="13000.00000" pt_clust_9="40.84620"></scales>
<clustering>
<clus scale="   40.846">  2  9  1 -1</clus>
<clus scale="   81.407">  5  6 -1 -1</clus>
<clus scale="   91.537">  7  8 -1 -1</clus>
<clus scale="  100.414">  1  5  2 -1</clus>
<clus scale="   40.846">  2  5  1 -1</clus>
</clustering>
</event>
<event>
 9    2  0.1723348E-004  0.9096920E+02  0.7546771E-02  0.1307557E+00
          2   -1    0    0  502    0 -0.00000000000E+00  0.00000000000E+00  0.45036336782E+03  0.45036336782E+03  0.00000000000E+00 0. -1.
         21   -1    0    0  501  502  0.00000000000E+00 -0.00000000000E+00 -0.10231501720E+03  0.10231501720E+03  0.00000000000E+00 0. -1.
         23    2    1    2    0    0 -0.21592262040E+02  0.47091560138E+01  0.30142608448E+03  0.31554140439E+03  0.90665823491E+02 0.  0.
         24    2    1    2    0    0 -0.24985834888E+02  0.22390748207E+02  0.11890181428E+03  0.14698013396E+03  0.79623368357E+02 0.  0.
        -13    1    4    4    0    0  0.20867109379E+02  0.27298975354E+02  0.78420156183E+02  0.85617703806E+02  0.00000000000E+00 0.  1.
         14    1    4    4    0    0 -0.45852944267E+02 -0.49082271473E+01  0.40481658095E+02  0.61362430149E+02  0.00000000000E+00 0. -1.
        -13    1    3    3    0    0 -0.21989558079E+02  0.46382915313E+02  0.17910269834E+03  0.18631342423E+03  0.00000000000E+00 0.  1.
         13    1    3    3    0    0  0.39729603902E+00 -0.41673759300E+02  0.12232338614E+03  0.12922798016E+03  0.00000000000E+00 0. -1.
          1    1    1    2  501    0  0.46578096927E+02 -0.27099904220E+02 -0.72279548142E+02  0.90156846672E+02  0.00000000000E+00 0. -1.
<scales pt_clust_5="13000.00000" pt_clust_6="13000.00000" pt_clust_7="13000.00000" pt_clust_8="13000.00000" pt_clust_9="53.88807"></scales>
<clustering>
<clus scale="   53.888">  2  9  1 -1</clus>
<clus scale="   79.623">  5  6 -1 -1</clus>
<clus scale="   79.969">  2  5  1 -1</clus>
<clus scale="   90.666">  7  8 -1 -1</clus>
<clus scale="   53.888">  2  5  1 -1</clus>
</clustering>
</event>
<event>
 9    2  0.1723348E-004  0.2461073E+03  0.7546771E-02  0.1116528E+00
          2   -1    0    0  502    0 -0.00000000000E+00  0.00000000000E+00  0.14348317210E+04  0.14348317210E+04  0.00000000000E+00 0. -1.
         21   -1    0    0  501  502  0.00000000000E+00 -0.00000000000E+00 -0.68749927079E+02  0.68749927079E+02  0.00000000000E+00 0. -1.
         24    2    1    2    0    0 -0.47818676507E+02  0.23000410466E+03  0.92470064588E+03  0.95734224769E+03  0.79021394110E+02 0.  0.
         23    2    1    2    0    0  0.22588392345E+02 -0.20697782764E+03  0.20164366890E+03  0.30408070124E+03  0.91950242293E+02 0.  0.
        -13    1    3    3    0    0 -0.60293901512E+02  0.16784244000E+03  0.76507344484E+03  0.78558501464E+03  0.00000000000E+00 0.  1.
         14    1    3    3    0    0  0.12475225005E+02  0.62161664652E+02  0.15962720104E+03  0.17175723305E+03  0.00000000000E+00 0. -1.
        -11    1    4    4    0    0  0.10569572177E+02 -0.24637347358E+02 -0.60073439365E+01  0.27473676893E+02  0.00000000000E+00 0.  1.
         11    1    4    4    0    0  0.12018820168E+02 -0.18234048028E+03  0.20765101284E+03  0.27660702435E+03  0.00000000000E+00 0. -1.
          1    1    1    2  501    0  0.25230284163E+02 -0.23026277019E+02  0.23973747913E+03  0.24215869914E+03  0.00000000000E+00 0. -1.
<scales pt_clust_5="13000.00000" pt_clust_6="13000.00000" pt_clust_7="13000.00000" pt_clust_8="13000.00000" pt_clust_9="34.15813"></scales>
<clustering>
<clus scale="   34.158">  2  9  1 -1</clus>
<clus scale="   79.021">  5  6 -1 -1</clus>
<clus scale="   91.950">  7  8 -1 -1</clus>
<clus scale="  241.575">  1  5  2 -1</clus>
<clus scale="   34.158">  2  5  1 -1</clus>
</clustering>
</event>
<event>
 9    2  0.1723348E-004  0.3071441E+03  0.7546771E-02  0.1081723E+00
         21   -1    0    0  501  502  0.00000000000E+00  0.00000000000E+00  0.54207981206E+03  0.54207981206E+03  0.00000000000E+00 0.  1.
          2   -1    0    0  502    0 -0.00000000000E+00 -0.00000000000E+00 -0.80288563527E+03  0.80288563527E+03  0.00000000000E+00 0. -1.
         24    2    1    2    0    0  0.16913322139E+03 -0.43035976481E+02  0.34908756508E+03  0.39928901423E+03  0.84329395434E+02 0.  0.
         23    2    1    2    0    0  0.48659373521E+02  0.31674948822E+02  0.13250344094E+03  0.17190919459E+03  0.92868575476E+02 0.  0.
        -11    1    3    3    0    0  0.17056583221E+03 -0.39800204621E+02  0.35296973516E+03  0.39403603052E+03  0.00000000000E+00 0.  1.
         12    1    3    3    0    0 -0.14326108206E+01 -0.32357718596E+01 -0.38821700790E+01  0.52529837057E+01  0.00000000000E+00 0. -1.
        -13    1    4    4    0    0 -0.15120156464E+02 -0.13495654519E+02  0.27733674668E+01  0.20455888871E+02  0.00000000000E+00 0.  1.
         13    1    4    4    0    0  0.63779529985E+02  0.45170603342E+02  0.12973007347E+03  0.15145330572E+03  0.00000000000E+00 0. -1.
          1    1    1    2  501    0 -0.21779259492E+03  0.11361027658E+02 -0.74239682922E+03  0.77376723851E+03  0.00000000000E+00 0. -1.
<scales pt_clust_5="13000.00000" pt_clust_6="13000.00000" pt_clust_7="13000.00000" pt_clust_8="13000.00000" pt_clust_9="218.08882"></scales>
<clustering>
<clus scale="   84.329">  5  6 -1 -1</clus>
<clus scale="   92.869">  7  8 -1 -1</clus>
<clus scale="  104.259">  5  7 -1 -1</clus>
<clus scale="  218.089">  1  9  2 -1</clus>
<clus scale="  218.089">  1  5  2 -1</clus>
</clustering>
</event>
<event>
 9    2  0.1723348E-004  0.1241574E+03  0.7546771E-02  0.1240253E+00
          2   -1    0    0  502    0 -0.00000000000E+00  0.00000000000E+00  0.37383962675E+03  0.37383962675E+03  0.00000000000E+00 0. -1.
         21   -1    0    0  501  502  0.00000000000E+00 -0.00000000000E+00 -0.13848951925E+03  0.13848951925E+03  0.00000000000E+00 0.  1.
         23    2    1    2    0    0  0.74420339056E+02  0.33090980920E+02  0.30969004199E+03  0.33292766632E+03  0.91101641104E+02 0.  0.
         24    2    1    2    0    0 -0.10010045040E+03 -0.40290113400E+02 -0.46715533289E+02  0.14100352181E+03  0.77821968008E+02 0.  0.
        -11    1    4    4    0    0 -0.10263024125E+03 -0.46422679076E+02 -0.58914195800E+02  0.12711771717E+03  0.00000000000E+00 0.  1.
         12    1    4    4    0    0  0.25297908500E+01  0.61325656757E+01  0.12198662511E+02  0.13885804642E+02  0.00000000000E+00 0. -1.
        -13    1    3    3    0    0  0.93539204266E+02  0.39094774827E+02  0.27127550283E+03  0.28960038431E+03  0.00000000000E+00 0. -1.
         13    1    3    3    0    0 -0.19118865211E+02 -0.60037939068E+01  0.38414539157E+02  0.43327282015E+02  0.00000000000E+00 0.  1.
          1    1    1    2  501    0  0.25680111341E+02  0.71991324805E+01 -0.27624401195E+02  0.38397957867E+02  0.00000000000E+00 0. -1.
<scales pt_clust_5="13000.00000" pt_clust_6="13000.00000" pt_clust_7="13000.00000" pt_clust_8="13000.00000" pt_clust_9="26.67013"></scales>
<clustering>
<clus scale="   26.670">  2  9  1 -1</clus>
<clus scale="   77.822">  5  6 -1 -1</clus>
<clus scale="   91.102">  7  8 -1 -1</clus>
<clus scale="  114.768">  2  5  1 -1</clus>
<clus scale="   26.670">  2  5  1 -1</clus>
</clustering>
</event>
<event>
 9    2  0.1723348E-004  0.1244578E+03  0.7546771E-02  0.1253754E+00
         21   -1    0    0  501  502  0.00000000000E+00  0.00000000000E+00  0.77450483723E+02  0.77450483723E+02  0.00000000000E+00 0.  1.
          4   -1    0    0  502    0 -0.00000000000E+00 -0.00000000000E+00 -0.33800085784E+03  0.33800085784E+03  0.00000000000E+00 0. -1.
         24    2    1    2    0    0  0.22368158528E+02 -0.24257650540E+02 -0.19971226567E+02  0.89152369473E+02  0.80377403332E+02 0.  0.
         23    2    1    2    0    0  0.82752265426E+01 -0.67440088695E+02 -0.18147340836E+03  0.21298092042E+03  0.88383423695E+02 0.  0.
        -11    1    3    3    0    0  0.45141084016E+02 -0.14699327848E+02  0.11792514032E+02  0.48916777209E+02  0.00000000000E+00 0.  1.
         12    1    3    3    0    0 -0.22772925488E+02 -0.95583226926E+01 -0.31763740600E+02  0.40235592264E+02  0.00000000000E+00 0. -1.
        -11    1    4    4    0    0  0.37306239312E+02 -0.57218960134E+01 -0.99049190205E+02  0.10599640402E+03  0.00000000000E+00 0. -1.
         11    1    4    4    0    0 -0.29031012770E+02 -0.61718192682E+02 -0.82424218152E+02  0.10698451640E+03  0.00000000000E+00 0.  1.
          3    1    1    2  501    0 -0.30643385071E+02  0.91697739235E+02 -0.59105739195E+02  0.11331805167E+03  0.00000000000E+00 0. -1.
<scales pt_clust_5="13000.00000" pt_clust_6="13000.00000" pt_clust_7="13000.00000" pt_clust_8="13000.00000" pt_clust_9="87.62479"></scales>
<clustering>
<clus scale="   80.377">  5  6 -1 -1</clus>
<clus scale="   86.887">  2  5  1 -1</clus>
<clus scale="   87.625">  1  9  2 -1</clus>
<clus scale="   88.383">  7  8 -1 -1</clus>
<clus scale="   87.625">  1  5  2 -1</clus>
</clustering>
</event>
<event>
 9    2  0.1723348E-004  0.1184189E+03  0.7546771E-02  0.1260174E+00
         -1   -1    0    0    0  501 -0.00000000000E+00  0.00000000000E+00  0.35252348358E+03  0.35252348358E+03  0.00000000000E+00 0.  1.
         21   -1    0    0  501  502  0.00000000000E+00 -0.00000000000E+00 -0.68190162233E+02  0.68190162233E+02  0.00000000000E+00 0.  1.
         24    2    1    2    0    0  0.30197424083E+02  0.24639367733E+02  0.15982882093E+03  0.18286795771E+03  0.79852708754E+02 0.  0.
         23    2    1    2    0    0  0.42702751076E+02  0.34283607395E+02  0.53950540111E+02  0.12052470169E+03  0.92825924473E+02 0.  0.
        -13    1    3    3    0    0  0.46468797434E+02 -0.12276980606E+02  0.77668296359E+02  0.91336945685E+02  0.00000000000E+00 0.  1.
         14    1    3    3    0    0 -0.16271373351E+02  0.36916348339E+02  0.82160524567E+02  0.91531012026E+02  0.00000000000E+00 0. -1.
        -11    1    4    4    0    0  0.68699318394E+02  0.65906754002E+01  0.27766496247E+02  0.74390938050E+02  0.00000000000E+00 0.  1.
         11    1    4    4    0    0 -0.25996567318E+02  0.27692931995E+02  0.26184043864E+02  0.46133763643E+02  0.00000000000E+00 0. -1.
         -2    1    1    2    0  502 -0.72900175159E+02 -0.58922975128E+02  0.70553960306E+02  0.11732098641E+03  0.00000000000E+00 0.  1.
<scales pt_clust_5="13000.00000" pt_clust_6="13000.00000" pt_clust_7="13000.00000" pt_clust_8="13000.00000" pt_clust_9="73.52816"></scales>
<clustering>
<clus scale="   79.853">  5  6 -1 -1</clus>
<clus scale="   88.856">  1  5  2 -1</clus>
<clus scale="   73.528">  2  9  1 -1</clus>
<clus scale="   92.826">  7  8 -1 -1</clus>
<clus scale="   73.528">  2  5  1 -1</clus>
</clustering>
</event>
<event>
 9    2  0.1723348E-004  0.2258643E+03  0.7546771E-02  0.1153447E+00
         21   -1    0    0  501  502  0.00000000000E+00  0.00000000000E+00  0.52947688467E+03  0.52947688467E+03  0.00000000000E+00 0.  1.
          2   -1    0    0  502    0 -0.00000000000E+00 -0.00000000000E+00 -0.40711074039E+03  0.40711074039E+03  0.00000000000E+00 0. -1.
         24    2    1    2    0    0 -0.78133197924E+02 -0.59091107963E+02  0.12589844704E+03  0.17897844246E+03  0.81156073329E+02 0.  0.
         23    2    1    2    0    0  0.15461241762E+03 -0.13891810399E+03  0.30666132213E+03  0.38174111533E+03  0.92097086523E+02 0.  0.
        -13    1    3    3    0    0 -0.50819550421E+02  0.10991678574E+02  0.51468821623E+02  0.73160667726E+02  0.00000000000E+00 0.  1.
         14    1    3    3    0    0 -0.27313647503E+02 -0.70082786537E+02  0.74429625421E+02  0.10581777473E+03  0.00000000000E+00 0. -1.
        -11    1    4    4    0    0  0.65070026135E+02 -0.75088282536E+02  0.22113888520E+03  0.24243507383E+03  0.00000000000E+00 0. -1.
         11    1    4    4    0    0  0.89542391488E+02 -0.63829821458E+02  0.85522436922E+02  0.13930604150E+03  0.00000000000E+00 0.  1.
          1    1    1    2  501    0 -0.76479219698E+02  0.19800921196E+03 -0.31019362490E+03  0.37586806727E+03  0.00000000000E+00 0. -1.
<scales pt_clust_5="13000.00000" pt_clust_6="13000.00000" pt_clust_7="13000.00000" pt_clust_8="13000.00000" pt_clust_9="206.23499"></scales>
<clustering>
<clus scale="   81.156">  5  6 -1 -1</clus>
<clus scale="   92.097">  7  8 -1 -1</clus>
<clus scale="  127.212">  2  5  1 -1</clus>
<clus scale="  206.235">  1  9  2 -1</clus>
<clus scale="  206.235">  1  5  2 -1</clus>
</clustering>
</event>
<event>
 9    2  0.1723348E-004  0.1012274E+03  0.7546771E-02  0.1285927E+00
         -1   -1    0    0    0  501 -0.00000000000E+00  0.00000000000E+00  0.29225941180E+03  0.29225941180E+03  0.00000000000E+00 0.  1.
         21   -1    0    0  501  502  0.00000000000E+00 -0.00000000000E+00 -0.11043879438E+03  0.11043879438E+03  0.00000000000E+00 0. -1.
         23    2    1    2    0    0 -0.13530915329E+02  0.39874741108E+01  0.33871041216E+02  0.91868582390E+02  0.84223532210E+02 0.  0.
         24    2    1    2    0    0  0.11445056181E+02  0.66504558077E+02 -0.26354274963E+02  0.12279954656E+03  0.99153090070E+02 0.  0.
        -13    1    4    4    0    0  0.12593491880E+02  0.81864857833E+02  0.98917413251E+01  0.83416410448E+02  0.00000000000E+00 0.  1.
         14    1    4    4    0    0 -0.11484356989E+01 -0.15360299756E+02 -0.36246016288E+02  0.39383136111E+02  0.00000000000E+00 0. -1.
        -11    1    3    3    0    0  0.59499216606E+01  0.40818534284E+02  0.27847230729E+02  0.49769695279E+02  0.00000000000E+00 0. -1.
         11    1    3    3    0    0 -0.19480836989E+02 -0.36831060173E+02  0.60238104868E+01  0.42098887112E+02  0.00000000000E+00 0.  1.
         -2    1    1    2    0  502  0.20858591479E+01 -0.70492032187E+02  0.17430385117E+03  0.18803007723E+03  0.00000000000E+00 0.  1.
<scales pt_clust_5="13000.00000" pt_clust_6="13000.00000" pt_clust_7="13000.00000" pt_clust_8="13000.00000" pt_clust_9="70.52292"></scales>
<clustering>
<clus scale="   70.523">  2  9  1 -1</clus>
<clus scale="   84.224">  7  8 -1 -1</clus>
<clus scale="   86.656">  1  7  2 -1</clus>
<clus scale="   99.153">  5  6 -1 -1</clus>
<clus scale="   70.523">  2  5  1 -1</clus>
</clustering>
</event>
<event>
 9    2  0.1723348E-004  0.1202928E+03  0.7546771E-02  0.1245242E+00
          2   -1    0    0  502    0 -0.00000000000E+00  0.00000000000E+00  0.46703487988E+03  0.46703487988E+03  0.00000000000E+00 0. -1.
         21   -1    0    0  501  502  0.00000000000E+00 -0.00000000000E+00 -0.41471129422E+02  0.41471129422E+02  0.00000000000E+00 0.  1.
         23    2    1    2    0    0  0.14388706627E+01 -0.77624899131E+02  0.25578900123E+03  0.28243308011E+03  0.91174208380E+02 0.  0.
         24    2    1    2    0    0 -0.21624847422E+02  0.78086146512E+02  0.17018573351E+03  0.20587750113E+03  0.82808702904E+02 0.  0.
        -11    1    4    4    0    0 -0.14056048011E+02  0.15430679904E+02 -0.34245412225E+01  0.21151970370E+02  0.00000000000E+00 0.  1.
         12    1    4    4    0    0 -0.75687994114E+01  0.62655466608E+02  0.17361027473E+03  0.18472553076E+03  0.00000000000E+00 0. -1.
        -11    1    3    3    0    0 -0.10202139920E+02 -0.24418808217E+02  0.64826668268E+01  0.27246776375E+02  0.00000000000E+00 0.  1.
         11    1    3    3    0    0  0.11641010582E+02 -0.53206090914E+02  0.24930633441E+03  0.25518630373E+03  0.00000000000E+00 0. -1.
          1    1    1    2  501    0  0.20185976759E+02 -0.46124738143E+00 -0.41098428108E+00  0.20195428071E+02  0.00000000000E+00 0. -1.
<scales pt_clust_5="13000.00000" pt_clust_6="13000.00000" pt_clust_7="13000.00000" pt_clust_8="13000.00000" pt_clust_9="20.19125"></scales>
<clustering>
<clus scale="   20.191">  2  9  1 -1</clus>
<clus scale="   82.809">  5  6 -1 -1</clus>
<clus scale="   91.174">  7  8 -1 -1</clus>
<clus scale="  114.083">  2  5  1 -1</clus>
<clus scale="   20.191">  2  5  1 -1</clus>
</clustering>
</event>
<event>
 9    2  0.1723348E-004  0.1407356E+03  0.7546771E-02  0.1212980E+00
          2   -1    0    0  502    0 -0.00000000000E+00  0.00000000000E+00  0.26377212203E+02  0.26377212203E+02  0.00000000000E+00 0. -1.
         21   -1    0    0  501  502  0.00000000000E+00 -0.00000000000E+00 -0.10220906204E+04  0.10220906204E+04  0.00000000000E+00 0.  1.
         23    2    1    2    0    0  0.98604759978E+02  0.11968796685E+02 -0.40414942321E+03  0.42554259877E+03  0.88789618231E+02 0.  0.
         24    2    1    2    0    0 -0.11963292733E+03  0.25663125956E+02 -0.41190067488E+03  0.43816254706E+03  0.85753241010E+02 0.  0.
        -11    1    4    4    0    0 -0.13310331799E+03  0.19235137742E+02 -0.37015608815E+03  0.39382992951E+03  0.00000000000E+00 0.  1.
         12    1    4    4    0    0  0.13470390668E+02  0.64279882135E+01 -0.41744586731E+02  0.44332617547E+02  0.00000000000E+00 0. -1.
        -11    1    3    3    0    0  0.26014220624E+02 -0.36548086171E+02 -0.16353940639E+03  0.16958077638E+03  0.00000000000E+00 0.  1.
         11    1    3    3    0    0  0.72590539354E+02  0.48516882856E+02 -0.24061001682E+03  0.25596182239E+03  0.00000000000E+00 0. -1.
          1    1    1    2  501    0  0.21028167348E+02 -0.37631922641E+02 -0.17966331007E+03  0.18476268673E+03  0.00000000000E+00 0. -1.
<scales pt_clust_5="13000.00000" pt_clust_6="13000.00000" pt_clust_7="13000.00000" pt_clust_8="13000.00000" pt_clust_9="43.10853"></scales>
<clustering>
<clus scale="   43.109">  2  9  1 -1</clus>
<clus scale="   85.753">  5  6 -1 -1</clus>
<clus scale="   88.790">  7  8 -1 -1</clus>
<clus scale="  138.840">  2  5  1 -1</clus>
<clus scale="   43.109">  2  5  1 -1</clus>
</clustering>
</event>
<event>
 9    2  0.1723348E-004  0.1605295E+03  0.7546771E-02  0.1188799E+00
         -3   -1    0    0    0  501 -0.00000000000E+00  0.00000000000E+00  0.13638077149E+04  0.13638077149E+04  0.00000000000E+00 0.  1.
         21   -1    0    0  501  502  0.00000000000E+00 -0.00000000000E+00 -0.31668188573E+02  0.31668188573E+02  0.00000000000E+00 0. -1.
         23    2    1    2    0    0 -0.94057202771E+02 -0.74265160301E+02  0.65017224576E+03  0.66771876800E+03  0.93607331753E+02 0.  0.
         24    2    1    2    0    0  0.15217344353E+03  0.35389855046E+02  0.54554543496E+03  0.57446099476E+03  0.89310772789E+02 0.  0.
        -13    1    4    4    0    0  0.62243295000E+02 -0.25511326800E+02  0.27071982503E+03  0.27895210921E+03  0.00000000000E+00 0.  1.
         14    1    4    4    0    0  0.89930148535E+02  0.60901181846E+02  0.27482560992E+03  0.29550888554E+03  0.00000000000E+00 0. -1.
        -11    1    3    3    0    0 -0.50987549212E+02 -0.91509836817E+02  0.41528193094E+03  0.42829062864E+03  0.00000000000E+00 0. -1.
         11    1    3    3    0    0 -0.43069653559E+02  0.17244676516E+02  0.23489031482E+03  0.23942813937E+03  0.00000000000E+00 0.  1.
         -4    1    1    2    0  502 -0.58116240764E+02  0.38875305256E+02  0.13642184563E+03  0.15329614073E+03  0.00000000000E+00 0.  1.
<scales pt_clust_5="13000.00000" pt_clust_6="13000.00000" pt_clust_7="13000.00000" pt_clust_8="13000.00000" pt_clust_9="69.91986"></scales>
<clustering>
<clus scale="   69.920">  2  9  1 -1</clus>
<clus scale="   89.311">  5  6 -1 -1</clus>
<clus scale="   93.607">  7  8 -1 -1</clus>
<clus scale="  158.063">  2  5  1 -1</clus>
<clus scale="   69.920">  2  5  1 -1</clus>
</clustering>
</event>
<event>
 9    2  0.1723348E-004  0.1274334E+03  0.7546771E-02  0.1233958E+00
         -1   -1    0    0    0  501 -0.00000000000E+00  0.00000000000E+00  0.35289445672E+03  0.35289445672E+03  0.00000000000E+00 0.  1.
         21   -1    0    0  501  502  0.00000000000E+00 -0.00000000000E+00 -0.14166128418E+03  0.14166128418E+03  0.00000000000E+00 0. -1.
         23    2    1    2    0    0  0.86577310567E+02  0.11485014991E+02  0.27831679540E+03  0.30565655674E+03  0.91313502865E+02 0.  0.
         24    2    1    2    0    0 -0.10435658939E+03  0.89324073866E+01 -0.83847859379E+02  0.15705560523E+03  0.81645048602E+02 0.  0.
        -13    1    4    4    0    0 -0.22732757987E+02  0.27906310994E+02  0.33115483635E+01  0.36145633644E+02  0.00000000000E+00 0.  1.
         14    1    4    4    0    0 -0.81623831407E+02 -0.18973903607E+02 -0.87159407742E+02  0.12090997159E+03  0.00000000000E+00 0. -1.
        -11    1    3    3    0    0  0.73107318906E+02  0.47869803803E+02  0.19995370674E+03  0.21821476355E+03  0.00000000000E+00 0.  1.
         11    1    3    3    0    0  0.13469991660E+02 -0.36384788812E+02  0.78363088659E+02  0.87441793190E+02  0.00000000000E+00 0. -1.
         -2    1    1    2    0  502  0.17779278828E+02 -0.20417422378E+02  0.16764236531E+02  0.31843578923E+02  0.00000000000E+00 0.  1.
<scales pt_clust_5="13000.00000" pt_clust_6="13000.00000" pt_clust_7="13000.00000" pt_clust_8="13000.00000" pt_clust_9="27.07350"></scales>
<clustering>
<clus scale="   27.074">  2  9  1 -1</clus>
<clus scale="   81.645">  5  6 -1 -1</clus>
<clus scale="   91.314">  7  8 -1 -1</clus>
<clus scale="  120.694">  2  5  1 -1</clus>
<clus scale="   27.074">  2  5  1 -1</clus>
</clustering>
</event>
<event>
 9    2  0.1723348E-004  0.1820082E+03  0.7546771E-02  0.1167272E+00
         21   -1    0    0  501  502  0.00000000000E+00  0.00000000000E+00  0.15530731752E+03  0.15530731752E+03  0.00000000000E+00 0.  1.
          2   -1    0    0  502    0 -0.00000000000E+00 -0.00000000000E+00 -0.30167437796E+03  0.30167437796E+03  0.00000000000E+00 0. -1.
         24    2    1    2    0    0  0.75902365397E+02  0.15809647527E+03 -0.11152815041E+03  0.22244935340E+03  0.79306506211E+02 0.  0.
         23    2    1    2    0    0 -0.99778473637E+02 -0.97466834347E+02 -0.25848639303E+02  0.16875356988E+03  0.91400698003E+02 0.  0.
        -11    1    3    3    0    0  0.73318481089E+02  0.13480725828E+03 -0.12271094400E+03  0.19648555248E+03  0.00000000000E+00 0.  1.
         12    1    3    3    0    0  0.25838843081E+01  0.23289216990E+02  0.11182793585E+02  0.25963800925E+02  0.00000000000E+00 0. -1.
        -11    1    4    4    0    0 -0.14432035927E+02 -0.31270544043E+02  0.31316586168E+02  0.46549534423E+02  0.00000000000E+00 0.  1.
         11    1    4    4    0    0 -0.85346437710E+02 -0.66196290303E+02 -0.57165225470E+02  0.12220403546E+03  0.00000000000E+00 0. -1.
          1    1    1    2  501    0  0.23876108240E+02 -0.60629640928E+02 -0.89902707336E+01  0.65778772196E+02  0.00000000000E+00 0. -1.
<scales pt_clust_5="13000.00000" pt_clust_6="13000.00000" pt_clust_7="13000.00000" pt_clust_8="13000.00000" pt_clust_9="65.16151"></scales>
<clustering>
<clus scale="   65.162">  1  9  2 -1</clus>
<clus scale="   79.307">  5  6 -1 -1</clus>
<clus scale="   91.401">  7  8 -1 -1</clus>
<clus scale="  176.245">  2  5  1 -1</clus>
<clus scale="   65.162">  1  5  2 -1</clus>
</clustering>
</event>
<event>
 9    2  0.1723348E-004  0.1518395E+03  0.7546771E-02  0.1219482E+00
         -1   -1    0    0    0  501 -0.00000000000E+00  0.00000000000E+00  0.89476914513E+03  0.89476914513E+03  0.00000000000E+00 0.  1.
         21   -1    0    0  501  502  0.00000000000E+00 -0.00000000000E+00 -0.43692099171E+02  0.43692099171E+02  0.00000000000E+00 0.  1.
         23    2    1    2    0    0  0.26486124337E+02 -0.14041396595E+02  0.13331944679E+03  0.16449935705E+03  0.91582137873E+02 0.  0.
         24    2    1    2    0    0  0.11159235779E+03  0.32871066837E+02  0.46231514058E+03  0.48297894383E+03  0.77459729038E+02 0.  0.
        -11    1    4    4    0    0  0.54402950968E+02  0.53910810089E+02  0.21389128442E+03  0.22719053253E+03  0.00000000000E+00 0.  1.
         12    1    4    4    0    0  0.57189406826E+02 -0.21039743252E+02  0.24842385616E+03  0.25578841131E+03  0.00000000000E+00 0. -1.
        -11    1    3    3    0    0  0.18883614911E+01  0.35705688827E+02  0.79601149293E+02  0.87262850586E+02  0.00000000000E+00 0. -1.
         11    1    3    3    0    0  0.24597762846E+02 -0.49747085422E+02  0.53718297500E+02  0.77236506468E+02  0.00000000000E+00 0.  1.
         -2    1    1    2    0  502 -0.13807848213E+03 -0.18829670242E+02  0.25544245859E+03  0.29098294341E+03  0.00000000000E+00 0.  1.
<scales pt_clust_5="13000.00000" pt_clust_6="13000.00000" pt_clust_7="13000.00000" pt_clust_8="13000.00000" pt_clust_9="130.59566"></scales>
<clustering>
<clus scale="   77.460">  5  6 -1 -1</clus>
<clus scale="   91.582">  7  8 -1 -1</clus>
<clus scale="   96.364">  1  7  2 -1</clus>
<clus scale="  130.596">  2  9  1 -1</clus>
<clus scale="  130.596">  2  5  1 -1</clus>
</clustering>
</event>
<event>
 9    2  0.1723348E-004  0.8183788E+02  0.7546771E-02  0.1325776E+00
          2   -1    0    0  502    0 -0.00000000000E+00  0.00000000000E+00  0.93081197748E+03  0.93081197748E+03  0.00000000000E+00 0. -1.
         21   -1    0    0  501  502  0.00000000000E+00 -0.00000000000E+00 -0.20417574354E+02  0.20417574354E+02  0.00000000000E+00 0. -1.
         24    2    1    2    0    0  0.25352060979E+01  0.18625336950E+02  0.65439958013E+03  0.65965272330E+03  0.80929441042E+02 0.  0.
         23    2    1    2    0    0  0.32994162041E+02  0.16240009973E+02  0.19146110870E+03  0.21007511876E+03  0.78242231078E+02 0.  0.
        -11    1    3    3    0    0 -0.28764685447E+02  0.14149877053E+02  0.11665491710E+03  0.12097931985E+03  0.00000000000E+00 0.  1.
         12    1    3    3    0    0  0.31299891545E+02  0.44754598974E+01  0.53774466304E+03  0.53867340344E+03  0.00000000000E+00 0. -1.
        -11    1    4    4    0    0 -0.16425534770E+02 -0.17452067000E+02  0.33671529878E+02  0.41329707952E+02  0.00000000000E+00 0.  1.
         11    1    4    4    0    0  0.49419696810E+02  0.33692076973E+02  0.15778957882E+03  0.16874541080E+03  0.00000000000E+00 0. -1.
          1    1    1    2  501    0 -0.35529368139E+02 -0.34865346923E+02  0.64533714294E+02  0.81501709780E+02  0.00000000000E+00 0. -1.
<scales pt_clust_5="13000.00000" pt_clust_6="13000.00000" pt_clust_7="13000.00000" pt_clust_8="13000.00000" pt_clust_9="49.77879"></scales>
<clustering>
<clus scale="   49.779">  2  9  1 -1</clus>
<clus scale="   78.242">  7  8 -1 -1</clus>
<clus scale="   79.182">  2  7  1 -1</clus>
<clus scale="   80.929">  5  6 -1 -1</clus>
<clus scale="   49.779">  2  5  1 -1</clus>
</clustering>
</event>
<event>
 9    2  0.1723348E-004  0.3205160E+03  0.7546771E-02  0.1103449E+00
         21   -1    0    0  501  502  0.00000000000E+00  0.00000000000E+00  0.79882587042E+03  0.79882587042E+03  0.00000000000E+00 0.  1.
         -1   -1    0    0    0  501 -0.00000000000E+00 -0.00000000000E+00 -0.22145706829E+03  0.22145706829E+03  0.00000000000E+00 0.  1.
         24    2    1    2    0    0  0.82104878704E+01  0.12884595765E+03  0.54081830159E+02  0.16190409434E+03  0.81359685947E+02 0.  0.
         23    2    1    2    0    0  0.22857715190E+03 -0.24616814926E+03  0.47653933324E+03  0.59001672946E+03  0.90463986415E+02 0.  0.
        -13    1    3    3    0    0  0.38831498762E+02  0.36334325073E+02  0.68682809035E+01  0.53621280824E+02  0.00000000000E+00 0.  1.
         14    1    3    3    0    0 -0.30621010892E+02  0.92511632573E+02  0.47213549255E+02  0.10828281351E+03  0.00000000000E+00 0. -1.
        -13    1    4    4    0    0  0.12011124582E+03 -0.12573058139E+03  0.16952144467E+03  0.24284235765E+03  0.00000000000E+00 0. -1.
         13    1    4    4    0    0  0.10846590609E+03 -0.12043756787E+03  0.30701788857E+03  0.34717437181E+03  0.00000000000E+00 0.  1.
         -2    1    1    2    0  502 -0.23678763977E+03  0.11732219162E+03  0.46747638732E+02  0.26836211492E+03  0.00000000000E+00 0.  1.
<scales pt_clust_5="13000.00000" pt_clust_6="13000.00000" pt_clust_7="13000.00000" pt_clust_8="13000.00000" pt_clust_9="307.48475"></scales>
<clustering>
<clus scale="   81.360">  5  6 -1 -1</clus>
<clus scale="   90.464">  7  8 -1 -1</clus>
<clus scale="  152.604">  2  5  1 -1</clus>
<clus scale="  307.485">  1  9  2 -1</clus>
<clus scale="  307.485">  1  5  2 -1</clus>
</clustering>
</event>
<event>
 9    2  0.1723348E-004  0.1527464E+03  0.7546771E-02  0.1204189E+00
         21   -1    0    0  501  502  0.00000000000E+00  0.00000000000E+00  0.22034926199E+03  0.22034926199E+03  0.00000000000E+00 0.  1.
          2   -1    0    0  502    0 -0.00000000000E+00 -0.00000000000E+00 -0.34453875483E+03  0.34453875483E+03  0.00000000000E+00 0. -1.
         24    2    1    2    0    0  0.10326957541E+03 -0.20043590780E+02 -0.19543782968E+03  0.23532622322E+03  0.78205724407E+02 0.  0.
         23    2    1    2    0    0  0.65606254111E+02  0.77897016804E+02  0.64574360502E+02  0.15092639211E+03  0.90756828923E+02 0.  0.
        -11    1    3    3    0    0  0.75548849057E+02  0.21286715524E+02 -0.94962111889E+02  0.12320128062E+03  0.00000000000E+00 0.  1.
         12    1    3    3    0    0  0.27720726356E+02 -0.41330306304E+02 -0.10047571779E+03  0.11212494260E+03  0.00000000000E+00 0. -1.
        -13    1    4    4    0    0  0.37176665008E+02 -0.12984119378E+02  0.30428566714E+02  0.49765343859E+02  0.00000000000E+00 0. -1.
         13    1    4    4    0    0  0.28429589103E+02  0.90881136182E+02  0.34145793788E+02  0.10116104825E+03  0.00000000000E+00 0.  1.
          1    1    1    2  501    0 -0.16887582952E+03 -0.57853426024E+02  0.66739763358E+01  0.17863540148E+03  0.00000000000E+00 0. -1.
<scales pt_clust_5="13000.00000" pt_clust_6="13000.00000" pt_clust_7="13000.00000" pt_clust_8="13000.00000" pt_clust_9="122.86037"></scales>
<clustering>
<clus scale="   78.206">  5  6 -1 -1</clus>
<clus scale="   90.757">  7  8 -1 -1</clus>
<clus scale="  131.082">  2  5  1 -1</clus>
<clus scale="  122.860">  1  9  2 -1</clus>
<clus scale="  122.860">  1  5  2 -1</clus>
</clustering>
</event>
<event>
 9    2  0.1723348E-004  0.9283339E+02  0.7546771E-02  0.1303471E+00
         21   -1    0    0  501  502  0.00000000000E+00  0.00000000000E+00  0.14566710883E+03  0.14566710883E+03  0.00000000000E+00 0. -1.
         -1   -1    0    0    0  501 -0.00000000000E+00 -0.00000000000E+00 -0.13662964699E+03  0.13662964699E+03  0.00000000000E+00 0.  1.
         23    2    1    2    0    0 -0.15111804125E+01  0.87702435245E+01 -0.94326133191E+02  0.13221702483E+03  0.92221046486E+02 0.  0.
         24    2    1    2    0    0  0.24467006990E+02 -0.11004149004E+02  0.72308482158E+02  0.11139665532E+03  0.80380174778E+02 0.  0.
        -11    1    4    4    0    0  0.24670418739E+02 -0.40559673755E+02  0.20415700125E+02  0.51677050104E+02  0.00000000000E+00 0.  1.
         12    1    4    4    0    0 -0.20341174916E+00  0.29555524750E+02  0.51892782034E+02  0.59719605213E+02  0.00000000000E+00 0. -1.
        -13    1    3    3    0    0 -0.29882553504E+02 -0.28030870659E+02 -0.66340023045E+02  0.77972401345E+02  0.00000000000E+00 0.  1.
         13    1    3    3    0    0  0.28371373091E+02  0.36801114184E+02 -0.27986110146E+02  0.54244623488E+02  0.00000000000E+00 0. -1.
         -2    1    1    2    0  502 -0.22955826577E+02  0.22339054798E+01  0.31055112875E+02  0.38683075669E+02  0.00000000000E+00 0.  1.
<scales pt_clust_5="13000.00000" pt_clust_6="13000.00000" pt_clust_7="13000.00000" pt_clust_8="13000.00000" pt_clust_9="23.06426"></scales>
<clustering>
<clus scale="   23.064">  1  9  2 -1</clus>
<clus scale="   80.380">  5  6 -1 -1</clus>
<clus scale="   81.082">  1  5  2 -1</clus>
<clus scale="   92.221">  7  8 -1 -1</clus>
<clus scale="   23.064">  1  5  2 -1</clus>
</clustering>
</event>
<event>
 9    2  0.1723348E-004  0.2243234E+03  0.7546771E-02  0.1131040E+00
          2   -1    0    0  502    0 -0.00000000000E+00  0.00000000000E+00  0.82531291223E+03  0.82531291223E+03  0.00000000000E+00 0. -1.
         21   -1    0    0  501  502  0.00000000000E+00 -0.00000000000E+00 -0.10514254024E+03  0.10514254024E+03  0.00000000000E+00 0.  1.
         23    2    1    2    0    0 -0.59677585084E+02 -0.19110490023E+03  0.38701402551E+03  0.44265389500E+03  0.77975109901E+02 0.  0.
         24    2    1    2    0    0  0.28643466578E+02  0.23090180740E+03  0.13143404801E+03  0.27986215275E+03  0.83137372647E+02 0.  0.
        -11    1    4    4    0    0 -0.63421390141E+01  0.14948478761E+03  0.45407186959E+02  0.15635772153E+03  0.00000000000E+00 0.  1.
         12    1    4    4    0    0  0.34985605592E+02  0.81417019788E+02  0.86026861056E+02  0.12350443123E+03  0.00000000000E+00 0. -1.
        -11    1    3    3    0    0 -0.26464243369E+02 -0.11967305937E+02  0.86276784146E+02  0.91034367527E+02  0.00000000000E+00 0.  1.
         11    1    3    3    0    0 -0.33213341715E+02 -0.17913759429E+03  0.30073724137E+03  0.35161952748E+03  0.00000000000E+00 0. -1.
          1    1    1    2  501    0  0.31034118507E+02 -0.39796907164E+02  0.20172229847E+03  0.20793940471E+03  0.00000000000E+00 0. -1.
<scales pt_clust_5="13000.00000" pt_clust_6="13000.00000" pt_clust_7="13000.00000" pt_clust_8="13000.00000" pt_clust_9="50.46695"></scales>
<clustering>
<clus scale="   50.467">  2  9  1 -1</clus>
<clus scale="   77.975">  7  8 -1 -1</clus>
<clus scale="   83.137">  5  6 -1 -1</clus>
<clus scale="  222.462">  1  7  2 -1</clus>
<clus scale="   50.467">  2  5  1 -1</clus>
</clustering>
</event>
<event>
 9    2  0.1723348E-004  0.1940691E+03  0.7546771E-02  0.1155017E+00
         21   -1    0    0  501  502  0.00000000000E+00  0.00000000000E+00  0.19591738618E+03  0.19591738618E+03  0.00000000000E+00 0. -1.
          2   -1    0    0  502    0 -0.00000000000E+00 -0.00000000000E+00 -0.26103437682E+03  0.26103437682E+03  0.00000000000E+00 0. -1.
         24    2    1    2    0    0  0.17403626230E+03 -0.30854013844E+02 -0.12134220712E+03  0.22912027397E+03  0.80818178351E+02 0.  0.
         23    2    1    2    0    0 -0.16851189489E+03  0.53602345653E+02  0.36108683466E+02  0.19696597209E+03  0.78881474136E+02 0.  0.
        -13    1    3    3    0    0  0.91280787650E+02  0.22075705517E+02 -0.76535989600E+02  0.12114981086E+03  0.00000000000E+00 0.  1.
         14    1    3    3    0    0  0.82755474649E+02 -0.52929719361E+02 -0.44806217521E+02  0.10797046311E+03  0.00000000000E+00 0. -1.
        -13    1    4    4    0    0 -0.45723926717E+02  0.26015567881E+02 -0.23615688315E+02  0.57664442954E+02  0.00000000000E+00 0.  1.
         13    1    4    4    0    0 -0.12278796817E+03  0.27586777772E+02  0.59724371781E+02  0.13930152914E+03  0.00000000000E+00 0. -1.
          1    1    1    2  501    0 -0.55243674115E+01 -0.22748331810E+02  0.20116533015E+02  0.30865516940E+02  0.00000000000E+00 0. -1.
<scales pt_clust_5="13000.00000" pt_clust_6="13000.00000" pt_clust_7="13000.00000" pt_clust_8="13000.00000" pt_clust_9="23.40951"></scales>
<clustering>
<clus scale="   23.410">  1  9  2 -1</clus>
<clus scale="   78.881">  7  8 -1 -1</clus>
<clus scale="   80.818">  5  6 -1 -1</clus>
<clus scale="  193.271">  1  7  2 -1</clus>
<clus scale="   23.410">  1  5  2 -1</clus>
</clustering>
</event>
<event>
 9    2  0.1723348E-004  0.1053116E+03  0.7546771E-02  0.1274811E+00
          2   -1    0    0  502    0 -0.00000000000E+00  0.00000000000E+00  0.11614671824E+04  0.11614671824E+04  0.00000000000E+00 0. -1.
         21   -1    0    0  501  502  0.00000000000E+00 -0.00000000000E+00 -0.79445864049E+02  0.79445864049E+02  0.00000000000E+00 0. -1.
         24    2    1    2    0    0  0.42648915816E+02  0.40990868563E+02  0.86460496305E+03  0.87024688510E+03  0.79301434885E+02 0.  0.
         23    2    1    2    0    0 -0.26521916212E+02 -0.20262623567E+02  0.28341796352E+03  0.29963129282E+03  0.91319130720E+02 0.  0.
        -13    1    3    3    0    0  0.28227364203E+01  0.28673658446E+02  0.89536131471E+02  0.94057776757E+02  0.00000000000E+00 0.  1.
         14    1    3    3    0    0  0.39826179396E+02  0.12317210116E+02  0.77506883158E+03  0.77618910834E+03  0.00000000000E+00 0. -1.
        -13    1    4    4    0    0 -0.57446954841E+02  0.43559884383E+01  0.17430109295E+03  0.18357559277E+03  0.00000000000E+00 0.  1.
         13    1    4    4    0    0  0.30925038628E+02 -0.24618612005E+02  0.10911687057E+03  0.11605570005E+03  0.00000000000E+00 0. -1.
          1    1    1    2  501    0 -0.16126999603E+02 -0.20728244996E+02 -0.66001608229E+02  0.71034868520E+02  0.00000000000E+00 0. -1.
<scales pt_clust_5="13000.00000" pt_clust_6="13000.00000" pt_clust_7="13000.00000" pt_clust_8="13000.00000" pt_clust_9="26.26291"></scales>
<clustering>
<clus scale="   26.263">  2  9  1 -1</clus>
<clus scale="   79.301">  5  6 -1 -1</clus>
<clus scale="   91.319">  7  8 -1 -1</clus>
<clus scale="   95.079">  1  5  2 -1</clus>
<clus scale="   26.263">  2  5  1 -1</clus>
</clustering>
</event>
<event>
 9    2  0.1723348E-004  0.1569908E+03  0.7546771E-02  0.1194470E+00
          2   -1    0    0  502    0 -0.00000000000E+00  0.00000000000E+00  0.30208982471E+03  0.30208982471E+03  0.00000000000E+00 0. -1.
         21   -1    0    0  501  502  0.00000000000E+00 -0.00000000000E+00 -0.14312618703E+03  0.14312618703E+03  0.00000000000E+00 0. -1.
         23    2    1    2    0    0 -0.14924298554E+03 -0.64217068199E+02  0.16552216305E+03  0.24900825107E+03  0.90610275677E+02 0.  0.
         24    2    1    2    0    0  0.79081891299E+02  0.16371100241E+02 -0.72723587546E+01  0.11128235014E+03  0.76216243658E+02 0.  0.
        -13    1    4    4    0    0  0.66998207257E+02  0.38502389592E+02 -0.24127231609E+02  0.80952560707E+02  0.00000000000E+00 0.  1.
         14    1    4    4    0    0  0.12083684042E+02 -0.22131289352E+02  0.16854872854E+02  0.30329789438E+02  0.00000000000E+00 0. -1.
        -11    1    3    3    0    0 -0.42220961730E+02 -0.22103094926E+02  0.24995598744E+00  0.47657306814E+02  0.00000000000E+00 0.  1.
         11    1    3    3    0    0 -0.10702202381E+03 -0.42113973273E+02  0.16527220706E+03  0.20135094425E+03  0.00000000000E+00 0. -1.
          1    1    1    2  501    0  0.70161094245E+02  0.47845967958E+02  0.71383338870E+00  0.84925410529E+02  0.00000000000E+00 0. -1.
<scales pt_clust_5="13000.00000" pt_clust_6="13000.00000" pt_clust_7="13000.00000" pt_clust_8="13000.00000" pt_clust_9="84.92241"></scales>
<clustering>
<clus scale="   76.216">  5  6 -1 -1</clus>
<clus scale="   84.922">  2  9  1 -1</clus>
<clus scale="   90.610">  7  8 -1 -1</clus>
<clus scale="  149.147">  2  5  1 -1</clus>
<clus scale="   84.922">  2  5  1 -1</clus>
</clustering>
</event>
<event>
 9    2  0.1723348E-004  0.3509743E+03  0.7546771E-02  0.1078331E+00
         21   -1    0    0  501  502  0.00000000000E+00  0.00000000000E+00  0.77741080327E+03  0.77741080327E+03  0.00000000000E+00 0. -1.
          2   -1    0    0  502    0 -0.00000000000E+00 -0.00000000000E+00 -0.37829066241E+03  0.37829066241E+03  0.00000000000E+00 0. -1.
         23    2    1    2    0    0  0.67194778377E+02 -0.19524500981E+03  0.21924738464E+03  0.31454353891E+03  0.90732960365E+02 0.  0.
         24    2    1    2    0    0 -0.32880261198E+03  0.34458833547E+03 -0.13358510897E+02  0.48327469148E+03  0.80769418887E+02 0.  0.
        -13    1    4    4    0    0 -0.82195713874E+02  0.42016771301E+02 -0.10666691269E+02  0.92926437317E+02  0.00000000000E+00 0.  1.
         14    1    4    4    0    0 -0.24660689810E+03  0.30257156417E+03 -0.26918196279E+01  0.39034825416E+03  0.00000000000E+00 0. -1.
        -13    1    3    3    0    0  0.61608750609E+02 -0.60621605236E+02  0.56512013088E+02  0.10326773357E+03  0.00000000000E+00 0.  1.
         13    1    3    3    0    0  0.55860277679E+01 -0.13462340458E+03  0.16273537155E+03  0.21127580534E+03  0.00000000000E+00 0. -1.
          1    1    1    2  501    0  0.26160783360E+03 -0.14934332565E+03  0.19323126711E+03  0.35788323530E+03  0.00000000000E+00 0. -1.
<scales pt_clust_5="13000.00000" pt_clust_6="13000.00000" pt_clust_7="13000.00000" pt_clust_8="13000.00000" pt_clust_9="341.55422"></scales>
<clustering>
<clus scale="   80.769">  5  6 -1 -1</clus>
<clus scale="   90.733">  7  8 -1 -1</clus>
<clus scale="  225.540">  2  7  1 -1</clus>
<clus scale="  341.554">  1  9  2 -1</clus>
<clus scale="  341.554">  1  5  2 -1</clus>
</clustering>
</event>
<event>
 9    2  0.1723348E-004  0.1076838E+03  0.7546771E-02  0.1271780E+00
          2   -1    0    0  502    0 -0.00000000000E+00  0.00000000000E+00  0.35145505041E+03  0.35145505041E+03  0.00000000000E+00 0. -1.
         21   -1    0    0  501  502  0.00000000000E+00 -0.00000000000E+00 -0.27218902935E+03  0.27218902935E+03  0.00000000000E+00 0. -1.
         23    2    1    2    0    0 -0.60940868082E+02  0.11713043873E+02  0.31566639210E+03  0.32964990972E+03  0.71922229386E+02 0.  0.
         24    2    1    2    0    0  0.48957940399E+02  0.12392621421E+02 -0.66282042925E+02  0.12175910040E+03  0.88777881937E+02 0.  0.
        -13    1    4    4    0    0  0.63614604218E+02 -0.19286379998E+02 -0.36268314999E+02  0.75724322356E+02  0.00000000000E+00 0.  1.
         14    1    4    4    0    0 -0.14656663820E+02  0.31679001420E+02 -0.30013727926E+02  0.46034778041E+02  0.00000000000E+00 0. -1.
        -13    1    3    3    0    0 -0.17465112638E+02 -0.28483468931E+02  0.80815171476E+02  0.87449586063E+02  0.00000000000E+00 0.  1.
         13    1    3    3    0    0 -0.43475755443E+02  0.40196512804E+02  0.23485122062E+03  0.24220032366E+03  0.00000000000E+00 0. -1.
          1    1    1    2  501    0  0.11982927683E+02 -0.24105665295E+02 -0.17011832811E+03  0.17223506964E+03  0.00000000000E+00 0. -1.
<scales pt_clust_5="13000.00000" pt_clust_6="13000.00000" pt_clust_7="13000.00000" pt_clust_8="13000.00000" pt_clust_9="26.91976"></scales>
<clustering>
<clus scale="   26.920">  2  9  1 -1</clus>
<clus scale="   71.922">  7  8 -1 -1</clus>
<clus scale="   88.778">  5  6 -1 -1</clus>
<clus scale="   94.271">  1  7  2 -1</clus>
<clus scale="   26.920">  2  5  1 -1</clus>
</clustering>
</event>
<event>
 9    2  0.1723348E-004  0.1387803E+03  0.7546771E-02  0.1240306E+00
         21   -1    0    0  501  502  0.00000000000E+00  0.00000000000E+00  0.34727916118E+02  0.34727916118E+02  0.00000000000E+00 0. -1.
          2   -1    0    0  502    0 -0.00000000000E+00 -0.00000000000E+00 -0.14388672621E+04  0.14388672621E+04  0.00000000000E+00 0. -1.
         24    2    1    2    0    0 -0.75088860404E+01 -0.14035379911E+02 -0.96013675358E+03  0.96363965226E+03  0.80532096472E+02 0.  0.
         23    2    1    2    0    0  0.80002671201E+02 -0.62930654142E+02 -0.18847080727E+03  0.23341328236E+03  0.92735217473E+02 0.  0.
        -11    1    3    3    0    0 -0.22935361832E+02  0.16382490437E+02 -0.14080127606E+03  0.14359462440E+03  0.00000000000E+00 0.  1.
         12    1    3    3    0    0  0.15426475792E+02 -0.30417870348E+02 -0.81933547752E+03  0.82004502786E+03  0.00000000000E+00 0. -1.
        -13    1    4    4    0    0  0.39538188659E+02  0.20685350391E+02 -0.66868529865E+02  0.80390001677E+02  0.00000000000E+00 0.  1.
         13    1    4    4    0    0  0.40464482541E+02 -0.83616004533E+02 -0.12160227740E+03  0.15302328068E+03  0.00000000000E+00 0. -1.
          1    1    1    2  501    0 -0.72493785160E+02  0.76966034053E+02 -0.25553178516E+03  0.27654224363E+03  0.00000000000E+00 0. -1.
<scales pt_clust_5="13000.00000" pt_clust_6="13000.00000" pt_clust_7="13000.00000" pt_clust_8="13000.00000" pt_clust_9="103.24801"></scales>
<clustering>
<clus scale="   80.532">  5  6 -1 -1</clus>
<clus scale="   82.090">  2  5  1 -1</clus>
<clus scale="   92.735">  7  8 -1 -1</clus>
<clus scale="  103.248">  1  9  2 -1</clus>
<clus scale="  103.248">  1  5  2 -1</clus>
</clustering>
</event>
<event>
 9    2  0.1723348E-004  0.2183129E+03  0.7546771E-02  0.1135658E+00
          4   -1    0    0  502    0 -0.00000000000E+00  0.00000000000E+00  0.25422540414E+03  0.25422540414E+03  0.00000000000E+00 0. -1.
         21   -1    0    0  501  502  0.00000000000E+00 -0.00000000000E+00 -0.36938464292E+03  0.36938464292E+03  0.00000000000E+00 0. -1.
         23    2    1    2    0    0 -0.65792234805E+02 -0.22003571925E+03 -0.53824167413E+02  0.25164104522E+03  0.87646099380E+02 0.  0.
         24    2    1    2    0    0 -0.43734167624E+02  0.17460864762E+03 -0.12875625649E+03  0.23556787330E+03  0.80704349946E+02 0.  0.
        -13    1    4    4    0    0 -0.62434744092E+02  0.96855552540E+02 -0.59057985867E+02  0.12948722339E+03  0.00000000000E+00 0.  1.
         14    1    4    4    0    0  0.18700576467E+02  0.77753095084E+02 -0.69698270626E+02  0.10608064990E+03  0.00000000000E+00 0. -1.
        -13    1    3    3    0    0 -0.79687771870E+02 -0.13729928926E+03 -0.54195576642E+02  0.16774503374E+03  0.00000000000E+00 0. -1.
         13    1    3    3    0    0  0.13895537065E+02 -0.82736429992E+02  0.37140922895E+00  0.83896011484E+02  0.00000000000E+00 0.  1.
          3    1    1    2  501    0  0.10952640243E+03  0.45427071623E+02  0.67421185122E+02  0.13640112855E+03  0.00000000000E+00 0. -1.
<scales pt_clust_5="13000.00000" pt_clust_6="13000.00000" pt_clust_7="13000.00000" pt_clust_8="13000.00000" pt_clust_9="118.57346"></scales>
<clustering>
<clus scale="   80.704">  5  6 -1 -1</clus>
<clus scale="   87.646">  7  8 -1 -1</clus>
<clus scale="  118.573">  2  9  1 -1</clus>
<clus scale="  215.620">  2  5  1 -1</clus>
<clus scale="  118.573">  2  5  1 -1</clus>
</clustering>
</event>
<event>
 9    2  0.1723348E-004  0.1211717E+03  0.7546771E-02  0.1249831E+00
         -1   -1    0    0    0  501 -0.00000000000E+00  0.00000000000E+00  0.14197811936E+04  0.14197811936E+04  0.00000000000E+00 0.  1.
         21   -1    0    0  501  502  0.00000000000E+00 -0.00000000000E+00 -0.28161615969E+02  0.28161615969E+02  0.00000000000E+00 0.  1.
         23    2    1    2    0    0  0.24637139272E+02  0.37457236617E+02  0.14329518762E+03  0.17577608576E+03  0.91398513791E+02 0.  0.
         24    2    1    2    0    0  0.65083988423E+02  0.41810268243E+02  0.39426652054E+03  0.40975843159E+03  0.80447864864E+02 0.  0.
        -11    1    4    4    0    0  0.27817745101E+02 -0.13786445522E+02  0.48589732411E+02  0.57661556676E+02  0.00000000000E+00 0.  1.
         12    1    4    4    0    0  0.37266243322E+02  0.55596713765E+02  0.34567678813E+03  0.35209687491E+03  0.00000000000E+00 0. -1.
        -11    1    3    3    0    0 -0.23586485349E+02  0.48403188696E+01  0.10096240536E+03  0.10379382580E+03  0.00000000000E+00 0. -1.
         11    1    3    3    0    0  0.48223624621E+02  0.32616917748E+02  0.42332782256E+02  0.71982259957E+02  0.00000000000E+00 0.  1.
         -2    1    1    2    0  502 -0.89721127695E+02 -0.79267504861E+02  0.85405786947E+03  0.86240829222E+03  0.00000000000E+00 0.  1.
<scales pt_clust_5="13000.00000" pt_clust_6="13000.00000" pt_clust_7="13000.00000" pt_clust_8="13000.00000" pt_clust_9="90.61309"></scales>
<clustering>
<clus scale="   80.448">  5  6 -1 -1</clus>
<clus scale="   91.399">  7  8 -1 -1</clus>
<clus scale="  101.802">  1  7  2 -1</clus>
<clus scale="   90.613">  2  9  1 -1</clus>
<clus scale="   90.613">  2  5  1 -1</clus>
</clustering>
</event>
<event>
 9    2  0.1723348E-004  0.1232669E+03  0.7546771E-02  0.1243973E+00
         -1   -1    0    0    0  501 -0.00000000000E+00  0.00000000000E+00  0.55668623349E+02  0.55668623349E+02  0.00000000000E+00 0.  1.
         21   -1    0    0  501  502  0.00000000000E+00 -0.00000000000E+00 -0.30949252432E+03  0.30949252432E+03  0.00000000000E+00 0. -1.
         23    2    1    2    0    0  0.42041984928E+02  0.53427733026E+02 -0.83430707039E+02  0.14639817693E+03  0.99245615408E+02 0.  0.
         24    2    1    2    0    0 -0.63951213654E+02 -0.50159502801E+02 -0.13448344210E+03  0.17657048434E+03  0.80533262022E+02 0.  0.
        -13    1    4    4    0    0 -0.35172076099E+02 -0.31703537213E+02 -0.11232729821E+02  0.48665834300E+02  0.00000000000E+00 0.  1.
         14    1    4    4    0    0 -0.28779137556E+02 -0.18455965588E+02 -0.12325071228E+03  0.12790465004E+03  0.00000000000E+00 0. -1.
        -13    1    3    3    0    0  0.18192099410E+02  0.56236631148E+02 -0.10073742559E+03  0.11679700372E+03  0.00000000000E+00 0. -1.
         13    1    3    3    0    0  0.23849885518E+02 -0.28088981226E+01  0.17306718554E+02  0.29601173203E+02  0.00000000000E+00 0.  1.
         -2    1    1    2    0  502  0.21909228726E+02 -0.32682302245E+01 -0.35909751826E+02  0.42192486397E+02  0.00000000000E+00 0.  1.
<scales pt_clust_5="13000.00000" pt_clust_6="13000.00000" pt_clust_7="13000.00000" pt_clust_8="13000.00000" pt_clust_9="22.15165"></scales>
<clustering>
<clus scale="   22.152">  2  9  1 -1</clus>
<clus scale="   80.533">  5  6 -1 -1</clus>
<clus scale="   99.246">  7  8 -1 -1</clus>
<clus scale="  108.769">  2  5  1 -1</clus>
<clus scale="   22.152">  2  5  1 -1</clus>
</clustering>
</event>
<event>
 9    2  0.1723348E-004  0.9560790E+02  0.7546771E-02  0.1294685E+00
         -3   -1    0    0    0  501 -0.00000000000E+00  0.00000000000E+00  0.31237123926E+03  0.31237123926E+03  0.00000000000E+00 0.  1.
         21   -1    0    0  501  502  0.00000000000E+00 -0.00000000000E+00 -0.57604724991E+02  0.57604724991E+02  0.00000000000E+00 0. -1.
         24    2    1    2    0    0 -0.35219341561E+02 -0.20503902083E+02  0.21621619846E+03  0.23449926082E+03  0.81115022207E+02 0.  0.
         23    2    1    2    0    0  0.75477936597E+01 -0.41446528030E+01  0.38886570053E+02  0.98417576509E+02  0.89998370538E+02 0.  0.
        -11    1    3    3    0    0 -0.45762257293E+02  0.18125384963E+02  0.14007075924E+03  0.14846727372E+03  0.00000000000E+00 0.  1.
         12    1    3    3    0    0  0.10542915732E+02 -0.38629287046E+02  0.76145439227E+02  0.86031987103E+02  0.00000000000E+00 0. -1.
        -13    1    4    4    0    0  0.30730886067E+02 -0.32639895652E+02  0.42156131367E+02  0.61537708427E+02  0.00000000000E+00 0.  1.
         13    1    4    4    0    0 -0.23183092407E+02  0.28495242849E+02 -0.32695613141E+01  0.36879868082E+02  0.00000000000E+00 0. -1.
         -4    1    1    2    0  502  0.27671547901E+02  0.24648554886E+02 -0.33625424544E+00  0.37059126921E+02  0.00000000000E+00 0.  1.
<scales pt_clust_5="13000.00000" pt_clust_6="13000.00000" pt_clust_7="13000.00000" pt_clust_8="13000.00000" pt_clust_9="37.05760"></scales>
<clustering>
<clus scale="   37.058">  2  9  1 -1</clus>
<clus scale="   81.115">  5  6 -1 -1</clus>
<clus scale="   87.297">  1  5  2 -1</clus>
<clus scale="   89.998">  7  8 -1 -1</clus>
<clus scale="   37.058">  2  5  1 -1</clus>
</clustering>
</event>
<event>
 9    2  0.1723348E-004  0.1562947E+03  0.7546771E-02  0.1207192E+00
          2   -1    0    0  502    0 -0.00000000000E+00  0.00000000000E+00  0.90561287148E+03  0.90561287148E+03  0.00000000000E+00 0. -1.
         21   -1    0    0  501  502  0.00000000000E+00 -0.00000000000E+00 -0.61233289074E+02  0.61233289074E+02  0.00000000000E+00 0. -1.
         23    2    1    2    0    0 -0.61899684952E+02 -0.28919576686E+02  0.47395523682E+03  0.48763697047E+03  0.92132163488E+02 0.  0.
         24    2    1    2    0    0 -0.75689810681E+01 -0.11706619974E+03  0.16003086696E+03  0.21387325523E+03  0.79812945857E+02 0.  0.
        -11    1    4    4    0    0  0.23890378282E+02 -0.73151631079E+01  0.14449256403E+02  0.28862480773E+02  0.00000000000E+00 0.  1.
         12    1    4    4    0    0 -0.31459359350E+02 -0.10975103663E+03  0.14558161056E+03  0.18501077445E+03  0.00000000000E+00 0. -1.
        -13    1    3    3    0    0 -0.81937531511E+02 -0.31575268168E+01  0.34630846603E+03  0.35588380504E+03  0.00000000000E+00 0. -1.
         13    1    3    3    0    0  0.20037846559E+02 -0.25762049869E+02  0.12764677079E+03  0.13175316543E+03  0.00000000000E+00 0.  1.
          1    1    1    2  501    0  0.69468666020E+02  0.14598577642E+03  0.21039347862E+03  0.26533593485E+03  0.00000000000E+00 0. -1.
<scales pt_clust_5="13000.00000" pt_clust_6="13000.00000" pt_clust_7="13000.00000" pt_clust_8="13000.00000" pt_clust_9="134.37991"></scales>
<clustering>
<clus scale="   79.813">  5  6 -1 -1</clus>
<clus scale="   92.132">  7  8 -1 -1</clus>
<clus scale="  114.701">  1  7  2 -1</clus>
<clus scale="  134.380">  2  9  1 -1</clus>
<clus scale="  134.380">  2  5  1 -1</clus>
</clustering>
</event>
<event>
 9    2  0.1723348E-004  0.1245860E+03  0.7546771E-02  0.1249509E+00
          2   -1    0    0  502    0 -0.00000000000E+00  0.00000000000E+00  0.58194992201E+02  0.58194992201E+02  0.00000000000E+00 0. -1.
         21   -1    0    0  501  502  0.00000000000E+00 -0.00000000000E+00 -0.70244926627E+03  0.70244926627E+03  0.00000000000E+00 0. -1.
         23    2    1    2    0    0  0.30506348548E+02  0.10509507367E+01 -0.17624119014E+02  0.95896625984E+02  0.89184143798E+02 0.  0.
         24    2    1    2    0    0  0.77671929874E+02 -0.77217914587E+01 -0.28092078505E+03  0.30244664084E+03  0.80404778021E+02 0.  0.
        -11    1    4    4    0    0  0.75818125112E+02  0.12619286136E+02 -0.13703643315E+03  0.15711975843E+03  0.00000000000E+00 0.  1.
         12    1    4    4    0    0  0.18538047627E+01 -0.20341077595E+02 -0.14388435190E+03  0.14532688242E+03  0.00000000000E+00 0. -1.
        -11    1    3    3    0    0 -0.17364251954E+02 -0.21424962073E+02 -0.30853939916E+02  0.41382506619E+02  0.00000000000E+00 0.  1.
         11    1    3    3    0    0  0.47870600502E+02  0.22475912810E+02  0.13229820902E+02  0.54514119365E+02  0.00000000000E+00 0. -1.
          1    1    1    2  501    0 -0.10817827842E+03  0.66708407220E+01 -0.34570937001E+03  0.36230099165E+03  0.00000000000E+00 0. -1.
<scales pt_clust_5="13000.00000" pt_clust_6="13000.00000" pt_clust_7="13000.00000" pt_clust_8="13000.00000" pt_clust_9="95.16699"></scales>
<clustering>
<clus scale="   80.405">  5  6 -1 -1</clus>
<clus scale="   89.184">  7  8 -1 -1</clus>
<clus scale="   94.263">  1  7  2 -1</clus>
<clus scale="   95.167">  2  9  1 -1</clus>
<clus scale="   95.167">  2  5  1 -1</clus>
</clustering>
</event>
<event>
 9    2  0.1723348E-004  0.9735236E+02  0.7546771E-02  0.1291017E+00
         21   -1    0    0  501  502  0.00000000000E+00  0.00000000000E+00  0.15018658785E+03  0.15018658785E+03  0.00000000000E+00 0.  1.
          2   -1    0    0  502    0 -0.00000000000E+00 -0.00000000000E+00 -0.19564289507E+03  0.19564289507E+03  0.00000000000E+00 0. -1.
         23    2    1    2    0    0  0.11665916251E+02 -0.31618844560E+02 -0.15068143820E+03  0.17914116423E+03  0.90834002285E+02 0.  0.
         24    2    1    2    0    0  0.53080911637E+01  0.50600235032E+02  0.10357414412E+03  0.14117095461E+03  0.81320818220E+02 0.  0.
        -11    1    4    4    0    0  0.13662592954E+02  0.21614557838E+02  0.10772752141E+03  0.11072070460E+03  0.00000000000E+00 0.  1.
         12    1    4    4    0    0 -0.83545017900E+01  0.28985677194E+02 -0.41533772896E+01  0.30450250007E+02  0.00000000000E+00 0. -1.
        -11    1    3    3    0    0 -0.30709849788E+02 -0.41671801299E+02 -0.97614523490E+02  0.11049085525E+03  0.00000000000E+00 0. -1.
         11    1    3    3    0    0  0.42375766039E+02  0.10052956739E+02 -0.53066914710E+02  0.68650308983E+02  0.00000000000E+00 0.  1.
          1    1    1    2  501    0 -0.16974007415E+02 -0.18981390473E+02  0.16509868571E+01  0.25517364080E+02  0.00000000000E+00 0. -1.
<scales pt_clust_5="13000.00000" pt_clust_6="13000.00000" pt_clust_7="13000.00000" pt_clust_8="13000.00000" pt_clust_9="25.46390"></scales>
<clustering>
<clus scale="   25.464">  1  9  2 -1</clus>
<clus scale="   81.321">  5  6 -1 -1</clus>
<clus scale="   88.542">  1  5  2 -1</clus>
<clus scale="   90.834">  7  8 -1 -1</clus>
<clus scale="   25.464">  1  5  2 -1</clus>
</clustering>
</event>
<event>
 9    2  0.1723348E-004  0.1644905E+03  0.7546771E-02  0.1206001E+00
          2   -1    0    0  502    0 -0.00000000000E+00  0.00000000000E+00  0.73449614851E+03  0.73449614851E+03  0.00000000000E+00 0. -1.
         21   -1    0    0  501  502  0.00000000000E+00 -0.00000000000E+00 -0.60619272761E+02  0.60619272761E+02  0.00000000000E+00 0.  1.
         23    2    1    2    0    0 -0.91535175746E+01 -0.44828585281E+02  0.12562152081E+03  0.16115387494E+03  0.89980086542E+02 0.  0.
         24    2    1    2    0    0 -0.10526951412E+03  0.11201095890E+03  0.22248210770E+03  0.28220266567E+03  0.80696534915E+02 0.  0.
        -11    1    4    4    0    0 -0.33839527133E+02  0.88123213821E+02  0.93656766499E+02  0.13297520191E+03  0.00000000000E+00 0.  1.
         12    1    4    4    0    0 -0.71429986990E+02  0.23887745083E+02  0.12882534120E+03  0.14922746377E+03  0.00000000000E+00 0. -1.
        -13    1    3    3    0    0  0.54973718430E+01  0.26953775253E+02  0.30179352366E+02  0.40835283846E+02  0.00000000000E+00 0. -1.
         13    1    3    3    0    0 -0.14650889418E+02 -0.71782360534E+02  0.95442168443E+02  0.12031859109E+03  0.00000000000E+00 0.  1.
          1    1    1    2  501    0  0.11442303170E+03 -0.67182373622E+02  0.32577324724E+03  0.35175888067E+03  0.00000000000E+00 0. -1.
<scales pt_clust_5="13000.00000" pt_clust_6="13000.00000" pt_clust_7="13000.00000" pt_clust_8="13000.00000" pt_clust_9="143.33598"></scales>
<clustering>
<clus scale="   80.697">  5  6 -1 -1</clus>
<clus scale="   89.980">  7  8 -1 -1</clus>
<clus scale="  100.945">  1  7  2 -1</clus>
<clus scale="  143.336">  2  9  1 -1</clus>
<clus scale="  143.336">  2  5  1 -1</clus>
</clustering>
</event>
<event>
 9    2  0.1723348E-004  0.1045144E+03  0.7546771E-02  0.1274977E+00
         21   -1    0    0  501  502  0.00000000000E+00  0.00000000000E+00  0.54591540485E+02  0.54591540485E+02  0.00000000000E+00 0. -1.
          2   -1    0    0  502    0 -0.00000000000E+00 -0.00000000000E+00 -0.72222191006E+03  0.72222191006E+03  0.00000000000E+00 0. -1.
         24    2    1    2    0    0 -0.41101507430E+02 -0.14898012810E+02 -0.39305776391E+03  0.40359827719E+03  0.80534954376E+02 0.  0.
         23    2    1    2    0    0  0.46987935267E+02  0.93611210643E+02 -0.25812514150E+03  0.29258678739E+03  0.89484717505E+02 0.  0.
        -13    1    3    3    0    0 -0.55885269611E+02  0.15354207217E+02 -0.25127135745E+03  0.25786859079E+03  0.00000000000E+00 0.  1.
         14    1    3    3    0    0  0.14783762180E+02 -0.30252220027E+02 -0.14178640646E+03  0.14572968640E+03  0.00000000000E+00 0. -1.
        -11    1    4    4    0    0 -0.16420386859E+02  0.59138055344E+02 -0.15504931149E+03  0.16675499299E+03  0.00000000000E+00 0.  1.
         11    1    4    4    0    0  0.63408322126E+02  0.34473155298E+02 -0.10307583001E+03  0.12583179441E+03  0.00000000000E+00 0. -1.
          1    1    1    2  501    0 -0.58864278363E+01 -0.78713197833E+02 -0.16447464165E+02  0.80628385964E+02  0.00000000000E+00 0. -1.
<scales pt_clust_5="13000.00000" pt_clust_6="13000.00000" pt_clust_7="13000.00000" pt_clust_8="13000.00000" pt_clust_9="78.93299"></scales>
<clustering>
<clus scale="   78.933">  1  9  2 -1</clus>
<clus scale="   80.535">  5  6 -1 -1</clus>
<clus scale="   89.485">  7  8 -1 -1</clus>
<clus scale="   96.962">  2  5  1 -1</clus>
<clus scale="   78.933">  1  5  2 -1</clus>
</clustering>
</event>
<event>
 9    2  0.1723348E-004  0.9623876E+02  0.7546771E-02  0.1294049E+00
          4   -1    0    0  502    0 -0.00000000000E+00  0.00000000000E+00  0.79785304509E+03  0.79785304509E+03  0.00000000000E+00 0. -1.
         21   -1    0    0  501  502  0.00000000000E+00 -0.00000000000E+00 -0.26250617634E+03  0.26250617634E+03  0.00000000000E+00 0. -1.
         24    2    1    2    0    0 -0.22201365576E+02 -0.98429985351E+01  0.53847218016E+03  0.54521627188E+03  0.81967731872E+02 0.  0.
         23    2    1    2    0    0  0.15109376669E+02  0.48606027142E+02  0.24356852416E+03  0.26532157897E+03  0.92081893822E+02 0.  0.
        -11    1    3    3    0    0  0.21542519789E+02  0.21078048000E+02  0.14374035614E+03  0.14686610994E+03  0.00000000000E+00 0.  1.
         12    1    3    3    0    0 -0.43743885365E+02 -0.30921046535E+02  0.39473182402E+03  0.39835016194E+03  0.00000000000E+00 0. -1.
        -11    1    4    4    0    0  0.26528867365E+02 -0.21521347286E+02  0.79842962806E+02  0.86843813265E+02  0.00000000000E+00 0.  1.
         11    1    4    4    0    0 -0.11419490696E+02  0.70127374428E+02  0.16372556135E+03  0.17847776571E+03  0.00000000000E+00 0. -1.
          3    1    1    2  501    0  0.70919889076E+01 -0.38763028607E+02 -0.24669383556E+03  0.24982137058E+03  0.00000000000E+00 0. -1.
<scales pt_clust_5="13000.00000" pt_clust_6="13000.00000" pt_clust_7="13000.00000" pt_clust_8="13000.00000" pt_clust_9="39.40645"></scales>
<clustering>
<clus scale="   39.406">  2  9  1 -1</clus>
<clus scale="   81.968">  5  6 -1 -1</clus>
<clus scale="   86.611">  1  5  2 -1</clus>
<clus scale="   92.082">  7  8 -1 -1</clus>
<clus scale="   39.406">  2  5  1 -1</clus>
</clustering>
</event>
<event>
 9    2  0.1723348E-004  0.1692195E+03  0.7546771E-02  0.1201191E+00
          2   -1    0    0  502    0 -0.00000000000E+00  0.00000000000E+00  0.36243017106E+02  0.36243017106E+02  0.00000000000E+00 0. -1.
         21   -1    0    0  501  502  0.00000000000E+00 -0.00000000000E+00 -0.13440052284E+04  0.13440052284E+04  0.00000000000E+00 0. -1.
         24    2    1    2    0    0 -0.78718625557E+01  0.67164054094E+02 -0.28401407987E+03  0.30206653846E+03  0.77506255951E+02 0.  0.
         23    2    1    2    0    0 -0.12848848424E+03 -0.98897990546E+02 -0.43031802868E+03  0.46846007077E+03  0.89393114827E+02 0.  0.
        -13    1    3    3    0    0 -0.30094568595E+02 -0.21434680971E+00 -0.11253388216E+03  0.11648864167E+03  0.00000000000E+00 0.  1.
         14    1    3    3    0    0  0.22222706039E+02  0.67378400904E+02 -0.17148019771E+03  0.18557789679E+03  0.00000000000E+00 0. -1.
        -11    1    4    4    0    0  0.99983926516E+01 -0.24909262439E+02 -0.45260056852E+02  0.52620451890E+02  0.00000000000E+00 0.  1.
         11    1    4    4    0    0 -0.13848687690E+03 -0.73988728107E+02 -0.38505797183E+03  0.41583961888E+03  0.00000000000E+00 0. -1.
          1    1    1    2  501    0  0.13636034680E+03  0.31733936452E+02 -0.59343010274E+03  0.60972163628E+03  0.00000000000E+00 0. -1.
<scales pt_clust_5="13000.00000" pt_clust_6="13000.00000" pt_clust_7="13000.00000" pt_clust_8="13000.00000" pt_clust_9="143.68054"></scales>
<clustering>
<clus scale="   77.506">  5  6 -1 -1</clus>
<clus scale="   89.393">  7  8 -1 -1</clus>
<clus scale="  102.860">  1  5  2 -1</clus>
<clus scale="  143.681">  2  9  1 -1</clus>
<clus scale="  143.681">  2  5  1 -1</clus>
</clustering>
</event>
<event>
 9    2  0.1723348E-004  0.1657824E+03  0.7546771E-02  0.1182356E+00
          2   -1    0    0  502    0 -0.00000000000E+00  0.00000000000E+00  0.77325301116E+02  0.77325301116E+02  0.00000000000E+00 0. -1.
         21   -1    0    0  501  502  0.00000000000E+00 -0.00000000000E+00 -0.48666903115E+03  0.48666903115E+03  0.00000000000E+00 0.  1.
         23    2    1    2    0    0 -0.27413371641E+02  0.12226361912E+03 -0.12107050932E+03  0.19666178723E+03  0.91202548339E+02 0.  0.
         24    2    1    2    0    0  0.59982806528E+02 -0.14945516303E+03 -0.23181498767E+03  0.29670903460E+03  0.91450969736E+02 0.  0.
        -11    1    4    4    0    0  0.62635055613E+02 -0.15717136941E+03 -0.19132051127E+03  0.25540071963E+03  0.00000000000E+00 0.  1.
         12    1    4    4    0    0 -0.26522490851E+01  0.77162063839E+01 -0.40494476402E+02  0.41308314964E+02  0.00000000000E+00 0. -1.
        -11    1    3    3    0    0  0.32049023631E+02  0.25324841152E+02 -0.25861204476E+02  0.48345520910E+02  0.00000000000E+00 0. -1.
         11    1    3    3    0    0 -0.59462395272E+02  0.96938777972E+02 -0.95209304843E+02  0.14831626632E+03  0.00000000000E+00 0.  1.
          1    1    1    2  501    0 -0.32569434887E+02  0.27191543907E+02 -0.56458233045E+02  0.70623510445E+02  0.00000000000E+00 0. -1.
<scales pt_clust_5="13000.00000" pt_clust_6="13000.00000" pt_clust_7="13000.00000" pt_clust_8="13000.00000" pt_clust_9="42.42815"></scales>
<clustering>
<clus scale="   42.428">  2  9  1 -1</clus>
<clus scale="   91.203">  7  8 -1 -1</clus>
<clus scale="   91.451">  5  6 -1 -1</clus>
<clus scale="  165.646">  1  7  2 -1</clus>
<clus scale="   42.428">  2  5  1 -1</clus>
</clustering>
</event>
<event>
 9    2  0.1723348E-004  0.9852839E+02  0.7546771E-02  0.1295472E+00
         21   -1    0    0  501  502  0.00000000000E+00  0.00000000000E+00  0.40610754589E+02  0.40610754589E+02  0.00000000000E+00 0.  1.
          2   -1    0    0  502    0 -0.00000000000E+00 -0.00000000000E+00 -0.36156745245E+03  0.36156745245E+03  0.00000000000E+00 0. -1.
         24    2    1    2    0    0  0.10619976099E+02 -0.17031273594E+02 -0.21788335306E+03  0.23120604410E+03  0.74700944534E+02 0.  0.
         23    2    1    2    0    0 -0.32392430994E+01  0.41900102358E+02 -0.10062348148E+03  0.14491576845E+03  0.95443091141E+02 0.  0.
        -11    1    3    3    0    0  0.26174078739E+02  0.25207589818E+01 -0.23630359691E+02  0.35352942209E+02  0.00000000000E+00 0.  1.
         12    1    3    3    0    0 -0.15554102640E+02 -0.19552032576E+02 -0.19425299337E+03  0.19585310189E+03  0.00000000000E+00 0. -1.
        -11    1    4    4    0    0  0.43510248081E+02  0.26562810575E+02 -0.31004244932E+02  0.59665633303E+02  0.00000000000E+00 0.  1.
         11    1    4    4    0    0 -0.46749491180E+02  0.15337291782E+02 -0.69619236549E+02  0.85250135147E+02  0.00000000000E+00 0. -1.
          1    1    1    2  501    0 -0.73807329997E+01 -0.24868828763E+02 -0.24498633209E+01  0.26056394493E+02  0.00000000000E+00 0. -1.
<scales pt_clust_5="13000.00000" pt_clust_6="13000.00000" pt_clust_7="13000.00000" pt_clust_8="13000.00000" pt_clust_9="25.94097"></scales>
<clustering>
<clus scale="   25.941">  1  9  2 -1</clus>
<clus scale="   74.701">  5  6 -1 -1</clus>
<clus scale="   78.605">  2  5  1 -1</clus>
<clus scale="   95.443">  7  8 -1 -1</clus>
<clus scale="   25.941">  1  5  2 -1</clus>
</clustering>
</event>
<event>
 9    2  0.1723348E-004  0.1928296E+03  0.7546771E-02  0.1181450E+00
          2   -1    0    0  502    0 -0.00000000000E+00  0.00000000000E+00  0.88644217873E+03  0.88644217873E+03  0.00000000000E+00 0. -1.
         21   -1    0    0  501  502  0.00000000000E+00 -0.00000000000E+00 -0.89467818875E+02  0.89467818875E+02  0.00000000000E+00 0. -1.
         23    2    1    2    0    0  0.10097364755E+02 -0.57427141467E+02  0.16830157277E+03  0.19966136501E+03  0.90218667303E+02 0.  0.
         24    2    1    2    0    0 -0.13452590917E+03  0.16752528343E+03  0.54259433786E+03  0.58912951826E+03  0.80641384979E+02 0.  0.
        -11    1    4    4    0    0 -0.30736674468E+02  0.22889097988E+02  0.37652438955E+02  0.53724855731E+02  0.00000000000E+00 0.  1.
         12    1    4    4    0    0 -0.10378923470E+03  0.14463618545E+03  0.50494189891E+03  0.53540466252E+03  0.00000000000E+00 0. -1.
        -11    1    3    3    0    0  0.42467763119E+02 -0.45227765397E+01  0.91243286083E+02  0.10074375250E+03  0.00000000000E+00 0.  1.
         11    1    3    3    0    0 -0.32370398365E+02 -0.52904364927E+02  0.77058286685E+02  0.98917612513E+02  0.00000000000E+00 0. -1.
          1    1    1    2  501    0  0.12442854441E+03 -0.11009814197E+03  0.86078449222E+02  0.18711911434E+03  0.00000000000E+00 0. -1.
<scales pt_clust_5="13000.00000" pt_clust_6="13000.00000" pt_clust_7="13000.00000" pt_clust_8="13000.00000" pt_clust_9="175.15770"></scales>
<clustering>
<clus scale="   80.641">  5  6 -1 -1</clus>
<clus scale="   90.219">  7  8 -1 -1</clus>
<clus scale="  107.421">  1  7  2 -1</clus>
<clus scale="  175.158">  2  9  1 -1</clus>
<clus scale="  175.158">  2  5  1 -1</clus>
</clustering>
</event>
<event>
 9    2  0.1723348E-004  0.1206328E+03  0.7546771E-02  0.1248479E+00
         21   -1    0    0  501  502  0.00000000000E+00  0.00000000000E+00  0.34018155626E+03  0.34018155626E+03  0.00000000000E+00 0.  1.
          2   -1    0    0  502    0 -0.00000000000E+00 -0.00000000000E+00 -0.88498417854E+02  0.88498417854E+02  0.00000000000E+00 0. -1.
         24    2    1    2    0    0  0.14187427734E+02 -0.77201466140E+02 -0.21134049574E+02  0.11180546760E+03  0.76762393494E+02 0.  0.
         23    2    1    2    0    0 -0.65063451124E+01  0.55466672394E+02  0.12466642360E+03  0.16694102367E+03  0.95961992154E+02 0.  0.
        -13    1    3    3    0    0  0.43321391834E+02 -0.38417397371E+02  0.22710039347E+01  0.57946500067E+02  0.00000000000E+00 0.  1.
         14    1    3    3    0    0 -0.29133964099E+02 -0.38784068769E+02 -0.23405053508E+02  0.53858967537E+02  0.00000000000E+00 0. -1.
        -13    1    4    4    0    0  0.12909885386E+02  0.77039394201E+02  0.10857682816E+03  0.13375597562E+03  0.00000000000E+00 0.  1.
         13    1    4    4    0    0 -0.19416230498E+02 -0.21572721807E+02  0.16089595433E+02  0.33185048051E+02  0.00000000000E+00 0. -1.
          1    1    1    2  501    0 -0.76810826221E+01  0.21734793747E+02  0.14815076439E+03  0.14993348284E+03  0.00000000000E+00 0. -1.
<scales pt_clust_5="13000.00000" pt_clust_6="13000.00000" pt_clust_7="13000.00000" pt_clust_8="13000.00000" pt_clust_9="23.05212"></scales>
<clustering>
<clus scale="   23.052">  1  9  2 -1</clus>
<clus scale="   76.762">  5  6 -1 -1</clus>
<clus scale="   95.962">  7  8 -1 -1</clus>
<clus scale="  106.000">  2  5  1 -1</clus>
<clus scale="   23.052">  1  5  2 -1</clus>
</clustering>
</event>
<event>
 9    2  0.1723348E-004  0.1057244E+03  0.7546771E-02  0.1273494E+00
          4   -1    0    0  502    0 -0.00000000000E+00  0.00000000000E+00  0.91521885569E+02  0.91521885569E+02  0.00000000000E+00 0. -1.
         21   -1    0    0  501  502  0.00000000000E+00 -0.00000000000E+00 -0.15404843907E+03  0.15404843907E+03  0.00000000000E+00 0.  1.
         24    2    1    2    0    0  0.58173339999E+02 -0.22248668469E+01 -0.22594378875E+01  0.98818700885E+02  0.79818187564E+02 0.  0.
         23    2    1    2    0    0 -0.43864351589E+02  0.24348446165E+02 -0.60972993112E+02  0.12039449617E+03  0.90885645999E+02 0.  0.
        -11    1    3    3    0    0  0.52154240464E+02 -0.36584291221E+02  0.15772515101E+01  0.63725684656E+02  0.00000000000E+00 0.  1.
         12    1    3    3    0    0  0.60190995351E+01  0.34359424374E+02 -0.38366893976E+01  0.35093016230E+02  0.00000000000E+00 0. -1.
        -13    1    4    4    0    0 -0.44856300073E+02 -0.18887550153E+02 -0.39555545363E+01  0.48831072267E+02  0.00000000000E+00 0. -1.
         13    1    4    4    0    0  0.99194848392E+00  0.43235996318E+02 -0.57017438576E+02  0.71563423906E+02  0.00000000000E+00 0.  1.
          3    1    1    2  501    0 -0.14308988410E+02 -0.22123579318E+02  0.70587750069E+00  0.26357127579E+02  0.00000000000E+00 0. -1.
<scales pt_clust_5="13000.00000" pt_clust_6="13000.00000" pt_clust_7="13000.00000" pt_clust_8="13000.00000" pt_clust_9="26.34769"></scales>
<clustering>
<clus scale="   26.348">  2  9  1 -1</clus>
<clus scale="   79.818">  5  6 -1 -1</clus>
<clus scale="   90.886">  7  8 -1 -1</clus>
<clus scale="   96.376">  1  5  2 -1</clus>
<clus scale="   26.348">  2  5  1 -1</clus>
</clustering>
</event>
<event>
 9    2  0.1723348E-004  0.1214770E+03  0.7546771E-02  0.1255311E+00
         21   -1    0    0  501  502  0.00000000000E+00  0.00000000000E+00  0.75023094529E+02  0.75023094529E+02  0.00000000000E+00 0.  1.
          2   -1    0    0  502    0 -0.00000000000E+00 -0.00000000000E+00 -0.37616244605E+03  0.37616244605E+03  0.00000000000E+00 0. -1.
         24    2    1    2    0    0  0.32583613379E+02 -0.15704013805E+02 -0.81046874153E+01  0.90962005324E+02  0.83066795677E+02 0.  0.
         23    2    1    2    0    0  0.61503913739E+02 -0.86346092594E+01 -0.19227702649E+03  0.22023448972E+03  0.87609860546E+02 0.  0.
        -13    1    3    3    0    0  0.38824581818E+02  0.63568174150E+01  0.27933141542E+02  0.48249535515E+02  0.00000000000E+00 0.  1.
         14    1    3    3    0    0 -0.62409684397E+01 -0.22060831220E+02 -0.36037828958E+02  0.42712469809E+02  0.00000000000E+00 0. -1.
        -13    1    4    4    0    0  0.42153799544E+02  0.36506763425E+02 -0.78319093056E+02  0.96143470547E+02  0.00000000000E+00 0. -1.
         13    1    4    4    0    0  0.19350114196E+02 -0.45141372684E+02 -0.11395793344E+03  0.12409101918E+03  0.00000000000E+00 0.  1.
          1    1    1    2  501    0 -0.94087527118E+02  0.24338623064E+02 -0.10075763762E+03  0.13998904554E+03  0.00000000000E+00 0. -1.
<scales pt_clust_5="13000.00000" pt_clust_6="13000.00000" pt_clust_7="13000.00000" pt_clust_8="13000.00000" pt_clust_9="84.14973"></scales>
<clustering>
<clus scale="   83.067">  5  6 -1 -1</clus>
<clus scale="   87.610">  7  8 -1 -1</clus>
<clus scale="   90.600">  2  5  1 -1</clus>
<clus scale="   84.150">  1  9  2 -1</clus>
<clus scale="   84.150">  1  5  2 -1</clus>
</clustering>
</event>
<event>
 9    2  0.1723348E-004  0.8504719E+02  0.7546771E-02  0.1315900E+00
          2   -1    0    0  502    0 -0.00000000000E+00  0.00000000000E+00  0.11222101965E+04  0.11222101965E+04  0.00000000000E+00 0. -1.
         21   -1    0    0  501  502  0.00000000000E+00 -0.00000000000E+00 -0.38791065132E+02  0.38791065132E+02  0.00000000000E+00 0.  1.
         23    2    1    2    0    0 -0.96884877249E+01  0.22902234355E+02  0.47484399164E+03  0.48246251833E+03  0.81699975909E+02 0.  0.
         24    2    1    2    0    0  0.70488522640E+02  0.30354483399E+02  0.65000718385E+02  0.12898795059E+03  0.80763676987E+02 0.  0.
        -13    1    4    4    0    0  0.48085875862E+02  0.17298755067E+02 -0.78117000603E+01  0.51696431619E+02  0.00000000000E+00 0.  1.
         14    1    4    4    0    0  0.22402646778E+02  0.13055728332E+02  0.72812418446E+02  0.77291518971E+02  0.00000000000E+00 0. -1.
        -11    1    3    3    0    0  0.27017145021E+02  0.37201184753E+02  0.24918652548E+03  0.25339253887E+03  0.00000000000E+00 0. -1.
         11    1    3    3    0    0 -0.36705632746E+02 -0.14298950398E+02  0.22565746615E+03  0.22906997946E+03  0.00000000000E+00 0.  1.
          1    1    1    2  501    0 -0.60800034915E+02 -0.53256717754E+02  0.54357442131E+03  0.54955079268E+03  0.00000000000E+00 0. -1.
<scales pt_clust_5="13000.00000" pt_clust_6="13000.00000" pt_clust_7="13000.00000" pt_clust_8="13000.00000" pt_clust_9="80.82654"></scales>
<clustering>
<clus scale="   80.764">  5  6 -1 -1</clus>
<clus scale="   80.827">  2  9  1 -1</clus>
<clus scale="   81.700">  7  8 -1 -1</clus>
<clus scale="   84.148">  2  5  1 -1</clus>
<clus scale="   80.827">  2  5  1 -1</clus>
</clustering>
</event>
<event>
 9    2  0.1723348E-004  0.1175727E+03  0.7546771E-02  0.1264271E+00
         21   -1    0    0  501  502  0.00000000000E+00  0.00000000000E+00  0.91943385124E+02  0.91943385124E+02  0.00000000000E+00 0. -1.
          2   -1    0    0  502    0 -0.00000000000E+00 -0.00000000000E+00 -0.29342040465E+03  0.29342040465E+03  0.00000000000E+00 0. -1.
         24    2    1    2    0    0  0.20165417549E+02 -0.21186845159E+01 -0.14363628228E+03  0.16628813765E+03  0.81297172441E+02 0.  0.
         23    2    1    2    0    0  0.65620901714E+02  0.34185489989E+00  0.46792692353E+01  0.11290973996E+03  0.91763250869E+02 0.  0.
        -13    1    3    3    0    0 -0.26437993565E+00 -0.38421507049E+02 -0.93613004532E+02  0.10119128776E+03  0.00000000000E+00 0.  1.
         14    1    3    3    0    0  0.20429797485E+02  0.36302822533E+02 -0.50023277747E+02  0.65096849890E+02  0.00000000000E+00 0. -1.
        -11    1    4    4    0    0  0.13494032672E+02 -0.42691615228E+02 -0.30334296826E+01  0.44876103041E+02  0.00000000000E+00 0.  1.
         11    1    4    4    0    0  0.52126869041E+02  0.43033470128E+02  0.77126989179E+01  0.68033636915E+02  0.00000000000E+00 0. -1.
          1    1    1    2  501    0 -0.85786319263E+02  0.17768296160E+01 -0.62520006485E+02  0.10616591217E+03  0.00000000000E+00 0. -1.
<scales pt_clust_5="13000.00000" pt_clust_6="13000.00000" pt_clust_7="13000.00000" pt_clust_8="13000.00000" pt_clust_9="73.50403"></scales>
<clustering>
<clus scale="   81.297">  5  6 -1 -1</clus>
<clus scale="   83.788">  2  5  1 -1</clus>
<clus scale="   73.504">  1  9  2 -1</clus>
<clus scale="   91.763">  7  8 -1 -1</clus>
<clus scale="   73.504">  1  5  2 -1</clus>
</clustering>
</event>
<event>
 9    2  0.1723348E-004  0.3548015E+03  0.7546771E-02  0.1060661E+00
         -1   -1    0    0    0  501 -0.00000000000E+00  0.00000000000E+00  0.91575382256E+02  0.91575382256E+02  0.00000000000E+00 0.  1.
         21   -1    0    0  501  502  0.00000000000E+00 -0.00000000000E+00 -0.11493366114E+04  0.11493366114E+04  0.00000000000E+00 0.  1.
         24    2    1    2    0    0  0.72152261039E+00 -0.93804356939E+02 -0.14196317458E+03  0.18769295524E+03  0.79216946000E+02 0.  0.
         23    2    1    2    0    0 -0.54696571163E+02 -0.19256761000E+03 -0.49394036069E+03  0.54049482094E+03  0.89908688245E+02 0.  0.
        -11    1    3    3    0    0 -0.35630113092E+02 -0.47582239332E+02 -0.46074196365E+02  0.75209082095E+02  0.00000000000E+00 0.  1.
         12    1    3    3    0    0  0.36351635703E+02 -0.46222117607E+02 -0.95888978213E+02  0.11248387314E+03  0.00000000000E+00 0. -1.
        -13    1    4    4    0    0 -0.23822266926E+02  0.46079149293E+00 -0.59916219016E+02  0.64479966125E+02  0.00000000000E+00 0. -1.
         13    1    4    4    0    0 -0.30874304237E+02 -0.19302840149E+03 -0.43402414168E+03  0.47601485481E+03  0.00000000000E+00 0.  1.
         -2    1    1    2    0  502  0.53975048553E+02  0.28637196694E+03 -0.42185769389E+03  0.51272421750E+03  0.00000000000E+00 0.  1.
<scales pt_clust_5="13000.00000" pt_clust_6="13000.00000" pt_clust_7="13000.00000" pt_clust_8="13000.00000" pt_clust_9="291.41430"></scales>
<clustering>
<clus scale="   79.217">  5  6 -1 -1</clus>
<clus scale="   89.909">  7  8 -1 -1</clus>
<clus scale="  113.650">  5  7 -1 -1</clus>
<clus scale="  291.414">  2  9  1 -1</clus>
<clus scale="  291.414">  2  5  1 -1</clus>
</clustering>
</event>
<event>
 9    2  0.1723348E-004  0.1146058E+03  0.7546771E-02  0.1261145E+00
         21   -1    0    0  501  502  0.00000000000E+00  0.00000000000E+00  0.22618346044E+03  0.22618346044E+03  0.00000000000E+00 0. -1.
          2   -1    0    0  502    0 -0.00000000000E+00 -0.00000000000E+00 -0.22973086700E+03  0.22973086700E+03  0.00000000000E+00 0. -1.
         24    2    1    2    0    0 -0.60687275455E+02 -0.11824598613E+02 -0.17252975972E+03  0.19973202630E+03  0.79395200154E+02 0.  0.
         23    2    1    2    0    0  0.18994717018E+02 -0.13918267392E+02  0.28644907652E+02  0.10753653702E+03  0.10094086694E+03 0.  0.
        -11    1    3    3    0    0 -0.11336510213E+01  0.28392145866E+02 -0.56700029859E+02  0.63421546004E+02  0.00000000000E+00 0.  1.
         12    1    3    3    0    0 -0.59553624434E+02 -0.40216744479E+02 -0.11582972986E+03  0.13631048030E+03  0.00000000000E+00 0. -1.
        -11    1    4    4    0    0  0.34094863862E+01 -0.42721794120E+02  0.51945881019E+02  0.67343528606E+02  0.00000000000E+00 0. -1.
         11    1    4    4    0    0  0.15585230632E+02  0.28803526728E+02 -0.23300973366E+02  0.40193008418E+02  0.00000000000E+00 0.  1.
          1    1    1    2  501    0  0.41692558437E+02  0.25742866005E+02  0.14033744551E+03  0.14864576412E+03  0.00000000000E+00 0. -1.
<scales pt_clust_5="13000.00000" pt_clust_6="13000.00000" pt_clust_7="13000.00000" pt_clust_8="13000.00000" pt_clust_9="48.99964"></scales>
<clustering>
<clus scale="   49.000">  1  9  2 -1</clus>
<clus scale="   79.395">  5  6 -1 -1</clus>
<clus scale="   96.172">  2  5  1 -1</clus>
<clus scale="  100.941">  7  8 -1 -1</clus>
<clus scale="   49.000">  1  5  2 -1</clus>
</clustering>
</event>
<event>
 9    2  0.1723348E-004  0.1016931E+03  0.7546771E-02  0.1282365E+00
          2   -1    0    0  502    0 -0.00000000000E+00  0.00000000000E+00  0.64671356513E+03  0.64671356513E+03  0.00000000000E+00 0. -1.
         21   -1    0    0  501  502  0.00000000000E+00 -0.00000000000E+00 -0.44167699387E+02  0.44167699387E+02  0.00000000000E+00 0. -1.
         24    2    1    2    0    0 -0.25050207988E+02 -0.40397879921E+02  0.54376046908E+03  0.55149320776E+03  0.78802340355E+02 0.  0.
         23    2    1    2    0    0  0.38602757310E+02  0.19017989582E+02  0.53190716865E+02  0.11346371017E+03  0.90514663814E+02 0.  0.
        -11    1    3    3    0    0  0.83679221570E+01  0.19240795395E+02  0.79310320562E+02  0.82038754722E+02  0.00000000000E+00 0.  1.
         12    1    3    3    0    0 -0.33418130144E+02 -0.59638675316E+02  0.46445014852E+03  0.46945445304E+03  0.00000000000E+00 0. -1.
        -13    1    4    4    0    0  0.27078448240E+02  0.39928566706E+02  0.69460591493E+02  0.84571310554E+02  0.00000000000E+00 0.  1.
         13    1    4    4    0    0  0.11524309070E+02 -0.20910577125E+02 -0.16269874627E+02  0.28892399617E+02  0.00000000000E+00 0. -1.
          1    1    1    2  501    0 -0.13552549322E+02  0.21379890339E+02  0.55946797973E+01  0.25924346589E+02  0.00000000000E+00 0. -1.
<scales pt_clust_5="13000.00000" pt_clust_6="13000.00000" pt_clust_7="13000.00000" pt_clust_8="13000.00000" pt_clust_9="25.31346"></scales>
<clustering>
<clus scale="   25.313">  2  9  1 -1</clus>
<clus scale="   78.802">  5  6 -1 -1</clus>
<clus scale="   90.515">  7  8 -1 -1</clus>
<clus scale="   91.424">  1  5  2 -1</clus>
<clus scale="   25.313">  2  5  1 -1</clus>
</clustering>
</event>
<event>
 9    2  0.1723348E-004  0.1415067E+03  0.7546771E-02  0.1213612E+00
          2   -1    0    0  502    0 -0.00000000000E+00  0.00000000000E+00  0.79174496107E+03  0.79174496107E+03  0.00000000000E+00 0. -1.
         21   -1    0    0  501  502  0.00000000000E+00 -0.00000000000E+00 -0.96403478210E+02  0.96403478210E+02  0.00000000000E+00 0.  1.
         23    2    1    2    0    0  0.47283418532E+01 -0.97248708639E+02  0.29742805014E+03  0.32589262248E+03  0.90900428090E+02 0.  0.
         24    2    1    2    0    0 -0.69610834285E+02  0.16192871351E+03  0.46462340275E+02  0.19906012405E+03  0.79997546298E+02 0.  0.
        -11    1    4    4    0    0 -0.18268008127E+02  0.10823359482E+03 -0.30060376305E+01  0.10980558926E+03  0.00000000000E+00 0.  1.
         12    1    4    4    0    0 -0.51342826158E+02  0.53695118684E+02  0.49468377905E+02  0.89254534792E+02  0.00000000000E+00 0. -1.
        -11    1    3    3    0    0 -0.39189204572E+02 -0.67431904155E+02  0.14759836563E+03  0.16693751223E+03  0.00000000000E+00 0.  1.
         11    1    3    3    0    0  0.43917546425E+02 -0.29816804484E+02  0.14982968451E+03  0.15895511025E+03  0.00000000000E+00 0. -1.
          1    1    1    2  501    0  0.64882492431E+02 -0.64680004870E+02  0.35145109244E+03  0.36319569275E+03  0.00000000000E+00 0. -1.
<scales pt_clust_5="13000.00000" pt_clust_6="13000.00000" pt_clust_7="13000.00000" pt_clust_8="13000.00000" pt_clust_9="91.61468"></scales>
<clustering>
<clus scale="   79.998">  5  6 -1 -1</clus>
<clus scale="   90.900">  7  8 -1 -1</clus>
<clus scale="   91.615">  2  9  1 -1</clus>
<clus scale="  134.762">  2  5  1 -1</clus>
<clus scale="   91.615">  2  5  1 -1</clus>
</clustering>
</event>
<event>
 9    2  0.1723348E-004  0.1045254E+03  0.7546771E-02  0.1276398E+00
          2   -1    0    0  502    0 -0.00000000000E+00  0.00000000000E+00  0.26792316522E+03  0.26792316522E+03  0.00000000000E+00 0. -1.
         21   -1    0    0  501  502  0.00000000000E+00 -0.00000000000E+00 -0.73756564433E+02  0.73756564433E+02  0.00000000000E+00 0.  1.
         23    2    1    2    0    0  0.50903856278E+02  0.21660113077E+02  0.20305306629E+03  0.22969798276E+03  0.92033974567E+02 0.  0.
         24    2    1    2    0    0 -0.27317930154E+02 -0.14318831669E+02 -0.80109456693E+00  0.85990141567E+02  0.80264341061E+02 0.  0.
        -11    1    4    4    0    0 -0.17976328604E+02 -0.36043210094E+02 -0.28670860243E+02  0.49439656259E+02  0.00000000000E+00 0.  1.
         12    1    4    4    0    0 -0.93416015502E+01  0.21724378425E+02  0.27869765676E+02  0.36550485309E+02  0.00000000000E+00 0. -1.
        -11    1    3    3    0    0  0.69640578667E+01 -0.33332555671E+02  0.43003864745E+02  0.54853347687E+02  0.00000000000E+00 0.  1.
         11    1    3    3    0    0  0.43939798411E+02  0.54992668748E+02  0.16004920154E+03  0.17484463508E+03  0.00000000000E+00 0. -1.
          1    1    1    2  501    0 -0.23585926124E+02 -0.73412814080E+01 -0.80853709369E+01  0.25991605318E+02  0.00000000000E+00 0. -1.
<scales pt_clust_5="13000.00000" pt_clust_6="13000.00000" pt_clust_7="13000.00000" pt_clust_8="13000.00000" pt_clust_9="24.70203"></scales>
<clustering>
<clus scale="   24.702">  2  9  1 -1</clus>
<clus scale="   80.264">  5  6 -1 -1</clus>
<clus scale="   92.034">  7  8 -1 -1</clus>
<clus scale="   94.327">  2  5  1 -1</clus>
<clus scale="   24.702">  2  5  1 -1</clus>
</clustering>
</event>
<event>
 9    2  0.1723348E-004  0.3047860E+03  0.7546771E-02  0.1083408E+00
          2   -1    0    0  502    0 -0.00000000000E+00  0.00000000000E+00  0.21717531193E+04  0.21717531193E+04  0.00000000000E+00 0. -1.
         21   -1    0    0  501  502  0.00000000000E+00 -0.00000000000E+00 -0.51188276954E+02  0.51188276954E+02  0.00000000000E+00 0.  1.
         23    2    1    2    0    0 -0.28105715081E+03 -0.15038783271E+02  0.11111765887E+04  0.11501748889E+04  0.94707848713E+02 0.  0.
         24    2    1    2    0    0  0.30235417814E+03 -0.27057615122E+02  0.83237157485E+03  0.88957105250E+03  0.79649577860E+02 0.  0.
        -13    1    4    4    0    0  0.29440301448E+03 -0.19244830851E+02  0.74182158434E+03  0.79833749845E+03  0.00000000000E+00 0.  1.
         14    1    4    4    0    0  0.79511636519E+01 -0.78127842717E+01  0.90549990513E+02  0.91233554043E+02  0.00000000000E+00 0. -1.
        -13    1    3    3    0    0 -0.16679527442E+03 -0.43811914765E+01  0.46831074700E+03  0.49714667269E+03  0.00000000000E+00 0.  1.
         13    1    3    3    0    0 -0.11426187638E+03 -0.10657591795E+02  0.64286584175E+03  0.65302821619E+03  0.00000000000E+00 0. -1.
          1    1    1    2  501    0 -0.21297027328E+02  0.42096398394E+02  0.17701667871E+03  0.18319545483E+03  0.00000000000E+00 0. -1.
<scales pt_clust_5="13000.00000" pt_clust_6="13000.00000" pt_clust_7="13000.00000" pt_clust_8="13000.00000" pt_clust_9="47.17703"></scales>
<clustering>
<clus scale="   47.177">  2  9  1 -1</clus>
<clus scale="   79.650">  5  6 -1 -1</clus>
<clus scale="   94.708">  7  8 -1 -1</clus>
<clus scale="  300.448">  2  5  1 -1</clus>
<clus scale="   47.177">  2  5  1 -1</clus>
</clustering>
</event>
<event>
 9    2  0.1723348E-004  0.1203948E+03  0.7546771E-02  0.1253394E+00
         21   -1    0    0  501  502  0.00000000000E+00  0.00000000000E+00  0.57486997055E+03  0.57486997055E+03  0.00000000000E+00 0.  1.
          2   -1    0    0  502    0 -0.00000000000E+00 -0.00000000000E+00 -0.57855604647E+02  0.57855604647E+02  0.00000000000E+00 0. -1.
         24    2    1    2    0    0 -0.50950350129E+02 -0.42788664037E+02  0.81389129811E+01  0.94479186840E+02  0.66582782257E+02 0.  0.
         23    2    1    2    0    0  0.65828334705E+02  0.75064679330E+02  0.40383613152E+03  0.42735745911E+03  0.97891271344E+02 0.  0.
        -11    1    3    3    0    0 -0.83835731939E+00 -0.39883438629E+02 -0.99651413978E+01  0.41118068570E+02  0.00000000000E+00 0.  1.
         12    1    3    3    0    0 -0.50111992810E+02 -0.29052254078E+01  0.18104054379E+02  0.53361118270E+02  0.00000000000E+00 0. -1.
        -13    1    4    4    0    0  0.11017946546E+02  0.26826086258E+02  0.16843414328E+02  0.33537063918E+02  0.00000000000E+00 0. -1.
         13    1    4    4    0    0  0.54810388158E+02  0.48238593072E+02  0.38699271719E+03  0.39382039519E+03  0.00000000000E+00 0.  1.
          1    1    1    2  501    0 -0.14877984575E+02 -0.32276015293E+02  0.10503932141E+03  0.11088892925E+03  0.00000000000E+00 0. -1.
<scales pt_clust_5="13000.00000" pt_clust_6="13000.00000" pt_clust_7="13000.00000" pt_clust_8="13000.00000" pt_clust_9="35.54006"></scales>
<clustering>
<clus scale="   35.540">  1  9  2 -1</clus>
<clus scale="   66.583">  5  6 -1 -1</clus>
<clus scale="   96.672">  2  5  1 -1</clus>
<clus scale="   97.891">  7  8 -1 -1</clus>
<clus scale="   35.540">  1  5  2 -1</clus>
</clustering>
</event>
<event>
 9    2  0.1723348E-004  0.1484788E+03  0.7546771E-02  0.1208659E+00
         21   -1    0    0  501  502  0.00000000000E+00  0.00000000000E+00  0.41312059029E+03  0.41312059029E+03  0.00000000000E+00 0. -1.
         -3   -1    0    0    0  501 -0.00000000000E+00 -0.00000000000E+00 -0.11456669773E+03  0.11456669773E+03  0.00000000000E+00 0.  1.
         24    2    1    2    0    0  0.91923177540E+02 -0.43181042807E+02  0.13312443848E+03  0.18550413026E+03  0.79844806934E+02 0.  0.
         23    2    1    2    0    0 -0.10572007497E+03  0.12103994886E+02  0.22639272710E+03  0.27237873139E+03  0.10776486203E+03 0.  0.
        -11    1    3    3    0    0  0.46808604212E+01 -0.41190330894E+02  0.35669685133E+02  0.54688940847E+02  0.00000000000E+00 0.  1.
         12    1    3    3    0    0  0.87242317118E+02 -0.19907119129E+01  0.97454753347E+02  0.13081518941E+03  0.00000000000E+00 0. -1.
        -11    1    4    4    0    0 -0.19678977703E+02 -0.33710004120E+02  0.19415054643E+02  0.43595537478E+02  0.00000000000E+00 0.  1.
         11    1    4    4    0    0 -0.86041097262E+02  0.45813999006E+02  0.20697767245E+03  0.22878319391E+03  0.00000000000E+00 0. -1.
         -4    1    1    2    0  502  0.13796897425E+02  0.31077047920E+02 -0.60963273013E+02  0.69804426382E+02  0.00000000000E+00 0.  1.
<scales pt_clust_5="13000.00000" pt_clust_6="13000.00000" pt_clust_7="13000.00000" pt_clust_8="13000.00000" pt_clust_9="34.00204"></scales>
<clustering>
<clus scale="   34.002">  1  9  2 -1</clus>
<clus scale="   79.845">  5  6 -1 -1</clus>
<clus scale="  107.765">  7  8 -1 -1</clus>
<clus scale="  129.645">  2  5  1 -1</clus>
<clus scale="   34.002">  1  5  2 -1</clus>
</clustering>
</event>
<event>
 9    2  0.1723348E-004  0.2701898E+03  0.7546771E-02  0.1139292E+00
         21   -1    0    0  501  502  0.00000000000E+00  0.00000000000E+00  0.15003095198E+03  0.15003095198E+03  0.00000000000E+00 0. -1.
          2   -1    0    0  502    0 -0.00000000000E+00 -0.00000000000E+00 -0.66732506956E+03  0.66732506956E+03  0.00000000000E+00 0. -1.
         24    2    1    2    0    0  0.53814784068E+02  0.39014792248E+02 -0.90738880327E+02  0.13813665662E+03  0.80187321328E+02 0.  0.
         23    2    1    2    0    0  0.11632965117E+02 -0.27135500669E+03 -0.22950124442E+03  0.36761760110E+03  0.93289945403E+02 0.  0.
        -11    1    3    3    0    0  0.37876085818E+02  0.32076711919E+02 -0.10468181955E+03  0.11585247805E+03  0.00000000000E+00 0.  1.
         12    1    3    3    0    0  0.15938698250E+02  0.69380803284E+01  0.13942939227E+02  0.22284178577E+02  0.00000000000E+00 0. -1.
        -11    1    4    4    0    0 -0.37053182706E+02 -0.12221623709E+03 -0.78717673855E+02  0.15002072902E+03  0.00000000000E+00 0.  1.
         11    1    4    4    0    0  0.48686147822E+02 -0.14913876960E+03 -0.15078357057E+03  0.21759687209E+03  0.00000000000E+00 0. -1.
          1    1    1    2  501    0 -0.65447749185E+02  0.23234021445E+03 -0.19705399283E+03  0.31160176382E+03  0.00000000000E+00 0. -1.
<scales pt_clust_5="13000.00000" pt_clust_6="13000.00000" pt_clust_7="13000.00000" pt_clust_8="13000.00000" pt_clust_9="253.57346"></scales>
<clustering>
<clus scale="   80.187">  5  6 -1 -1</clus>
<clus scale="   93.290">  7  8 -1 -1</clus>
<clus scale="  104.155">  2  5  1 -1</clus>
<clus scale="  253.573">  1  9  2 -1</clus>
<clus scale="  253.573">  1  5  2 -1</clus>
</clustering>
</event>
<event>
 9    2  0.1723348E-004  0.2107061E+03  0.7546771E-02  0.1142180E+00
          2   -1    0    0  502    0 -0.00000000000E+00  0.00000000000E+00  0.90227124892E+03  0.90227124892E+03  0.00000000000E+00 0. -1.
         21   -1    0    0  501  502  0.00000000000E+00 -0.00000000000E+00 -0.21563352824E+03  0.21563352824E+03  0.00000000000E+00 0. -1.
         23    2    1    2    0    0 -0.13652892831E+03 -0.12546738716E+03  0.74458583134E+03  0.77324113458E+03  0.95454588503E+02 0.  0.
         24    2    1    2    0    0  0.15903758601E+03  0.12532632638E+03  0.58505914935E+02  0.22605420094E+03  0.81718528066E+02 0.  0.
        -13    1    4    4    0    0  0.44460146256E+02  0.25747021745E+02 -0.20024744656E+02  0.55141673282E+02  0.00000000000E+00 0.  1.
         14    1    4    4    0    0  0.11457743976E+03  0.99579304635E+02  0.78530659591E+02  0.17091252765E+03  0.00000000000E+00 0. -1.
        -13    1    3    3    0    0 -0.11938044181E+03 -0.76840087995E+02  0.65187849427E+03  0.66715939647E+03  0.00000000000E+00 0. -1.
         13    1    3    3    0    0 -0.17148486494E+02 -0.48627299161E+02  0.92707337073E+02  0.10608173811E+03  0.00000000000E+00 0.  1.
          1    1    1    2  501    0 -0.22508657706E+02  0.14106077662E+00 -0.11645402560E+03  0.11860944165E+03  0.00000000000E+00 0. -1.
<scales pt_clust_5="13000.00000" pt_clust_6="13000.00000" pt_clust_7="13000.00000" pt_clust_8="13000.00000" pt_clust_9="22.50910"></scales>
<clustering>
<clus scale="   22.509">  2  9  1 -1</clus>
<clus scale="   81.719">  5  6 -1 -1</clus>
<clus scale="   95.455">  7  8 -1 -1</clus>
<clus scale="  204.850">  2  5  1 -1</clus>
<clus scale="   22.509">  2  5  1 -1</clus>
</clustering>
</event>
<event>
 9    2  0.1723348E-004  0.1017627E+03  0.7546771E-02  0.1283815E+00
          2   -1    0    0  502    0 -0.00000000000E+00  0.00000000000E+00  0.12322006599E+03  0.12322006599E+03  0.00000000000E+00 0. -1.
         21   -1    0    0  501  502  0.00000000000E+00 -0.00000000000E+00 -0.14662814137E+03  0.14662814137E+03  0.00000000000E+00 0.  1.
         24    2    1    2    0    0 -0.51016098541E+02 -0.31942691686E+02  0.64022541647E+02  0.12008505698E+03  0.81844713989E+02 0.  0.
         23    2    1    2    0    0  0.39229751138E+02  0.51632884757E+02 -0.87491896516E+02  0.12681482924E+03  0.64978771891E+02 0.  0.
        -13    1    3    3    0    0  0.61525398607E+01 -0.28785320683E+02 -0.55790757822E+01  0.29959548063E+02  0.00000000000E+00 0.  1.
         14    1    3    3    0    0 -0.57168638402E+02 -0.31573710030E+01  0.69601617429E+02  0.90125508915E+02  0.00000000000E+00 0. -1.
        -11    1    4    4    0    0  0.26424154878E+02 -0.87265759854E+01 -0.41023462320E+02  0.49571297645E+02  0.00000000000E+00 0.  1.
         11    1    4    4    0    0  0.12805596260E+02  0.60359460742E+02 -0.46468434196E+02  0.77243531595E+02  0.00000000000E+00 0. -1.
          1    1    1    2  501    0  0.11786347403E+02 -0.19690193071E+02  0.61279491107E-01  0.22948321146E+02  0.00000000000E+00 0. -1.
<scales pt_clust_5="13000.00000" pt_clust_6="13000.00000" pt_clust_7="13000.00000" pt_clust_8="13000.00000" pt_clust_9="22.94825"></scales>
<clustering>
<clus scale="   22.948">  2  9  1 -1</clus>
<clus scale="   64.979">  7  8 -1 -1</clus>
<clus scale="   81.845">  5  6 -1 -1</clus>
<clus scale="   88.766">  2  7  1 -1</clus>
<clus scale="   22.948">  2  5  1 -1</clus>
</clustering>
</event>
<event>
 9    2  0.1723348E-004  0.1043067E+03  0.7546771E-02  0.1281375E+00
         21   -1    0    0  501  502  0.00000000000E+00  0.00000000000E+00  0.42670138601E+02  0.42670138601E+02  0.00000000000E+00 0. -1.
         -1   -1    0    0    0  501 -0.00000000000E+00 -0.00000000000E+00 -0.37417673714E+03  0.37417673714E+03  0.00000000000E+00 0.  1.
         24    2    1    2    0    0  0.21271855580E+02  0.24101902170E+02 -0.24141900542E+03  0.25664358712E+03  0.80928370211E+02 0.  0.
         23    2    1    2    0    0  0.51270416360E+01 -0.31268067552E+02 -0.66709570630E+02  0.12422013095E+03  0.99882408438E+02 0.  0.
        -13    1    3    3    0    0  0.10635512671E+02  0.23553472978E+02 -0.14813467489E+02  0.29787900868E+02  0.00000000000E+00 0.  1.
         14    1    3    3    0    0  0.10636342909E+02  0.54842919272E+00 -0.22660553793E+03  0.22685568625E+03  0.00000000000E+00 0. -1.
        -11    1    4    4    0    0 -0.35264251670E+02 -0.18322474795E+02 -0.71228869467E+02  0.81564896702E+02  0.00000000000E+00 0.  1.
         11    1    4    4    0    0  0.40391293306E+02 -0.12945592757E+02  0.45192988378E+01  0.42655234248E+02  0.00000000000E+00 0. -1.
         -2    1    1    2    0  502 -0.26398897216E+02  0.71661653814E+01 -0.23378022498E+02  0.35983157676E+02  0.00000000000E+00 0.  1.
<scales pt_clust_5="13000.00000" pt_clust_6="13000.00000" pt_clust_7="13000.00000" pt_clust_8="13000.00000" pt_clust_9="27.35426"></scales>
<clustering>
<clus scale="   27.354">  1  9  2 -1</clus>
<clus scale="   80.928">  5  6 -1 -1</clus>
<clus scale="   86.330">  2  5  1 -1</clus>
<clus scale="   99.882">  7  8 -1 -1</clus>
<clus scale="   27.354">  1  5  2 -1</clus>
</clustering>
</event>
<event>
 9    2  0.1723348E-004  0.1912986E+03  0.7546771E-02  0.1188948E+00
         21   -1    0    0  501  502  0.00000000000E+00  0.00000000000E+00  0.56015987090E+02  0.56015987090E+02  0.00000000000E+00 0. -1.
          2   -1    0    0  502    0 -0.00000000000E+00 -0.00000000000E+00 -0.16203850050E+04  0.16203850050E+04  0.00000000000E+00 0. -1.
         23    2    1    2    0    0  0.22340867405E+01  0.78023430177E+01 -0.28522047533E+03  0.30002925460E+03  0.92741395114E+02 0.  0.
         24    2    1    2    0    0  0.89530118903E+02  0.14796214806E+03 -0.17787204657E+03  0.26035508583E+03  0.78980164082E+02 0.  0.
        -13    1    4    4    0    0  0.40850202568E+02  0.13768156465E+02 -0.66716008202E+02  0.79431271755E+02  0.00000000000E+00 0.  1.
         14    1    4    4    0    0  0.48679916335E+02  0.13419399159E+03 -0.11115603836E+03  0.18092381407E+03  0.00000000000E+00 0. -1.
        -11    1    3    3    0    0 -0.40350344741E+02  0.96978903084E+01 -0.20529239858E+03  0.20944490519E+03  0.00000000000E+00 0.  1.
         11    1    3    3    0    0  0.42584431482E+02 -0.18955472908E+01 -0.79928076751E+02  0.90584349406E+02  0.00000000000E+00 0. -1.
          1    1    1    2  501    0 -0.91764205644E+02 -0.15576449107E+03 -0.11012764960E+04  0.11160166517E+04  0.00000000000E+00 0. -1.
<scales pt_clust_5="13000.00000" pt_clust_6="13000.00000" pt_clust_7="13000.00000" pt_clust_8="13000.00000" pt_clust_9="174.23348"></scales>
<clustering>
<clus scale="   78.980">  5  6 -1 -1</clus>
<clus scale="   92.741">  7  8 -1 -1</clus>
<clus scale="   93.096">  2  7  1 -1</clus>
<clus scale="  174.233">  1  9  2 -1</clus>
<clus scale="  174.233">  1  5  2 -1</clus>
</clustering>
</event>
<event>
 9    2  0.1723348E-004  0.9071390E+02  0.7546771E-02  0.1307778E+00
          2   -1    0    0  502    0 -0.00000000000E+00  0.00000000000E+00  0.23873380570E+03  0.23873380570E+03  0.00000000000E+00 0. -1.
         21   -1    0    0  501  502  0.00000000000E+00 -0.00000000000E+00 -0.18412521936E+03  0.18412521936E+03  0.00000000000E+00 0. -1.
         24    2    1    2    0    0 -0.27983607870E+00  0.61954372238E+01  0.18168925338E+03  0.19866733013E+03  0.80120294046E+02 0.  0.
         23    2    1    2    0    0  0.18270746224E+02  0.29711854535E+01  0.30940672484E+01  0.92460296758E+02  0.90535546134E+02 0.  0.
        -13    1    3    3    0    0  0.63098736033E+01 -0.29131750143E+02  0.14213162144E+03  0.14522352146E+03  0.00000000000E+00 0.  1.
         14    1    3    3    0    0 -0.65897096820E+01  0.35327187367E+02  0.39557631933E+02  0.53443808670E+02  0.00000000000E+00 0. -1.
        -13    1    4    4    0    0 -0.11878251290E+02 -0.23323343264E+02 -0.30521479400E+02  0.40207361260E+02  0.00000000000E+00 0.  1.
         13    1    4    4    0    0  0.30148997515E+02  0.26294528718E+02  0.33615546649E+02  0.52252935498E+02  0.00000000000E+00 0. -1.
          1    1    1    2  501    0 -0.17990910146E+02 -0.91666226773E+01 -0.13017473428E+03  0.13173139817E+03  0.00000000000E+00 0. -1.
<scales pt_clust_5="13000.00000" pt_clust_6="13000.00000" pt_clust_7="13000.00000" pt_clust_8="13000.00000" pt_clust_9="20.19158"></scales>
<clustering>
<clus scale="   20.192">  2  9  1 -1</clus>
<clus scale="   80.120">  5  6 -1 -1</clus>
<clus scale="   80.322">  1  5  2 -1</clus>
<clus scale="   90.536">  7  8 -1 -1</clus>
<clus scale="   20.192">  2  5  1 -1</clus>
</clustering>
</event>
<event>
 9    2  0.1723348E-004  0.1290660E+03  0.7546771E-02  0.1234573E+00
         21   -1    0    0  501  502  0.00000000000E+00  0.00000000000E+00  0.68168107523E+02  0.68168107523E+02  0.00000000000E+00 0.  1.
          2   -1    0    0  502    0 -0.00000000000E+00 -0.00000000000E+00 -0.40568285146E+03  0.40568285146E+03  0.00000000000E+00 0. -1.
         23    2    1    2    0    0  0.69000180026E+02  0.44148208301E+02 -0.25726647702E+03  0.28567145955E+03  0.93338381509E+02 0.  0.
         24    2    1    2    0    0 -0.83666792698E+02 -0.64939944315E+02 -0.94281557126E+02  0.15912198667E+03  0.72204335457E+02 0.  0.
        -13    1    4    4    0    0 -0.23831010316E+02 -0.20671385153E+02  0.80749091908E+01  0.32564203894E+02  0.00000000000E+00 0.  1.
         14    1    4    4    0    0 -0.59835782382E+02 -0.44268559162E+02 -0.10235646632E+03  0.12655778277E+03  0.00000000000E+00 0. -1.
        -13    1    3    3    0    0  0.51129481223E+02 -0.69512102917E+01 -0.51498015451E+02  0.72901226121E+02  0.00000000000E+00 0.  1.
         13    1    3    3    0    0  0.17870698804E+02  0.51099418593E+02 -0.20576846157E+03  0.21277023343E+03  0.00000000000E+00 0. -1.
          1    1    1    2  501    0  0.14666612671E+02  0.20791736014E+02  0.14033290214E+02  0.29057512763E+02  0.00000000000E+00 0. -1.
<scales pt_clust_5="13000.00000" pt_clust_6="13000.00000" pt_clust_7="13000.00000" pt_clust_8="13000.00000" pt_clust_9="25.44417"></scales>
<clustering>
<clus scale="   25.444">  1  9  2 -1</clus>
<clus scale="   72.204">  5  6 -1 -1</clus>
<clus scale="   93.338">  7  8 -1 -1</clus>
<clus scale="  114.715">  1  5  2 -1</clus>
<clus scale="   25.444">  1  5  2 -1</clus>
</clustering>
</event>
<event>
 9    2  0.1723348E-004  0.9577862E+02  0.7546771E-02  0.1296393E+00
          4   -1    0    0  502    0 -0.00000000000E+00  0.00000000000E+00  0.28788560142E+03  0.28788560142E+03  0.00000000000E+00 0. -1.
         21   -1    0    0  501  502  0.00000000000E+00 -0.00000000000E+00 -0.89675220115E+02  0.89675220115E+02  0.00000000000E+00 0.  1.
         24    2    1    2    0    0  0.25574816997E+02 -0.30171949477E+01  0.17979415235E+03  0.19808217952E+03  0.79040735676E+02 0.  0.
         23    2    1    2    0    0 -0.41487575973E+02  0.51035783442E+02 -0.22044752316E+02  0.11470139489E+03  0.91348611008E+02 0.  0.
        -13    1    3    3    0    0  0.24224119616E+02  0.21995119787E+02  0.16657724108E+03  0.16976033256E+03  0.00000000000E+00 0.  1.
         14    1    3    3    0    0  0.13506973812E+01 -0.25012314735E+02  0.13216911267E+02  0.28321846960E+02  0.00000000000E+00 0. -1.
        -11    1    4    4    0    0 -0.51465957275E+02  0.13161318700E+01  0.12951472005E+02  0.53086887161E+02  0.00000000000E+00 0. -1.
         11    1    4    4    0    0  0.99783813017E+01  0.49719651572E+02 -0.34996224321E+02  0.61614507728E+02  0.00000000000E+00 0.  1.
          3    1    1    2  501    0  0.15912758977E+02 -0.48018588494E+02  0.40460981273E+02  0.64777247122E+02  0.00000000000E+00 0. -1.
<scales pt_clust_5="13000.00000" pt_clust_6="13000.00000" pt_clust_7="13000.00000" pt_clust_8="13000.00000" pt_clust_9="50.58659"></scales>
<clustering>
<clus scale="   50.587">  2  9  1 -1</clus>
<clus scale="   79.041">  5  6 -1 -1</clus>
<clus scale="   84.121">  1  5  2 -1</clus>
<clus scale="   91.349">  7  8 -1 -1</clus>
<clus scale="   50.587">  2  5  1 -1</clus>
</clustering>
</event>
<event>
 9    2  0.1723348E-004  0.2035966E+03  0.7546771E-02  0.1169582E+00
          4   -1    0    0  502    0 -0.00000000000E+00  0.00000000000E+00  0.17594636860E+03  0.17594636860E+03  0.00000000000E+00 0. -1.
         21   -1    0    0  501  502  0.00000000000E+00 -0.00000000000E+00 -0.58117249215E+03  0.58117249215E+03  0.00000000000E+00 0. -1.
         23    2    1    2    0    0 -0.32931660015E+02  0.72096130307E+02 -0.28565983552E+03  0.30961632155E+03  0.89321770597E+02 0.  0.
         24    2    1    2    0    0 -0.12732800403E+03  0.58394206934E+02  0.60924352615E+02  0.17311638905E+03  0.81456757865E+02 0.  0.
        -13    1    4    4    0    0 -0.19499958886E+02  0.16029370747E+02 -0.19658903023E+02  0.31994711925E+02  0.00000000000E+00 0.  1.
         14    1    4    4    0    0 -0.10782804515E+03  0.42364836186E+02  0.80583255638E+02  0.14112167712E+03  0.00000000000E+00 0. -1.
        -11    1    3    3    0    0  0.45394766298E+00  0.80496839593E+02 -0.23467206872E+03  0.24809459303E+03  0.00000000000E+00 0. -1.
         11    1    3    3    0    0 -0.33385607678E+02 -0.84007092866E+01 -0.50987766797E+02  0.61521728515E+02  0.00000000000E+00 0.  1.
          3    1    1    2  501    0  0.16025966405E+03 -0.13049033724E+03 -0.18049064064E+03  0.27438615015E+03  0.00000000000E+00 0. -1.
<scales pt_clust_5="13000.00000" pt_clust_6="13000.00000" pt_clust_7="13000.00000" pt_clust_8="13000.00000" pt_clust_9="186.59143"></scales>
<clustering>
<clus scale="   81.457">  5  6 -1 -1</clus>
<clus scale="   89.322">  7  8 -1 -1</clus>
<clus scale="  119.418">  1  7  2 -1</clus>
<clus scale="  186.591">  2  9  1 -1</clus>
<clus scale="  186.591">  2  5  1 -1</clus>
</clustering>
</event>
<event>
 9    2  0.1723348E-004  0.1783532E+03  0.7546771E-02  0.1184952E+00
         21   -1    0    0  501  502  0.00000000000E+00  0.00000000000E+00  0.13765454822E+03  0.13765454822E+03  0.00000000000E+00 0. -1.
          2   -1    0    0  502    0 -0.00000000000E+00 -0.00000000000E+00 -0.45176471971E+03  0.45176471971E+03  0.00000000000E+00 0. -1.
         23    2    1    2    0    0  0.75204193448E+02  0.36618936884E+02 -0.40173683038E+02  0.13180713070E+03  0.93608640861E+02 0.  0.
         24    2    1    2    0    0 -0.35748398967E+02  0.13355252658E+03 -0.22555374269E+03  0.27634996030E+03  0.79878559906E+02 0.  0.
        -13    1    4    4    0    0 -0.30107821810E+02  0.24242768118E+02 -0.20122500554E+02  0.43578753639E+02  0.00000000000E+00 0.  1.
         14    1    4    4    0    0 -0.56405771574E+01  0.10930975847E+03 -0.20543124214E+03  0.23277120666E+03  0.00000000000E+00 0. -1.
        -11    1    3    3    0    0  0.41623658739E+02  0.65569270844E+02 -0.10300393073E+02  0.78345110526E+02  0.00000000000E+00 0. -1.
         11    1    3    3    0    0  0.33580534709E+02 -0.28950333960E+02 -0.29873289964E+02  0.53462020174E+02  0.00000000000E+00 0.  1.
          1    1    1    2  501    0 -0.39455794481E+02 -0.17017146347E+03 -0.48382745766E+02  0.18126217693E+03  0.00000000000E+00 0. -1.
<scales pt_clust_5="13000.00000" pt_clust_6="13000.00000" pt_clust_7="13000.00000" pt_clust_8="13000.00000" pt_clust_9="159.46564"></scales>
<clustering>
<clus scale="   79.879">  5  6 -1 -1</clus>
<clus scale="   93.609">  7  8 -1 -1</clus>
<clus scale="  125.536">  2  7  1 -1</clus>
<clus scale="  159.466">  1  9  2 -1</clus>
<clus scale="  159.466">  1  5  2 -1</clus>
</clustering>
</event>
<event>
 9    2  0.1723348E-004  0.1104229E+03  0.7546771E-02  0.1267090E+00
         21   -1    0    0  501  502  0.00000000000E+00  0.00000000000E+00  0.98798581998E+02  0.98798581998E+02  0.00000000000E+00 0. -1.
          2   -1    0    0  502    0 -0.00000000000E+00 -0.00000000000E+00 -0.39852555431E+03  0.39852555431E+03  0.00000000000E+00 0. -1.
         23    2    1    2    0    0 -0.39168450816E+01  0.61341755785E+02 -0.15904443179E+03  0.19348936645E+03  0.91459559181E+02 0.  0.
         24    2    1    2    0    0  0.58230823321E+02 -0.55707617490E+02  0.39374260988E+02  0.11568003695E+03  0.73057313736E+02 0.  0.
        -11    1    4    4    0    0  0.12080543772E+02 -0.42460096237E+02 -0.11609811269E+02  0.45646325460E+02  0.00000000000E+00 0.  1.
         12    1    4    4    0    0  0.46150279549E+02 -0.13247521253E+02  0.50984072256E+02  0.70033711494E+02  0.00000000000E+00 0. -1.
        -11    1    3    3    0    0 -0.63810481984E+01 -0.21885590690E+02 -0.15576695283E+02  0.27610329442E+02  0.00000000000E+00 0.  1.
         11    1    3    3    0    0  0.24642031168E+01  0.83227346475E+02 -0.14346773651E+03  0.16587903700E+03  0.00000000000E+00 0. -1.
          1    1    1    2  501    0 -0.54313978239E+02 -0.56341382951E+01 -0.18005680151E+03  0.18815473291E+03  0.00000000000E+00 0. -1.
<scales pt_clust_5="13000.00000" pt_clust_6="13000.00000" pt_clust_7="13000.00000" pt_clust_8="13000.00000" pt_clust_9="54.60545"></scales>
<clustering>
<clus scale="   54.605">  1  9  2 -1</clus>
<clus scale="   73.057">  5  6 -1 -1</clus>
<clus scale="   91.460">  7  8 -1 -1</clus>
<clus scale="   95.738">  1  5  2 -1</clus>
<clus scale="   54.605">  1  5  2 -1</clus>
</clustering>
</event>
<event>
 9    2  0.1787587E-004  0.1530104E+03  0.7546771E-02  0.1197295E+00
         21   -1    0    0  501  502  0.00000000000E+00  0.00000000000E+00  0.57155374671E+03  0.57155374671E+03  0.00000000000E+00 0. -1.
          2   -1    0    0  502    0 -0.00000000000E+00 -0.00000000000E+00 -0.55551376605E+03  0.55551376605E+03  0.00000000000E+00 0. -1.
         24    2    1    2    0    0 -0.11856637696E+03 -0.22720533432E+02 -0.50774908094E+03  0.52955266100E+03  0.89681007976E+02 0.  0.
         23    2    1    2    0    0  0.18278654131E+03  0.49709427046E+01  0.46708323559E+03  0.51002297681E+03  0.92309576700E+02 0.  0.
        -11    1    3    3    0    0 -0.39712822094E+02 -0.70968118133E+01 -0.47425162150E+02  0.62262500605E+02  0.00000000000E+00 0.  1.
         12    1    3    3    0    0 -0.78853554870E+02 -0.15623721619E+02 -0.46032391879E+03  0.46729016040E+03  0.00000000000E+00 0. -1.
        -13    1    4    4    0    0  0.27841560703E+02 -0.73118436081E+01  0.16046872680E+02  0.32956299582E+02  0.00000000000E+00 0.  1.
         13    1    4    4    0    0  0.15494498060E+03  0.12282786313E+02  0.45103636291E+03  0.47706667723E+03  0.00000000000E+00 0. -1.
          1    1    1    2  501    0 -0.64220164341E+02  0.17749590727E+02  0.56705826013E+02  0.87491874953E+02  0.00000000000E+00 0. -1.
<scales pt_clust_5="13000.00000" pt_clust_6="13000.00000" pt_clust_7="13000.00000" pt_clust_8="13000.00000" pt_clust_9="66.62790"></scales>
<clustering>
<clus scale="   66.628">  1  9  2 -1</clus>
<clus scale="   89.681">  5  6 -1 -1</clus>
<clus scale="   92.310">  7  8 -1 -1</clus>
<clus scale="  151.439">  2  5  1 -1</clus>
<clus scale="   66.628">  1  5  2 -1</clus>
</clustering>
</event>
<event>
 9    2  0.1723348E-004  0.1195864E+03  0.7546771E-02  0.1248126E+00
         21   -1    0    0  501  502  0.00000000000E+00  0.00000000000E+00  0.18331783646E+03  0.18331783646E+03  0.00000000000E+00 0.  1.
         -1   -1    0    0    0  501 -0.00000000000E+00 -0.00000000000E+00 -0.19537502631E+03  0.19537502631E+03  0.00000000000E+00 0.  1.
         24    2    1    2    0    0  0.70669569190E+02  0.79896618273E+01 -0.85840832027E+02  0.13528302468E+03  0.76647411031E+02 0.  0.
         23    2    1    2    0    0 -0.11239393992E+03 -0.49572992396E+02  0.96277814147E+02  0.18035363882E+03  0.90377752962E+02 0.  0.
        -11    1    3    3    0    0  0.59111706785E+02 -0.20198764815E+02 -0.84107796824E+02  0.10476786466E+03  0.00000000000E+00 0.  1.
         12    1    3    3    0    0  0.11557862405E+02  0.28188426642E+02 -0.17330352035E+01  0.30515160018E+02  0.00000000000E+00 0. -1.
        -13    1    4    4    0    0 -0.23357571665E+02 -0.18654611651E+02 -0.15882362732E+02  0.33849965080E+02  0.00000000000E+00 0. -1.
         13    1    4    4    0    0 -0.89036368258E+02 -0.30918380745E+02  0.11216017688E+03  0.14650367374E+03  0.00000000000E+00 0.  1.
         -2    1    1    2    0  502  0.41724370733E+02  0.41583330569E+02 -0.22494171975E+02  0.63056199276E+02  0.00000000000E+00 0.  1.
<scales pt_clust_5="13000.00000" pt_clust_6="13000.00000" pt_clust_7="13000.00000" pt_clust_8="13000.00000" pt_clust_9="58.90755"></scales>
<clustering>
<clus scale="   58.908">  1  9  2 -1</clus>
<clus scale="   76.647">  5  6 -1 -1</clus>
<clus scale="   90.378">  7  8 -1 -1</clus>
<clus scale="  109.579">  2  5  1 -1</clus>
<clus scale="   58.908">  1  5  2 -1</clus>
</clustering>
</event>
<event>
 9    2  0.1723348E-004  0.1603262E+03  0.7546771E-02  0.1216683E+00
         21   -1    0    0  501  502  0.00000000000E+00  0.00000000000E+00  0.23064481084E+03  0.23064481084E+03  0.00000000000E+00 0. -1.
         -1   -1    0    0    0  501 -0.00000000000E+00 -0.00000000000E+00 -0.30306527050E+03  0.30306527050E+03  0.00000000000E+00 0.  1.
         24    2    1    2    0    0 -0.22879214236E+02  0.22852156207E+02 -0.30519432682E+02  0.92035639667E+02  0.80581906842E+02 0.  0.
         23    2    1    2    0    0 -0.32935309975E+02  0.12352935906E+03  0.13386185238E+03  0.20622721004E+03  0.90919906758E+02 0.  0.
        -13    1    3    3    0    0 -0.37441268798E+02  0.41074073671E+02 -0.38242930837E+02  0.67464434306E+02  0.00000000000E+00 0.  1.
         14    1    3    3    0    0  0.14562054562E+02 -0.18221917464E+02  0.77234981552E+01  0.24571205361E+02  0.00000000000E+00 0. -1.
        -13    1    4    4    0    0 -0.26879824529E+02  0.32837449328E+02 -0.23185619774E+01  0.42499397346E+02  0.00000000000E+00 0.  1.
         13    1    4    4    0    0 -0.60554854456E+01  0.90691909731E+02  0.13618041436E+03  0.16372781269E+03  0.00000000000E+00 0. -1.
         -2    1    1    2    0  502  0.55814524211E+02 -0.14638151527E+03 -0.17576287935E+03  0.23544723163E+03  0.00000000000E+00 0.  1.
<scales pt_clust_5="13000.00000" pt_clust_6="13000.00000" pt_clust_7="13000.00000" pt_clust_8="13000.00000" pt_clust_9="132.05331"></scales>
<clustering>
<clus scale="   80.582">  5  6 -1 -1</clus>
<clus scale="   86.828">  2  5  1 -1</clus>
<clus scale="   90.920">  7  8 -1 -1</clus>
<clus scale="  132.053">  1  9  2 -1</clus>
<clus scale="  132.053">  1  5  2 -1</clus>
</clustering>
</event>
<event>
 9    2  0.1723348E-004  0.1090570E+03  0.7546771E-02  0.1267416E+00
         -1   -1    0    0    0  501 -0.00000000000E+00  0.00000000000E+00  0.46233777197E+03  0.46233777197E+03  0.00000000000E+00 0.  1.
         21   -1    0    0  501  502  0.00000000000E+00 -0.00000000000E+00 -0.97954685244E+02  0.97954685244E+02  0.00000000000E+00 0. -1.
         24    2    1    2    0    0 -0.10066259869E+02 -0.63546590050E+02  0.30972840890E+03  0.32624040082E+03  0.79759721374E+02 0.  0.
         23    2    1    2    0    0 -0.57860187203E+02  0.39518769369E+02  0.96485951149E+02  0.15073822917E+03  0.92211390660E+02 0.  0.
        -11    1    3    3    0    0  0.28985265242E+02 -0.53925358333E+02  0.20890712834E+03  0.21769308245E+03  0.00000000000E+00 0.  1.
         12    1    3    3    0    0 -0.39051525111E+02 -0.96212317173E+01  0.10082128056E+03  0.10854731837E+03  0.00000000000E+00 0. -1.
        -13    1    4    4    0    0 -0.63752634257E+02 -0.11135726395E+02  0.50871266512E+02  0.82318215078E+02  0.00000000000E+00 0. -1.
         13    1    4    4    0    0  0.58924470544E+01  0.50654495763E+02  0.45614684637E+02  0.68420014088E+02  0.00000000000E+00 0.  1.
         -2    1    1    2    0  502  0.67926447072E+02  0.24027820681E+02 -0.41831273326E+02  0.83313827223E+02  0.00000000000E+00 0.  1.
<scales pt_clust_5="13000.00000" pt_clust_6="13000.00000" pt_clust_7="13000.00000" pt_clust_8="13000.00000" pt_clust_9="72.05094"></scales>
<clustering>
<clus scale="   72.051">  2  9  1 -1</clus>
<clus scale="   79.760">  5  6 -1 -1</clus>
<clus scale="   92.211">  7  8 -1 -1</clus>
<clus scale="   98.753">  1  5  2 -1</clus>
<clus scale="   72.051">  2  5  1 -1</clus>
</clustering>
</event>
<event>
 9    2  0.1723348E-004  0.1349819E+03  0.7546771E-02  0.1238336E+00
          2   -1    0    0  502    0 -0.00000000000E+00  0.00000000000E+00  0.26815148819E+03  0.26815148819E+03  0.00000000000E+00 0. -1.
         21   -1    0    0  501  502  0.00000000000E+00 -0.00000000000E+00 -0.11732377919E+03  0.11732377919E+03  0.00000000000E+00 0. -1.
         24    2    1    2    0    0 -0.42982531910E+02  0.12660192481E+02  0.20250729149E+02  0.95044771576E+02  0.81336572646E+02 0.  0.
         23    2    1    2    0    0  0.82584366345E+01 -0.10574648593E+03  0.12990158702E+03  0.19107619557E+03  0.91570569190E+02 0.  0.
        -11    1    3    3    0    0  0.23277859510E+02 -0.74797988542E+00  0.13950643706E+02  0.27148456256E+02  0.00000000000E+00 0.  1.
         12    1    3    3    0    0 -0.66260391421E+02  0.13408172366E+02  0.63000854429E+01  0.67896315320E+02  0.00000000000E+00 0. -1.
        -11    1    4    4    0    0  0.43348326451E+02 -0.72069177898E+02  0.11014178183E+03  0.13857942096E+03  0.00000000000E+00 0. -1.
         11    1    4    4    0    0 -0.35089889816E+02 -0.33677308032E+02  0.19759805191E+02  0.52496774613E+02  0.00000000000E+00 0.  1.
          1    1    1    2  501    0  0.34724095276E+02  0.93086293449E+02  0.67539283741E+00  0.99354300240E+02  0.00000000000E+00 0. -1.
<scales pt_clust_5="13000.00000" pt_clust_6="13000.00000" pt_clust_7="13000.00000" pt_clust_8="13000.00000" pt_clust_9="99.17124"></scales>
<clustering>
<clus scale="   81.337">  5  6 -1 -1</clus>
<clus scale="   91.571">  7  8 -1 -1</clus>
<clus scale="   92.862">  1  5  2 -1</clus>
<clus scale="   99.171">  2  9  1 -1</clus>
<clus scale="   99.171">  2  5  1 -1</clus>
</clustering>
</event>
<event>
 9    2  0.1723348E-004  0.1549414E+03  0.7546771E-02  0.1195531E+00
         21   -1    0    0  501  502  0.00000000000E+00  0.00000000000E+00  0.42809511124E+02  0.42809511124E+02  0.00000000000E+00 0.  1.
          2   -1    0    0  502    0 -0.00000000000E+00 -0.00000000000E+00 -0.85570913020E+03  0.85570913020E+03  0.00000000000E+00 0. -1.
         23    2    1    2    0    0  0.12077154624E+03  0.58005478881E+01 -0.55844079803E+03  0.57895595163E+03  0.93351252197E+02 0.  0.
         24    2    1    2    0    0 -0.11221037685E+03 -0.42290814301E+02 -0.21379491741E+03  0.26426001143E+03  0.98718819292E+02 0.  0.
        -11    1    4    4    0    0 -0.16936895360E+02 -0.27663305983E+02 -0.31255749929E+01  0.32586594504E+02  0.00000000000E+00 0.  1.
         12    1    4    4    0    0 -0.95273481494E+02 -0.14627508318E+02 -0.21066934242E+03  0.23167341693E+03  0.00000000000E+00 0. -1.
        -13    1    3    3    0    0  0.14265153160E+02  0.36208192395E+02 -0.99536017418E+02  0.10687350726E+03  0.00000000000E+00 0.  1.
         13    1    3    3    0    0  0.10650639308E+03 -0.30407644507E+02 -0.45890478062E+03  0.47208244437E+03  0.00000000000E+00 0. -1.
          1    1    1    2  501    0 -0.85611693854E+01  0.36490266413E+02 -0.40663903630E+02  0.55302678258E+02  0.00000000000E+00 0. -1.
<scales pt_clust_5="13000.00000" pt_clust_6="13000.00000" pt_clust_7="13000.00000" pt_clust_8="13000.00000" pt_clust_9="37.48110"></scales>
<clustering>
<clus scale="   37.481">  1  9  2 -1</clus>
<clus scale="   93.351">  7  8 -1 -1</clus>
<clus scale="   98.719">  5  6 -1 -1</clus>
<clus scale="  151.578">  2  7  1 -1</clus>
<clus scale="   37.481">  1  5  2 -1</clus>
</clustering>
</event>
<event>
 9    2  0.1723348E-004  0.1074068E+03  0.7546771E-02  0.1272069E+00
         21   -1    0    0  501  502  0.00000000000E+00  0.00000000000E+00  0.15405951258E+03  0.15405951258E+03  0.00000000000E+00 0. -1.
          2   -1    0    0  502    0 -0.00000000000E+00 -0.00000000000E+00 -0.44242609214E+03  0.44242609214E+03  0.00000000000E+00 0. -1.
         23    2    1    2    0    0  0.37223113678E+02 -0.35600634364E+02 -0.40206269323E+03  0.41633051285E+03  0.94993269689E+02 0.  0.
         24    2    1    2    0    0 -0.48319899604E+02 -0.85140272953E+01  0.82393728104E+02  0.12493660426E+03  0.80082003568E+02 0.  0.
        -11    1    4    4    0    0 -0.65315512042E+02  0.95195759582E+01  0.73050073354E+02  0.98453296831E+02  0.00000000000E+00 0.  1.
         12    1    4    4    0    0  0.16995612439E+02 -0.18033603253E+02  0.93436547493E+01  0.26483307432E+02  0.00000000000E+00 0. -1.
        -13    1    3    3    0    0  0.28021548573E+02  0.21777354642E+02 -0.62860324398E+02  0.72186430464E+02  0.00000000000E+00 0.  1.
         13    1    3    3    0    0  0.92015651046E+01 -0.57377989006E+02 -0.33920236883E+03  0.34414408238E+03  0.00000000000E+00 0. -1.
          1    1    1    2  501    0  0.11096785926E+02  0.44114661659E+02  0.31302385560E+02  0.55218487601E+02  0.00000000000E+00 0. -1.
<scales pt_clust_5="13000.00000" pt_clust_6="13000.00000" pt_clust_7="13000.00000" pt_clust_8="13000.00000" pt_clust_9="45.48892"></scales>
<clustering>
<clus scale="   45.489">  1  9  2 -1</clus>
<clus scale="   80.082">  5  6 -1 -1</clus>
<clus scale="   94.476">  1  5  2 -1</clus>
<clus scale="   94.993">  7  8 -1 -1</clus>
<clus scale="   45.489">  1  5  2 -1</clus>
</clustering>
</event>
<event>
 9    2  0.1723348E-004  0.2013157E+03  0.7546771E-02  0.1149689E+00
         21   -1    0    0  501  502  0.00000000000E+00  0.00000000000E+00  0.10964603589E+04  0.10964603589E+04  0.00000000000E+00 0. -1.
         -1   -1    0    0    0  501 -0.00000000000E+00 -0.00000000000E+00 -0.72145416539E+02  0.72145416539E+02  0.00000000000E+00 0.  1.
         24    2    1    2    0    0  0.17362300462E+03 -0.13504848196E+03  0.30079493520E+03  0.38124200191E+03  0.80528446941E+02 0.  0.
         23    2    1    2    0    0 -0.37649066726E+02  0.14323002893E+03  0.40952095004E+03  0.44509011493E+03  0.92008197859E+02 0.  0.
        -13    1    3    3    0    0  0.61284081468E+02 -0.93966657638E+02  0.11825429146E+03  0.16300168354E+03  0.00000000000E+00 0.  1.
         14    1    3    3    0    0  0.11233892315E+03 -0.41081824318E+02  0.18254064374E+03  0.21824031837E+03  0.00000000000E+00 0. -1.
        -13    1    4    4    0    0 -0.43400647371E+02  0.12174450657E+03  0.40092698880E+03  0.42124552391E+03  0.00000000000E+00 0. -1.
         13    1    4    4    0    0  0.57515806448E+01  0.21485522358E+02  0.85939612482E+01  0.23844591019E+02  0.00000000000E+00 0.  1.
         -2    1    1    2    0  502 -0.13597393789E+03 -0.81815469707E+01  0.31399905707E+03  0.34227365855E+03  0.00000000000E+00 0.  1.
<scales pt_clust_5="13000.00000" pt_clust_6="13000.00000" pt_clust_7="13000.00000" pt_clust_8="13000.00000" pt_clust_9="136.21986"></scales>
<clustering>
<clus scale="   80.528">  5  6 -1 -1</clus>
<clus scale="   92.008">  7  8 -1 -1</clus>
<clus scale="  136.220">  1  9  2 -1</clus>
<clus scale="  196.335">  2  5  1 -1</clus>
<clus scale="  136.220">  1  5  2 -1</clus>
</clustering>
</event>
<event>
 9    2  0.1723348E-004  0.8869375E+02  0.7546771E-02  0.1311850E+00
         21   -1    0    0  501  502  0.00000000000E+00  0.00000000000E+00  0.18321833137E+02  0.18321833137E+02  0.00000000000E+00 0.  1.
          2   -1    0    0  502    0 -0.00000000000E+00 -0.00000000000E+00 -0.58357413650E+03  0.58357413650E+03  0.00000000000E+00 0. -1.
         24    2    1    2    0    0 -0.15692058170E+02 -0.14827375849E+02 -0.20840189923E+03  0.22326929120E+03  0.77147475841E+02 0.  0.
         23    2    1    2    0    0 -0.12118410199E+02  0.26872410611E+02 -0.21444301552E+03  0.23303008044E+03  0.86303123753E+02 0.  0.
        -11    1    3    3    0    0  0.82979758098E+01  0.24136522062E+02 -0.31483342872E+02  0.40529359459E+02  0.00000000000E+00 0.  1.
         12    1    3    3    0    0 -0.23990033980E+02 -0.38963897911E+02 -0.17691855636E+03  0.18273993174E+03  0.00000000000E+00 0. -1.
        -13    1    4    4    0    0  0.34645898270E+02  0.14680078319E+01 -0.11663335449E+03  0.12167922047E+03  0.00000000000E+00 0. -1.
         13    1    4    4    0    0 -0.46764308469E+02  0.25404402780E+02 -0.97809661029E+02  0.11135085998E+03  0.00000000000E+00 0.  1.
          1    1    1    2  501    0  0.27810468368E+02 -0.12045034762E+02 -0.14240738862E+03  0.14559659799E+03  0.00000000000E+00 0. -1.
<scales pt_clust_5="13000.00000" pt_clust_6="13000.00000" pt_clust_7="13000.00000" pt_clust_8="13000.00000" pt_clust_9="30.30686"></scales>
<clustering>
<clus scale="   30.307">  1  9  2 -1</clus>
<clus scale="   77.147">  5  6 -1 -1</clus>
<clus scale="   79.813">  2  5  1 -1</clus>
<clus scale="   86.303">  7  8 -1 -1</clus>
<clus scale="   30.307">  1  5  2 -1</clus>
</clustering>
</event>
<event>
 9    2  0.1723348E-004  0.1114161E+03  0.7546771E-02  0.1261335E+00
         21   -1    0    0  501  502  0.00000000000E+00  0.00000000000E+00  0.42473697978E+03  0.42473697978E+03  0.00000000000E+00 0.  1.
         -3   -1    0    0    0  501 -0.00000000000E+00 -0.00000000000E+00 -0.11001197950E+03  0.11001197950E+03  0.00000000000E+00 0.  1.
         23    2    1    2    0    0 -0.52071618041E+02  0.24650714879E+02 -0.39796363433E+02  0.11402896104E+03  0.89998568118E+02 0.  0.
         24    2    1    2    0    0  0.71103441819E+02 -0.94980244322E+02  0.17143384164E+03  0.22366799047E+03  0.80999146002E+02 0.  0.
        -11    1    4    4    0    0  0.21429281842E+02 -0.64543173902E+02  0.14404758511E+03  0.15929451401E+03  0.00000000000E+00 0.  1.
         12    1    4    4    0    0  0.49674159977E+02 -0.30437070420E+02  0.27386256527E+02  0.64373476461E+02  0.00000000000E+00 0. -1.
        -11    1    3    3    0    0 -0.46741544205E+02  0.46507283924E+02 -0.55833682126E+02  0.86400807129E+02  0.00000000000E+00 0.  1.
         11    1    3    3    0    0 -0.53300738357E+01 -0.21856569045E+02  0.16037318694E+02  0.27628153909E+02  0.00000000000E+00 0. -1.
         -4    1    1    2    0  502 -0.19031823778E+02  0.70329529443E+02  0.18308752208E+03  0.19705200778E+03  0.00000000000E+00 0.  1.
<scales pt_clust_5="13000.00000" pt_clust_6="13000.00000" pt_clust_7="13000.00000" pt_clust_8="13000.00000" pt_clust_9="72.85913"></scales>
<clustering>
<clus scale="   72.859">  1  9  2 -1</clus>
<clus scale="   80.999">  5  6 -1 -1</clus>
<clus scale="   89.999">  7  8 -1 -1</clus>
<clus scale="  104.282">  1  5  2 -1</clus>
<clus scale="   72.859">  1  5  2 -1</clus>
</clustering>
</event>
<event>
 9    2  0.1723348E-004  0.2785162E+03  0.7546771E-02  0.1117002E+00
          2   -1    0    0  502    0 -0.00000000000E+00  0.00000000000E+00  0.63040039375E+03  0.63040039375E+03  0.00000000000E+00 0. -1.
         21   -1    0    0  501  502  0.00000000000E+00 -0.00000000000E+00 -0.34241328520E+03  0.34241328520E+03  0.00000000000E+00 0. -1.
         23    2    1    2    0    0 -0.13243850599E+03  0.39530859364E+02  0.13473276917E+03  0.21279029619E+03  0.89577588450E+02 0.  0.
         24    2    1    2    0    0  0.37091594157E+03 -0.78316791044E+02  0.28666841535E+03  0.48402492000E+03  0.91592507089E+02 0.  0.
        -11    1    4    4    0    0  0.16801466406E+03 -0.56779632204E+02  0.83284435479E+02  0.19593149610E+03  0.00000000000E+00 0.  1.
         12    1    4    4    0    0  0.20290127751E+03 -0.21537158840E+02  0.20338397987E+03  0.28809342390E+03  0.00000000000E+00 0. -1.
        -11    1    3    3    0    0 -0.10810068956E+03  0.16857045448E+02  0.14148210919E+03  0.17884939554E+03  0.00000000000E+00 0. -1.
         11    1    3    3    0    0 -0.24337816437E+02  0.22673813916E+02 -0.67493400175E+01  0.33940900653E+02  0.00000000000E+00 0.  1.
          1    1    1    2  501    0 -0.23847743557E+03  0.38785931679E+02 -0.13341407598E+03  0.27599846275E+03  0.00000000000E+00 0. -1.
<scales pt_clust_5="13000.00000" pt_clust_6="13000.00000" pt_clust_7="13000.00000" pt_clust_8="13000.00000" pt_clust_9="263.02492"></scales>
<clustering>
<clus scale="   89.578">  7  8 -1 -1</clus>
<clus scale="   91.593">  5  6 -1 -1</clus>
<clus scale="  164.702">  1  7  2 -1</clus>
<clus scale="  263.025">  2  9  1 -1</clus>
<clus scale="  263.025">  2  5  1 -1</clus>
</clustering>
</event>
<event>
 9    2  0.1723348E-004  0.1026213E+03  0.7546771E-02  0.1278435E+00
          2   -1    0    0  502    0 -0.00000000000E+00  0.00000000000E+00  0.10997782808E+04  0.10997782808E+04  0.00000000000E+00 0. -1.
         21   -1    0    0  501  502  0.00000000000E+00 -0.00000000000E+00 -0.25532566092E+02  0.25532566092E+02  0.00000000000E+00 0.  1.
         24    2    1    2    0    0  0.27533544900E+02 -0.56810901411E+02  0.68128316405E+03  0.68928600408E+03  0.83563575743E+02 0.  0.
         23    2    1    2    0    0 -0.20761728382E+02 -0.26130333125E+02  0.14553539025E+03  0.17497828452E+03  0.91230513346E+02 0.  0.
        -13    1    3    3    0    0  0.92130824371E+01 -0.40423134186E+02  0.11126998497E+03  0.11874308493E+03  0.00000000000E+00 0.  1.
         14    1    3    3    0    0  0.18320462463E+02 -0.16387767224E+02  0.57001317908E+03  0.57054291915E+03  0.00000000000E+00 0. -1.
        -11    1    4    4    0    0 -0.89765284686E+01 -0.59069716689E+02  0.10958943748E+03  0.12481848541E+03  0.00000000000E+00 0.  1.
         11    1    4    4    0    0 -0.11785199914E+02  0.32939383564E+02  0.35945952771E+02  0.50159799114E+02  0.00000000000E+00 0. -1.
          1    1    1    2  501    0 -0.67718165181E+01  0.82941234535E+02  0.24742716041E+03  0.26104655828E+03  0.00000000000E+00 0. -1.
<scales pt_clust_5="13000.00000" pt_clust_6="13000.00000" pt_clust_7="13000.00000" pt_clust_8="13000.00000" pt_clust_9="83.21722"></scales>
<clustering>
<clus scale="   83.217">  2  9  1 -1</clus>
<clus scale="   83.564">  5  6 -1 -1</clus>
<clus scale="   91.231">  7  8 -1 -1</clus>
<clus scale="   95.870">  1  5  2 -1</clus>
<clus scale="   83.217">  2  5  1 -1</clus>
</clustering>
</event>
<event>
 9    2  0.1723348E-004  0.2163094E+03  0.7546771E-02  0.1137710E+00
          2   -1    0    0  502    0 -0.00000000000E+00  0.00000000000E+00  0.11448173620E+04  0.11448173620E+04  0.00000000000E+00 0. -1.
         21   -1    0    0  501  502  0.00000000000E+00 -0.00000000000E+00 -0.16901561473E+03  0.16901561473E+03  0.00000000000E+00 0.  1.
         24    2    1    2    0    0 -0.89460705811E+02  0.17614529802E+03  0.10353816211E+04  0.10570984994E+04  0.80073417552E+02 0.  0.
         23    2    1    2    0    0  0.42423004524E+02 -0.16826465122E+03 -0.26851017362E+02  0.19889134470E+03  0.93402814206E+02 0.  0.
        -13    1    3    3    0    0  0.20686578490E+01  0.71990077357E+02  0.43433023329E+03  0.44026083420E+03  0.00000000000E+00 0.  1.
         14    1    3    3    0    0 -0.91529363660E+02  0.10415522066E+03  0.60105138784E+03  0.61683766522E+03  0.00000000000E+00 0. -1.
        -11    1    4    4    0    0  0.64993045233E+02 -0.10289059916E+03 -0.40765822536E+02  0.12834493995E+03  0.00000000000E+00 0.  1.
         11    1    4    4    0    0 -0.22570040709E+02 -0.65374052063E+02  0.13914805174E+02  0.70546404754E+02  0.00000000000E+00 0. -1.
          1    1    1    2  501    0  0.47037701287E+02 -0.78806468012E+01 -0.32728856533E+02  0.57843132577E+02  0.00000000000E+00 0. -1.
<scales pt_clust_5="13000.00000" pt_clust_6="13000.00000" pt_clust_7="13000.00000" pt_clust_8="13000.00000" pt_clust_9="47.69329"></scales>
<clustering>
<clus scale="   47.693">  2  9  1 -1</clus>
<clus scale="   80.073">  5  6 -1 -1</clus>
<clus scale="   93.403">  7  8 -1 -1</clus>
<clus scale="  210.897">  1  5  2 -1</clus>
<clus scale="   47.693">  2  5  1 -1</clus>
</clustering>
</event>
<event>
 9    2  0.1723348E-004  0.1520095E+03  0.7546771E-02  0.1199429E+00
         21   -1    0    0  501  502  0.00000000000E+00  0.00000000000E+00  0.19365556531E+03  0.19365556531E+03  0.00000000000E+00 0.  1.
          2   -1    0    0  502    0 -0.00000000000E+00 -0.00000000000E+00 -0.23353237684E+03  0.23353237684E+03  0.00000000000E+00 0. -1.
         23    2    1    2    0    0 -0.10346269152E+03  0.78762679620E+02 -0.27105847731E+02  0.16080576748E+03  0.90640386343E+02 0.  0.
         24    2    1    2    0    0  0.12905739397E+03  0.75858562939E+01  0.44305242614E+02  0.15975735679E+03  0.82741177010E+02 0.  0.
        -11    1    4    4    0    0  0.80493839763E+02  0.29571746377E+02  0.59442263330E+02  0.10434140642E+03  0.00000000000E+00 0.  1.
         12    1    4    4    0    0  0.48563554205E+02 -0.21985890084E+02 -0.15137020716E+02  0.55415950375E+02  0.00000000000E+00 0. -1.
        -13    1    3    3    0    0 -0.57640013490E+02  0.11515136051E+02 -0.49013581143E+02  0.76533003665E+02  0.00000000000E+00 0.  1.
         13    1    3    3    0    0 -0.45822678027E+02  0.67247543569E+02  0.21907733412E+02  0.84272763815E+02  0.00000000000E+00 0. -1.
          1    1    1    2  501    0 -0.25594702451E+02 -0.86348535914E+02 -0.57076206415E+02  0.10662481787E+03  0.00000000000E+00 0. -1.
<scales pt_clust_5="13000.00000" pt_clust_6="13000.00000" pt_clust_7="13000.00000" pt_clust_8="13000.00000" pt_clust_9="90.06202"></scales>
<clustering>
<clus scale="   82.741">  5  6 -1 -1</clus>
<clus scale="   90.062">  1  9  2 -1</clus>
<clus scale="   90.640">  7  8 -1 -1</clus>
<clus scale="  147.436">  1  5  2 -1</clus>
<clus scale="   90.062">  1  5  2 -1</clus>
</clustering>
</event>
<event>
 9    2  0.1723348E-004  0.9473021E+02  0.7546771E-02  0.1296061E+00
         21   -1    0    0  501  502  0.00000000000E+00  0.00000000000E+00  0.30643014917E+03  0.30643014917E+03  0.00000000000E+00 0. -1.
          2   -1    0    0  502    0 -0.00000000000E+00 -0.00000000000E+00 -0.59400613178E+02  0.59400613178E+02  0.00000000000E+00 0. -1.
         24    2    1    2    0    0  0.39540880575E+01 -0.28965829274E+02  0.35014572481E+02  0.96156636178E+02  0.84648829391E+02 0.  0.
         23    2    1    2    0    0  0.33237620729E+02 -0.19886796986E+01  0.19528777213E+03  0.21847643325E+03  0.92119181863E+02 0.  0.
        -13    1    3    3    0    0  0.28443083042E+02 -0.61190742914E+01  0.51253887403E+02  0.58935668462E+02  0.00000000000E+00 0.  1.
         14    1    3    3    0    0 -0.24488994985E+02 -0.22846754982E+02 -0.16239314922E+02  0.37220967716E+02  0.00000000000E+00 0. -1.
        -13    1    4    4    0    0  0.51743092605E+02  0.30783740491E+02  0.11512571092E+03  0.12991888094E+03  0.00000000000E+00 0. -1.
         13    1    4    4    0    0 -0.18505471876E+02 -0.32772420190E+02  0.80162061206E+02  0.88557552311E+02  0.00000000000E+00 0.  1.
          1    1    1    2  501    0 -0.37191708787E+02  0.30954508972E+02  0.16727191385E+02  0.51197692915E+02  0.00000000000E+00 0. -1.
<scales pt_clust_5="13000.00000" pt_clust_6="13000.00000" pt_clust_7="13000.00000" pt_clust_8="13000.00000" pt_clust_9="48.38809"></scales>
<clustering>
<clus scale="   48.388">  1  9  2 -1</clus>
<clus scale="   84.649">  5  6 -1 -1</clus>
<clus scale="   87.483">  2  5  1 -1</clus>
<clus scale="   92.119">  7  8 -1 -1</clus>
<clus scale="   48.388">  1  5  2 -1</clus>
</clustering>
</event>
<event>
 9    2  0.1723348E-004  0.1712846E+03  0.7546771E-02  0.1208291E+00
          2   -1    0    0  502    0 -0.00000000000E+00  0.00000000000E+00  0.16105649004E+03  0.16105649004E+03  0.00000000000E+00 0. -1.
         21   -1    0    0  501  502  0.00000000000E+00 -0.00000000000E+00 -0.25552306584E+03  0.25552306584E+03  0.00000000000E+00 0. -1.
         24    2    1    2    0    0 -0.10382284675E+02 -0.24320603236E+02 -0.27032906021E+02  0.89306820527E+02  0.80905170465E+02 0.  0.
         23    2    1    2    0    0  0.15147336683E+03  0.21159078487E+02 -0.22597754062E+02  0.17919522849E+03  0.90600132239E+02 0.  0.
        -13    1    3    3    0    0 -0.34463819236E+02 -0.14026573626E+02 -0.44363956274E+02  0.57902160757E+02  0.00000000000E+00 0.  1.
         14    1    3    3    0    0  0.24081534561E+02 -0.10294029610E+02  0.17331050253E+02  0.31404659770E+02  0.00000000000E+00 0. -1.
        -13    1    4    4    0    0  0.11363268881E+03  0.37472625526E+02  0.18410249831E+02  0.12105999723E+03  0.00000000000E+00 0. -1.
         13    1    4    4    0    0  0.37840678021E+02 -0.16313547039E+02 -0.41008003893E+02  0.58135231257E+02  0.00000000000E+00 0.  1.
          1    1    1    2  501    0 -0.14109108216E+03  0.31615247491E+01 -0.44835915719E+02  0.14807750687E+03  0.00000000000E+00 0. -1.
<scales pt_clust_5="13000.00000" pt_clust_6="13000.00000" pt_clust_7="13000.00000" pt_clust_8="13000.00000" pt_clust_9="145.36174"></scales>
<clustering>
<clus scale="   80.905">  5  6 -1 -1</clus>
<clus scale="   85.117">  1  5  2 -1</clus>
<clus scale="   90.600">  7  8 -1 -1</clus>
<clus scale="  145.362">  2  9  1 -1</clus>
<clus scale="  145.362">  2  5  1 -1</clus>
</clustering>
</event>
<event>
 9    2  0.1723348E-004  0.1674217E+03  0.7546771E-02  0.1182091E+00
         21   -1    0    0  501  502  0.00000000000E+00  0.00000000000E+00  0.44901544682E+03  0.44901544682E+03  0.00000000000E+00 0.  1.
         -1   -1    0    0    0  501 -0.00000000000E+00 -0.00000000000E+00 -0.48644697532E+03  0.48644697532E+03  0.00000000000E+00 0.  1.
         23    2    1    2    0    0  0.40221305748E+02  0.16542798099E+03 -0.27767258555E+03  0.33821824616E+03  0.91133676224E+02 0.  0.
         24    2    1    2    0    0 -0.96490438891E+02 -0.78454786954E+02 -0.13963193250E+03  0.20350055379E+03  0.80310898540E+02 0.  0.
        -13    1    4    4    0    0 -0.90814581085E+02 -0.63956815715E+02 -0.14860574967E+03  0.18553013569E+03  0.00000000000E+00 0.  1.
         14    1    4    4    0    0 -0.56758578058E+01 -0.14497971238E+02  0.89738171721E+01  0.17970418095E+02  0.00000000000E+00 0. -1.
        -11    1    3    3    0    0  0.45751023279E+02  0.97569871737E+02 -0.23320484416E+03  0.25689985469E+03  0.00000000000E+00 0.  1.
         11    1    3    3    0    0 -0.55297175316E+01  0.67858109253E+02 -0.44467741394E+02  0.81318391474E+02  0.00000000000E+00 0. -1.
         -2    1    1    2    0  502  0.56269133143E+02 -0.86973194036E+02  0.37987298955E+03  0.39374362219E+03  0.00000000000E+00 0.  1.
<scales pt_clust_5="13000.00000" pt_clust_6="13000.00000" pt_clust_7="13000.00000" pt_clust_8="13000.00000" pt_clust_9="103.58838"></scales>
<clustering>
<clus scale="   80.311">  5  6 -1 -1</clus>
<clus scale="   91.134">  7  8 -1 -1</clus>
<clus scale="  103.588">  1  9  2 -1</clus>
<clus scale="  161.785">  1  5  2 -1</clus>
<clus scale="  103.588">  1  5  2 -1</clus>
</clustering>
</event>
<event>
 9    2  0.1723348E-004  0.1627864E+03  0.7546771E-02  0.1187456E+00
          2   -1    0    0  502    0 -0.00000000000E+00  0.00000000000E+00  0.53336595538E+03  0.53336595538E+03  0.00000000000E+00 0. -1.
         21   -1    0    0  501  502  0.00000000000E+00 -0.00000000000E+00 -0.16894629723E+03  0.16894629723E+03  0.00000000000E+00 0. -1.
         23    2    1    2    0    0  0.55235698997E+02  0.12211463396E+03  0.27034705149E+03  0.31523297143E+03  0.91221333865E+02 0.  0.
         24    2    1    2    0    0 -0.22303130521E+02 -0.13651772856E+03  0.21124842085E+03  0.26451429992E+03  0.78787052903E+02 0.  0.
        -11    1    4    4    0    0 -0.15552876421E+02 -0.51176399194E+02  0.24001768348E+02  0.58625938656E+02  0.00000000000E+00 0.  1.
         12    1    4    4    0    0 -0.67502541002E+01 -0.85341329368E+02  0.18724665250E+03  0.20588836126E+03  0.00000000000E+00 0. -1.
        -13    1    3    3    0    0 -0.93399038422E+00  0.52864065352E+02  0.18272151405E+03  0.19021733212E+03  0.00000000000E+00 0.  1.
         13    1    3    3    0    0  0.56169689382E+02  0.69250568610E+02  0.87625537441E+02  0.12501563930E+03  0.00000000000E+00 0. -1.
          1    1    1    2  501    0 -0.32932568476E+02  0.14403094601E+02 -0.11717581420E+03  0.12256498127E+03  0.00000000000E+00 0. -1.
<scales pt_clust_5="13000.00000" pt_clust_6="13000.00000" pt_clust_7="13000.00000" pt_clust_8="13000.00000" pt_clust_9="35.94445"></scales>
<clustering>
<clus scale="   35.944">  2  9  1 -1</clus>
<clus scale="   78.787">  5  6 -1 -1</clus>
<clus scale="   91.221">  7  8 -1 -1</clus>
<clus scale="  156.159">  2  5  1 -1</clus>
<clus scale="   35.944">  2  5  1 -1</clus>
</clustering>
</event>
<event>
 9    2  0.1723348E-004  0.1085523E+03  0.7546771E-02  0.1269715E+00
         21   -1    0    0  501  502  0.00000000000E+00  0.00000000000E+00  0.49821788907E+02  0.49821788907E+02  0.00000000000E+00 0. -1.
          2   -1    0    0  502    0 -0.00000000000E+00 -0.00000000000E+00 -0.36013476676E+03  0.36013476676E+03  0.00000000000E+00 0. -1.
         23    2    1    2    0    0  0.35521393538E+02  0.35597953781E+02 -0.16386838686E+03  0.19449569269E+03  0.91906161662E+02 0.  0.
         24    2    1    2    0    0 -0.47206878041E+02 -0.57035599799E+02 -0.52948300938E+02  0.11882919390E+03  0.76389173126E+02 0.  0.
        -13    1    4    4    0    0 -0.31200282883E+02  0.37169406555E+01 -0.45878652245E+02  0.55606870363E+02  0.00000000000E+00 0.  1.
         14    1    4    4    0    0 -0.16006595158E+02 -0.60752540455E+02 -0.70696486933E+01  0.63222323533E+02  0.00000000000E+00 0. -1.
        -11    1    3    3    0    0  0.61592019815E+01  0.22623125533E+02  0.38257913404E+01  0.23756646592E+02  0.00000000000E+00 0.  1.
         11    1    3    3    0    0  0.29362191556E+02  0.12974828249E+02 -0.16769417820E+03  0.17073904610E+03  0.00000000000E+00 0. -1.
          1    1    1    2  501    0  0.11685484503E+02  0.21437646018E+02 -0.93496290058E+02  0.96631669082E+02  0.00000000000E+00 0. -1.
<scales pt_clust_5="13000.00000" pt_clust_6="13000.00000" pt_clust_7="13000.00000" pt_clust_8="13000.00000" pt_clust_9="24.41565"></scales>
<clustering>
<clus scale="   24.416">  1  9  2 -1</clus>
<clus scale="   76.389">  5  6 -1 -1</clus>
<clus scale="   91.906">  7  8 -1 -1</clus>
<clus scale="   95.771">  1  5  2 -1</clus>
<clus scale="   24.416">  1  5  2 -1</clus>
</clustering>
</event>
<event>
 9    2  0.1723348E-004  0.1196222E+03  0.7546771E-02  0.1245648E+00
         21   -1    0    0  501  502  0.00000000000E+00  0.00000000000E+00  0.56810665207E+02  0.56810665207E+02  0.00000000000E+00 0. -1.
         -3   -1    0    0    0  501 -0.00000000000E+00 -0.00000000000E+00 -0.34264070314E+03  0.34264070314E+03  0.00000000000E+00 0.  1.
         23    2    1    2    0    0 -0.62097506208E+02  0.45740545393E+02 -0.18389084075E+03  0.21764318585E+03  0.87203309954E+02 0.  0.
         24    2    1    2    0    0  0.59497437231E+02 -0.69388186170E+02 -0.10030937342E+03  0.15796226883E+03  0.80842084106E+02 0.  0.
        -11    1    4    4    0    0  0.41082549058E+02  0.85271028430E+01 -0.33813702827E+02  0.53887418002E+02  0.00000000000E+00 0.  1.
         12    1    4    4    0    0  0.18414888172E+02 -0.77915289013E+02 -0.66495670590E+02  0.10407485083E+03  0.00000000000E+00 0. -1.
        -11    1    3    3    0    0  0.54402393374E+01  0.47219145400E+02 -0.60150368168E+02  0.76663620363E+02  0.00000000000E+00 0. -1.
         11    1    3    3    0    0 -0.67537745546E+02 -0.14786000077E+01 -0.12374047258E+03  0.14097956549E+03  0.00000000000E+00 0.  1.
         -4    1    1    2    0  502  0.26000689774E+01  0.23647640777E+02 -0.16298237729E+01  0.23845913665E+02  0.00000000000E+00 0.  1.
<scales pt_clust_5="13000.00000" pt_clust_6="13000.00000" pt_clust_7="13000.00000" pt_clust_8="13000.00000" pt_clust_9="23.79015"></scales>
<clustering>
<clus scale="   23.790">  1  9  2 -1</clus>
<clus scale="   80.842">  5  6 -1 -1</clus>
<clus scale="   87.203">  7  8 -1 -1</clus>
<clus scale="  115.067">  1  5  2 -1</clus>
<clus scale="   23.790">  1  5  2 -1</clus>
</clustering>
</event>
<event>
 9    2  0.1723348E-004  0.1441792E+03  0.7546771E-02  0.1230456E+00
          2   -1    0    0  502    0 -0.00000000000E+00  0.00000000000E+00  0.21730292622E+03  0.21730292622E+03  0.00000000000E+00 0. -1.
         21   -1    0    0  501  502  0.00000000000E+00 -0.00000000000E+00 -0.18193720202E+03  0.18193720202E+03  0.00000000000E+00 0.  1.
         24    2    1    2    0    0  0.12830780591E+02 -0.37929127985E+02 -0.45576609412E+02  0.10048897115E+03  0.80109664314E+02 0.  0.
         23    2    1    2    0    0  0.63315870465E+02  0.10208316323E+03 -0.25883138548E+02  0.15271782457E+03  0.90680347438E+02 0.  0.
        -13    1    3    3    0    0  0.40335458175E+02 -0.27172611576E+02 -0.50988885404E+02  0.70463937165E+02  0.00000000000E+00 0.  1.
         14    1    3    3    0    0 -0.27504677584E+02 -0.10756516409E+02  0.54122759925E+01  0.30025033983E+02  0.00000000000E+00 0. -1.
        -13    1    4    4    0    0 -0.11575071819E+02  0.58002459238E+02  0.75116517254E+01  0.59621241826E+02  0.00000000000E+00 0.  1.
         13    1    4    4    0    0  0.74890942284E+02  0.44080703996E+02 -0.33394790274E+02  0.93096582743E+02  0.00000000000E+00 0. -1.
          1    1    1    2  501    0 -0.76146651056E+02 -0.64154035249E+02  0.10682547216E+03  0.14603333252E+03  0.00000000000E+00 0. -1.
<scales pt_clust_5="13000.00000" pt_clust_6="13000.00000" pt_clust_7="13000.00000" pt_clust_8="13000.00000" pt_clust_9="112.09256"></scales>
<clustering>
<clus scale="   80.110">  5  6 -1 -1</clus>
<clus scale="   89.559">  1  5  2 -1</clus>
<clus scale="   90.680">  7  8 -1 -1</clus>
<clus scale="  112.093">  2  9  1 -1</clus>
<clus scale="  112.093">  2  5  1 -1</clus>
</clustering>
</event>
<event>
 9    2  0.1723348E-004  0.1150574E+03  0.7546771E-02  0.1255761E+00
          2   -1    0    0  502    0 -0.00000000000E+00  0.00000000000E+00  0.81543166080E+03  0.81543166080E+03  0.00000000000E+00 0. -1.
         21   -1    0    0  501  502  0.00000000000E+00 -0.00000000000E+00 -0.68458136906E+02  0.68458136906E+02  0.00000000000E+00 0.  1.
         24    2    1    2    0    0  0.67719917834E+02  0.20192400393E+02  0.73668520991E+03  0.74430371856E+03  0.79304518533E+02 0.  0.
         23    2    1    2    0    0 -0.52135442089E+02 -0.35429208132E+02  0.24295688752E+02  0.11367772640E+03  0.91427631914E+02 0.  0.
        -11    1    3    3    0    0  0.40588937602E+02 -0.27709762790E+02  0.27606710383E+03  0.28040745109E+03  0.00000000000E+00 0.  1.
         12    1    3    3    0    0  0.27130980232E+02  0.47902163183E+02  0.46061810607E+03  0.46389626746E+03  0.00000000000E+00 0. -1.
        -13    1    4    4    0    0 -0.35222304999E+02 -0.96991007627E+01  0.57670773848E+02  0.68268598062E+02  0.00000000000E+00 0. -1.
         13    1    4    4    0    0 -0.16913137090E+02 -0.25730107369E+02 -0.33375085096E+02  0.45409128340E+02  0.00000000000E+00 0.  1.
          1    1    1    2  501    0 -0.15584475745E+02  0.15236807739E+02 -0.14007374763E+02  0.25908352747E+02  0.00000000000E+00 0. -1.
<scales pt_clust_5="13000.00000" pt_clust_6="13000.00000" pt_clust_7="13000.00000" pt_clust_8="13000.00000" pt_clust_9="21.79533"></scales>
<clustering>
<clus scale="   21.795">  2  9  1 -1</clus>
<clus scale="   79.305">  5  6 -1 -1</clus>
<clus scale="   91.428">  7  8 -1 -1</clus>
<clus scale="  105.681">  1  5  2 -1</clus>
<clus scale="   21.795">  2  5  1 -1</clus>
</clustering>
</event>
<event>
 9    2  0.1723348E-004  0.1328950E+03  0.7546771E-02  0.1224731E+00
          2   -1    0    0  502    0 -0.00000000000E+00  0.00000000000E+00  0.46263809836E+03  0.46263809836E+03  0.00000000000E+00 0. -1.
         21   -1    0    0  501  502  0.00000000000E+00 -0.00000000000E+00 -0.86658986960E+02  0.86658986960E+02  0.00000000000E+00 0.  1.
         24    2    1    2    0    0  0.83317576201E+02  0.60812297675E+02  0.38486738363E+03  0.40647083256E+03  0.80347250619E+02 0.  0.
         23    2    1    2    0    0 -0.63319349548E+02 -0.57441679944E+02 -0.11542541262E+02  0.12237300663E+03  0.86793063501E+02 0.  0.
        -11    1    3    3    0    0  0.73576855769E+02  0.38824274677E+02  0.16013405264E+03  0.18045440650E+03  0.00000000000E+00 0.  1.
         12    1    3    3    0    0  0.97407204319E+01  0.21988022998E+02  0.22473333099E+03  0.22601642606E+03  0.00000000000E+00 0. -1.
        -11    1    4    4    0    0 -0.71547597562E+01 -0.53807511452E+02 -0.31378131553E+02  0.62697894826E+02  0.00000000000E+00 0.  1.
         11    1    4    4    0    0 -0.56164589791E+02 -0.36341684924E+01  0.19835590291E+02  0.59675111808E+02  0.00000000000E+00 0. -1.
          1    1    1    2  501    0 -0.19998226653E+02 -0.33706177304E+01  0.26542690291E+01  0.20453246130E+02  0.00000000000E+00 0. -1.
<scales pt_clust_5="13000.00000" pt_clust_6="13000.00000" pt_clust_7="13000.00000" pt_clust_8="13000.00000" pt_clust_9="20.28029"></scales>
<clustering>
<clus scale="   20.280">  2  9  1 -1</clus>
<clus scale="   80.347">  5  6 -1 -1</clus>
<clus scale="   86.793">  7  8 -1 -1</clus>
<clus scale="  128.778">  1  5  2 -1</clus>
<clus scale="   20.280">  2  5  1 -1</clus>
</clustering>
</event>
<event>
 9    2  0.1723348E-004  0.1277127E+03  0.7546771E-02  0.1235232E+00
          2   -1    0    0  502    0 -0.00000000000E+00  0.00000000000E+00  0.34103137764E+03  0.34103137764E+03  0.00000000000E+00 0. -1.
         21   -1    0    0  501  502  0.00000000000E+00 -0.00000000000E+00 -0.26933553159E+03  0.26933553159E+03  0.00000000000E+00 0. -1.
         23    2    1    2    0    0 -0.32055947003E+02  0.85107576909E+02  0.30501008677E+03  0.33103904280E+03  0.91020939547E+02 0.  0.
         24    2    1    2    0    0  0.14224966535E+02 -0.75760655627E+02 -0.10797462438E+03  0.15238170373E+03  0.74964241531E+02 0.  0.
        -13    1    4    4    0    0  0.44312698854E+01 -0.86559145055E+02 -0.69045467007E+02  0.11081244632E+03  0.00000000000E+00 0.  1.
         14    1    4    4    0    0  0.97936966494E+01  0.10798489428E+02 -0.38929157370E+02  0.41569257409E+02  0.00000000000E+00 0. -1.
        -11    1    3    3    0    0  0.14916153675E+02  0.64341561601E+02  0.23567382755E+03  0.24475391965E+03  0.00000000000E+00 0. -1.
         11    1    3    3    0    0 -0.46972100678E+02  0.20766015309E+02  0.69336259220E+02  0.86285123147E+02  0.00000000000E+00 0.  1.
          1    1    1    2  501    0  0.17830980468E+02 -0.93469212827E+01 -0.12533961634E+03  0.12694616271E+03  0.00000000000E+00 0. -1.
<scales pt_clust_5="13000.00000" pt_clust_6="13000.00000" pt_clust_7="13000.00000" pt_clust_8="13000.00000" pt_clust_9="20.13228"></scales>
<clustering>
<clus scale="   20.132">  2  9  1 -1</clus>
<clus scale="   74.964">  5  6 -1 -1</clus>
<clus scale="   91.021">  7  8 -1 -1</clus>
<clus scale="  116.813">  2  5  1 -1</clus>
<clus scale="   20.132">  2  5  1 -1</clus>
</clustering>
</event>
<event>
 9    2  0.1723348E-004  0.1070654E+03  0.7546771E-02  0.1268794E+00
         21   -1    0    0  501  502  0.00000000000E+00  0.00000000000E+00  0.14677222971E+03  0.14677222971E+03  0.00000000000E+00 0. -1.
         -3   -1    0    0    0  501 -0.00000000000E+00 -0.00000000000E+00 -0.25237791678E+03  0.25237791678E+03  0.00000000000E+00 0.  1.
         24    2    1    2    0    0 -0.46789177153E+02 -0.40265071876E+02 -0.19091013344E+03  0.21812715981E+03  0.85570296750E+02 0.  0.
         23    2    1    2    0    0  0.32956282564E+02  0.20250306970E-01  0.15010379311E+02  0.98850908079E+02  0.91978658234E+02 0.  0.
        -11    1    3    3    0    0 -0.52662685686E+02 -0.61443398948E+01 -0.16907746878E+03  0.17719565972E+03  0.00000000000E+00 0.  1.
         12    1    3    3    0    0  0.58735085332E+01 -0.34120731981E+02 -0.21832664667E+02  0.40931500093E+02  0.00000000000E+00 0. -1.
        -13    1    4    4    0    0 -0.15394663264E+01  0.23685825737E+02 -0.29436322646E+02  0.37813825360E+02  0.00000000000E+00 0.  1.
         13    1    4    4    0    0  0.34495748890E+02 -0.23665575430E+02  0.44446701957E+02  0.61037082719E+02  0.00000000000E+00 0. -1.
         -4    1    1    2    0  502  0.13832894589E+02  0.40244821569E+02  0.70294067070E+02  0.82172078598E+02  0.00000000000E+00 0.  1.
<scales pt_clust_5="13000.00000" pt_clust_6="13000.00000" pt_clust_7="13000.00000" pt_clust_8="13000.00000" pt_clust_9="42.55578"></scales>
<clustering>
<clus scale="   42.556">  1  9  2 -1</clus>
<clus scale="   85.570">  5  6 -1 -1</clus>
<clus scale="   91.979">  7  8 -1 -1</clus>
<clus scale="  101.613">  2  5  1 -1</clus>
<clus scale="   42.556">  1  5  2 -1</clus>
</clustering>
</event>
<event>
 9    2  0.1723348E-004  0.1950073E+03  0.7546771E-02  0.1159701E+00
         21   -1    0    0  501  502  0.00000000000E+00  0.00000000000E+00  0.46117180600E+03  0.46117180600E+03  0.00000000000E+00 0.  1.
         -1   -1    0    0    0  501 -0.00000000000E+00 -0.00000000000E+00 -0.20087388309E+03  0.20087388309E+03  0.00000000000E+00 0.  1.
         23    2    1    2    0    0 -0.11021571628E+03  0.93496439284E+02 -0.21696082195E+02  0.17210257383E+03  0.90881723484E+02 0.  0.
         24    2    1    2    0    0  0.18799884917E+03  0.70351167075E+02  0.13282834645E+03  0.25510988168E+03  0.84527085087E+02 0.  0.
        -11    1    4    4    0    0  0.16318065525E+03  0.35083031727E+02  0.13059166246E+03  0.21192670352E+03  0.00000000000E+00 0.  1.
         12    1    4    4    0    0  0.24818193921E+02  0.35268135348E+02  0.22366839869E+01  0.43183178156E+02  0.00000000000E+00 0. -1.
        -11    1    3    3    0    0 -0.40426165199E+02 -0.13559248351E+02 -0.98311934462E+01  0.43758203953E+02  0.00000000000E+00 0. -1.
         11    1    3    3    0    0 -0.69789551084E+02  0.10705568763E+03 -0.11864888749E+02  0.12834436988E+03  0.00000000000E+00 0.  1.
         -2    1    1    2    0  502 -0.77783132886E+02 -0.16384760636E+03  0.14916565865E+03  0.23483323358E+03  0.00000000000E+00 0.  1.
<scales pt_clust_5="13000.00000" pt_clust_6="13000.00000" pt_clust_7="13000.00000" pt_clust_8="13000.00000" pt_clust_9="175.73563"></scales>
<clustering>
<clus scale="   84.527">  5  6 -1 -1</clus>
<clus scale="   90.882">  7  8 -1 -1</clus>
<clus scale="  170.730">  2  7  1 -1</clus>
<clus scale="  175.736">  1  9  2 -1</clus>
<clus scale="  175.736">  1  5  2 -1</clus>
</clustering>
</event>
<event>
 9    2  0.1723348E-004  0.1565068E+03  0.7546771E-02  0.1198479E+00
         -1   -1    0    0    0  501 -0.00000000000E+00  0.00000000000E+00  0.11743317207E+04  0.11743317207E+04  0.00000000000E+00 0.  1.
         21   -1    0    0  501  502  0.00000000000E+00 -0.00000000000E+00 -0.49560787803E+02  0.49560787803E+02  0.00000000000E+00 0.  1.
         24    2    1    2    0    0 -0.95496108159E+02 -0.84443231066E+02  0.49002258695E+03  0.51300126856E+03  0.82449984081E+02 0.  0.
         23    2    1    2    0    0  0.12225036015E+03 -0.57836973139E+02  0.32744593163E+03  0.37119399187E+03  0.11078752384E+03 0.  0.
        -13    1    3    3    0    0 -0.75864095183E+02 -0.95178930581E+02  0.33608210066E+03  0.35744309778E+03  0.00000000000E+00 0.  1.
         14    1    3    3    0    0 -0.19632012976E+02  0.10735699515E+02  0.15394048630E+03  0.15555817079E+03  0.00000000000E+00 0. -1.
        -13    1    4    4    0    0  0.12598612448E+03 -0.19802363811E+02  0.19228619220E+03  0.23073494943E+03  0.00000000000E+00 0.  1.
         13    1    4    4    0    0 -0.37357643334E+01 -0.38034609328E+02  0.13515973943E+03  0.14045904244E+03  0.00000000000E+00 0. -1.
         -2    1    1    2    0  502 -0.26754251989E+02  0.14228020421E+03  0.30730241434E+03  0.33969724810E+03  0.00000000000E+00 0.  1.
<scales pt_clust_5="13000.00000" pt_clust_6="13000.00000" pt_clust_7="13000.00000" pt_clust_8="13000.00000" pt_clust_9="144.77378"></scales>
<clustering>
<clus scale="   82.450">  5  6 -1 -1</clus>
<clus scale="  110.788">  7  8 -1 -1</clus>
<clus scale="  144.774">  2  9  1 -1</clus>
<clus scale="  137.908">  1  5  2 -1</clus>
<clus scale="  144.774">  2  5  1 -1</clus>
</clustering>
</event>
<event>
 9    2  0.1723348E-004  0.1003009E+03  0.7546771E-02  0.1280921E+00
          2   -1    0    0  502    0 -0.00000000000E+00  0.00000000000E+00  0.42246792491E+02  0.42246792491E+02  0.00000000000E+00 0. -1.
         21   -1    0    0  501  502  0.00000000000E+00 -0.00000000000E+00 -0.66836301592E+03  0.66836301592E+03  0.00000000000E+00 0. -1.
         23    2    1    2    0    0 -0.19120315749E+02  0.55107071729E+02 -0.33189140406E+02  0.10725159188E+03  0.83660080624E+02 0.  0.
         24    2    1    2    0    0  0.76381895325E+01 -0.35178723736E+02 -0.45355075413E+03  0.46209697156E+03  0.80804950409E+02 0.  0.
        -13    1    4    4    0    0  0.10164900183E+02 -0.54261003076E+02 -0.19035854811E+03  0.19820181252E+03  0.00000000000E+00 0.  1.
         14    1    4    4    0    0 -0.25267106510E+01  0.19082279340E+02 -0.26319220602E+03  0.26389515903E+03  0.00000000000E+00 0. -1.
        -13    1    3    3    0    0  0.21431050478E+02  0.38264005436E+02 -0.43900525563E+02  0.62053849045E+02  0.00000000000E+00 0. -1.
         13    1    3    3    0    0 -0.40551366226E+02  0.16843066294E+02  0.10711385157E+02  0.45197742831E+02  0.00000000000E+00 0.  1.
          1    1    1    2  501    0  0.11482126216E+02 -0.19928347994E+02 -0.13937632890E+03  0.14126124498E+03  0.00000000000E+00 0. -1.
<scales pt_clust_5="13000.00000" pt_clust_6="13000.00000" pt_clust_7="13000.00000" pt_clust_8="13000.00000" pt_clust_9="22.99953"></scales>
<clustering>
<clus scale="   23.000">  2  9  1 -1</clus>
<clus scale="   80.805">  5  6 -1 -1</clus>
<clus scale="   83.660">  7  8 -1 -1</clus>
<clus scale="   97.932">  2  5  1 -1</clus>
<clus scale="   23.000">  2  5  1 -1</clus>
</clustering>
</event>
<event>
 9    2  0.1723348E-004  0.1444148E+03  0.7546771E-02  0.1209287E+00
         21   -1    0    0  501  502  0.00000000000E+00  0.00000000000E+00  0.84244763310E+02  0.84244763310E+02  0.00000000000E+00 0. -1.
          2   -1    0    0  502    0 -0.00000000000E+00 -0.00000000000E+00 -0.65368197947E+03  0.65368197947E+03  0.00000000000E+00 0. -1.
         23    2    1    2    0    0  0.11527372615E+03 -0.18936829812E+02 -0.50750265258E+03  0.52850024403E+03  0.90038492293E+02 0.  0.
         24    2    1    2    0    0 -0.86449791394E+02  0.72171264522E+01  0.21221145027E+02  0.12063999902E+03  0.81104987645E+02 0.  0.
        -11    1    4    4    0    0 -0.55429953833E+02 -0.33853081909E+02 -0.47951058397E-01  0.64950082648E+02  0.00000000000E+00 0.  1.
         12    1    4    4    0    0 -0.31019837560E+02  0.41070208361E+02  0.21269096085E+02  0.55689916371E+02  0.00000000000E+00 0. -1.
        -11    1    3    3    0    0  0.44445613469E+02  0.33910708756E+02 -0.14558640745E+03  0.15595111657E+03  0.00000000000E+00 0.  1.
         11    1    3    3    0    0  0.70828112680E+02 -0.52847538568E+02 -0.36191624514E+03  0.37254912746E+03  0.00000000000E+00 0. -1.
          1    1    1    2  501    0 -0.28823934756E+02  0.11719703359E+02 -0.83155708605E+02  0.88786499735E+02  0.00000000000E+00 0. -1.
<scales pt_clust_5="13000.00000" pt_clust_6="13000.00000" pt_clust_7="13000.00000" pt_clust_8="13000.00000" pt_clust_9="31.11546"></scales>
<clustering>
<clus scale="   31.115">  1  9  2 -1</clus>
<clus scale="   81.105">  5  6 -1 -1</clus>
<clus scale="   90.038">  7  8 -1 -1</clus>
<clus scale="  139.021">  1  5  2 -1</clus>
<clus scale="   31.115">  1  5  2 -1</clus>
</clustering>
</event>
<event>
 9    2  0.1723348E-004  0.1019325E+03  0.7546771E-02  0.1281397E+00
         21   -1    0    0  501  502  0.00000000000E+00  0.00000000000E+00  0.43175989348E+03  0.43175989348E+03  0.00000000000E+00 0.  1.
          2   -1    0    0  502    0 -0.00000000000E+00 -0.00000000000E+00 -0.47883368222E+02  0.47883368222E+02  0.00000000000E+00 0. -1.
         23    2    1    2    0    0  0.32760679359E+02  0.34521562645E+02  0.12998323794E+03  0.16599970647E+03  0.91625651443E+02 0.  0.
         24    2    1    2    0    0  0.34754354464E+02 -0.58196040132E+02  0.19164894150E+03  0.21881149703E+03  0.80959929679E+02 0.  0.
        -11    1    4    4    0    0  0.31154872172E+02 -0.56103756915E+02  0.19969446342E+03  0.20975255975E+03  0.00000000000E+00 0.  1.
         12    1    4    4    0    0  0.35994822916E+01 -0.20922832171E+01 -0.80455219172E+01  0.90589372858E+01  0.00000000000E+00 0. -1.
        -11    1    3    3    0    0 -0.22266864725E+02  0.21873630529E+01  0.85053402436E+02  0.87947024326E+02  0.00000000000E+00 0. -1.
         11    1    3    3    0    0  0.55027544083E+02  0.32334199592E+02  0.44929835503E+02  0.78052682141E+02  0.00000000000E+00 0.  1.
          1    1    1    2  501    0 -0.67515033823E+02  0.23674477487E+02  0.62244345813E+02  0.94832058198E+02  0.00000000000E+00 0. -1.
<scales pt_clust_5="13000.00000" pt_clust_6="13000.00000" pt_clust_7="13000.00000" pt_clust_8="13000.00000" pt_clust_9="71.54555"></scales>
<clustering>
<clus scale="   71.546">  1  9  2 -1</clus>
<clus scale="   80.960">  5  6 -1 -1</clus>
<clus scale="   91.626">  7  8 -1 -1</clus>
<clus scale="   92.463">  1  5  2 -1</clus>
<clus scale="   71.546">  1  5  2 -1</clus>
</clustering>
</event>
<event>
 9    2  0.1723348E-004  0.1071909E+03  0.7546771E-02  0.1270094E+00
          2   -1    0    0  502    0 -0.00000000000E+00  0.00000000000E+00  0.34146386136E+03  0.34146386136E+03  0.00000000000E+00 0. -1.
         21   -1    0    0  501  502  0.00000000000E+00 -0.00000000000E+00 -0.61948832165E+02  0.61948832165E+02  0.00000000000E+00 0. -1.
         24    2    1    2    0    0  0.43072889411E+02 -0.26355806702E+02  0.14484141837E+03  0.17344358192E+03  0.80955156000E+02 0.  0.
         23    2    1    2    0    0 -0.77469699843E+02  0.14260480904E+02  0.37398026705E+02  0.12608467226E+03  0.91070392922E+02 0.  0.
        -13    1    3    3    0    0  0.57179490358E+02  0.66444992110E+01  0.71505540589E+02  0.91796981554E+02  0.00000000000E+00 0.  1.
         14    1    3    3    0    0 -0.14106600948E+02 -0.33000305913E+02  0.73335877781E+02  0.81646600361E+02  0.00000000000E+00 0. -1.
        -13    1    4    4    0    0 -0.40335435879E+02  0.29759908409E+02 -0.21672827908E+02  0.54610539327E+02  0.00000000000E+00 0. -1.
         13    1    4    4    0    0 -0.37134263965E+02 -0.15499427505E+02  0.59070854613E+02  0.71474132929E+02  0.00000000000E+00 0.  1.
          1    1    1    2  501    0  0.34396810433E+02  0.12095325798E+02  0.97275584116E+02  0.10388443935E+03  0.00000000000E+00 0. -1.
<scales pt_clust_5="13000.00000" pt_clust_6="13000.00000" pt_clust_7="13000.00000" pt_clust_8="13000.00000" pt_clust_9="36.46147"></scales>
<clustering>
<clus scale="   36.461">  2  9  1 -1</clus>
<clus scale="   80.955">  5  6 -1 -1</clus>
<clus scale="   91.070">  7  8 -1 -1</clus>
<clus scale="   98.741">  1  5  2 -1</clus>
<clus scale="   36.461">  2  5  1 -1</clus>
</clustering>
</event>
<event>
 9    2  0.1723348E-004  0.1263219E+03  0.7546771E-02  0.1236593E+00
         -1   -1    0    0    0  501 -0.00000000000E+00  0.00000000000E+00  0.18531964189E+03  0.18531964189E+03  0.00000000000E+00 0.  1.
         21   -1    0    0  501  502  0.00000000000E+00 -0.00000000000E+00 -0.14016353581E+03  0.14016353581E+03  0.00000000000E+00 0.  1.
         23    2    1    2    0    0 -0.60035046565E+02 -0.66458950330E+02  0.85623960619E+02  0.15450553421E+03  0.92301129867E+02 0.  0.
         24    2    1    2    0    0  0.19082029593E+02  0.85323189333E+02 -0.15086746313E+02  0.11923588311E+03  0.79658115812E+02 0.  0.
        -13    1    4    4    0    0 -0.74938748242E+01  0.90541837601E+02 -0.15418039172E+02  0.92150412088E+02  0.00000000000E+00 0.  1.
         14    1    4    4    0    0  0.26575904417E+02 -0.52186482687E+01  0.33129285834E+00  0.27085471019E+02  0.00000000000E+00 0. -1.
        -11    1    3    3    0    0 -0.76579000121E+02 -0.44969159896E+02  0.31967891337E+02  0.94384928234E+02  0.00000000000E+00 0.  1.
         11    1    3    3    0    0  0.16543953556E+02 -0.21489790434E+02  0.53656069282E+02  0.60120605976E+02  0.00000000000E+00 0. -1.
         -2    1    1    2    0  502  0.40953016972E+02 -0.18864239003E+02 -0.25381108229E+02  0.51741760380E+02  0.00000000000E+00 0.  1.
<scales pt_clust_5="13000.00000" pt_clust_6="13000.00000" pt_clust_7="13000.00000" pt_clust_8="13000.00000" pt_clust_9="45.08890"></scales>
<clustering>
<clus scale="   45.089">  2  9  1 -1</clus>
<clus scale="   79.658">  5  6 -1 -1</clus>
<clus scale="   92.301">  7  8 -1 -1</clus>
<clus scale="  117.402">  2  5  1 -1</clus>
<clus scale="   45.089">  2  5  1 -1</clus>
</clustering>
</event>
<event>
 9    2  0.1723348E-004  0.1450129E+03  0.7546771E-02  0.1220419E+00
          2   -1    0    0  502    0 -0.00000000000E+00  0.00000000000E+00  0.60282102427E+02  0.60282102427E+02  0.00000000000E+00 0. -1.
         21   -1    0    0  501  502  0.00000000000E+00 -0.00000000000E+00 -0.76180989502E+03  0.76180989502E+03  0.00000000000E+00 0. -1.
         23    2    1    2    0    0  0.54771931930E+02  0.18048677517E+02 -0.13587696058E+03  0.17386125236E+03  0.91866573712E+02 0.  0.
         24    2    1    2    0    0  0.44446041140E+02 -0.10877053840E+03 -0.44533481788E+03  0.46781288157E+03  0.81971406903E+02 0.  0.
        -11    1    4    4    0    0  0.17603261764E+02 -0.75282373221E+02 -0.39100978655E+03  0.39857993392E+03  0.00000000000E+00 0.  1.
         12    1    4    4    0    0  0.26842779376E+02 -0.33488165178E+02 -0.54325031323E+02  0.69232947647E+02  0.00000000000E+00 0. -1.
        -13    1    3    3    0    0  0.80646058998E+02  0.17705429607E+02 -0.10187023865E+03  0.13112899981E+03  0.00000000000E+00 0. -1.
         13    1    3    3    0    0 -0.25874127067E+02  0.34324790978E+00 -0.34006721935E+02  0.42732252543E+02  0.00000000000E+00 0.  1.
          1    1    1    2  501    0 -0.99217973071E+02  0.90721860882E+02 -0.12031601413E+03  0.18041786352E+03  0.00000000000E+00 0. -1.
<scales pt_clust_5="13000.00000" pt_clust_6="13000.00000" pt_clust_7="13000.00000" pt_clust_8="13000.00000" pt_clust_9="119.62207"></scales>
<clustering>
<clus scale="   81.971">  5  6 -1 -1</clus>
<clus scale="   91.867">  7  8 -1 -1</clus>
<clus scale="  108.467">  1  7  2 -1</clus>
<clus scale="  119.622">  2  9  1 -1</clus>
<clus scale="  119.622">  2  5  1 -1</clus>
</clustering>
</event>
<event>
 9    2  0.1723348E-004  0.1161765E+03  0.7546771E-02  0.1253744E+00
          2   -1    0    0  502    0 -0.00000000000E+00  0.00000000000E+00  0.22726518253E+03  0.22726518253E+03  0.00000000000E+00 0. -1.
         21   -1    0    0  501  502  0.00000000000E+00 -0.00000000000E+00 -0.31589942379E+03  0.31589942379E+03  0.00000000000E+00 0.  1.
         23    2    1    2    0    0  0.65354147611E+02 -0.14232299239E+02  0.11482788811E+03  0.16133826026E+03  0.91492444416E+02 0.  0.
         24    2    1    2    0    0 -0.12999443739E+03  0.12013553814E+01 -0.25576160762E+03  0.29766336140E+03  0.79306240468E+02 0.  0.
        -11    1    4    4    0    0 -0.34475476096E+02  0.35594588100E+02 -0.10215111369E+03  0.11353582334E+03  0.00000000000E+00 0.  1.
         12    1    4    4    0    0 -0.95518961296E+02 -0.34393232718E+02 -0.15361049393E+03  0.18412753806E+03  0.00000000000E+00 0. -1.
        -11    1    3    3    0    0  0.61391291629E+02 -0.48842837747E+02  0.77364398904E+02  0.11018059586E+03  0.00000000000E+00 0. -1.
         11    1    3    3    0    0  0.39628559815E+01  0.34610538508E+02  0.37463489204E+02  0.51157664398E+02  0.00000000000E+00 0.  1.
          1    1    1    2  501    0  0.64640289782E+02  0.13030943858E+02  0.52299478261E+02  0.84162984662E+02  0.00000000000E+00 0. -1.
<scales pt_clust_5="13000.00000" pt_clust_6="13000.00000" pt_clust_7="13000.00000" pt_clust_8="13000.00000" pt_clust_9="65.94071"></scales>
<clustering>
<clus scale="   65.941">  2  9  1 -1</clus>
<clus scale="   79.306">  5  6 -1 -1</clus>
<clus scale="   91.492">  7  8 -1 -1</clus>
<clus scale="  106.844">  2  5  1 -1</clus>
<clus scale="   65.941">  2  5  1 -1</clus>
</clustering>
</event>
<event>
 9    2  0.1723348E-004  0.9647292E+02  0.7546771E-02  0.1289426E+00
          2   -1    0    0  502    0 -0.00000000000E+00  0.00000000000E+00  0.28327897074E+03  0.28327897074E+03  0.00000000000E+00 0. -1.
         21   -1    0    0  501  502  0.00000000000E+00 -0.00000000000E+00 -0.64789059400E+02  0.64789059400E+02  0.00000000000E+00 0. -1.
         24    2    1    2    0    0 -0.29470998478E+02 -0.18887789328E+02  0.13341398537E+03  0.16475663751E+03  0.90111984631E+02 0.  0.
         23    2    1    2    0    0 -0.10778244805E+02  0.28168633643E+02  0.99590031797E+02  0.13953017606E+03  0.92956189231E+02 0.  0.
        -13    1    3    3    0    0 -0.54990910983E+02  0.77769919284E+01  0.55364452810E+02  0.78420051830E+02  0.00000000000E+00 0.  1.
         14    1    3    3    0    0  0.25519912505E+02 -0.26664781257E+02  0.78049532563E+02  0.86336585681E+02  0.00000000000E+00 0. -1.
        -13    1    4    4    0    0 -0.44192300582E+02  0.10464650795E+02  0.89546972942E+02  0.10040482414E+03  0.00000000000E+00 0. -1.
         13    1    4    4    0    0  0.33414055776E+02  0.17703982848E+02  0.10043058854E+02  0.39125351925E+02  0.00000000000E+00 0.  1.
          1    1    1    2  501    0  0.40249243284E+02 -0.92808443145E+01 -0.14514105828E+02  0.43781216567E+02  0.00000000000E+00 0. -1.
<scales pt_clust_5="13000.00000" pt_clust_6="13000.00000" pt_clust_7="13000.00000" pt_clust_8="13000.00000" pt_clust_9="41.30539"></scales>
<clustering>
<clus scale="   41.305">  2  9  1 -1</clus>
<clus scale="   90.112">  5  6 -1 -1</clus>
<clus scale="   92.956">  7  8 -1 -1</clus>
<clus scale="   93.735">  1  5  2 -1</clus>
<clus scale="   41.305">  2  5  1 -1</clus>
</clustering>
</event>
<event>
 9    2  0.1723348E-004  0.1216538E+03  0.7546771E-02  0.1245136E+00
         -1   -1    0    0    0  501 -0.00000000000E+00  0.00000000000E+00  0.75659719063E+03  0.75659719063E+03  0.00000000000E+00 0.  1.
         21   -1    0    0  501  502  0.00000000000E+00 -0.00000000000E+00 -0.32527299582E+02  0.32527299582E+02  0.00000000000E+00 0.  1.
         24    2    1    2    0    0 -0.73732168849E+02  0.40267576122E+02  0.30503843409E+03  0.32628480902E+03  0.79720887557E+02 0.  0.
         23    2    1    2    0    0  0.19018228092E+02 -0.81368291503E+02  0.30150880484E+03  0.32684535087E+03  0.94540108585E+02 0.  0.
        -13    1    3    3    0    0 -0.64891514938E+02  0.57978107313E+02  0.28551792631E+03  0.29848426405E+03  0.00000000000E+00 0.  1.
         14    1    3    3    0    0 -0.88406539107E+01 -0.17710531191E+02  0.19520507779E+02  0.27800544969E+02  0.00000000000E+00 0. -1.
        -11    1    4    4    0    0  0.23980150309E+02  0.15160596722E+02  0.51407696992E+02  0.58716629772E+02  0.00000000000E+00 0. -1.
         11    1    4    4    0    0 -0.49619222165E+01 -0.96528888225E+02  0.25010110785E+03  0.26812872110E+03  0.00000000000E+00 0.  1.
         -2    1    1    2    0  502  0.54713940757E+02  0.41100715381E+02  0.11752265211E+03  0.13599433032E+03  0.00000000000E+00 0.  1.
<scales pt_clust_5="13000.00000" pt_clust_6="13000.00000" pt_clust_7="13000.00000" pt_clust_8="13000.00000" pt_clust_9="68.43160"></scales>
<clustering>
<clus scale="   68.432">  2  9  1 -1</clus>
<clus scale="   79.721">  5  6 -1 -1</clus>
<clus scale="   94.540">  7  8 -1 -1</clus>
<clus scale="  110.532">  1  5  2 -1</clus>
<clus scale="   68.432">  2  5  1 -1</clus>
</clustering>
</event>
<event>
 9    2  0.1723348E-004  0.1195009E+03  0.7546771E-02  0.1247663E+00
          2   -1    0    0  502    0 -0.00000000000E+00  0.00000000000E+00  0.28230694103E+03  0.28230694103E+03  0.00000000000E+00 0. -1.
         21   -1    0    0  501  502  0.00000000000E+00 -0.00000000000E+00 -0.17202541296E+03  0.17202541296E+03  0.00000000000E+00 0. -1.
         23    2    1    2    0    0  0.51889775058E+02 -0.49184304697E+02  0.58361008882E+02  0.12970833351E+03  0.91140549929E+02 0.  0.
         24    2    1    2    0    0 -0.10314385830E+03  0.29654940970E+02 -0.97577901251E+02  0.16538158012E+03  0.79445259145E+02 0.  0.
        -11    1    4    4    0    0 -0.92098043362E+01 -0.23452951195E+02 -0.23829694734E+02  0.34680192716E+02  0.00000000000E+00 0.  1.
         12    1    4    4    0    0 -0.93934053962E+02  0.53107892165E+02 -0.73748206517E+02  0.13070138740E+03  0.00000000000E+00 0. -1.
        -13    1    3    3    0    0  0.16470631572E+02  0.25337858794E+02  0.30511448562E+01  0.30374302915E+02  0.00000000000E+00 0.  1.
         13    1    3    3    0    0  0.35419143486E+02 -0.74522163491E+02  0.55309864025E+02  0.99334030600E+02  0.00000000000E+00 0. -1.
          1    1    1    2  501    0  0.51254083240E+02  0.19529363727E+02  0.14949842044E+03  0.15924244036E+03  0.00000000000E+00 0. -1.
<scales pt_clust_5="13000.00000" pt_clust_6="13000.00000" pt_clust_7="13000.00000" pt_clust_8="13000.00000" pt_clust_9="54.84870"></scales>
<clustering>
<clus scale="   54.849">  2  9  1 -1</clus>
<clus scale="   79.445">  5  6 -1 -1</clus>
<clus scale="   91.141">  7  8 -1 -1</clus>
<clus scale="  110.840">  2  5  1 -1</clus>
<clus scale="   54.849">  2  5  1 -1</clus>
</clustering>
</event>
<event>
 9    2  0.1723348E-004  0.1032886E+03  0.7546771E-02  0.1278063E+00
         21   -1    0    0  501  502  0.00000000000E+00  0.00000000000E+00  0.16783949572E+03  0.16783949572E+03  0.00000000000E+00 0.  1.
          2   -1    0    0  502    0 -0.00000000000E+00 -0.00000000000E+00 -0.22248619097E+03  0.22248619097E+03  0.00000000000E+00 0. -1.
         23    2    1    2    0    0  0.28178644428E+02 -0.38757220712E+02 -0.17933850250E+03  0.20643371568E+03  0.90312913425E+02 0.  0.
         24    2    1    2    0    0 -0.30657086841E+02  0.59362388347E+02  0.71005722920E+02  0.12633407616E+03  0.80341371577E+02 0.  0.
        -13    1    4    4    0    0  0.11070006424E+01  0.70724461309E+02  0.46821177993E+02  0.84825689425E+02  0.00000000000E+00 0.  1.
         14    1    4    4    0    0 -0.31764087483E+02 -0.11362072961E+02  0.24184544927E+02  0.41508386730E+02  0.00000000000E+00 0. -1.
        -13    1    3    3    0    0  0.52826696323E+02 -0.13285867702E+02 -0.15261219183E+03  0.16204214026E+03  0.00000000000E+00 0.  1.
         13    1    3    3    0    0 -0.24648051894E+02 -0.25471353010E+02 -0.26726310674E+02  0.44391575424E+02  0.00000000000E+00 0. -1.
          1    1    1    2  501    0  0.24784424126E+01 -0.20605167635E+02  0.53686084323E+02  0.57557894854E+02  0.00000000000E+00 0. -1.
<scales pt_clust_5="13000.00000" pt_clust_6="13000.00000" pt_clust_7="13000.00000" pt_clust_8="13000.00000" pt_clust_9="20.75369"></scales>
<clustering>
<clus scale="   20.754">  1  9  2 -1</clus>
<clus scale="   80.341">  5  6 -1 -1</clus>
<clus scale="   90.313">  7  8 -1 -1</clus>
<clus scale="   94.693">  1  5  2 -1</clus>
<clus scale="   20.754">  1  5  2 -1</clus>
</clustering>
</event>
<event>
 9    2  0.1723348E-004  0.1239070E+03  0.7546771E-02  0.1246077E+00
         21   -1    0    0  501  502  0.00000000000E+00  0.00000000000E+00  0.37272643423E+02  0.37272643423E+02  0.00000000000E+00 0.  1.
          2   -1    0    0  502    0 -0.00000000000E+00 -0.00000000000E+00 -0.10850593657E+04  0.10850593657E+04  0.00000000000E+00 0. -1.
         24    2    1    2    0    0 -0.54866796777E+02  0.38506790337E+02 -0.76819220981E+03  0.77494635817E+03  0.77002912458E+02 0.  0.
         23    2    1    2    0    0  0.82640533407E+02 -0.23019247053E+01 -0.26993799577E+03  0.30074424174E+03  0.10366205072E+03 0.  0.
        -13    1    3    3    0    0 -0.50153172102E+01 -0.20529647016E+02 -0.94316832145E+02  0.96655494615E+02  0.00000000000E+00 0.  1.
         14    1    3    3    0    0 -0.49851479566E+02  0.59036437353E+02 -0.67387537767E+03  0.67829086355E+03  0.00000000000E+00 0. -1.
        -11    1    4    4    0    0  0.48625158275E+02 -0.39492594483E+02 -0.22384594633E+03  0.23244586192E+03  0.00000000000E+00 0. -1.
         11    1    4    4    0    0  0.34015375133E+02  0.37190669777E+02 -0.46092049442E+02  0.68298379817E+02  0.00000000000E+00 0.  1.
          1    1    1    2  501    0 -0.27773736631E+02 -0.36204865632E+02 -0.96565167289E+01  0.46641409254E+02  0.00000000000E+00 0. -1.
<scales pt_clust_5="13000.00000" pt_clust_6="13000.00000" pt_clust_7="13000.00000" pt_clust_8="13000.00000" pt_clust_9="45.63083"></scales>
<clustering>
<clus scale="   45.631">  1  9  2 -1</clus>
<clus scale="   77.003">  5  6 -1 -1</clus>
<clus scale="  102.648">  2  5  1 -1</clus>
<clus scale="  103.662">  7  8 -1 -1</clus>
<clus scale="   45.631">  1  5  2 -1</clus>
</clustering>
</event>
<event>
 9    2  0.1723348E-004  0.1520665E+03  0.7546771E-02  0.1199957E+00
         21   -1    0    0  501  502  0.00000000000E+00  0.00000000000E+00  0.63003588147E+02  0.63003588147E+02  0.00000000000E+00 0.  1.
          2   -1    0    0  502    0 -0.00000000000E+00 -0.00000000000E+00 -0.58360397684E+03  0.58360397684E+03  0.00000000000E+00 0. -1.
         23    2    1    2    0    0 -0.14362840933E+02  0.10466621378E+03 -0.23559671523E+03  0.27402442253E+03  0.91772895817E+02 0.  0.
         24    2    1    2    0    0 -0.22482351992E+02 -0.14059029342E+03 -0.27526000052E+03  0.32020903719E+03  0.80589533187E+02 0.  0.
        -11    1    4    4    0    0 -0.26401897903E+02 -0.49700617150E+02 -0.43178135908E+02  0.70933510969E+02  0.00000000000E+00 0.  1.
         12    1    4    4    0    0  0.39195459107E+01 -0.90889676269E+02 -0.23208186461E+03  0.24927552623E+03  0.00000000000E+00 0. -1.
        -13    1    3    3    0    0  0.32724384617E+02  0.33354919847E+02 -0.13023851322E+03  0.13836728787E+03  0.00000000000E+00 0. -1.
         13    1    3    3    0    0 -0.47087225550E+02  0.71311293931E+02 -0.10535820201E+03  0.13565713466E+03  0.00000000000E+00 0.  1.
          1    1    1    2  501    0  0.36845192925E+02  0.35924079643E+02 -0.97436729360E+01  0.52374105263E+02  0.00000000000E+00 0. -1.
<scales pt_clust_5="13000.00000" pt_clust_6="13000.00000" pt_clust_7="13000.00000" pt_clust_8="13000.00000" pt_clust_9="51.45977"></scales>
<clustering>
<clus scale="   51.460">  1  9  2 -1</clus>
<clus scale="   80.590">  5  6 -1 -1</clus>
<clus scale="   91.773">  7  8 -1 -1</clus>
<clus scale="  145.591">  1  5  2 -1</clus>
<clus scale="   51.460">  1  5  2 -1</clus>
</clustering>
</event>
<event>
 9    2  0.1723348E-004  0.1969490E+03  0.7546771E-02  0.1154938E+00
         21   -1    0    0  501  502  0.00000000000E+00  0.00000000000E+00  0.35255943104E+03  0.35255943104E+03  0.00000000000E+00 0. -1.
         -3   -1    0    0    0  501 -0.00000000000E+00 -0.00000000000E+00 -0.28665916484E+03  0.28665916484E+03  0.00000000000E+00 0.  1.
         23    2    1    2    0    0  0.13012330232E+03 -0.10803167393E+03 -0.20817890041E+03  0.28568707985E+03  0.98365322325E+02 0.  0.
         24    2    1    2    0    0 -0.12416713977E+03  0.13324648645E+03  0.22745020609E+03  0.30018807593E+03  0.72160792184E+02 0.  0.
        -13    1    4    4    0    0 -0.67673298642E+02  0.24515331536E+02  0.67296053334E+02  0.98536468496E+02  0.00000000000E+00 0.  1.
         14    1    4    4    0    0 -0.56493841129E+02  0.10873115492E+03  0.16015415276E+03  0.20165160744E+03  0.00000000000E+00 0. -1.
        -13    1    3    3    0    0  0.99908850401E+02 -0.10123447116E+03 -0.10184750298E+03  0.17493744712E+03  0.00000000000E+00 0.  1.
         13    1    3    3    0    0  0.30214451914E+02 -0.67972027717E+01 -0.10633139744E+03  0.11074963273E+03  0.00000000000E+00 0. -1.
         -4    1    1    2    0  502 -0.59561625447E+01 -0.25214812517E+02  0.46628960523E+02  0.53343440102E+02  0.00000000000E+00 0.  1.
<scales pt_clust_5="13000.00000" pt_clust_6="13000.00000" pt_clust_7="13000.00000" pt_clust_8="13000.00000" pt_clust_9="25.90874"></scales>
<clustering>
<clus scale="   25.909">  1  9  2 -1</clus>
<clus scale="   72.161">  5  6 -1 -1</clus>
<clus scale="   98.365">  7  8 -1 -1</clus>
<clus scale="  185.258">  1  5  2 -1</clus>
<clus scale="   25.909">  1  5  2 -1</clus>
</clustering>
</event>
<event>
 9    2  0.1723348E-004  0.9953240E+02  0.7546771E-02  0.1283781E+00
         21   -1    0    0  501  502  0.00000000000E+00  0.00000000000E+00  0.24340895599E+03  0.24340895599E+03  0.00000000000E+00 0.  1.
         -1   -1    0    0    0  501 -0.00000000000E+00 -0.00000000000E+00 -0.63620347421E+02  0.63620347421E+02  0.00000000000E+00 0.  1.
         23    2    1    2    0    0 -0.22540310028E+02  0.27415923860E+02  0.42979911900E+02  0.10512984375E+03  0.89136483905E+02 0.  0.
         24    2    1    2    0    0  0.10294810055E+02 -0.57063124394E+02  0.59310056344E+02  0.11802486266E+03  0.83964290884E+02 0.  0.
        -11    1    4    4    0    0 -0.11541487683E+02 -0.62966996243E+02  0.11372443749E+02  0.65018313040E+02  0.00000000000E+00 0.  1.
         12    1    4    4    0    0  0.21836297737E+02  0.59038718489E+01  0.47937612595E+02  0.53006549624E+02  0.00000000000E+00 0. -1.
        -11    1    3    3    0    0 -0.15207269348E+02 -0.25247492282E+02  0.42789445732E+02  0.51957998168E+02  0.00000000000E+00 0. -1.
         11    1    3    3    0    0 -0.73330406799E+01  0.52663416142E+02  0.19046616813E+00  0.53171845583E+02  0.00000000000E+00 0.  1.
         -2    1    1    2    0  502  0.12245499973E+02  0.29647200534E+02  0.77498640328E+02  0.83874596999E+02  0.00000000000E+00 0.  1.
<scales pt_clust_5="13000.00000" pt_clust_6="13000.00000" pt_clust_7="13000.00000" pt_clust_8="13000.00000" pt_clust_9="32.07661"></scales>
<clustering>
<clus scale="   32.077">  1  9  2 -1</clus>
<clus scale="   83.964">  5  6 -1 -1</clus>
<clus scale="   89.136">  7  8 -1 -1</clus>
<clus scale="   94.928">  1  5  2 -1</clus>
<clus scale="   32.077">  1  5  2 -1</clus>
</clustering>
</event>
<event>
 9    2  0.1723348E-004  0.1095604E+03  0.7546771E-02  0.1265129E+00
         21   -1    0    0  501  502  0.00000000000E+00  0.00000000000E+00  0.47169376217E+02  0.47169376217E+02  0.00000000000E+00 0.  1.
          2   -1    0    0  502    0 -0.00000000000E+00 -0.00000000000E+00 -0.45044382330E+03  0.45044382330E+03  0.00000000000E+00 0. -1.
         24    2    1    2    0    0 -0.47860359691E+02  0.26926100328E+01 -0.22169759038E+03  0.24145827097E+03  0.82791369468E+02 0.  0.
         23    2    1    2    0    0  0.80147447624E+02 -0.22987837434E+01 -0.18706039656E+03  0.22340312928E+03  0.92132884686E+02 0.  0.
        -13    1    3    3    0    0 -0.32229803864E+02 -0.37553110643E+02 -0.87974112586E+02  0.10093780690E+03  0.00000000000E+00 0.  1.
         14    1    3    3    0    0 -0.15630555827E+02  0.40245720676E+02 -0.13372347780E+03  0.14052046407E+03  0.00000000000E+00 0. -1.
        -13    1    4    4    0    0  0.14258680851E+00 -0.23865021869E+02 -0.10161053042E+03  0.10437556942E+03  0.00000000000E+00 0. -1.
         13    1    4    4    0    0  0.80004860816E+02  0.21566238126E+02 -0.85449866144E+02  0.11902755986E+03  0.00000000000E+00 0.  1.
          1    1    1    2  501    0 -0.32287087933E+02 -0.39382628938E+00  0.54835398617E+01  0.32751799275E+02  0.00000000000E+00 0. -1.
<scales pt_clust_5="13000.00000" pt_clust_6="13000.00000" pt_clust_7="13000.00000" pt_clust_8="13000.00000" pt_clust_9="32.28949"></scales>
<clustering>
<clus scale="   32.289">  1  9  2 -1</clus>
<clus scale="   82.791">  5  6 -1 -1</clus>
<clus scale="   92.133">  7  8 -1 -1</clus>
<clus scale="  101.830">  2  5  1 -1</clus>
<clus scale="   32.289">  1  5  2 -1</clus>
</clustering>
</event>
<event>
 9    2  0.1723348E-004  0.1531327E+03  0.7546771E-02  0.1198450E+00
         21   -1    0    0  501  502  0.00000000000E+00  0.00000000000E+00  0.30401133045E+03  0.30401133045E+03  0.00000000000E+00 0.  1.
         -3   -1    0    0    0  501 -0.00000000000E+00 -0.00000000000E+00 -0.16952894294E+03  0.16952894294E+03  0.00000000000E+00 0.  1.
         24    2    1    2    0    0  0.11170560294E+03 -0.24186702722E+02 -0.66703036957E+02  0.15516760777E+03  0.81021929418E+02 0.  0.
         23    2    1    2    0    0 -0.14671792778E+03  0.32963675603E+02  0.82355292484E+02  0.19418128745E+03  0.91165914437E+02 0.  0.
        -13    1    3    3    0    0  0.43962948303E+02  0.20715746474E+00 -0.70480218954E+02  0.83067713352E+02  0.00000000000E+00 0.  1.
         14    1    3    3    0    0  0.67742654635E+02 -0.24393860186E+02  0.37771819975E+01  0.72099894421E+02  0.00000000000E+00 0. -1.
        -11    1    4    4    0    0 -0.90160372217E+02  0.63379100842E+02  0.39945760061E+02  0.11722400304E+03  0.00000000000E+00 0.  1.
         11    1    4    4    0    0 -0.56557555558E+02 -0.30415425239E+02  0.42409532423E+02  0.76957284409E+02  0.00000000000E+00 0. -1.
         -4    1    1    2    0  502  0.35012324837E+02 -0.87769728814E+01  0.11883013198E+03  0.12419137816E+03  0.00000000000E+00 0.  1.
<scales pt_clust_5="13000.00000" pt_clust_6="13000.00000" pt_clust_7="13000.00000" pt_clust_8="13000.00000" pt_clust_9="36.09568"></scales>
<clustering>
<clus scale="   36.096">  1  9  2 -1</clus>
<clus scale="   81.022">  5  6 -1 -1</clus>
<clus scale="   91.166">  7  8 -1 -1</clus>
<clus scale="  147.319">  2  5  1 -1</clus>
<clus scale="   36.096">  1  5  2 -1</clus>
</clustering>
</event>
<event>
 9    2  0.1723348E-004  0.9588684E+02  0.7546771E-02  0.1292848E+00
          2   -1    0    0  502    0 -0.00000000000E+00  0.00000000000E+00  0.16140957564E+03  0.16140957564E+03  0.00000000000E+00 0. -1.
         21   -1    0    0  501  502  0.00000000000E+00 -0.00000000000E+00 -0.11670925357E+03  0.11670925357E+03  0.00000000000E+00 0. -1.
         24    2    1    2    0    0  0.27931235473E+02  0.22630255818E+02  0.10324021591E+03  0.13801823827E+03  0.84250872514E+02 0.  0.
         23    2    1    2    0    0  0.27092551136E+01 -0.98255255912E+01 -0.54809422680E+02  0.10668327216E+03  0.90958049275E+02 0.  0.
        -13    1    3    3    0    0 -0.21115749555E+02  0.21673629367E+02  0.86621298746E+01  0.31474649849E+02  0.00000000000E+00 0.  1.
         14    1    3    3    0    0  0.49046985028E+02  0.95662645161E+00  0.94578086036E+02  0.10654358842E+03  0.00000000000E+00 0. -1.
        -13    1    4    4    0    0 -0.38893871967E+02  0.26320756088E+01 -0.30265331332E+01  0.39100140682E+02  0.00000000000E+00 0.  1.
         13    1    4    4    0    0  0.41603127080E+02 -0.12457601200E+02 -0.51782889547E+02  0.67583131478E+02  0.00000000000E+00 0. -1.
          1    1    1    2  501    0 -0.30640490587E+02 -0.12804730227E+02 -0.37304711520E+01  0.33417318782E+02  0.00000000000E+00 0. -1.
<scales pt_clust_5="13000.00000" pt_clust_6="13000.00000" pt_clust_7="13000.00000" pt_clust_8="13000.00000" pt_clust_9="33.20844"></scales>
<clustering>
<clus scale="   33.208">  2  9  1 -1</clus>
<clus scale="   84.251">  5  6 -1 -1</clus>
<clus scale="   89.550">  1  5  2 -1</clus>
<clus scale="   90.958">  7  8 -1 -1</clus>
<clus scale="   33.208">  2  5  1 -1</clus>
</clustering>
</event>
<event>
 9    2  0.1723348E-004  0.1499747E+03  0.7546771E-02  0.1204818E+00
         -1   -1    0    0    0  501 -0.00000000000E+00  0.00000000000E+00  0.39789029928E+02  0.39789029928E+02  0.00000000000E+00 0.  1.
         21   -1    0    0  501  502  0.00000000000E+00 -0.00000000000E+00 -0.78724900600E+03  0.78724900600E+03  0.00000000000E+00 0. -1.
         24    2    1    2    0    0 -0.27130680010E+02  0.14043020068E+03 -0.28981703159E+03  0.33043654132E+03  0.68830814184E+02 0.  0.
         23    2    1    2    0    0  0.86829554385E+01 -0.86537571771E+02 -0.37739308641E+03  0.39819024670E+03  0.92551530818E+02 0.  0.
        -13    1    3    3    0    0 -0.17267347307E+02  0.14607458731E+03 -0.26359818893E+03  0.30186081486E+03  0.00000000000E+00 0.  1.
         14    1    3    3    0    0 -0.98633327027E+01 -0.56443866311E+01 -0.26218842659E+02  0.28575726462E+02  0.00000000000E+00 0. -1.
        -11    1    4    4    0    0  0.29619508213E+02 -0.97514084257E+02 -0.32729597699E+03  0.34279581160E+03  0.00000000000E+00 0.  1.
         11    1    4    4    0    0 -0.20936552774E+02  0.10976512486E+02 -0.50097109416E+02  0.55394435102E+02  0.00000000000E+00 0. -1.
         -2    1    1    2    0  502  0.18447724571E+02 -0.53892628909E+02 -0.80249858065E+02  0.98411247894E+02  0.00000000000E+00 0.  1.
<scales pt_clust_5="13000.00000" pt_clust_6="13000.00000" pt_clust_7="13000.00000" pt_clust_8="13000.00000" pt_clust_9="56.96260"></scales>
<clustering>
<clus scale="   56.963">  2  9  1 -1</clus>
<clus scale="   68.831">  5  6 -1 -1</clus>
<clus scale="   92.552">  7  8 -1 -1</clus>
<clus scale="  136.617">  1  5  2 -1</clus>
<clus scale="   56.963">  2  5  1 -1</clus>
</clustering>
</event>
<event>
 9    2  0.1723348E-004  0.9930110E+02  0.7546771E-02  0.1283543E+00
         -1   -1    0    0    0  501 -0.00000000000E+00  0.00000000000E+00  0.35368590497E+03  0.35368590497E+03  0.00000000000E+00 0.  1.
         21   -1    0    0  501  502  0.00000000000E+00 -0.00000000000E+00 -0.79795122566E+02  0.79795122566E+02  0.00000000000E+00 0.  1.
         24    2    1    2    0    0  0.40501580710E+01 -0.55375970929E+02  0.23283197126E+03  0.25493553111E+03  0.87741075018E+02 0.  0.
         23    2    1    2    0    0 -0.49611828805E+01  0.62376700613E+01  0.75317976262E+02  0.11863645725E+03  0.91314235353E+02 0.  0.
        -11    1    3    3    0    0 -0.23204999926E+02  0.53939425259E+01  0.13173464155E+03  0.13387151460E+03  0.00000000000E+00 0.  1.
         12    1    3    3    0    0  0.27255157997E+02 -0.60769913455E+02  0.10109732971E+03  0.12106401651E+03  0.00000000000E+00 0. -1.
        -13    1    4    4    0    0 -0.29437467448E+02  0.31633617392E+02  0.99234791293E+01  0.44336505017E+02  0.00000000000E+00 0. -1.
         13    1    4    4    0    0  0.24476284568E+02 -0.25395947331E+02  0.65394497133E+02  0.74299952237E+02  0.00000000000E+00 0.  1.
         -2    1    1    2    0  502  0.91102480950E+00  0.49138300867E+02 -0.34259165126E+02  0.59909039163E+02  0.00000000000E+00 0.  1.
<scales pt_clust_5="13000.00000" pt_clust_6="13000.00000" pt_clust_7="13000.00000" pt_clust_8="13000.00000" pt_clust_9="49.14675"></scales>
<clustering>
<clus scale="   49.147">  2  9  1 -1</clus>
<clus scale="   87.741">  5  6 -1 -1</clus>
<clus scale="   91.314">  7  8 -1 -1</clus>
<clus scale="   96.026">  1  5  2 -1</clus>
<clus scale="   49.147">  2  5  1 -1</clus>
</clustering>
</event>
<event>
 9    2  0.1723348E-004  0.1234149E+03  0.7546771E-02  0.1240306E+00
         21   -1    0    0  501  502  0.00000000000E+00  0.00000000000E+00  0.19993206022E+03  0.19993206022E+03  0.00000000000E+00 0.  1.
          2   -1    0    0  502    0 -0.00000000000E+00 -0.00000000000E+00 -0.20562644377E+03  0.20562644377E+03  0.00000000000E+00 0. -1.
         23    2    1    2    0    0  0.73828197653E+02 -0.35332341151E+02 -0.14556185000E+03  0.18974785345E+03  0.90094498247E+02 0.  0.
         24    2    1    2    0    0 -0.80935200310E+02  0.54674876304E+02  0.73835319839E+02  0.14663776900E+03  0.80691586266E+02 0.  0.
        -11    1    4    4    0    0 -0.55618547353E+02 -0.95077624902E+01  0.43603438824E+02  0.71309748523E+02  0.00000000000E+00 0.  1.
         12    1    4    4    0    0 -0.25316652958E+02  0.64182638795E+02  0.30231881015E+02  0.75328020479E+02  0.00000000000E+00 0. -1.
        -13    1    3    3    0    0 -0.11004351700E+02 -0.17964806998E+02 -0.82231410222E+00  0.21083316800E+02  0.00000000000E+00 0.  1.
         13    1    3    3    0    0  0.84832549352E+02 -0.17367534153E+02 -0.14473953590E+03  0.16866453665E+03  0.00000000000E+00 0. -1.
          1    1    1    2  501    0  0.71070026579E+01 -0.19342535153E+02  0.66032146615E+02  0.69172881533E+02  0.00000000000E+00 0. -1.
<scales pt_clust_5="13000.00000" pt_clust_6="13000.00000" pt_clust_7="13000.00000" pt_clust_8="13000.00000" pt_clust_9="20.60687"></scales>
<clustering>
<clus scale="   20.607">  1  9  2 -1</clus>
<clus scale="   80.692">  5  6 -1 -1</clus>
<clus scale="   90.094">  7  8 -1 -1</clus>
<clus scale="  116.728">  1  5  2 -1</clus>
<clus scale="   20.607">  1  5  2 -1</clus>
</clustering>
</event>
<event>
 9    2  0.1723348E-004  0.1050708E+03  0.7546771E-02  0.1273635E+00
         21   -1    0    0  501  502  0.00000000000E+00  0.00000000000E+00  0.12925479276E+03  0.12925479276E+03  0.00000000000E+00 0. -1.
          2   -1    0    0  502    0 -0.00000000000E+00 -0.00000000000E+00 -0.19382812369E+03  0.19382812369E+03  0.00000000000E+00 0. -1.
         24    2    1    2    0    0  0.50468646185E+02  0.29353866699E+02 -0.12138389856E+03  0.15682649381E+03  0.80322877156E+02 0.  0.
         23    2    1    2    0    0 -0.59109267139E+02  0.17840216489E+02  0.40947442621E+02  0.11572345762E+03  0.88899082113E+02 0.  0.
        -11    1    3    3    0    0  0.26927546466E+02 -0.22634918155E+02 -0.76570804572E+02  0.84264585630E+02  0.00000000000E+00 0.  1.
         12    1    3    3    0    0  0.23541099720E+02  0.51988784855E+02 -0.44813093987E+02  0.72561908184E+02  0.00000000000E+00 0. -1.
        -13    1    4    4    0    0 -0.68673224180E+02  0.43068525098E+02  0.33695679726E+02  0.87785581992E+02  0.00000000000E+00 0. -1.
         13    1    4    4    0    0  0.95639570413E+01 -0.25228308609E+02  0.72517628947E+01  0.27937875629E+02  0.00000000000E+00 0.  1.
          1    1    1    2  501    0  0.86406209535E+01 -0.47194083188E+02  0.15863125001E+02  0.50532965015E+02  0.00000000000E+00 0. -1.
<scales pt_clust_5="13000.00000" pt_clust_6="13000.00000" pt_clust_7="13000.00000" pt_clust_8="13000.00000" pt_clust_9="47.97856"></scales>
<clustering>
<clus scale="   47.979">  1  9  2 -1</clus>
<clus scale="   80.323">  5  6 -1 -1</clus>
<clus scale="   88.899">  7  8 -1 -1</clus>
<clus scale="   97.921">  2  5  1 -1</clus>
<clus scale="   47.979">  1  5  2 -1</clus>
</clustering>
</event>
<event>
 9    2  0.1723348E-004  0.1019006E+03  0.7546771E-02  0.1285084E+00
         21   -1    0    0  501  502  0.00000000000E+00  0.00000000000E+00  0.98782890781E+02  0.98782890781E+02  0.00000000000E+00 0. -1.
         -1   -1    0    0    0  501 -0.00000000000E+00 -0.00000000000E+00 -0.30955981988E+03  0.30955981988E+03  0.00000000000E+00 0.  1.
         23    2    1    2    0    0  0.39010225436E+02  0.25215421997E+02 -0.94348662866E+02  0.14142502909E+03  0.94560845347E+02 0.  0.
         24    2    1    2    0    0 -0.19092099217E+02  0.99918412983E+01  0.50615349456E+02  0.95046064711E+02  0.77508036173E+02 0.  0.
        -11    1    4    4    0    0  0.20364698704E+02 -0.21758748612E+02  0.18903363738E+02  0.35291659852E+02  0.00000000000E+00 0.  1.
         12    1    4    4    0    0 -0.39456797921E+02  0.31750589911E+02  0.31711985717E+02  0.59754404859E+02  0.00000000000E+00 0. -1.
        -11    1    3    3    0    0  0.51948592084E+02  0.46164483258E+02 -0.36378385619E+02  0.78442352554E+02  0.00000000000E+00 0.  1.
         11    1    3    3    0    0 -0.12938366647E+02 -0.20949061261E+02 -0.57970277247E+02  0.62982676534E+02  0.00000000000E+00 0. -1.
         -2    1    1    2    0  502 -0.19918126219E+02 -0.35207263295E+02 -0.16704361569E+03  0.17187161687E+03  0.00000000000E+00 0.  1.
<scales pt_clust_5="13000.00000" pt_clust_6="13000.00000" pt_clust_7="13000.00000" pt_clust_8="13000.00000" pt_clust_9="40.45102"></scales>
<clustering>
<clus scale="   40.451">  1  9  2 -1</clus>
<clus scale="   77.508">  5  6 -1 -1</clus>
<clus scale="   86.310">  1  5  2 -1</clus>
<clus scale="   94.561">  7  8 -1 -1</clus>
<clus scale="   40.451">  1  5  2 -1</clus>
</clustering>
</event>
<event>
 9    2  0.1723348E-004  0.1312881E+03  0.7546771E-02  0.1233683E+00
         21   -1    0    0  501  502  0.00000000000E+00  0.00000000000E+00  0.41294605148E+03  0.41294605148E+03  0.00000000000E+00 0.  1.
          2   -1    0    0  502    0 -0.00000000000E+00 -0.00000000000E+00 -0.10496244301E+03  0.10496244301E+03  0.00000000000E+00 0. -1.
         23    2    1    2    0    0 -0.10958543451E+02  0.65577320377E+02  0.13037453934E+02  0.12994935992E+03  0.11088907213E+03 0.  0.
         24    2    1    2    0    0  0.49599324700E+02 -0.79053011289E+02  0.31702586202E+03  0.34145948185E+03  0.85905232354E+02 0.  0.
        -11    1    4    4    0    0  0.25525178224E+02 -0.66613816961E+02  0.30233179016E+03  0.31063394321E+03  0.00000000000E+00 0.  1.
         12    1    4    4    0    0  0.24074146476E+02 -0.12439194328E+02  0.14694071861E+02  0.30825538632E+02  0.00000000000E+00 0. -1.
        -13    1    3    3    0    0 -0.14003735423E+02 -0.23944818787E+02  0.27679162039E+02  0.39186668188E+02  0.00000000000E+00 0.  1.
         13    1    3    3    0    0  0.30451919724E+01  0.89522139164E+02 -0.14641708104E+02  0.90762691735E+02  0.00000000000E+00 0. -1.
          1    1    1    2  501    0 -0.38640781249E+02  0.13475690912E+02 -0.22079707486E+02  0.46499652727E+02  0.00000000000E+00 0. -1.
<scales pt_clust_5="13000.00000" pt_clust_6="13000.00000" pt_clust_7="13000.00000" pt_clust_8="13000.00000" pt_clust_9="40.92317"></scales>
<clustering>
<clus scale="   40.923">  1  9  2 -1</clus>
<clus scale="   85.905">  5  6 -1 -1</clus>
<clus scale="  110.889">  7  8 -1 -1</clus>
<clus scale="  110.995">  1  5  2 -1</clus>
<clus scale="   40.923">  1  5  2 -1</clus>
</clustering>
</event>
<event>
 9    2  0.1723348E-004  0.1028618E+03  0.7546771E-02  0.1280208E+00
          2   -1    0    0  502    0 -0.00000000000E+00  0.00000000000E+00  0.37533059935E+03  0.37533059935E+03  0.00000000000E+00 0. -1.
         21   -1    0    0  501  502  0.00000000000E+00 -0.00000000000E+00 -0.57874198285E+02  0.57874198285E+02  0.00000000000E+00 0.  1.
         24    2    1    2    0    0  0.48139145130E+02  0.14063444832E+01  0.19073200216E+03  0.21112456666E+03  0.76652011731E+02 0.  0.
         23    2    1    2    0    0 -0.53067720517E+02 -0.23272239449E+02  0.15370886509E+03  0.18700075503E+03  0.89359314486E+02 0.  0.
        -11    1    3    3    0    0 -0.10693361519E+01 -0.30453610637E+02  0.48409788002E+02  0.57202040654E+02  0.00000000000E+00 0.  1.
         12    1    3    3    0    0  0.49208481282E+02  0.31859955120E+02  0.14232221415E+03  0.15392252601E+03  0.00000000000E+00 0. -1.
        -11    1    4    4    0    0 -0.29494660558E+02  0.23191120897E+02  0.17960584675E+02  0.41597424100E+02  0.00000000000E+00 0. -1.
         11    1    4    4    0    0 -0.23573059959E+02 -0.46463360346E+02  0.13574828041E+03  0.14540333093E+03  0.00000000000E+00 0.  1.
          1    1    1    2  501    0  0.49285753874E+01  0.21865894966E+02 -0.26984466175E+02  0.35079475948E+02  0.00000000000E+00 0. -1.
<scales pt_clust_5="13000.00000" pt_clust_6="13000.00000" pt_clust_7="13000.00000" pt_clust_8="13000.00000" pt_clust_9="22.41446"></scales>
<clustering>
<clus scale="   22.414">  2  9  1 -1</clus>
<clus scale="   76.652">  5  6 -1 -1</clus>
<clus scale="   89.359">  7  8 -1 -1</clus>
<clus scale="   92.038">  1  5  2 -1</clus>
<clus scale="   22.414">  2  5  1 -1</clus>
</clustering>
</event>
<event>
 9    2  0.1723348E-004  0.1472986E+03  0.7546771E-02  0.1221023E+00
         21   -1    0    0  501  502  0.00000000000E+00  0.00000000000E+00  0.23551488407E+03  0.23551488407E+03  0.00000000000E+00 0.  1.
         -3   -1    0    0    0  501 -0.00000000000E+00 -0.00000000000E+00 -0.19772800118E+03  0.19772800118E+03  0.00000000000E+00 0.  1.
         24    2    1    2    0    0  0.29621873968E+02  0.55405299473E+02 -0.84059551177E+02  0.13232398897E+03  0.80600417405E+02 0.  0.
         23    2    1    2    0    0  0.41398270769E+02  0.67925429875E+02  0.80376546513E+01  0.11869165344E+03  0.87723565004E+02 0.  0.
        -11    1    3    3    0    0  0.34270217538E+02  0.73994618570E+02 -0.76220421704E+02  0.11162080484E+03  0.00000000000E+00 0.  1.
         12    1    3    3    0    0 -0.46483435704E+01 -0.18589319097E+02 -0.78391294732E+01  0.20703184135E+02  0.00000000000E+00 0. -1.
        -11    1    4    4    0    0  0.66287270972E+02  0.65863017147E+02  0.63822557657E+01  0.93662545925E+02  0.00000000000E+00 0.  1.
         11    1    4    4    0    0 -0.24889000203E+02  0.20624127281E+01  0.16553988856E+01  0.25029107512E+02  0.00000000000E+00 0. -1.
         -4    1    1    2    0  502 -0.71020144737E+02 -0.12333072935E+03  0.11380877942E+03  0.18222724284E+03  0.00000000000E+00 0.  1.
<scales pt_clust_5="13000.00000" pt_clust_6="13000.00000" pt_clust_7="13000.00000" pt_clust_8="13000.00000" pt_clust_9="118.32772"></scales>
<clustering>
<clus scale="   80.600">  5  6 -1 -1</clus>
<clus scale="   87.724">  7  8 -1 -1</clus>
<clus scale="  102.194">  2  5  1 -1</clus>
<clus scale="  118.328">  1  9  2 -1</clus>
<clus scale="  118.328">  1  5  2 -1</clus>
</clustering>
</event>
<event>
 9    2  0.1723348E-004  0.3460761E+03  0.7546771E-02  0.1064600E+00
          2   -1    0    0  502    0 -0.00000000000E+00  0.00000000000E+00  0.18473681921E+04  0.18473681921E+04  0.00000000000E+00 0. -1.
         21   -1    0    0  501  502  0.00000000000E+00 -0.00000000000E+00 -0.84462003346E+02  0.84462003346E+02  0.00000000000E+00 0. -1.
         23    2    1    2    0    0  0.15832224365E+03  0.25057004975E+03  0.68402598665E+03  0.75116589079E+03  0.92235364199E+02 0.  0.
         24    2    1    2    0    0 -0.22922599833E+03 -0.30478595472E+03  0.84637167465E+03  0.93161225764E+03  0.78213492668E+02 0.  0.
        -13    1    4    4    0    0  0.17793675151E+01 -0.20735544373E+02  0.26425353478E+02  0.33636709941E+02  0.00000000000E+00 0.  1.
         14    1    4    4    0    0 -0.23100536585E+03 -0.28405041035E+03  0.81994632117E+03  0.89797554770E+03  0.00000000000E+00 0. -1.
        -11    1    3    3    0    0  0.10222781669E+03  0.94015202823E+02  0.38069998775E+03  0.40524297100E+03  0.00000000000E+00 0.  1.
         11    1    3    3    0    0  0.56094426964E+02  0.15655484693E+03  0.30332599890E+03  0.34592291980E+03  0.00000000000E+00 0. -1.
          1    1    1    2  501    0  0.70903754681E+02  0.54215904975E+02  0.23250852741E+03  0.24905204697E+03  0.00000000000E+00 0. -1.
<scales pt_clust_5="13000.00000" pt_clust_6="13000.00000" pt_clust_7="13000.00000" pt_clust_8="13000.00000" pt_clust_9="89.25645"></scales>
<clustering>
<clus scale="   78.213">  5  6 -1 -1</clus>
<clus scale="   89.256">  2  9  1 -1</clus>
<clus scale="   92.235">  7  8 -1 -1</clus>
<clus scale="  342.606">  2  5  1 -1</clus>
<clus scale="   89.256">  2  5  1 -1</clus>
</clustering>
</event>
<event>
 9    2  0.1723348E-004  0.1447882E+03  0.7546771E-02  0.1227377E+00
          2   -1    0    0  502    0 -0.00000000000E+00  0.00000000000E+00  0.33141829975E+03  0.33141829975E+03  0.00000000000E+00 0. -1.
         21   -1    0    0  501  502  0.00000000000E+00 -0.00000000000E+00 -0.16877263495E+03  0.16877263495E+03  0.00000000000E+00 0. -1.
         24    2    1    2    0    0 -0.36000251453E+02  0.18824499380E+02  0.21356742241E+03  0.23343982360E+03  0.85045443405E+02 0.  0.
         23    2    1    2    0    0 -0.93274922991E+02  0.44302869796E+01 -0.21432796809E+02  0.13213144453E+03  0.90991841138E+02 0.  0.
        -13    1    3    3    0    0 -0.41219159204E+02  0.15379387364E+02  0.39095235013E+02  0.58855603317E+02  0.00000000000E+00 0.  1.
         14    1    3    3    0    0  0.52189077506E+01  0.34451120161E+01  0.17447218740E+03  0.17458422028E+03  0.00000000000E+00 0. -1.
        -13    1    4    4    0    0 -0.97115908206E+02 -0.24733305697E+02 -0.10559643533E+02  0.10077074034E+03  0.00000000000E+00 0. -1.
         13    1    4    4    0    0  0.38409852151E+01  0.29163592677E+02 -0.10873153276E+02  0.31360704192E+02  0.00000000000E+00 0.  1.
          1    1    1    2  501    0  0.12927517444E+03 -0.23254786360E+02 -0.29488960806E+02  0.13461966656E+03  0.00000000000E+00 0. -1.
<scales pt_clust_5="13000.00000" pt_clust_6="13000.00000" pt_clust_7="13000.00000" pt_clust_8="13000.00000" pt_clust_9="112.62374"></scales>
<clustering>
<clus scale="   85.045">  5  6 -1 -1</clus>
<clus scale="   90.992">  7  8 -1 -1</clus>
<clus scale="   94.250">  1  5  2 -1</clus>
<clus scale="  112.624">  2  9  1 -1</clus>
<clus scale="  112.624">  2  5  1 -1</clus>
</clustering>
</event>
<event>
 9    2  0.1723348E-004  0.1137267E+03  0.7546771E-02  0.1260717E+00
          2   -1    0    0  502    0 -0.00000000000E+00  0.00000000000E+00  0.43039672666E+03  0.43039672666E+03  0.00000000000E+00 0. -1.
         21   -1    0    0  501  502  0.00000000000E+00 -0.00000000000E+00 -0.59539963539E+02  0.59539963539E+02  0.00000000000E+00 0.  1.
         23    2    1    2    0    0  0.67331078657E+02  0.11867719039E+02  0.26367769203E+03  0.28815855510E+03  0.93995269533E+02 0.  0.
         24    2    1    2    0    0 -0.59266712914E+02  0.23184540549E+02  0.12674737537E+03  0.16083166479E+03  0.75841024894E+02 0.  0.
        -13    1    4    4    0    0 -0.22313922019E+02  0.24071474502E+02  0.45143103493E+01  0.33131948305E+02  0.00000000000E+00 0.  1.
         14    1    4    4    0    0 -0.36952790895E+02 -0.88693395346E+00  0.12223306502E+03  0.12769971649E+03  0.00000000000E+00 0. -1.
        -11    1    3    3    0    0 -0.19554615844E+02  0.20647006476E+02  0.76401994865E+02  0.81522675966E+02  0.00000000000E+00 0.  1.
         11    1    3    3    0    0  0.86885694501E+02 -0.87792874375E+01  0.18727569717E+03  0.20663587914E+03  0.00000000000E+00 0. -1.
          1    1    1    2  501    0 -0.80643657427E+01 -0.35052259588E+02 -0.19568304288E+02  0.40946470297E+02  0.00000000000E+00 0. -1.
<scales pt_clust_5="13000.00000" pt_clust_6="13000.00000" pt_clust_7="13000.00000" pt_clust_8="13000.00000" pt_clust_9="35.96797"></scales>
<clustering>
<clus scale="   35.968">  2  9  1 -1</clus>
<clus scale="   75.841">  5  6 -1 -1</clus>
<clus scale="   93.995">  7  8 -1 -1</clus>
<clus scale="   99.250">  2  5  1 -1</clus>
<clus scale="   35.968">  2  5  1 -1</clus>
</clustering>
</event>
<event>
 9    2  0.1723348E-004  0.1811451E+03  0.7546771E-02  0.1167900E+00
          2   -1    0    0  502    0 -0.00000000000E+00  0.00000000000E+00  0.91829799019E+03  0.91829799019E+03  0.00000000000E+00 0. -1.
         21   -1    0    0  501  502  0.00000000000E+00 -0.00000000000E+00 -0.51624256176E+02  0.51624256176E+02  0.00000000000E+00 0.  1.
         24    2    1    2    0    0 -0.16634838385E+03  0.58058990324E+02  0.43850707950E+03  0.47931739647E+03  0.80087930535E+02 0.  0.
         23    2    1    2    0    0  0.12745585911E+03 -0.28112839738E+02  0.19084306426E+03  0.24825822437E+03  0.90419815353E+02 0.  0.
        -11    1    3    3    0    0 -0.24855688807E+02  0.45044078806E+02  0.11706459314E+03  0.12787061144E+03  0.00000000000E+00 0.  1.
         12    1    3    3    0    0 -0.14149269505E+03  0.13014911518E+02  0.32144248636E+03  0.35144678503E+03  0.00000000000E+00 0. -1.
        -11    1    4    4    0    0  0.85346116131E+02  0.21336584614E+02  0.75696115676E+02  0.11605650051E+03  0.00000000000E+00 0.  1.
         11    1    4    4    0    0  0.42109742983E+02 -0.49449424352E+02  0.11514694859E+03  0.13220172386E+03  0.00000000000E+00 0. -1.
          1    1    1    2  501    0  0.38892524739E+02 -0.29946150586E+02  0.23732359025E+03  0.24234662553E+03  0.00000000000E+00 0. -1.
<scales pt_clust_5="13000.00000" pt_clust_6="13000.00000" pt_clust_7="13000.00000" pt_clust_8="13000.00000" pt_clust_9="49.08567"></scales>
<clustering>
<clus scale="   49.086">  2  9  1 -1</clus>
<clus scale="   80.088">  5  6 -1 -1</clus>
<clus scale="   90.420">  7  8 -1 -1</clus>
<clus scale="  176.215">  1  5  2 -1</clus>
<clus scale="   49.086">  2  5  1 -1</clus>
</clustering>
</event>
<event>
 9    2  0.1723348E-004  0.8110671E+02  0.7546771E-02  0.1328001E+00
         21   -1    0    0  501  502  0.00000000000E+00  0.00000000000E+00  0.47488106659E+02  0.47488106659E+02  0.00000000000E+00 0.  1.
          2   -1    0    0  502    0 -0.00000000000E+00 -0.00000000000E+00 -0.58175327196E+03  0.58175327196E+03  0.00000000000E+00 0. -1.
         24    2    1    2    0    0 -0.38489899259E+01 -0.12496159501E+02 -0.48310489951E+03  0.48980435182E+03  0.79668001125E+02 0.  0.
         23    2    1    2    0    0  0.27943976464E+02  0.32349896366E+02 -0.10904518683E+02  0.88493289019E+02  0.76712267977E+02 0.  0.
        -11    1    3    3    0    0 -0.16650713723E+02  0.18442310018E+02 -0.54535376397E+02  0.59928894074E+02  0.00000000000E+00 0.  1.
         12    1    3    3    0    0  0.12801723797E+02 -0.30938469518E+02 -0.42856952312E+03  0.42987545775E+03  0.00000000000E+00 0. -1.
        -13    1    4    4    0    0 -0.22065750108E+02 -0.80890196979E+01 -0.32565203642E+01  0.23726240587E+02  0.00000000000E+00 0. -1.
         13    1    4    4    0    0  0.50009726572E+02  0.40438916064E+02 -0.76479983189E+01  0.64767048432E+02  0.00000000000E+00 0.  1.
          1    1    1    2  501    0 -0.24094986538E+02 -0.19853736866E+02 -0.40255747099E+02  0.50943737773E+02  0.00000000000E+00 0. -1.
<scales pt_clust_5="13000.00000" pt_clust_6="13000.00000" pt_clust_7="13000.00000" pt_clust_8="13000.00000" pt_clust_9="31.22081"></scales>
<clustering>
<clus scale="   31.221">  1  9  2 -1</clus>
<clus scale="   76.712">  7  8 -1 -1</clus>
<clus scale="   78.205">  1  7  2 -1</clus>
<clus scale="   79.668">  5  6 -1 -1</clus>
<clus scale="   31.221">  1  5  2 -1</clus>
</clustering>
</event>
<event>
 9    2  0.1723348E-004  0.1081589E+03  0.7546771E-02  0.1269420E+00
          2   -1    0    0  502    0 -0.00000000000E+00  0.00000000000E+00  0.27698535865E+03  0.27698535865E+03  0.00000000000E+00 0. -1.
         21   -1    0    0  501  502  0.00000000000E+00 -0.00000000000E+00 -0.12077873892E+03  0.12077873892E+03  0.00000000000E+00 0.  1.
         24    2    1    2    0    0  0.11482972144E+02 -0.52879006758E+02  0.20553377348E+03  0.22659858517E+03  0.78579505953E+02 0.  0.
         23    2    1    2    0    0 -0.41841351746E+01  0.78964791590E+02 -0.73864998335E+01  0.12123796847E+03  0.91603162180E+02 0.  0.
        -13    1    3    3    0    0 -0.33176504969E+02 -0.13345842988E+02  0.78152884194E+02  0.85945711440E+02  0.00000000000E+00 0.  1.
         14    1    3    3    0    0  0.44659477114E+02 -0.39533163770E+02  0.12738088929E+03  0.14065287373E+03  0.00000000000E+00 0. -1.
        -11    1    4    4    0    0  0.28492544156E+02 -0.19671864846E+01  0.13353428287E+02  0.31527907355E+02  0.00000000000E+00 0. -1.
         11    1    4    4    0    0 -0.32676679331E+02  0.80931978074E+02 -0.20739928120E+02  0.89710061117E+02  0.00000000000E+00 0.  1.
          1    1    1    2  501    0 -0.72988369696E+01 -0.26085784832E+02 -0.41940653914E+02  0.49927543922E+02  0.00000000000E+00 0. -1.
<scales pt_clust_5="13000.00000" pt_clust_6="13000.00000" pt_clust_7="13000.00000" pt_clust_8="13000.00000" pt_clust_9="27.08766"></scales>
<clustering>
<clus scale="   27.088">  2  9  1 -1</clus>
<clus scale="   78.580">  5  6 -1 -1</clus>
<clus scale="   91.603">  7  8 -1 -1</clus>
<clus scale="   97.375">  1  5  2 -1</clus>
<clus scale="   27.088">  2  5  1 -1</clus>
</clustering>
</event>
<event>
 9    2  0.1723348E-004  0.9216157E+02  0.7546771E-02  0.1307807E+00
         21   -1    0    0  501  502  0.00000000000E+00  0.00000000000E+00  0.50116212678E+02  0.50116212678E+02  0.00000000000E+00 0.  1.
          2   -1    0    0  502    0 -0.00000000000E+00 -0.00000000000E+00 -0.29312468255E+03  0.29312468255E+03  0.00000000000E+00 0. -1.
         24    2    1    2    0    0  0.13222060837E+02 -0.33156120237E+02 -0.10285986285E+03  0.13005078095E+03  0.71125965977E+02 0.  0.
         23    2    1    2    0    0 -0.43109460811E+02 -0.17329857722E+02 -0.68540462930E+02  0.12061680848E+03  0.87703305805E+02 0.  0.
        -11    1    3    3    0    0  0.18289003519E+02  0.18711444776E+02 -0.23863902900E+02  0.35413156834E+02  0.00000000000E+00 0.  1.
         12    1    3    3    0    0 -0.50669426812E+01 -0.51867565013E+02 -0.78995959954E+02  0.94637624112E+02  0.00000000000E+00 0. -1.
        -13    1    4    4    0    0 -0.36729333099E+02  0.32198808711E+02 -0.39741766801E+02  0.62969954905E+02  0.00000000000E+00 0.  1.
         13    1    4    4    0    0 -0.63801277118E+01 -0.49528666433E+02 -0.28798696129E+02  0.57646853574E+02  0.00000000000E+00 0. -1.
          1    1    1    2  501    0  0.29887399973E+02  0.50485977959E+02 -0.71608144086E+02  0.92573305802E+02  0.00000000000E+00 0. -1.
<scales pt_clust_5="13000.00000" pt_clust_6="13000.00000" pt_clust_7="13000.00000" pt_clust_8="13000.00000" pt_clust_9="58.66936"></scales>
<clustering>
<clus scale="   58.669">  1  9  2 -1</clus>
<clus scale="   71.126">  5  6 -1 -1</clus>
<clus scale="   76.556">  2  5  1 -1</clus>
<clus scale="   87.703">  7  8 -1 -1</clus>
<clus scale="   58.669">  1  5  2 -1</clus>
</clustering>
</event>
<event>
 9    2  0.1723348E-004  0.1095356E+03  0.7546771E-02  0.1266259E+00
          2   -1    0    0  502    0 -0.00000000000E+00  0.00000000000E+00  0.20952956461E+03  0.20952956461E+03  0.00000000000E+00 0. -1.
         21   -1    0    0  501  502  0.00000000000E+00 -0.00000000000E+00 -0.21115999401E+03  0.21115999401E+03  0.00000000000E+00 0. -1.
         23    2    1    2    0    0 -0.54759865469E+02 -0.12590308149E+02  0.14589555277E+03  0.18144677767E+03  0.92088338475E+02 0.  0.
         24    2    1    2    0    0  0.58427585539E+02  0.65847602061E+02 -0.52168754311E+02  0.12995969703E+03  0.80114009244E+02 0.  0.
        -13    1    4    4    0    0  0.25667325067E+02 -0.14126899614E+02 -0.27257236069E+02  0.40016718843E+02  0.00000000000E+00 0.  1.
         14    1    4    4    0    0  0.32760260472E+02  0.79974501676E+02 -0.24911518242E+02  0.89942978190E+02  0.00000000000E+00 0. -1.
        -13    1    3    3    0    0 -0.30969961822E+02  0.33811561696E+02  0.10694695342E+03  0.11636155329E+03  0.00000000000E+00 0.  1.
         13    1    3    3    0    0 -0.23789903647E+02 -0.46401869845E+02  0.38948599357E+02  0.65085224380E+02  0.00000000000E+00 0. -1.
          1    1    1    2  501    0 -0.36677200699E+01 -0.53257293912E+02 -0.95357227863E+02  0.10928308392E+03  0.00000000000E+00 0. -1.
<scales pt_clust_5="13000.00000" pt_clust_6="13000.00000" pt_clust_7="13000.00000" pt_clust_8="13000.00000" pt_clust_9="53.38344"></scales>
<clustering>
<clus scale="   53.383">  2  9  1 -1</clus>
<clus scale="   80.114">  5  6 -1 -1</clus>
<clus scale="   92.088">  7  8 -1 -1</clus>
<clus scale="   99.680">  2  5  1 -1</clus>
<clus scale="   53.383">  2  5  1 -1</clus>
</clustering>
</event>
<event>
 9    2  0.1723348E-004  0.2748261E+03  0.7546771E-02  0.1120687E+00
          2   -1    0    0  502    0 -0.00000000000E+00  0.00000000000E+00  0.21358207850E+04  0.21358207850E+04  0.00000000000E+00 0. -1.
         21   -1    0    0  501  502  0.00000000000E+00 -0.00000000000E+00 -0.62887450235E+02  0.62887450235E+02  0.00000000000E+00 0. -1.
         24    2    1    2    0    0  0.12117502985E+03 -0.57862187006E+02  0.61246042887E+03  0.63209038684E+03  0.79994122662E+02 0.  0.
         23    2    1    2    0    0  0.14887079614E+03  0.16564656047E+03  0.94287385914E+03  0.97294201725E+03  0.89463722982E+02 0.  0.
        -11    1    3    3    0    0  0.11676737472E+03 -0.38250447612E+02  0.58663128409E+03  0.59936131008E+03  0.00000000000E+00 0.  1.
         12    1    3    3    0    0  0.44076551302E+01 -0.19611739394E+02  0.25829144775E+02  0.32729076761E+02  0.00000000000E+00 0. -1.
        -13    1    4    4    0    0  0.59886756494E+02  0.54722338508E+02  0.18746630950E+03  0.20426594217E+03  0.00000000000E+00 0.  1.
         13    1    4    4    0    0  0.88984039649E+02  0.11092422196E+03  0.75540754965E+03  0.76867607507E+03  0.00000000000E+00 0. -1.
          1    1    1    2  501    0 -0.27004582599E+03 -0.10778437346E+03  0.51759904679E+03  0.59367583119E+03  0.00000000000E+00 0. -1.
<scales pt_clust_5="13000.00000" pt_clust_6="13000.00000" pt_clust_7="13000.00000" pt_clust_8="13000.00000" pt_clust_9="259.85696"></scales>
<clustering>
<clus scale="   79.994">  5  6 -1 -1</clus>
<clus scale="   89.464">  7  8 -1 -1</clus>
<clus scale="  156.303">  1  5  2 -1</clus>
<clus scale="  259.857">  2  9  1 -1</clus>
<clus scale="  259.857">  2  5  1 -1</clus>
</clustering>
</event>
<event>
 9    2  0.1876156E-004  0.3293710E+03  0.7546771E-02  0.1071838E+00
          4   -1    0    0  502    0 -0.00000000000E+00  0.00000000000E+00  0.63612989646E+03  0.63612989646E+03  0.00000000000E+00 0. -1.
         21   -1    0    0  501  502  0.00000000000E+00 -0.00000000000E+00 -0.23041722194E+03  0.23041722194E+03  0.00000000000E+00 0. -1.
         23    2    1    2    0    0  0.26446778603E+03 -0.20665507539E+03  0.20282911388E+03  0.40277216776E+03  0.91849004622E+02 0.  0.
         24    2    1    2    0    0 -0.24300945637E+03  0.16247787090E+03  0.54163067778E+02  0.30715480408E+03  0.77186665564E+02 0.  0.
        -13    1    4    4    0    0 -0.37994574736E+02  0.56987369395E+02  0.31786261182E+02  0.75508372913E+02  0.00000000000E+00 0.  1.
         14    1    4    4    0    0 -0.20501488163E+03  0.10549050150E+03  0.22376806596E+02  0.23164643117E+03  0.00000000000E+00 0. -1.
        -13    1    3    3    0    0  0.70503639631E+02 -0.26246005514E+02  0.11727982105E+02  0.76139093578E+02  0.00000000000E+00 0.  1.
         13    1    3    3    0    0  0.19396414640E+03 -0.18040906988E+03  0.19110113177E+03  0.32663307418E+03  0.00000000000E+00 0. -1.
          3    1    1    2  501    0 -0.21458329664E+02  0.44177204497E+02  0.14872049286E+03  0.15662014655E+03  0.00000000000E+00 0. -1.
<scales pt_clust_5="13000.00000" pt_clust_6="13000.00000" pt_clust_7="13000.00000" pt_clust_8="13000.00000" pt_clust_9="49.11301"></scales>
<clustering>
<clus scale="   49.113">  2  9  1 -1</clus>
<clus scale="   77.187">  5  6 -1 -1</clus>
<clus scale="   91.849">  7  8 -1 -1</clus>
<clus scale="  325.587">  2  5  1 -1</clus>
<clus scale="   49.113">  2  5  1 -1</clus>
</clustering>
</event>
<event>
 9    2  0.1723348E-004  0.2130988E+03  0.7546771E-02  0.1163351E+00
          2   -1    0    0  502    0 -0.00000000000E+00  0.00000000000E+00  0.29293123826E+03  0.29293123826E+03  0.00000000000E+00 0. -1.
         21   -1    0    0  501  502  0.00000000000E+00 -0.00000000000E+00 -0.27085791915E+03  0.27085791915E+03  0.00000000000E+00 0. -1.
         23    2    1    2    0    0  0.42152865488E+02 -0.65366581952E+02 -0.64674570172E+02  0.13649801849E+03  0.91647449066E+02 0.  0.
         24    2    1    2    0    0  0.12067146624E+03 -0.97184785780E+02  0.90343546149E+02  0.19718759939E+03  0.81942099511E+02 0.  0.
        -11    1    4    4    0    0  0.17794457131E+02 -0.10736975536E+02 -0.15669327344E+02  0.26027930530E+02  0.00000000000E+00 0.  1.
         12    1    4    4    0    0  0.10287700911E+03 -0.86447810244E+02  0.10601287349E+03  0.17115966886E+03  0.00000000000E+00 0. -1.
        -13    1    3    3    0    0  0.15768259501E+01  0.22110849620E+02 -0.21371402168E+02  0.30791441695E+02  0.00000000000E+00 0.  1.
         13    1    3    3    0    0  0.40576039538E+02 -0.87477431572E+02 -0.43303168004E+02  0.10570657680E+03  0.00000000000E+00 0. -1.
          1    1    1    2  501    0 -0.16282433173E+03  0.16255136773E+03 -0.35956568737E+01  0.23010353952E+03  0.00000000000E+00 0. -1.
<scales pt_clust_5="13000.00000" pt_clust_6="13000.00000" pt_clust_7="13000.00000" pt_clust_8="13000.00000" pt_clust_9="196.71447"></scales>
<clustering>
<clus scale="   81.942">  5  6 -1 -1</clus>
<clus scale="   91.647">  7  8 -1 -1</clus>
<clus scale="  120.204">  1  7  2 -1</clus>
<clus scale="  196.714">  2  9  1 -1</clus>
<clus scale="  196.714">  2  5  1 -1</clus>
</clustering>
</event>
<event>
 9    2  0.1723348E-004  0.1482054E+03  0.7546771E-02  0.1228188E+00
         21   -1    0    0  501  502  0.00000000000E+00  0.00000000000E+00  0.14487322875E+03  0.14487322875E+03  0.00000000000E+00 0. -1.
          2   -1    0    0  502    0 -0.00000000000E+00 -0.00000000000E+00 -0.49199379913E+03  0.49199379913E+03  0.00000000000E+00 0. -1.
         24    2    1    2    0    0  0.10356655726E+02  0.24775049051E+02  0.81505992478E+02  0.11878895261E+03  0.82137233205E+02 0.  0.
         23    2    1    2    0    0 -0.11765420997E+03 -0.54299293051E+02 -0.34093511869E+03  0.37639449997E+03  0.92979234762E+02 0.  0.
        -11    1    3    3    0    0  0.19354413239E+02 -0.11351655223E+02 -0.63927255876E+01  0.23330673556E+02  0.00000000000E+00 0.  1.
         12    1    3    3    0    0 -0.89977575129E+01  0.36126704275E+02  0.87898718065E+02  0.95458279052E+02  0.00000000000E+00 0. -1.
        -13    1    4    4    0    0 -0.67497786428E+01 -0.36322791606E+02 -0.36691734450E+02  0.52069070269E+02  0.00000000000E+00 0.  1.
         13    1    4    4    0    0 -0.11090443133E+03 -0.17976501445E+02 -0.30424338424E+03  0.32432542970E+03  0.00000000000E+00 0. -1.
          1    1    1    2  501    0  0.10729755425E+03  0.29524244000E+02 -0.87691444164E+02  0.14168357530E+03  0.00000000000E+00 0. -1.
<scales pt_clust_5="13000.00000" pt_clust_6="13000.00000" pt_clust_7="13000.00000" pt_clust_8="13000.00000" pt_clust_9="115.41103"></scales>
<clustering>
<clus scale="   82.137">  5  6 -1 -1</clus>
<clus scale="   86.415">  2  5  1 -1</clus>
<clus scale="   92.979">  7  8 -1 -1</clus>
<clus scale="  115.411">  1  9  2 -1</clus>
<clus scale="  115.411">  1  5  2 -1</clus>
</clustering>
</event>
<event>
 9    2  0.1723348E-004  0.1101132E+03  0.7546771E-02  0.1271277E+00
          4   -1    0    0  502    0 -0.00000000000E+00  0.00000000000E+00  0.15413686826E+03  0.15413686826E+03  0.00000000000E+00 0. -1.
         21   -1    0    0  501  502  0.00000000000E+00 -0.00000000000E+00 -0.65187038703E+03  0.65187038703E+03  0.00000000000E+00 0. -1.
         24    2    1    2    0    0 -0.50739845220E+02 -0.42138996155E+02  0.12758100673E+03  0.15632262927E+03  0.61722153668E+02 0.  0.
         23    2    1    2    0    0 -0.18014965980E+02  0.52878340369E+02 -0.33903930007E+03  0.35507291160E+03  0.89490042361E+02 0.  0.
        -13    1    3    3    0    0  0.95768807934E+01 -0.25451943402E+02  0.30991652245E+02  0.41231063260E+02  0.00000000000E+00 0.  1.
         14    1    3    3    0    0 -0.60316726013E+02 -0.16687052753E+02  0.96589354487E+02  0.11509156601E+03  0.00000000000E+00 0. -1.
        -13    1    4    4    0    0 -0.23614241732E+02 -0.18490904666E+02 -0.61131113567E+02  0.68092283072E+02  0.00000000000E+00 0. -1.
         13    1    4    4    0    0  0.55992757521E+01  0.71369245035E+02 -0.27790818651E+03  0.28698062853E+03  0.00000000000E+00 0.  1.
          3    1    1    2  501    0  0.68754811200E+02 -0.10739344214E+02 -0.28627522543E+03  0.29461171441E+03  0.00000000000E+00 0. -1.
<scales pt_clust_5="13000.00000" pt_clust_6="13000.00000" pt_clust_7="13000.00000" pt_clust_8="13000.00000" pt_clust_9="69.58849"></scales>
<clustering>
<clus scale="   61.722">  5  6 -1 -1</clus>
<clus scale="   69.588">  2  9  1 -1</clus>
<clus scale="   89.028">  1  5  2 -1</clus>
<clus scale="   89.490">  7  8 -1 -1</clus>
<clus scale="   69.588">  2  5  1 -1</clus>
</clustering>
</event>
<event>
 9    2  0.1723348E-004  0.3134958E+03  0.7546771E-02  0.1079207E+00
         21   -1    0    0  501  502  0.00000000000E+00  0.00000000000E+00  0.33204871618E+03  0.33204871618E+03  0.00000000000E+00 0. -1.
          2   -1    0    0  502    0 -0.00000000000E+00 -0.00000000000E+00 -0.46261535104E+03  0.46261535104E+03  0.00000000000E+00 0. -1.
         24    2    1    2    0    0 -0.30296650885E+03  0.11970159616E+02 -0.26673342356E+03  0.41226177857E+03  0.82952182734E+02 0.  0.
         23    2    1    2    0    0  0.28266804021E+03 -0.28534504408E+02  0.66315586649E+02  0.30779936796E+03  0.98118576146E+02 0.  0.
        -11    1    3    3    0    0 -0.23803642228E+03  0.12700757062E+02 -0.15921533923E+03  0.28665688865E+03  0.00000000000E+00 0.  1.
         12    1    3    3    0    0 -0.64930086562E+02 -0.73059744647E+00 -0.10751808433E+03  0.12560488992E+03  0.00000000000E+00 0. -1.
        -11    1    4    4    0    0  0.13204734246E+03  0.33058107521E+02  0.46618611496E+02  0.14388409940E+03  0.00000000000E+00 0.  1.
         11    1    4    4    0    0  0.15062069775E+03 -0.61592611928E+02  0.19696975154E+02  0.16391526856E+03  0.00000000000E+00 0. -1.
          1    1    1    2  501    0  0.20298468638E+02  0.16564344792E+02  0.69851202056E+02  0.74602920694E+02  0.00000000000E+00 0. -1.
<scales pt_clust_5="13000.00000" pt_clust_6="13000.00000" pt_clust_7="13000.00000" pt_clust_8="13000.00000" pt_clust_9="26.19934"></scales>
<clustering>
<clus scale="   26.199">  1  9  2 -1</clus>
<clus scale="   82.952">  5  6 -1 -1</clus>
<clus scale="   98.119">  7  8 -1 -1</clus>
<clus scale="  309.085">  2  5  1 -1</clus>
<clus scale="   26.199">  1  5  2 -1</clus>
</clustering>
</event>
<event>
 9    2  0.1723348E-004  0.2218986E+03  0.7546771E-02  0.1133622E+00
         21   -1    0    0  501  502  0.00000000000E+00  0.00000000000E+00  0.69756760992E+02  0.69756760992E+02  0.00000000000E+00 0. -1.
          2   -1    0    0  502    0 -0.00000000000E+00 -0.00000000000E+00 -0.87761721296E+03  0.87761721296E+03  0.00000000000E+00 0. -1.
         24    2    1    2    0    0 -0.12364422308E+03  0.14924705416E+03 -0.43432425674E+03  0.48249302489E+03  0.81236580449E+02 0.  0.
         23    2    1    2    0    0  0.15225058866E+03 -0.14718310423E+03 -0.26506430394E+03  0.35268141590E+03  0.96343074379E+02 0.  0.
        -13    1    3    3    0    0  0.98334105061E+01  0.27063919224E+02 -0.70438165845E+02  0.76096562955E+02  0.00000000000E+00 0.  1.
         14    1    3    3    0    0 -0.13347763359E+03  0.12218313494E+03 -0.36388609089E+03  0.40639646194E+03  0.00000000000E+00 0. -1.
        -11    1    4    4    0    0  0.10754882899E+03 -0.45014038092E+02 -0.17001718521E+03  0.20615251032E+03  0.00000000000E+00 0. -1.
         11    1    4    4    0    0  0.44701759664E+02 -0.10216906614E+03 -0.95047118732E+02  0.14652890559E+03  0.00000000000E+00 0.  1.
          1    1    1    2  501    0 -0.28606365577E+02 -0.20639499333E+01 -0.10847189129E+03  0.11219953316E+03  0.00000000000E+00 0. -1.
<scales pt_clust_5="13000.00000" pt_clust_6="13000.00000" pt_clust_7="13000.00000" pt_clust_8="13000.00000" pt_clust_9="28.68074"></scales>
<clustering>
<clus scale="   28.681">  1  9  2 -1</clus>
<clus scale="   81.237">  5  6 -1 -1</clus>
<clus scale="   96.343">  7  8 -1 -1</clus>
<clus scale="  215.769">  2  5  1 -1</clus>
<clus scale="   28.681">  1  5  2 -1</clus>
</clustering>
</event>
<event>
 9    2  0.1723348E-004  0.2040127E+03  0.7546771E-02  0.1173446E+00
          2   -1    0    0  502    0 -0.00000000000E+00  0.00000000000E+00  0.18386737106E+04  0.18386737106E+04  0.00000000000E+00 0. -1.
         21   -1    0    0  501  502  0.00000000000E+00 -0.00000000000E+00 -0.39131823067E+02  0.39131823067E+02  0.00000000000E+00 0.  1.
         24    2    1    2    0    0  0.76764649471E+02  0.22172119079E+01  0.20164215690E+03  0.22906164555E+03  0.76889209830E+02 0.  0.
         23    2    1    2    0    0  0.13905421587E+03 -0.66491829833E+02  0.63800467293E+03  0.66278875173E+03  0.92096299365E+02 0.  0.
        -13    1    3    3    0    0  0.83260039399E+02 -0.19728089997E+02  0.15289523573E+03  0.17520954541E+03  0.00000000000E+00 0.  1.
         14    1    3    3    0    0 -0.64953899276E+01  0.21945301905E+02  0.48746921167E+02  0.53852100138E+02  0.00000000000E+00 0. -1.
        -11    1    4    4    0    0  0.24772737040E+02 -0.54843918581E+02  0.15404548752E+03  0.16538305878E+03  0.00000000000E+00 0.  1.
         11    1    4    4    0    0  0.11428147883E+03 -0.11647911252E+02  0.48395918541E+03  0.49740569295E+03  0.00000000000E+00 0. -1.
          1    1    1    2  501    0 -0.21581886534E+03  0.64274617926E+02  0.95989505766E+03  0.98595513634E+03  0.00000000000E+00 0. -1.
<scales pt_clust_5="13000.00000" pt_clust_6="13000.00000" pt_clust_7="13000.00000" pt_clust_8="13000.00000" pt_clust_9="182.04253"></scales>
<clustering>
<clus scale="   76.889">  5  6 -1 -1</clus>
<clus scale="   92.096">  7  8 -1 -1</clus>
<clus scale="  108.672">  1  5  2 -1</clus>
<clus scale="  182.043">  2  9  1 -1</clus>
<clus scale="  182.043">  2  5  1 -1</clus>
</clustering>
</event>
<event>
 9    2  0.1723348E-004  0.9617206E+02  0.7546771E-02  0.1289833E+00
         21   -1    0    0  501  502  0.00000000000E+00  0.00000000000E+00  0.22046978242E+03  0.22046978242E+03  0.00000000000E+00 0.  1.
         -3   -1    0    0    0  501 -0.00000000000E+00 -0.00000000000E+00 -0.29985102285E+03  0.29985102285E+03  0.00000000000E+00 0.  1.
         23    2    1    2    0    0 -0.45761937202E+02  0.15447329631E+02 -0.22275150439E+03  0.24468842973E+03  0.89002359784E+02 0.  0.
         24    2    1    2    0    0 -0.22908071457E+02  0.53525909660E+02 -0.24675931885E+01  0.10029966779E+03  0.81634132560E+02 0.  0.
        -13    1    4    4    0    0 -0.13721699454E+02  0.70636013455E+02 -0.19409344841E+02  0.74528210094E+02  0.00000000000E+00 0.  1.
         14    1    4    4    0    0 -0.91863720036E+01 -0.17110103795E+02  0.16941751652E+02  0.25771457691E+02  0.00000000000E+00 0. -1.
        -13    1    3    3    0    0 -0.70560166690E+02  0.80538968026E+01 -0.12706674677E+03  0.14556634402E+03  0.00000000000E+00 0.  1.
         13    1    3    3    0    0  0.24798229488E+02  0.73934328286E+01 -0.95684757620E+02  0.99122085710E+02  0.00000000000E+00 0. -1.
         -4    1    1    2    0  502  0.68670008659E+02 -0.68973239291E+02  0.14583785715E+03  0.17533270775E+03  0.00000000000E+00 0.  1.
<scales pt_clust_5="13000.00000" pt_clust_6="13000.00000" pt_clust_7="13000.00000" pt_clust_8="13000.00000" pt_clust_9="97.32871"></scales>
<clustering>
<clus scale="   81.634">  5  6 -1 -1</clus>
<clus scale="   89.002">  7  8 -1 -1</clus>
<clus scale="   97.329">  1  9  2 -1</clus>
<clus scale="   97.329">  1  5  2 -1</clus>
<clus scale="   96.172">  1  5  2 -1</clus>
</clustering>
</event>
<event>
 9    2  0.1723348E-004  0.1416184E+03  0.7546771E-02  0.1213880E+00
         21   -1    0    0  501  502  0.00000000000E+00  0.00000000000E+00  0.43053908627E+02  0.43053908627E+02  0.00000000000E+00 0. -1.
          2   -1    0    0  502    0 -0.00000000000E+00 -0.00000000000E+00 -0.66458856039E+03  0.66458856039E+03  0.00000000000E+00 0. -1.
         23    2    1    2    0    0 -0.10385991776E+03 -0.11915573074E+02 -0.31969604607E+03  0.34860749721E+03  0.91612017981E+02 0.  0.
         24    2    1    2    0    0  0.10865559494E+03  0.43332681646E+02 -0.15828179602E+03  0.21200235354E+03  0.78791568999E+02 0.  0.
        -11    1    4    4    0    0  0.65320390458E+02  0.45243960472E+02 -0.14712843145E+03  0.16721406851E+03  0.00000000000E+00 0.  1.
         12    1    4    4    0    0  0.43335204485E+02 -0.19112788266E+01 -0.11153364572E+02  0.44788285029E+02  0.00000000000E+00 0. -1.
        -13    1    3    3    0    0 -0.11186007535E+03 -0.32612479231E+02 -0.27643887816E+03  0.29999117257E+03  0.00000000000E+00 0. -1.
         13    1    3    3    0    0  0.80001575956E+01  0.20696906158E+02 -0.43257167914E+02  0.48616324645E+02  0.00000000000E+00 0.  1.
          1    1    1    2  501    0 -0.47956771861E+01 -0.31417108572E+02 -0.14355680967E+03  0.14703261827E+03  0.00000000000E+00 0. -1.
<scales pt_clust_5="13000.00000" pt_clust_6="13000.00000" pt_clust_7="13000.00000" pt_clust_8="13000.00000" pt_clust_9="31.78104"></scales>
<clustering>
<clus scale="   31.781">  1  9  2 -1</clus>
<clus scale="   78.792">  5  6 -1 -1</clus>
<clus scale="   91.612">  7  8 -1 -1</clus>
<clus scale="  133.683">  1  5  2 -1</clus>
<clus scale="   31.781">  1  5  2 -1</clus>
</clustering>
</event>
<event>
 9    2  0.1723348E-004  0.1951010E+03  0.7546771E-02  0.1189781E+00
          2   -1    0    0  502    0 -0.00000000000E+00  0.00000000000E+00  0.18549261724E+04  0.18549261724E+04  0.00000000000E+00 0. -1.
         21   -1    0    0  501  502  0.00000000000E+00 -0.00000000000E+00 -0.48292753630E+02  0.48292753630E+02  0.00000000000E+00 0. -1.
         24    2    1    2    0    0 -0.29319577406E+02 -0.11356871185E+02  0.36363681900E+02  0.93516055539E+02  0.80214207842E+02 0.  0.
         23    2    1    2    0    0  0.17978056651E+03 -0.34697260188E+02  0.75769151281E+03  0.78497161202E+03  0.92515139973E+02 0.  0.
        -11    1    3    3    0    0 -0.19470411698E+02 -0.53764874729E+01  0.62108340521E+02  0.65310408906E+02  0.00000000000E+00 0.  1.
         12    1    3    3    0    0 -0.98491657083E+01 -0.59803837124E+01 -0.25744658620E+02  0.28205646633E+02  0.00000000000E+00 0. -1.
        -11    1    4    4    0    0  0.17941764904E+03 -0.12440834495E+02  0.70863417749E+03  0.73110044772E+03  0.00000000000E+00 0. -1.
         11    1    4    4    0    0  0.36291747170E+00 -0.22256425692E+02  0.49057335320E+02  0.53871164294E+02  0.00000000000E+00 0.  1.
          1    1    1    2  501    0 -0.15046098911E+03  0.46054131373E+02  0.10125782240E+04  0.10247312584E+04  0.00000000000E+00 0. -1.
<scales pt_clust_5="13000.00000" pt_clust_6="13000.00000" pt_clust_7="13000.00000" pt_clust_8="13000.00000" pt_clust_9="171.77130"></scales>
<clustering>
<clus scale="   80.214">  5  6 -1 -1</clus>
<clus scale="   86.157">  1  5  2 -1</clus>
<clus scale="   92.515">  7  8 -1 -1</clus>
<clus scale="  171.771">  2  9  1 -1</clus>
<clus scale="  171.771">  2  5  1 -1</clus>
</clustering>
</event>
<event>
 9    2  0.1723348E-004  0.1086721E+03  0.7546771E-02  0.1269370E+00
         21   -1    0    0  501  502  0.00000000000E+00  0.00000000000E+00  0.10067866315E+04  0.10067866315E+04  0.00000000000E+00 0. -1.
          4   -1    0    0  502    0 -0.00000000000E+00 -0.00000000000E+00 -0.19860247049E+02  0.19860247049E+02  0.00000000000E+00 0. -1.
         24    2    1    2    0    0 -0.28813303098E+02 -0.83041700956E+02  0.36052745238E+03  0.38154353556E+03  0.88709047334E+02 0.  0.
         23    2    1    2    0    0 -0.21591921015E+02  0.39984479251E+02  0.40536978594E+03  0.41434699009E+03  0.72758471761E+02 0.  0.
        -13    1    3    3    0    0  0.89550412243E+01 -0.47365024554E+02  0.28981567856E+03  0.29379715086E+03  0.00000000000E+00 0.  1.
         14    1    3    3    0    0 -0.37768344323E+02 -0.35676676403E+02  0.70711773817E+02  0.87746384702E+02  0.00000000000E+00 0. -1.
        -13    1    4    4    0    0  0.17366977654E+02 -0.11487318351E+02  0.11720150998E+03  0.11903681925E+03  0.00000000000E+00 0.  1.
         13    1    4    4    0    0 -0.38958898669E+02  0.51471797602E+02  0.28816827596E+03  0.29531017085E+03  0.00000000000E+00 0. -1.
          3    1    1    2  501    0  0.50405224113E+02  0.43057221705E+02  0.22102914613E+03  0.23075635289E+03  0.00000000000E+00 0. -1.
<scales pt_clust_5="13000.00000" pt_clust_6="13000.00000" pt_clust_7="13000.00000" pt_clust_8="13000.00000" pt_clust_9="66.29190"></scales>
<clustering>
<clus scale="   66.292">  1  9  2 -1</clus>
<clus scale="   72.758">  7  8 -1 -1</clus>
<clus scale="   88.709">  5  6 -1 -1</clus>
<clus scale="   96.094">  1  7  2 -1</clus>
<clus scale="   66.292">  1  5  2 -1</clus>
</clustering>
</event>
<event>
 9    2  0.1723348E-004  0.2001121E+03  0.7546771E-02  0.1182839E+00
         21   -1    0    0  501  502  0.00000000000E+00  0.00000000000E+00  0.85755023643E+02  0.85755023643E+02  0.00000000000E+00 0. -1.
          2   -1    0    0  502    0 -0.00000000000E+00 -0.00000000000E+00 -0.65834900824E+03  0.65834900824E+03  0.00000000000E+00 0. -1.
         24    2    1    2    0    0 -0.40011059120E+02  0.16074697044E+02 -0.12578233012E+03  0.15653084633E+03  0.82591952057E+02 0.  0.
         23    2    1    2    0    0 -0.20784221152E+02 -0.18218234955E+03 -0.25011548819E+03  0.32304114561E+03  0.90418095493E+02 0.  0.
        -13    1    3    3    0    0 -0.28234752658E+02 -0.90738878913E+01 -0.12529527241E+03  0.12875729878E+03  0.00000000000E+00 0.  1.
         14    1    3    3    0    0 -0.11776306462E+02  0.25148584936E+02 -0.48705770248E+00  0.27773547547E+02  0.00000000000E+00 0. -1.
        -13    1    4    4    0    0 -0.20050684120E+01 -0.12583950270E+03 -0.22652131032E+03  0.25913607385E+03  0.00000000000E+00 0.  1.
         13    1    4    4    0    0 -0.18779152740E+02 -0.56342846841E+02 -0.23594177864E+02  0.63905071762E+02  0.00000000000E+00 0. -1.
          1    1    1    2  501    0  0.60795280272E+02  0.16610765250E+03 -0.19669616629E+03  0.26453203994E+03  0.00000000000E+00 0. -1.
<scales pt_clust_5="13000.00000" pt_clust_6="13000.00000" pt_clust_7="13000.00000" pt_clust_8="13000.00000" pt_clust_9="178.52008"></scales>
<clustering>
<clus scale="   82.592">  5  6 -1 -1</clus>
<clus scale="   90.418">  7  8 -1 -1</clus>
<clus scale="   93.170">  2  5  1 -1</clus>
<clus scale="  178.520">  1  9  2 -1</clus>
<clus scale="  178.520">  1  5  2 -1</clus>
</clustering>
</event>
<event>
 9    2  0.1723348E-004  0.1212887E+03  0.7546771E-02  0.1250934E+00
         21   -1    0    0  501  502  0.00000000000E+00  0.00000000000E+00  0.37272112607E+02  0.37272112607E+02  0.00000000000E+00 0.  1.
          2   -1    0    0  502    0 -0.00000000000E+00 -0.00000000000E+00 -0.77148879184E+03  0.77148879184E+03  0.00000000000E+00 0. -1.
         23    2    1    2    0    0 -0.39482316618E+02  0.85840127062E+01 -0.11506623605E+03  0.15198673175E+03  0.90703855205E+02 0.  0.
         24    2    1    2    0    0 -0.53597958045E+01  0.83752008890E+02 -0.30237338990E+03  0.32378099346E+03  0.79757998997E+02 0.  0.
        -13    1    4    4    0    0 -0.27877253446E+02  0.14015165230E+01 -0.10676776370E+03  0.11035606405E+03  0.00000000000E+00 0.  1.
         14    1    4    4    0    0  0.22517457641E+02  0.82350492367E+02 -0.19560562620E+03  0.21342492941E+03  0.00000000000E+00 0. -1.
        -11    1    3    3    0    0 -0.17015487195E+02 -0.34897959287E+02 -0.87705734210E+02  0.95915015405E+02  0.00000000000E+00 0. -1.
         11    1    3    3    0    0 -0.22466829424E+02  0.43481971993E+02 -0.27360501840E+02  0.56071716343E+02  0.00000000000E+00 0.  1.
          1    1    1    2  501    0  0.44842112423E+02 -0.92336021596E+02 -0.31677705329E+03  0.33299317924E+03  0.00000000000E+00 0. -1.
<scales pt_clust_5="13000.00000" pt_clust_6="13000.00000" pt_clust_7="13000.00000" pt_clust_8="13000.00000" pt_clust_9="91.37627"></scales>
<clustering>
<clus scale="   79.758">  5  6 -1 -1</clus>
<clus scale="   90.704">  7  8 -1 -1</clus>
<clus scale="   99.296">  2  7  1 -1</clus>
<clus scale="   91.376">  1  9  2 -1</clus>
<clus scale="   91.376">  1  5  2 -1</clus>
</clustering>
</event>
<event>
 9    2  0.1723348E-004  0.1732450E+03  0.7546771E-02  0.1176466E+00
         21   -1    0    0  501  502  0.00000000000E+00  0.00000000000E+00  0.60340738573E+02  0.60340738573E+02  0.00000000000E+00 0. -1.
          4   -1    0    0  502    0 -0.00000000000E+00 -0.00000000000E+00 -0.72821233914E+03  0.72821233914E+03  0.00000000000E+00 0. -1.
         24    2    1    2    0    0  0.13764235195E+03 -0.78952300273E+02 -0.50782622718E+03  0.53745385928E+03  0.76093962115E+02 0.  0.
         23    2    1    2    0    0 -0.11144494489E+03  0.48987452229E+02 -0.13881659217E+03  0.20598982466E+03  0.91334634091E+02 0.  0.
        -11    1    3    3    0    0  0.19422929318E+02 -0.16520229048E+02 -0.22354598817E+02  0.33910120014E+02  0.00000000000E+00 0.  1.
         12    1    3    3    0    0  0.11821942263E+03 -0.62432071225E+02 -0.48547162837E+03  0.50354373926E+03  0.00000000000E+00 0. -1.
        -11    1    4    4    0    0 -0.58956389057E+02 -0.21226165248E+02 -0.42289948098E+02  0.75596597885E+02  0.00000000000E+00 0. -1.
         11    1    4    4    0    0 -0.52488555829E+02  0.70213617477E+02 -0.96526644077E+02  0.13039322678E+03  0.00000000000E+00 0.  1.
          3    1    1    2  501    0 -0.26197407060E+02  0.29964848044E+02 -0.21228781210E+02  0.45109393774E+02  0.00000000000E+00 0. -1.
<scales pt_clust_5="13000.00000" pt_clust_6="13000.00000" pt_clust_7="13000.00000" pt_clust_8="13000.00000" pt_clust_9="39.80196"></scales>
<clustering>
<clus scale="   39.802">  1  9  2 -1</clus>
<clus scale="   76.094">  5  6 -1 -1</clus>
<clus scale="   91.335">  7  8 -1 -1</clus>
<clus scale="  165.717">  2  5  1 -1</clus>
<clus scale="   39.802">  1  5  2 -1</clus>
</clustering>
</event>
<event>
 9    2  0.1723348E-004  0.9670622E+02  0.7546771E-02  0.1292939E+00
         21   -1    0    0  501  502  0.00000000000E+00  0.00000000000E+00  0.68332112308E+02  0.68332112308E+02  0.00000000000E+00 0. -1.
          2   -1    0    0  502    0 -0.00000000000E+00 -0.00000000000E+00 -0.31092273928E+03  0.31092273928E+03  0.00000000000E+00 0. -1.
         23    2    1    2    0    0  0.36844632344E+02 -0.15239146222E+02 -0.21357773120E+03  0.23506884749E+03  0.89733813492E+02 0.  0.
         24    2    1    2    0    0 -0.11717459963E+02  0.34829256594E+02 -0.54808286190E+02  0.10319149980E+03  0.79335751165E+02 0.  0.
        -11    1    4    4    0    0 -0.20527079999E+02 -0.21890320184E+02 -0.17666898018E+02  0.34823360214E+02  0.00000000000E+00 0.  1.
         12    1    4    4    0    0  0.88096200354E+01  0.56719576778E+02 -0.37141388172E+02  0.68368139585E+02  0.00000000000E+00 0. -1.
        -11    1    3    3    0    0  0.19577136552E+02 -0.49444048209E+02 -0.79675243591E+02  0.95792080153E+02  0.00000000000E+00 0.  1.
         11    1    3    3    0    0  0.17267495793E+02  0.34204901987E+02 -0.13390248761E+03  0.13927676733E+03  0.00000000000E+00 0. -1.
          1    1    1    2  501    0 -0.25127172381E+02 -0.19590110372E+02  0.25795390417E+02  0.40994504303E+02  0.00000000000E+00 0. -1.
<scales pt_clust_5="13000.00000" pt_clust_6="13000.00000" pt_clust_7="13000.00000" pt_clust_8="13000.00000" pt_clust_9="31.86137"></scales>
<clustering>
<clus scale="   31.861">  1  9  2 -1</clus>
<clus scale="   79.336">  5  6 -1 -1</clus>
<clus scale="   87.144">  1  5  2 -1</clus>
<clus scale="   89.734">  7  8 -1 -1</clus>
<clus scale="   31.861">  1  5  2 -1</clus>
</clustering>
</event>
<event>
 9    2  0.1723348E-004  0.1022431E+03  0.7546771E-02  0.1280490E+00
         -1   -1    0    0    0  501 -0.00000000000E+00  0.00000000000E+00  0.12286554104E+03  0.12286554104E+03  0.00000000000E+00 0.  1.
         21   -1    0    0  501  502  0.00000000000E+00 -0.00000000000E+00 -0.28930584858E+03  0.28930584858E+03  0.00000000000E+00 0. -1.
         24    2    1    2    0    0 -0.35293917862E+02  0.11213936988E+02  0.13362499317E+02  0.89999855883E+02  0.80932099010E+02 0.  0.
         23    2    1    2    0    0  0.10481099798E+03  0.49669342992E+01 -0.20395210381E+03  0.24682146030E+03  0.91183095398E+02 0.  0.
        -13    1    3    3    0    0  0.95447483498E+01 -0.27154182425E+02 -0.25006974451E+01  0.28891267400E+02  0.00000000000E+00 0.  1.
         14    1    3    3    0    0 -0.44838666212E+02  0.38368119413E+02  0.15863196762E+02  0.61108588484E+02  0.00000000000E+00 0. -1.
        -13    1    4    4    0    0  0.75324719463E+02 -0.39907832899E+02 -0.12901114315E+03  0.15462963347E+03  0.00000000000E+00 0.  1.
         13    1    4    4    0    0  0.29486278513E+02  0.44874767198E+02 -0.74940960652E+02  0.92191826835E+02  0.00000000000E+00 0. -1.
         -2    1    1    2    0  502 -0.69517080114E+02 -0.16180871287E+02  0.24149296953E+02  0.75350073434E+02  0.00000000000E+00 0.  1.
<scales pt_clust_5="13000.00000" pt_clust_6="13000.00000" pt_clust_7="13000.00000" pt_clust_8="13000.00000" pt_clust_9="71.37542"></scales>
<clustering>
<clus scale="   71.375">  2  9  1 -1</clus>
<clus scale="   80.932">  5  6 -1 -1</clus>
<clus scale="   91.183">  7  8 -1 -1</clus>
<clus scale="   93.216">  1  5  2 -1</clus>
<clus scale="   71.375">  2  5  1 -1</clus>
</clustering>
</event>
<event>
 9    2  0.1723348E-004  0.1339669E+03  0.7546771E-02  0.1223839E+00
         21   -1    0    0  501  502  0.00000000000E+00  0.00000000000E+00  0.13662618880E+03  0.13662618880E+03  0.00000000000E+00 0.  1.
          2   -1    0    0  502    0 -0.00000000000E+00 -0.00000000000E+00 -0.18264247408E+03  0.18264247408E+03  0.00000000000E+00 0. -1.
         23    2    1    2    0    0  0.30666635896E+02 -0.94457017109E+02 -0.84612845681E+02  0.15912712189E+03  0.91101792675E+02 0.  0.
         24    2    1    2    0    0 -0.53382913102E+02  0.82460804356E+02  0.23111365621E+02  0.13014604753E+03  0.82184784480E+02 0.  0.
        -13    1    4    4    0    0 -0.24163130910E+02 -0.36280158568E+01  0.30329601602E+02  0.38947453418E+02  0.00000000000E+00 0.  1.
         14    1    4    4    0    0 -0.29219782192E+02  0.86088820212E+02 -0.72182359802E+01  0.91198594110E+02  0.00000000000E+00 0. -1.
        -11    1    3    3    0    0  0.57121339225E+02 -0.54045467257E+02 -0.25238321186E+02  0.82587727794E+02  0.00000000000E+00 0. -1.
         11    1    3    3    0    0 -0.26454703329E+02 -0.40411549852E+02 -0.59374524495E+02  0.76539394097E+02  0.00000000000E+00 0.  1.
          1    1    1    2  501    0  0.22716277206E+02  0.11996212753E+02  0.15485194775E+02  0.29995493457E+02  0.00000000000E+00 0. -1.
<scales pt_clust_5="13000.00000" pt_clust_6="13000.00000" pt_clust_7="13000.00000" pt_clust_8="13000.00000" pt_clust_9="25.68927"></scales>
<clustering>
<clus scale="   25.689">  1  9  2 -1</clus>
<clus scale="   82.185">  5  6 -1 -1</clus>
<clus scale="   91.102">  7  8 -1 -1</clus>
<clus scale="  128.070">  1  5  2 -1</clus>
<clus scale="   25.689">  1  5  2 -1</clus>
</clustering>
</event>
<event>
 9    2  0.1723348E-004  0.1666625E+03  0.7546771E-02  0.1183012E+00
         21   -1    0    0  501  502  0.00000000000E+00  0.00000000000E+00  0.47647349110E+03  0.47647349110E+03  0.00000000000E+00 0. -1.
          2   -1    0    0  502    0 -0.00000000000E+00 -0.00000000000E+00 -0.48640662676E+03  0.48640662676E+03  0.00000000000E+00 0. -1.
         23    2    1    2    0    0 -0.14012996814E+03 -0.67349949712E+01 -0.45489056795E+03  0.48471781487E+03  0.91346390848E+02 0.  0.
         24    2    1    2    0    0  0.11796907846E+03  0.21205767060E+02  0.32773201382E+03  0.35798615307E+03  0.79871301935E+02 0.  0.
        -11    1    4    4    0    0  0.75220310067E+02 -0.20816306127E+02  0.13270471189E+03  0.15395439002E+03  0.00000000000E+00 0.  1.
         12    1    4    4    0    0  0.42748768395E+02  0.42022073187E+02  0.19502730193E+03  0.20403176305E+03  0.00000000000E+00 0. -1.
        -11    1    3    3    0    0 -0.10469068245E+03 -0.29597248203E+02 -0.40515903240E+03  0.41951159415E+03  0.00000000000E+00 0. -1.
         11    1    3    3    0    0 -0.35439285687E+02  0.22862253232E+02 -0.49731535548E+02  0.65206220721E+02  0.00000000000E+00 0.  1.
          1    1    1    2  501    0  0.22160889674E+02 -0.14470772089E+02  0.11722541846E+03  0.12017614992E+03  0.00000000000E+00 0. -1.
<scales pt_clust_5="13000.00000" pt_clust_6="13000.00000" pt_clust_7="13000.00000" pt_clust_8="13000.00000" pt_clust_9="26.46712"></scales>
<clustering>
<clus scale="   26.467">  1  9  2 -1</clus>
<clus scale="   79.871">  5  6 -1 -1</clus>
<clus scale="   91.346">  7  8 -1 -1</clus>
<clus scale="  160.660">  1  5  2 -1</clus>
<clus scale="   26.467">  1  5  2 -1</clus>
</clustering>
</event>
<event>
 9    2  0.1723348E-004  0.1407531E+03  0.7546771E-02  0.1223986E+00
         21   -1    0    0  501  502  0.00000000000E+00  0.00000000000E+00  0.22068621202E+03  0.22068621202E+03  0.00000000000E+00 0.  1.
          2   -1    0    0  502    0 -0.00000000000E+00 -0.00000000000E+00 -0.23632864601E+03  0.23632864601E+03  0.00000000000E+00 0. -1.
         24    2    1    2    0    0 -0.60449665490E+02  0.55601852759E+02 -0.36725069302E+02  0.11605154914E+03  0.73304183060E+02 0.  0.
         23    2    1    2    0    0  0.41179945936E+02  0.90743456156E+02  0.10453847355E+03  0.17139577524E+03  0.92293317926E+02 0.  0.
        -13    1    3    3    0    0 -0.69335516903E+02  0.42882976589E+02 -0.61399675555E+01  0.81756117734E+02  0.00000000000E+00 0.  1.
         14    1    3    3    0    0  0.88858514129E+01  0.12718876169E+02 -0.30585101747E+02  0.34295431404E+02  0.00000000000E+00 0. -1.
        -11    1    4    4    0    0  0.66020615482E+02  0.47267270487E+02  0.85267243171E+02  0.11774302224E+03  0.00000000000E+00 0.  1.
         11    1    4    4    0    0 -0.24840669546E+02  0.43476185668E+02  0.19271230382E+02  0.53652752998E+02  0.00000000000E+00 0. -1.
          1    1    1    2  501    0  0.19269719554E+02 -0.14634530891E+03 -0.83455838244E+02  0.16956753366E+03  0.00000000000E+00 0. -1.
<scales pt_clust_5="13000.00000" pt_clust_6="13000.00000" pt_clust_7="13000.00000" pt_clust_8="13000.00000" pt_clust_9="106.27030"></scales>
<clustering>
<clus scale="   73.304">  5  6 -1 -1</clus>
<clus scale="   92.293">  7  8 -1 -1</clus>
<clus scale="  110.087">  2  5  1 -1</clus>
<clus scale="  106.270">  1  9  2 -1</clus>
<clus scale="  106.270">  1  5  2 -1</clus>
</clustering>
</event>
<event>
 9    2  0.1723348E-004  0.1443347E+03  0.7546771E-02  0.1210666E+00
         21   -1    0    0  501  502  0.00000000000E+00  0.00000000000E+00  0.52774273733E+02  0.52774273733E+02  0.00000000000E+00 0.  1.
          4   -1    0    0  502    0 -0.00000000000E+00 -0.00000000000E+00 -0.83069410400E+03  0.83069410400E+03  0.00000000000E+00 0. -1.
         23    2    1    2    0    0 -0.33815267049E+02  0.10804526614E+03 -0.38836284255E+03  0.41520484861E+03  0.93552749899E+02 0.  0.
         24    2    1    2    0    0  0.10214005847E+03 -0.66252230841E+02 -0.12365983180E+03  0.19056543325E+03  0.78749480727E+02 0.  0.
        -11    1    4    4    0    0  0.27339350549E+02  0.15288467056E+02 -0.12517536496E+02  0.33732269910E+02  0.00000000000E+00 0.  1.
         12    1    4    4    0    0  0.74800707924E+02 -0.81540697897E+02 -0.11114229530E+03  0.15683316334E+03  0.00000000000E+00 0. -1.
        -11    1    3    3    0    0  0.25973250689E+02  0.45974124840E+01 -0.90676358384E+02  0.94434887211E+02  0.00000000000E+00 0.  1.
         11    1    3    3    0    0 -0.59788517738E+02  0.10344785366E+03 -0.29768648417E+03  0.32076996140E+03  0.00000000000E+00 0. -1.
          3    1    1    2  501    0 -0.68324791424E+02 -0.41793035303E+02 -0.26589715592E+03  0.27769809586E+03  0.00000000000E+00 0. -1.
<scales pt_clust_5="13000.00000" pt_clust_6="13000.00000" pt_clust_7="13000.00000" pt_clust_8="13000.00000" pt_clust_9="80.09333"></scales>
<clustering>
<clus scale="   78.749">  5  6 -1 -1</clus>
<clus scale="   80.093">  1  9  2 -1</clus>
<clus scale="   93.553">  7  8 -1 -1</clus>
<clus scale="  135.211">  1  5  2 -1</clus>
<clus scale="   80.093">  1  5  2 -1</clus>
</clustering>
</event>
<event>
 9    2  0.1723348E-004  0.2393381E+03  0.7546771E-02  0.1138049E+00
         21   -1    0    0  501  502  0.00000000000E+00  0.00000000000E+00  0.73213747441E+03  0.73213747441E+03  0.00000000000E+00 0.  1.
         -1   -1    0    0    0  501 -0.00000000000E+00 -0.00000000000E+00 -0.55745296448E+03  0.55745296448E+03  0.00000000000E+00 0.  1.
         24    2    1    2    0    0 -0.11181386467E+03 -0.69302133261E+02 -0.19281375065E+03  0.24702724073E+03  0.80871436325E+02 0.  0.
         23    2    1    2    0    0 -0.10010757255E+03  0.14518765912E+03 -0.28758499234E+03  0.34988479021E+03  0.92807629869E+02 0.  0.
        -13    1    3    3    0    0 -0.12232921912E+03 -0.72107055798E+02 -0.18663254572E+03  0.23451134827E+03  0.00000000000E+00 0.  1.
         14    1    3    3    0    0  0.10515354445E+02  0.28049225375E+01 -0.61812049289E+01  0.12515892454E+02  0.00000000000E+00 0. -1.
        -11    1    4    4    0    0 -0.82290571462E+02  0.48843434763E+02 -0.10096943520E+03  0.13911235069E+03  0.00000000000E+00 0. -1.
         11    1    4    4    0    0 -0.17817001086E+02  0.96344224358E+02 -0.18661555714E+03  0.21077243952E+03  0.00000000000E+00 0.  1.
         -2    1    1    2    0  502  0.21192143722E+03 -0.75885525860E+02  0.65508325292E+03  0.69267840795E+03  0.00000000000E+00 0.  1.
<scales pt_clust_5="13000.00000" pt_clust_6="13000.00000" pt_clust_7="13000.00000" pt_clust_8="13000.00000" pt_clust_9="220.61155"></scales>
<clustering>
<clus scale="   80.871">  5  6 -1 -1</clus>
<clus scale="   92.808">  7  8 -1 -1</clus>
<clus scale="  154.419">  2  5  1 -1</clus>
<clus scale="  220.612">  1  9  2 -1</clus>
<clus scale="  220.612">  1  5  2 -1</clus>
</clustering>
</event>
<event>
 9    2  0.1723348E-004  0.9271220E+02  0.7546771E-02  0.1301447E+00
         -3   -1    0    0    0  501 -0.00000000000E+00  0.00000000000E+00  0.95916804175E+02  0.95916804175E+02  0.00000000000E+00 0.  1.
         21   -1    0    0  501  502  0.00000000000E+00 -0.00000000000E+00 -0.20253218786E+03  0.20253218786E+03  0.00000000000E+00 0.  1.
         24    2    1    2    0    0  0.28131739663E+02  0.30294558603E+02  0.11577070895E+02  0.89881548698E+02  0.78965240254E+02 0.  0.
         23    2    1    2    0    0 -0.11800987668E+02  0.26345374605E+02 -0.11772271890E+03  0.14961834541E+03  0.87713560329E+02 0.  0.
        -11    1    3    3    0    0  0.52855646097E+02  0.57627165486E+01  0.13959372324E+02  0.54970831375E+02  0.00000000000E+00 0.  1.
         12    1    3    3    0    0 -0.24723906434E+02  0.24531842054E+02 -0.23823014286E+01  0.34910717323E+02  0.00000000000E+00 0. -1.
        -13    1    4    4    0    0 -0.33670085426E+02  0.38640682484E+02 -0.32284695145E+02  0.60572919163E+02  0.00000000000E+00 0. -1.
         13    1    4    4    0    0  0.21869097758E+02 -0.12295307879E+02 -0.85438023756E+02  0.89045426249E+02  0.00000000000E+00 0.  1.
         -4    1    1    2    0  502 -0.16330751995E+02 -0.56639933208E+02 -0.46973567818E+00  0.58949097924E+02  0.00000000000E+00 0.  1.
<scales pt_clust_5="13000.00000" pt_clust_6="13000.00000" pt_clust_7="13000.00000" pt_clust_8="13000.00000" pt_clust_9="58.94726"></scales>
<clustering>
<clus scale="   58.947">  2  9  1 -1</clus>
<clus scale="   78.965">  5  6 -1 -1</clus>
<clus scale="   84.483">  1  5  2 -1</clus>
<clus scale="   87.714">  7  8 -1 -1</clus>
<clus scale="   58.947">  2  5  1 -1</clus>
</clustering>
</event>
<event>
 9    2  0.1723348E-004  0.2612329E+03  0.7546771E-02  0.1118405E+00
         21   -1    0    0  501  502  0.00000000000E+00  0.00000000000E+00  0.79107582066E+02  0.79107582066E+02  0.00000000000E+00 0. -1.
          2   -1    0    0  502    0 -0.00000000000E+00 -0.00000000000E+00 -0.20888252406E+04  0.20888252406E+04  0.00000000000E+00 0. -1.
         24    2    1    2    0    0 -0.17236254672E+03 -0.29093938836E+02 -0.43681867822E+03  0.47742977682E+03  0.81076071485E+02 0.  0.
         23    2    1    2    0    0  0.20390437495E+03 -0.17784081558E+03 -0.35792918056E+03  0.45763302276E+03  0.90057400663E+02 0.  0.
        -11    1    3    3    0    0 -0.17267267743E+02 -0.30513827228E+02 -0.53994299045E+02  0.64378851471E+02  0.00000000000E+00 0.  1.
         12    1    3    3    0    0 -0.15509527897E+03  0.14198883922E+01 -0.38282437917E+03  0.41305092535E+03  0.00000000000E+00 0. -1.
        -13    1    4    4    0    0  0.11103492632E+03 -0.12272596123E+03 -0.27702354622E+03  0.32269561755E+03  0.00000000000E+00 0. -1.
         13    1    4    4    0    0  0.92869448624E+02 -0.55114854342E+02 -0.80905634344E+02  0.13493740521E+03  0.00000000000E+00 0.  1.
          1    1    1    2  501    0 -0.31541828230E+02  0.20693475441E+03 -0.12149697997E+04  0.12328700231E+04  0.00000000000E+00 0. -1.
<scales pt_clust_5="13000.00000" pt_clust_6="13000.00000" pt_clust_7="13000.00000" pt_clust_8="13000.00000" pt_clust_9="245.21902"></scales>
<clustering>
<clus scale="   81.076">  5  6 -1 -1</clus>
<clus scale="   90.057">  7  8 -1 -1</clus>
<clus scale="  192.688">  2  5  1 -1</clus>
<clus scale="  245.219">  1  9  2 -1</clus>
<clus scale="  245.219">  1  5  2 -1</clus>
</clustering>
</event>
<event>
 9    2  0.1723348E-004  0.1817882E+03  0.7546771E-02  0.1177181E+00
         21   -1    0    0  501  502  0.00000000000E+00  0.00000000000E+00  0.21298007265E+03  0.21298007265E+03  0.00000000000E+00 0. -1.
          2   -1    0    0  502    0 -0.00000000000E+00 -0.00000000000E+00 -0.15420888897E+04  0.15420888897E+04  0.00000000000E+00 0. -1.
         24    2    1    2    0    0  0.36868025162E+02 -0.11094305887E+03  0.10918876745E+02  0.14155740773E+03  0.79067466284E+02 0.  0.
         23    2    1    2    0    0 -0.76208474722E+02  0.25913671250E+03 -0.14145682624E+04  0.14430259942E+04  0.91438961934E+02 0.  0.
        -13    1    3    3    0    0  0.11725117900E+02 -0.99768156044E+02 -0.17537849947E+02  0.10197421013E+03  0.00000000000E+00 0.  1.
         14    1    3    3    0    0  0.25142907262E+02 -0.11174902821E+02  0.28456726692E+02  0.39583197605E+02  0.00000000000E+00 0. -1.
        -11    1    4    4    0    0 -0.81905338532E+02  0.15958612938E+03 -0.10429190768E+04  0.10582326861E+04  0.00000000000E+00 0.  1.
         11    1    4    4    0    0  0.56968638097E+01  0.99550583112E+02 -0.37164918559E+03  0.38479330816E+03  0.00000000000E+00 0. -1.
          1    1    1    2  501    0  0.39340449561E+02 -0.14819365363E+03  0.74540568546E+02  0.17048556041E+03  0.00000000000E+00 0. -1.
<scales pt_clust_5="13000.00000" pt_clust_6="13000.00000" pt_clust_7="13000.00000" pt_clust_8="13000.00000" pt_clust_9="157.11732"></scales>
<clustering>
<clus scale="   79.067">  5  6 -1 -1</clus>
<clus scale="   91.439">  7  8 -1 -1</clus>
<clus scale="  141.136">  2  5  1 -1</clus>
<clus scale="  157.117">  1  9  2 -1</clus>
<clus scale="  157.117">  1  5  2 -1</clus>
</clustering>
</event>
<event>
 9    2  0.1723348E-004  0.8781959E+02  0.7546771E-02  0.1311837E+00
          2   -1    0    0  502    0 -0.00000000000E+00  0.00000000000E+00  0.65456585256E+03  0.65456585256E+03  0.00000000000E+00 0. -1.
         21   -1    0    0  501  502  0.00000000000E+00 -0.00000000000E+00 -0.34812175487E+02  0.34812175487E+02  0.00000000000E+00 0. -1.
         24    2    1    2    0    0  0.92001481755E+01  0.64335785511E+01  0.33223703600E+03  0.34191511036E+03  0.79990380323E+02 0.  0.
         23    2    1    2    0    0 -0.33753368658E+02 -0.55213020481E+02  0.82873056209E+02  0.13565807492E+03  0.85716989682E+02 0.  0.
        -13    1    3    3    0    0  0.37101581442E+02  0.19383839766E+02  0.11249927949E+03  0.12003478027E+03  0.00000000000E+00 0.  1.
         14    1    3    3    0    0 -0.27901433267E+02 -0.12950261215E+02  0.21973775651E+03  0.22188033009E+03  0.00000000000E+00 0. -1.
        -13    1    4    4    0    0 -0.34521214182E+02 -0.23638940971E+02 -0.51362797229E+01  0.42153233900E+02  0.00000000000E+00 0. -1.
         13    1    4    4    0    0  0.76784552412E+00 -0.31574079509E+02  0.88009335932E+02  0.93504841023E+02  0.00000000000E+00 0.  1.
          1    1    1    2  501    0  0.24553220482E+02  0.48779441930E+02  0.20464358486E+03  0.21180484276E+03  0.00000000000E+00 0. -1.
<scales pt_clust_5="13000.00000" pt_clust_6="13000.00000" pt_clust_7="13000.00000" pt_clust_8="13000.00000" pt_clust_9="54.61042"></scales>
<clustering>
<clus scale="   54.610">  2  9  1 -1</clus>
<clus scale="   79.990">  5  6 -1 -1</clus>
<clus scale="   82.240">  1  5  2 -1</clus>
<clus scale="   85.717">  7  8 -1 -1</clus>
<clus scale="   54.610">  2  5  1 -1</clus>
</clustering>
</event>
<event>
 9    2  0.1723348E-004  0.1854395E+03  0.7546771E-02  0.1188692E+00
         21   -1    0    0  501  502  0.00000000000E+00  0.00000000000E+00  0.88150499800E+03  0.88150499800E+03  0.00000000000E+00 0.  1.
         -1   -1    0    0    0  501 -0.00000000000E+00 -0.00000000000E+00 -0.83947868953E+02  0.83947868953E+02  0.00000000000E+00 0.  1.
         24    2    1    2    0    0  0.24042764880E+02 -0.58226337100E+02  0.39728606940E+02  0.11019315752E+03  0.81214585391E+02 0.  0.
         23    2    1    2    0    0  0.15595920553E+03  0.31955605823E+02  0.54962476086E+03  0.57878246467E+03  0.86932900149E+02 0.  0.
        -11    1    3    3    0    0  0.35002732455E+02 -0.22229429487E+02 -0.14726260838E+02  0.44002290542E+02  0.00000000000E+00 0.  1.
         12    1    3    3    0    0 -0.10959967575E+02 -0.35996907614E+02  0.54454867778E+02  0.66190866981E+02  0.00000000000E+00 0. -1.
        -11    1    4    4    0    0  0.12501537009E+03 -0.13438176152E+02  0.40529384489E+03  0.42434953522E+03  0.00000000000E+00 0.  1.
         11    1    4    4    0    0  0.30943835434E+02  0.45393781976E+02  0.14433091597E+03  0.15443292945E+03  0.00000000000E+00 0. -1.
         -2    1    1    2    0  502 -0.18000197041E+03  0.26270731277E+02  0.20820376125E+03  0.27647724476E+03  0.00000000000E+00 0.  1.
<scales pt_clust_5="13000.00000" pt_clust_6="13000.00000" pt_clust_7="13000.00000" pt_clust_8="13000.00000" pt_clust_9="163.80020"></scales>
<clustering>
<clus scale="   81.215">  5  6 -1 -1</clus>
<clus scale="   86.933">  7  8 -1 -1</clus>
<clus scale="  102.782">  2  5  1 -1</clus>
<clus scale="  163.800">  1  9  2 -1</clus>
<clus scale="  163.800">  1  5  2 -1</clus>
</clustering>
</event>
<event>
 9    2  0.1723348E-004  0.1048268E+03  0.7546771E-02  0.1276136E+00
          2   -1    0    0  502    0 -0.00000000000E+00  0.00000000000E+00  0.94671014099E+03  0.94671014099E+03  0.00000000000E+00 0. -1.
         21   -1    0    0  501  502  0.00000000000E+00 -0.00000000000E+00 -0.50003579632E+02  0.50003579632E+02  0.00000000000E+00 0. -1.
         24    2    1    2    0    0  0.45673921582E+02  0.28322156056E+02  0.84886508819E+03  0.85421618323E+03  0.78899290953E+02 0.  0.
         23    2    1    2    0    0 -0.64390249963E+01 -0.21298508623E+02  0.30430100343E+02  0.99001967075E+02  0.91544038394E+02 0.  0.
        -13    1    3    3    0    0  0.39465080265E+02  0.24240825293E+02  0.19938692081E+03  0.20469551622E+03  0.00000000000E+00 0.  1.
         14    1    3    3    0    0  0.62088413163E+01  0.40813307631E+01  0.64947816738E+03  0.64952066701E+03  0.00000000000E+00 0. -1.
        -13    1    4    4    0    0 -0.10867538033E+02 -0.48861788455E+02  0.45178342525E+02  0.67428928415E+02  0.00000000000E+00 0.  1.
         13    1    4    4    0    0  0.44285130366E+01  0.27563279831E+02 -0.14748242182E+02  0.31573038660E+02  0.00000000000E+00 0. -1.
          1    1    1    2  501    0 -0.39234896585E+02 -0.70236474328E+01  0.17411372826E+02  0.43495570315E+02  0.00000000000E+00 0. -1.
<scales pt_clust_5="13000.00000" pt_clust_6="13000.00000" pt_clust_7="13000.00000" pt_clust_8="13000.00000" pt_clust_9="39.85861"></scales>
<clustering>
<clus scale="   39.859">  2  9  1 -1</clus>
<clus scale="   78.899">  5  6 -1 -1</clus>
<clus scale="   91.544">  7  8 -1 -1</clus>
<clus scale="   93.986">  1  5  2 -1</clus>
<clus scale="   39.859">  2  5  1 -1</clus>
</clustering>
</event>
<event>
 9    2  0.1723348E-004  0.2136837E+03  0.7546771E-02  0.1139646E+00
         -3   -1    0    0    0  501 -0.00000000000E+00  0.00000000000E+00  0.66349477285E+03  0.66349477285E+03  0.00000000000E+00 0.  1.
         21   -1    0    0  501  502  0.00000000000E+00 -0.00000000000E+00 -0.77362868241E+02  0.77362868241E+02  0.00000000000E+00 0.  1.
         23    2    1    2    0    0 -0.18177488594E+03  0.28809821833E+02  0.26799953812E+03  0.33799664106E+03  0.92443831276E+02 0.  0.
         24    2    1    2    0    0  0.19834885383E+03 -0.42281298980E+02  0.25176772484E+03  0.33314412425E+03  0.80424151776E+02 0.  0.
        -13    1    4    4    0    0  0.17884598712E+03 -0.94913208659E+01  0.19519961838E+03  0.26491293531E+03  0.00000000000E+00 0.  1.
         14    1    4    4    0    0  0.19502866712E+02 -0.32789978114E+02  0.56568106461E+02  0.68231188933E+02  0.00000000000E+00 0. -1.
        -11    1    3    3    0    0 -0.14991768508E+03 -0.94559401277E+01  0.23265875416E+03  0.27693830177E+03  0.00000000000E+00 0. -1.
         11    1    3    3    0    0 -0.31857200864E+02  0.38265761961E+02  0.35340783968E+02  0.61058339290E+02  0.00000000000E+00 0.  1.
         -4    1    1    2    0  502 -0.16573967891E+02  0.13471477147E+02  0.66364641640E+02  0.69716875777E+02  0.00000000000E+00 0.  1.
<scales pt_clust_5="13000.00000" pt_clust_6="13000.00000" pt_clust_7="13000.00000" pt_clust_8="13000.00000" pt_clust_9="21.35831"></scales>
<clustering>
<clus scale="   21.358">  2  9  1 -1</clus>
<clus scale="   80.424">  5  6 -1 -1</clus>
<clus scale="   92.444">  7  8 -1 -1</clus>
<clus scale="  208.765">  2  5  1 -1</clus>
<clus scale="   21.358">  2  5  1 -1</clus>
</clustering>
</event>
<event>
 9    2  0.1723348E-004  0.1110117E+03  0.7546771E-02  0.1264112E+00
         21   -1    0    0  501  502  0.00000000000E+00  0.00000000000E+00  0.31815722466E+03  0.31815722466E+03  0.00000000000E+00 0.  1.
         -3   -1    0    0    0  501 -0.00000000000E+00 -0.00000000000E+00 -0.41306093480E+03  0.41306093480E+03  0.00000000000E+00 0.  1.
         23    2    1    2    0    0 -0.27781952957E+02  0.55472757319E+02 -0.33211973943E+03  0.34938875203E+03  0.88993904350E+02 0.  0.
         24    2    1    2    0    0  0.12316028119E+03 -0.65361204123E+02  0.40888542354E+02  0.16333618326E+03  0.74607600151E+02 0.  0.
        -13    1    4    4    0    0  0.85462349642E+02 -0.27707436823E+02 -0.90677177275E+01  0.90298055164E+02  0.00000000000E+00 0.  1.
         14    1    4    4    0    0  0.37697931544E+02 -0.37653767300E+02  0.49956260082E+02  0.73038128097E+02  0.00000000000E+00 0. -1.
        -13    1    3    3    0    0 -0.42066970210E+02  0.77009162716E+01 -0.66043677324E+02  0.78681010470E+02  0.00000000000E+00 0. -1.
         13    1    3    3    0    0  0.14285017252E+02  0.47771841047E+02 -0.26607606211E+03  0.27070774156E+03  0.00000000000E+00 0.  1.
         -4    1    1    2    0  502 -0.95378328228E+02  0.98884468047E+01  0.19632748694E+03  0.21849322416E+03  0.00000000000E+00 0.  1.
<scales pt_clust_5="13000.00000" pt_clust_6="13000.00000" pt_clust_7="13000.00000" pt_clust_8="13000.00000" pt_clust_9="95.88956"></scales>
<clustering>
<clus scale="   74.608">  5  6 -1 -1</clus>
<clus scale="   88.994">  7  8 -1 -1</clus>
<clus scale="   95.890">  1  9  2 -1</clus>
<clus scale="   99.850">  1  5  2 -1</clus>
<clus scale="   95.890">  1  5  2 -1</clus>
</clustering>
</event>
<event>
 9    2  0.1723348E-004  0.1018750E+03  0.7546771E-02  0.1281076E+00
          2   -1    0    0  502    0 -0.00000000000E+00  0.00000000000E+00  0.37139462741E+03  0.37139462741E+03  0.00000000000E+00 0. -1.
         21   -1    0    0  501  502  0.00000000000E+00 -0.00000000000E+00 -0.16352160783E+03  0.16352160783E+03  0.00000000000E+00 0. -1.
         23    2    1    2    0    0 -0.47937754931E+02  0.86021948002E+01  0.33745707811E+03  0.35281233639E+03  0.90704129130E+02 0.  0.
         24    2    1    2    0    0  0.19978141290E+02  0.22020702678E+02 -0.80975956296E+02  0.11821141536E+03  0.80825712165E+02 0.  0.
        -11    1    4    4    0    0  0.47237705200E+02  0.27498453554E+01 -0.26261557234E+02  0.54116835000E+02  0.00000000000E+00 0.  1.
         12    1    4    4    0    0 -0.27259563911E+02  0.19270857322E+02 -0.54714399061E+02  0.64094580357E+02  0.00000000000E+00 0. -1.
        -13    1    3    3    0    0 -0.53322794310E+02  0.41038853229E+02  0.18517819150E+03  0.19702403527E+03  0.00000000000E+00 0.  1.
         13    1    3    3    0    0  0.53850393791E+01 -0.32436658429E+02  0.15227888661E+03  0.15578830112E+03  0.00000000000E+00 0. -1.
          1    1    1    2  501    0  0.27959613641E+02 -0.30622897478E+02 -0.48608102225E+02  0.63892483493E+02  0.00000000000E+00 0. -1.
<scales pt_clust_5="13000.00000" pt_clust_6="13000.00000" pt_clust_7="13000.00000" pt_clust_8="13000.00000" pt_clust_9="41.46688"></scales>
<clustering>
<clus scale="   41.467">  2  9  1 -1</clus>
<clus scale="   80.826">  5  6 -1 -1</clus>
<clus scale="   90.704">  7  8 -1 -1</clus>
<clus scale="   93.188">  2  5  1 -1</clus>
<clus scale="   41.467">  2  5  1 -1</clus>
</clustering>
</event>
<event>
 9    2  0.1723348E-004  0.1091947E+03  0.7546771E-02  0.1265982E+00
         21   -1    0    0  501  502  0.00000000000E+00  0.00000000000E+00  0.36069742451E+03  0.36069742451E+03  0.00000000000E+00 0. -1.
          4   -1    0    0  502    0 -0.00000000000E+00 -0.00000000000E+00 -0.17123505384E+03  0.17123505384E+03  0.00000000000E+00 0. -1.
         23    2    1    2    0    0 -0.11214279302E+02 -0.60281633471E+02 -0.10457630856E+03  0.15171445832E+03  0.91221911603E+02 0.  0.
         24    2    1    2    0    0 -0.51159076116E+02  0.51182752687E+02  0.29777075216E+03  0.31707410927E+03  0.81434910765E+02 0.  0.
        -11    1    4    4    0    0 -0.60355381885E+02  0.62394273825E+02  0.19717516659E+03  0.21543877053E+03  0.00000000000E+00 0.  1.
         12    1    4    4    0    0  0.91963057688E+01 -0.11211521138E+02  0.10059558557E+03  0.10163533874E+03  0.00000000000E+00 0. -1.
        -11    1    3    3    0    0 -0.46164950139E+02 -0.58009216577E+02 -0.62485371904E+02  0.96957173696E+02  0.00000000000E+00 0. -1.
         11    1    3    3    0    0  0.34950670837E+02 -0.22724168938E+01 -0.42090936659E+02  0.54757284623E+02  0.00000000000E+00 0.  1.
          3    1    1    2  501    0  0.62373355418E+02  0.90988807837E+01 -0.37320729244E+01  0.63143910759E+02  0.00000000000E+00 0. -1.
<scales pt_clust_5="13000.00000" pt_clust_6="13000.00000" pt_clust_7="13000.00000" pt_clust_8="13000.00000" pt_clust_9="63.03356"></scales>
<clustering>
<clus scale="   63.034">  1  9  2 -1</clus>
<clus scale="   81.435">  5  6 -1 -1</clus>
<clus scale="   91.222">  7  8 -1 -1</clus>
<clus scale="  101.162">  1  5  2 -1</clus>
<clus scale="   63.034">  1  5  2 -1</clus>
</clustering>
</event>
<event>
 9    2  0.1723348E-004  0.1110072E+03  0.7546771E-02  0.1260843E+00
         -3   -1    0    0    0  501 -0.00000000000E+00  0.00000000000E+00  0.11576307095E+03  0.11576307095E+03  0.00000000000E+00 0.  1.
         21   -1    0    0  501  502  0.00000000000E+00 -0.00000000000E+00 -0.22002512520E+03  0.22002512520E+03  0.00000000000E+00 0.  1.
         23    2    1    2    0    0  0.32148502388E+02 -0.64754331202E+02  0.55740636452E+02  0.12839249686E+03  0.90282695361E+02 0.  0.
         24    2    1    2    0    0 -0.13919214694E+02  0.39328230245E+02 -0.88564661264E+02  0.12940733100E+03  0.84629213988E+02 0.  0.
        -11    1    4    4    0    0  0.31557618106E+02 -0.34252934027E+01 -0.33820833950E+02  0.46383884103E+02  0.00000000000E+00 0.  1.
         12    1    4    4    0    0 -0.45476832800E+02  0.42753523648E+02 -0.54743827314E+02  0.83023446898E+02  0.00000000000E+00 0. -1.
        -11    1    3    3    0    0  0.31715077044E+02 -0.87268708156E+02  0.41168515907E+02  0.10157027241E+03  0.00000000000E+00 0.  1.
         11    1    3    3    0    0  0.43342534410E+00  0.22514376954E+02  0.14572120545E+02  0.26822224448E+02  0.00000000000E+00 0. -1.
         -4    1    1    2    0  502 -0.18229287694E+02  0.25426100957E+02 -0.71438029435E+02  0.77988368294E+02  0.00000000000E+00 0.  1.
<scales pt_clust_5="13000.00000" pt_clust_6="13000.00000" pt_clust_7="13000.00000" pt_clust_8="13000.00000" pt_clust_9="31.28568"></scales>
<clustering>
<clus scale="   31.286">  2  9  1 -1</clus>
<clus scale="   84.629">  5  6 -1 -1</clus>
<clus scale="   90.283">  7  8 -1 -1</clus>
<clus scale="  106.460">  2  5  1 -1</clus>
<clus scale="   31.286">  2  5  1 -1</clus>
</clustering>
</event>
<event>
 9    2  0.1723348E-004  0.1400354E+03  0.7546771E-02  0.1215872E+00
         -3   -1    0    0    0  501 -0.00000000000E+00  0.00000000000E+00  0.27709702196E+03  0.27709702196E+03  0.00000000000E+00 0.  1.
         21   -1    0    0  501  502  0.00000000000E+00 -0.00000000000E+00 -0.16062910091E+03  0.16062910091E+03  0.00000000000E+00 0. -1.
         24    2    1    2    0    0 -0.10203360569E+03  0.54944618479E+02  0.18617318638E+03  0.23301843049E+03  0.78786837932E+02 0.  0.
         23    2    1    2    0    0  0.69695133481E+02 -0.77093129427E+00 -0.81500573083E+02  0.14052284641E+03  0.90809256047E+02 0.  0.
        -13    1    3    3    0    0 -0.28195875335E+02  0.53794577030E+02  0.52400714217E+02  0.80216574061E+02  0.00000000000E+00 0.  1.
         14    1    3    3    0    0 -0.73837730353E+02  0.11500414492E+01  0.13377247216E+03  0.15280185643E+03  0.00000000000E+00 0. -1.
        -13    1    4    4    0    0  0.20770561602E+02 -0.10963824991E+02 -0.87122292481E+02  0.90232563606E+02  0.00000000000E+00 0. -1.
         13    1    4    4    0    0  0.48924571878E+02  0.10192893697E+02  0.56217193975E+01  0.50290282802E+02  0.00000000000E+00 0.  1.
         -4    1    1    2    0  502  0.32338472207E+02 -0.54173687185E+02  0.11795307753E+02  0.64184845976E+02  0.00000000000E+00 0.  1.
<scales pt_clust_5="13000.00000" pt_clust_6="13000.00000" pt_clust_7="13000.00000" pt_clust_8="13000.00000" pt_clust_9="63.09172"></scales>
<clustering>
<clus scale="   63.092">  2  9  1 -1</clus>
<clus scale="   78.787">  5  6 -1 -1</clus>
<clus scale="   90.809">  7  8 -1 -1</clus>
<clus scale="  132.556">  1  5  2 -1</clus>
<clus scale="   63.092">  2  5  1 -1</clus>
</clustering>
</event>
<event>
 9    2  0.1723348E-004  0.9240649E+02  0.7546771E-02  0.1297813E+00
         21   -1    0    0  501  502  0.00000000000E+00  0.00000000000E+00  0.41224288348E+02  0.41224288348E+02  0.00000000000E+00 0.  1.
          2   -1    0    0  502    0 -0.00000000000E+00 -0.00000000000E+00 -0.61047006150E+03  0.61047006150E+03  0.00000000000E+00 0. -1.
         24    2    1    2    0    0 -0.21334119632E+02 -0.10896013359E+02 -0.36214818916E+03  0.37365477894E+03  0.88840954227E+02 0.  0.
         23    2    1    2    0    0 -0.24444791674E+02  0.38450963005E+02 -0.51031220154E+02  0.11307989737E+03  0.90038066191E+02 0.  0.
        -11    1    3    3    0    0 -0.49412955780E+02 -0.68984837746E+01 -0.12155665565E+03  0.13139729757E+03  0.00000000000E+00 0.  1.
         12    1    3    3    0    0  0.28078836148E+02 -0.39975295841E+01 -0.24059153351E+03  0.24225748137E+03  0.00000000000E+00 0. -1.
        -13    1    4    4    0    0  0.25329839731E+02 -0.13257623079E+02 -0.19975012149E+02  0.34876445646E+02  0.00000000000E+00 0. -1.
         13    1    4    4    0    0 -0.49774631405E+02  0.51708586084E+02 -0.31056208004E+02  0.78203451726E+02  0.00000000000E+00 0.  1.
          1    1    1    2  501    0  0.45778911305E+02 -0.27554949646E+02 -0.15606636383E+03  0.16495967353E+03  0.00000000000E+00 0. -1.
<scales pt_clust_5="13000.00000" pt_clust_6="13000.00000" pt_clust_7="13000.00000" pt_clust_8="13000.00000" pt_clust_9="53.43208"></scales>
<clustering>
<clus scale="   53.432">  1  9  2 -1</clus>
<clus scale="   88.841">  5  6 -1 -1</clus>
<clus scale="   90.038">  7  8 -1 -1</clus>
<clus scale="   91.240">  2  5  1 -1</clus>
<clus scale="   53.432">  1  5  2 -1</clus>
</clustering>
</event>
<event>
 9    2  0.1723348E-004  0.2393759E+03  0.7546771E-02  0.1160962E+00
         21   -1    0    0  501  502  0.00000000000E+00  0.00000000000E+00  0.32708320482E+02  0.32708320482E+02  0.00000000000E+00 0. -1.
          2   -1    0    0  502    0 -0.00000000000E+00 -0.00000000000E+00 -0.26536748498E+04  0.26536748498E+04  0.00000000000E+00 0. -1.
         24    2    1    2    0    0 -0.43350619518E+02 -0.19554195122E+02 -0.28742859916E+03  0.30108083677E+03  0.75979128007E+02 0.  0.
         23    2    1    2    0    0 -0.13455342210E+03  0.16964811005E+03 -0.78854426139E+03  0.82287362543E+03  0.91835976685E+02 0.  0.
        -13    1    3    3    0    0 -0.44367004316E+02  0.19643776428E+02 -0.18901169413E+03  0.19514028171E+03  0.00000000000E+00 0.  1.
         14    1    3    3    0    0  0.10163847974E+01 -0.39197971550E+02 -0.98416905026E+02  0.10594055506E+03  0.00000000000E+00 0. -1.
        -13    1    4    4    0    0 -0.32036980461E+02  0.49408342467E+02 -0.96731466949E+02  0.11324543753E+03  0.00000000000E+00 0.  1.
         13    1    4    4    0    0 -0.10251644164E+03  0.12023976759E+03 -0.69181279444E+03  0.70962818790E+03  0.00000000000E+00 0. -1.
          1    1    1    2  501    0  0.17790404162E+03 -0.15009391493E+03 -0.15449936688E+04  0.15624287081E+04  0.00000000000E+00 0. -1.
<scales pt_clust_5="13000.00000" pt_clust_6="13000.00000" pt_clust_7="13000.00000" pt_clust_8="13000.00000" pt_clust_9="221.05882"></scales>
<clustering>
<clus scale="   75.979">  5  6 -1 -1</clus>
<clus scale="   89.635">  2  5  1 -1</clus>
<clus scale="   91.836">  7  8 -1 -1</clus>
<clus scale="  221.059">  1  9  2 -1</clus>
<clus scale="  221.059">  1  5  2 -1</clus>
</clustering>
</event>
<event>
 9    2  0.1723348E-004  0.1314862E+03  0.7546771E-02  0.1237042E+00
         21   -1    0    0  501  502  0.00000000000E+00  0.00000000000E+00  0.16516631305E+03  0.16516631305E+03  0.00000000000E+00 0.  1.
          2   -1    0    0  502    0 -0.00000000000E+00 -0.00000000000E+00 -0.19703017809E+03  0.19703017809E+03  0.00000000000E+00 0. -1.
         23    2    1    2    0    0  0.45289062869E+02  0.21439742541E+02 -0.25221232708E+01  0.10318401938E+03  0.90165508781E+02 0.  0.
         24    2    1    2    0    0  0.41711319509E+02 -0.87877219251E+02 -0.67386481805E+02  0.14312283853E+03  0.80504466582E+02 0.  0.
        -13    1    4    4    0    0  0.12121755003E+02 -0.81945428825E+02 -0.75275666965E+02  0.11193040823E+03  0.00000000000E+00 0.  1.
         14    1    4    4    0    0  0.29589564506E+02 -0.59317904263E+01  0.78891851604E+01  0.31192430297E+02  0.00000000000E+00 0. -1.
        -11    1    3    3    0    0  0.65964500682E+02  0.27782684031E+02 -0.21155455024E+02  0.74637431357E+02  0.00000000000E+00 0.  1.
         11    1    3    3    0    0 -0.20675437813E+02 -0.63429414901E+01  0.18633331753E+02  0.28546588023E+02  0.00000000000E+00 0. -1.
          1    1    1    2  501    0 -0.87000382378E+02  0.66437476711E+02  0.38044740044E+02  0.11588963323E+03  0.00000000000E+00 0. -1.
<scales pt_clust_5="13000.00000" pt_clust_6="13000.00000" pt_clust_7="13000.00000" pt_clust_8="13000.00000" pt_clust_9="103.95992"></scales>
<clustering>
<clus scale="   80.504">  5  6 -1 -1</clus>
<clus scale="   90.166">  7  8 -1 -1</clus>
<clus scale="  103.153">  2  7  1 -1</clus>
<clus scale="  103.960">  1  9  2 -1</clus>
<clus scale="  103.960">  1  5  2 -1</clus>
</clustering>
</event>
<event>
 9    2  0.1723348E-004  0.2560870E+03  0.7546771E-02  0.1110179E+00
          2   -1    0    0  502    0 -0.00000000000E+00  0.00000000000E+00  0.69521979555E+03  0.69521979555E+03  0.00000000000E+00 0. -1.
         21   -1    0    0  501  502  0.00000000000E+00 -0.00000000000E+00 -0.14487807171E+03  0.14487807171E+03  0.00000000000E+00 0. -1.
         24    2    1    2    0    0  0.24546984003E+03  0.14250378252E+02  0.50369665550E+03  0.56609903098E+03  0.79367981385E+02 0.  0.
         23    2    1    2    0    0 -0.21710725850E+03  0.43654901295E+01  0.37112807683E+02  0.23875893587E+03  0.92053515797E+02 0.  0.
        -11    1    3    3    0    0  0.70588949515E+02  0.36674264708E+02  0.19497639822E+03  0.21057919495E+03  0.00000000000E+00 0.  1.
         12    1    3    3    0    0  0.17488089052E+03 -0.22423886456E+02  0.30872025729E+03  0.35551983603E+03  0.00000000000E+00 0. -1.
        -11    1    4    4    0    0 -0.19831766751E+03 -0.12997194456E+02  0.64809439363E+01  0.19884875394E+03  0.00000000000E+00 0. -1.
         11    1    4    4    0    0 -0.18789590989E+02  0.17362684585E+02  0.30631863746E+02  0.39910181935E+02  0.00000000000E+00 0.  1.
          1    1    1    2  501    0 -0.28362581536E+02 -0.18615868382E+02  0.95322606626E+01  0.35239900402E+02  0.00000000000E+00 0. -1.
<scales pt_clust_5="13000.00000" pt_clust_6="13000.00000" pt_clust_7="13000.00000" pt_clust_8="13000.00000" pt_clust_9="33.92619"></scales>
<clustering>
<clus scale="   33.926">  2  9  1 -1</clus>
<clus scale="   79.368">  5  6 -1 -1</clus>
<clus scale="   92.054">  7  8 -1 -1</clus>
<clus scale="  251.805">  1  5  2 -1</clus>
<clus scale="   33.926">  2  5  1 -1</clus>
</clustering>
</event>
<event>
 9    2  0.1723348E-004  0.1198201E+03  0.7546771E-02  0.1247502E+00
          2   -1    0    0  502    0 -0.00000000000E+00  0.00000000000E+00  0.58047156138E+03  0.58047156138E+03  0.00000000000E+00 0. -1.
         21   -1    0    0  501  502  0.00000000000E+00 -0.00000000000E+00 -0.61849584329E+02  0.61849584329E+02  0.00000000000E+00 0. -1.
         24    2    1    2    0    0 -0.16031530163E+02 -0.74539916146E+02  0.35554436978E+03  0.37232917513E+03  0.80025038029E+02 0.  0.
         23    2    1    2    0    0 -0.56089878558E+02  0.82110798993E+02  0.72844422151E+02  0.15422995799E+03  0.92694726461E+02 0.  0.
        -11    1    3    3    0    0  0.19706132033E+02  0.56890222006E+01  0.10090993795E+03  0.10297335670E+03  0.00000000000E+00 0.  1.
         12    1    3    3    0    0 -0.35737662196E+02 -0.80228938347E+02  0.25463443183E+03  0.26935581843E+03  0.00000000000E+00 0. -1.
        -13    1    4    4    0    0 -0.18498457616E+02  0.97747461551E+01  0.69565217153E+02  0.72643361941E+02  0.00000000000E+00 0.  1.
         13    1    4    4    0    0 -0.37591420943E+02  0.72336052838E+02  0.32792049975E+01  0.81586596044E+02  0.00000000000E+00 0. -1.
          1    1    1    2  501    0  0.72121408722E+02 -0.75708828470E+01  0.90233185120E+02  0.11576201259E+03  0.00000000000E+00 0. -1.
<scales pt_clust_5="13000.00000" pt_clust_6="13000.00000" pt_clust_7="13000.00000" pt_clust_8="13000.00000" pt_clust_9="72.51769"></scales>
<clustering>
<clus scale="   72.518">  2  9  1 -1</clus>
<clus scale="   80.025">  5  6 -1 -1</clus>
<clus scale="   92.695">  7  8 -1 -1</clus>
<clus scale="  110.311">  1  5  2 -1</clus>
<clus scale="   72.518">  2  5  1 -1</clus>
</clustering>
</event>
<event>
 9    2  0.1723348E-004  0.1672050E+03  0.7546771E-02  0.1183477E+00
         21   -1    0    0  501  502  0.00000000000E+00  0.00000000000E+00  0.77544310834E+02  0.77544310834E+02  0.00000000000E+00 0. -1.
          2   -1    0    0  502    0 -0.00000000000E+00 -0.00000000000E+00 -0.10668773150E+04  0.10668773150E+04  0.00000000000E+00 0. -1.
         24    2    1    2    0    0 -0.59776265746E+02  0.11669676201E+03 -0.68504518343E+03  0.70206746439E+03  0.80127929024E+02 0.  0.
         23    2    1    2    0    0 -0.18505444947E+02 -0.17244359669E+03 -0.27933562281E+03  0.34306494758E+03  0.97907724702E+02 0.  0.
        -13    1    3    3    0    0 -0.13675090575E+02  0.38099358118E+02 -0.74742915408E+02  0.85000427028E+02  0.00000000000E+00 0.  1.
         14    1    3    3    0    0 -0.46101175171E+02  0.78597403888E+02 -0.61030226802E+03  0.61706703736E+03  0.00000000000E+00 0. -1.
        -11    1    4    4    0    0 -0.16698066516E+02 -0.54825009575E+02 -0.18063771235E+03  0.18951145143E+03  0.00000000000E+00 0.  1.
         11    1    4    4    0    0 -0.18073784312E+01 -0.11761858711E+03 -0.98697910466E+02  0.15355349615E+03  0.00000000000E+00 0. -1.
          1    1    1    2  501    0  0.78281710693E+02  0.55746834679E+02 -0.24952197911E+02  0.99289213847E+02  0.00000000000E+00 0. -1.
<scales pt_clust_5="13000.00000" pt_clust_6="13000.00000" pt_clust_7="13000.00000" pt_clust_8="13000.00000" pt_clust_9="96.10274"></scales>
<clustering>
<clus scale="   80.128">  5  6 -1 -1</clus>
<clus scale="   96.103">  1  9  2 -1</clus>
<clus scale="   97.908">  7  8 -1 -1</clus>
<clus scale="  157.455">  2  5  1 -1</clus>
<clus scale="   96.103">  1  5  2 -1</clus>
</clustering>
</event>
<event>
 9    2  0.1723348E-004  0.2054980E+03  0.7546771E-02  0.1145676E+00
         21   -1    0    0  501  502  0.00000000000E+00  0.00000000000E+00  0.11349615288E+04  0.11349615288E+04  0.00000000000E+00 0.  1.
          2   -1    0    0  502    0 -0.00000000000E+00 -0.00000000000E+00 -0.52692181477E+02  0.52692181477E+02  0.00000000000E+00 0. -1.
         24    2    1    2    0    0 -0.80929707587E+02  0.20489136502E+03  0.40834818292E+03  0.47080623453E+03  0.79876047371E+02 0.  0.
         23    2    1    2    0    0  0.56294631456E+02 -0.13638333378E+03  0.49873203334E+03  0.52713329873E+03  0.85827584661E+02 0.  0.
        -13    1    3    3    0    0  0.27667797229E+01  0.91746748584E+02  0.19036627444E+03  0.21133963043E+03  0.00000000000E+00 0.  1.
         14    1    3    3    0    0 -0.83696487310E+02  0.11314461643E+03  0.21798190848E+03  0.25946660410E+03  0.00000000000E+00 0. -1.
        -11    1    4    4    0    0  0.59525654282E+02 -0.10949306279E+03  0.47514758316E+03  0.49122017477E+03  0.00000000000E+00 0.  1.
         11    1    4    4    0    0 -0.32310228261E+01 -0.26890270992E+02  0.23584450179E+02  0.35913123963E+02  0.00000000000E+00 0. -1.
          1    1    1    2  501    0  0.24635076132E+02 -0.68508031234E+02  0.17518913103E+03  0.18971417699E+03  0.00000000000E+00 0. -1.
<scales pt_clust_5="13000.00000" pt_clust_6="13000.00000" pt_clust_7="13000.00000" pt_clust_8="13000.00000" pt_clust_9="72.80273"></scales>
<clustering>
<clus scale="   72.803">  1  9  2 -1</clus>
<clus scale="   79.876">  5  6 -1 -1</clus>
<clus scale="   85.828">  7  8 -1 -1</clus>
<clus scale="  203.084">  2  5  1 -1</clus>
<clus scale="   72.803">  1  5  2 -1</clus>
</clustering>
</event>
<event>
 9    2  0.1723348E-004  0.3166524E+03  0.7546771E-02  0.1122163E+00
          2   -1    0    0  502    0 -0.00000000000E+00  0.00000000000E+00  0.32755758833E+03  0.32755758833E+03  0.00000000000E+00 0. -1.
         21   -1    0    0  501  502  0.00000000000E+00 -0.00000000000E+00 -0.78846820181E+03  0.78846820181E+03  0.00000000000E+00 0. -1.
         24    2    1    2    0    0 -0.92359501839E+01  0.55616620524E+02 -0.49279695044E+00  0.98493502724E+02  0.80760237591E+02 0.  0.
         23    2    1    2    0    0  0.15429786052E+03  0.21781946806E+03  0.16023342984E+03  0.32397751526E+03  0.89629949954E+02 0.  0.
        -11    1    3    3    0    0 -0.15124167467E+02 -0.16398537908E+02  0.11741751216E+02  0.25209545984E+02  0.00000000000E+00 0.  1.
         12    1    3    3    0    0  0.58882172828E+01  0.72015158432E+02 -0.12234548166E+02  0.73283956741E+02  0.00000000000E+00 0. -1.
        -11    1    4    4    0    0  0.25852996156E+02  0.65697183059E+01 -0.42729383365E+01  0.27014748026E+02  0.00000000000E+00 0.  1.
         11    1    4    4    0    0  0.12844486436E+03  0.21124974975E+03  0.16450636818E+03  0.29696276723E+03  0.00000000000E+00 0. -1.
          1    1    1    2  501    0 -0.14506191033E+03 -0.27343608858E+03 -0.62065124637E+03  0.69355477216E+03  0.00000000000E+00 0. -1.
<scales pt_clust_5="13000.00000" pt_clust_6="13000.00000" pt_clust_7="13000.00000" pt_clust_8="13000.00000" pt_clust_9="303.70252"></scales>
<clustering>
<clus scale="   80.760">  5  6 -1 -1</clus>
<clus scale="   89.630">  7  8 -1 -1</clus>
<clus scale="   98.492">  1  5  2 -1</clus>
<clus scale="  303.703">  2  9  1 -1</clus>
<clus scale="  303.703">  2  5  1 -1</clus>
</clustering>
</event>
<event>
 9    2  0.1723348E-004  0.2500568E+03  0.7546771E-02  0.1138168E+00
         21   -1    0    0  501  502  0.00000000000E+00  0.00000000000E+00  0.75799079736E+02  0.75799079736E+02  0.00000000000E+00 0. -1.
          2   -1    0    0  502    0 -0.00000000000E+00 -0.00000000000E+00 -0.13562145357E+04  0.13562145357E+04  0.00000000000E+00 0. -1.
         24    2    1    2    0    0 -0.90000649706E+02 -0.61533774564E+02 -0.19996258509E+03  0.24127268999E+03  0.79630101981E+02 0.  0.
         23    2    1    2    0    0  0.87513265475E+02  0.25526457652E+03 -0.46252072455E+03  0.54314695685E+03  0.90909957829E+02 0.  0.
        -13    1    3    3    0    0 -0.97452500948E+02 -0.55805355535E+02 -0.13485893677E+03  0.17549404684E+03  0.00000000000E+00 0.  1.
         14    1    3    3    0    0  0.74518512419E+01 -0.57284190281E+01 -0.65103648316E+02  0.65778643157E+02  0.00000000000E+00 0. -1.
        -13    1    4    4    0    0  0.91021970671E+02  0.21585332228E+03 -0.43767931034E+03  0.49642807595E+03  0.00000000000E+00 0. -1.
         13    1    4    4    0    0 -0.35087051954E+01  0.39411254239E+02 -0.24841414210E+02  0.46718880903E+02  0.00000000000E+00 0.  1.
          1    1    1    2  501    0  0.24873842304E+01 -0.19373080195E+03 -0.61793214637E+03  0.64759396864E+03  0.00000000000E+00 0. -1.
<scales pt_clust_5="13000.00000" pt_clust_6="13000.00000" pt_clust_7="13000.00000" pt_clust_8="13000.00000" pt_clust_9="232.94600"></scales>
<clustering>
<clus scale="   79.630">  5  6 -1 -1</clus>
<clus scale="   90.910">  7  8 -1 -1</clus>
<clus scale="  135.009">  2  5  1 -1</clus>
<clus scale="  232.946">  1  9  2 -1</clus>
<clus scale="  232.946">  1  5  2 -1</clus>
</clustering>
</event>
<event>
 9    2  0.1723348E-004  0.2467366E+03  0.7546771E-02  0.1153837E+00
         21   -1    0    0  501  502  0.00000000000E+00  0.00000000000E+00  0.50459406220E+03  0.50459406220E+03  0.00000000000E+00 0. -1.
          4   -1    0    0  502    0 -0.00000000000E+00 -0.00000000000E+00 -0.16852109237E+03  0.16852109237E+03  0.00000000000E+00 0. -1.
         24    2    1    2    0    0  0.54880773679E+02 -0.42094327130E+00  0.96662571764E+02  0.13672148780E+03  0.79605501911E+02 0.  0.
         23    2    1    2    0    0  0.65739722645E+02  0.21033404956E+03  0.11299369571E+03  0.26327464699E+03  0.89352341558E+02 0.  0.
        -13    1    3    3    0    0 -0.12120979015E+02  0.19181810375E+02  0.43180536489E+02  0.48779285696E+02  0.00000000000E+00 0.  1.
         14    1    3    3    0    0  0.67001752694E+02 -0.19602753646E+02  0.53482035275E+02  0.87942202109E+02  0.00000000000E+00 0. -1.
        -13    1    4    4    0    0  0.16501215204E+02  0.32801017602E+02  0.62094477504E+02  0.72138207598E+02  0.00000000000E+00 0.  1.
         13    1    4    4    0    0  0.49238507440E+02  0.17753303196E+03  0.50899218206E+02  0.19113643940E+03  0.00000000000E+00 0. -1.
          3    1    1    2  501    0 -0.12062049632E+03 -0.20991310629E+03  0.12641670235E+03  0.27311901977E+03  0.00000000000E+00 0. -1.
<scales pt_clust_5="13000.00000" pt_clust_6="13000.00000" pt_clust_7="13000.00000" pt_clust_8="13000.00000" pt_clust_9="229.98950"></scales>
<clustering>
<clus scale="   79.606">  5  6 -1 -1</clus>
<clus scale="   89.352">  7  8 -1 -1</clus>
<clus scale="   96.691">  2  5  1 -1</clus>
<clus scale="  229.989">  1  9  2 -1</clus>
<clus scale="  229.989">  1  5  2 -1</clus>
</clustering>
</event>
<event>
 9    2  0.1723348E-004  0.2069975E+03  0.7546771E-02  0.1145177E+00
          2   -1    0    0  502    0 -0.00000000000E+00  0.00000000000E+00  0.60816295801E+03  0.60816295801E+03  0.00000000000E+00 0. -1.
         21   -1    0    0  501  502  0.00000000000E+00 -0.00000000000E+00 -0.21087175603E+03  0.21087175603E+03  0.00000000000E+00 0. -1.
         23    2    1    2    0    0 -0.16993552544E+03  0.84963699907E+02  0.52111050773E+03  0.56246879748E+03  0.93370625844E+02 0.  0.
         24    2    1    2    0    0  0.11859344422E+03 -0.82801380274E+02 -0.12188709006E+03  0.20514200785E+03  0.79412260214E+02 0.  0.
        -13    1    4    4    0    0  0.87563938352E+02 -0.77043370888E+02 -0.12781463777E+03  0.17303093922E+03  0.00000000000E+00 0.  1.
         14    1    4    4    0    0  0.31029505872E+02 -0.57580093860E+01  0.59275477117E+01  0.32111068631E+02  0.00000000000E+00 0. -1.
        -13    1    3    3    0    0 -0.48741188431E+02  0.94119037910E+01  0.51111763643E+02  0.71250963259E+02  0.00000000000E+00 0.  1.
         13    1    3    3    0    0 -0.12119433701E+03  0.75551796116E+02  0.46999874408E+03  0.49121783422E+03  0.00000000000E+00 0. -1.
          1    1    1    2  501    0  0.51342081212E+02 -0.21623196325E+01 -0.19322156901E+01  0.51423908709E+02  0.00000000000E+00 0. -1.
<scales pt_clust_5="13000.00000" pt_clust_6="13000.00000" pt_clust_7="13000.00000" pt_clust_8="13000.00000" pt_clust_9="51.38760"></scales>
<clustering>
<clus scale="   51.388">  2  9  1 -1</clus>
<clus scale="   79.412">  5  6 -1 -1</clus>
<clus scale="   93.371">  7  8 -1 -1</clus>
<clus scale="  201.088">  2  5  1 -1</clus>
<clus scale="   51.388">  2  5  1 -1</clus>
</clustering>
</event>
<event>
 9    2  0.1723348E-004  0.1029524E+03  0.7546771E-02  0.1275301E+00
         21   -1    0    0  501  502  0.00000000000E+00  0.00000000000E+00  0.15999771760E+03  0.15999771760E+03  0.00000000000E+00 0. -1.
          2   -1    0    0  502    0 -0.00000000000E+00 -0.00000000000E+00 -0.19874236660E+03  0.19874236660E+03  0.00000000000E+00 0. -1.
         23    2    1    2    0    0 -0.37675372109E+02 -0.48466395938E+02 -0.13464988940E+03  0.16877415068E+03  0.81152301390E+02 0.  0.
         24    2    1    2    0    0 -0.80871946043E+01  0.68404682654E+02  0.41523937791E+02  0.11614809108E+03  0.83794619919E+02 0.  0.
        -11    1    4    4    0    0  0.25472102511E+02 -0.57254040570E+01  0.17022302920E+02  0.31166762017E+02  0.00000000000E+00 0.  1.
         12    1    4    4    0    0 -0.33559297115E+02  0.74130086711E+02  0.24501634872E+02  0.84981329067E+02  0.00000000000E+00 0. -1.
        -13    1    3    3    0    0 -0.57963620200E+02 -0.34283286240E+02 -0.12541790332E+03  0.14235440090E+03  0.00000000000E+00 0. -1.
         13    1    3    3    0    0  0.20288248091E+02 -0.14183109698E+02 -0.92319860877E+01  0.26419749780E+02  0.00000000000E+00 0.  1.
          1    1    1    2  501    0  0.45762566713E+02 -0.19938286716E+02  0.54381302608E+02  0.73817842441E+02  0.00000000000E+00 0. -1.
<scales pt_clust_5="13000.00000" pt_clust_6="13000.00000" pt_clust_7="13000.00000" pt_clust_8="13000.00000" pt_clust_9="49.91741"></scales>
<clustering>
<clus scale="   49.917">  1  9  2 -1</clus>
<clus scale="   81.152">  7  8 -1 -1</clus>
<clus scale="   83.795">  5  6 -1 -1</clus>
<clus scale="  100.813">  2  7  1 -1</clus>
<clus scale="   49.917">  1  5  2 -1</clus>
</clustering>
</event>
<event>
 9    2  0.1723348E-004  0.1351715E+03  0.7546771E-02  0.1221387E+00
         21   -1    0    0  501  502  0.00000000000E+00  0.00000000000E+00  0.62667609302E+03  0.62667609302E+03  0.00000000000E+00 0.  1.
         -1   -1    0    0    0  501 -0.00000000000E+00 -0.00000000000E+00 -0.15299219123E+03  0.15299219123E+03  0.00000000000E+00 0.  1.
         23    2    1    2    0    0 -0.86048173368E+02 -0.72110589734E+02  0.69179672011E+02  0.15751927635E+03  0.86152597821E+02 0.  0.
         24    2    1    2    0    0  0.92309568579E+02 -0.94992954714E+01  0.48924921685E+03  0.50433096486E+03  0.79835035287E+02 0.  0.
        -11    1    4    4    0    0  0.16087605418E+02 -0.22052388252E+02  0.39613190243E+02  0.48107418522E+02  0.00000000000E+00 0.  1.
         12    1    4    4    0    0  0.76221963162E+02  0.12553092781E+02  0.44963602661E+03  0.45622354634E+03  0.00000000000E+00 0. -1.
        -13    1    3    3    0    0  0.77097998900E+01 -0.24797996153E+02 -0.80188764337E+01  0.27178741818E+02  0.00000000000E+00 0. -1.
         13    1    3    3    0    0 -0.93757973258E+02 -0.47312593581E+02  0.77198548445E+02  0.13034053453E+03  0.00000000000E+00 0.  1.
         -2    1    1    2    0  502 -0.62613952113E+01  0.81609885206E+02 -0.84744987068E+02  0.11781804304E+03  0.00000000000E+00 0.  1.
<scales pt_clust_5="13000.00000" pt_clust_6="13000.00000" pt_clust_7="13000.00000" pt_clust_8="13000.00000" pt_clust_9="81.84977"></scales>
<clustering>
<clus scale="   79.835">  5  6 -1 -1</clus>
<clus scale="   81.850">  1  9  2 -1</clus>
<clus scale="   86.153">  7  8 -1 -1</clus>
<clus scale="  131.235">  1  5  2 -1</clus>
<clus scale="   81.850">  1  5  2 -1</clus>
</clustering>
</event>
<event>
 9    2  0.1723348E-004  0.1461279E+03  0.7546771E-02  0.1224069E+00
         21   -1    0    0  501  502  0.00000000000E+00  0.00000000000E+00  0.34139646031E+02  0.34139646031E+02  0.00000000000E+00 0.  1.
          2   -1    0    0  502    0 -0.00000000000E+00 -0.00000000000E+00 -0.12983393737E+04  0.12983393737E+04  0.00000000000E+00 0. -1.
         23    2    1    2    0    0  0.34092641733E+02 -0.36964034754E+01 -0.15924968462E+03  0.18709888547E+03  0.92030208475E+02 0.  0.
         24    2    1    2    0    0  0.92573320004E+02 -0.28194745186E+02 -0.84700586448E+03  0.85624952280E+03  0.79872070276E+02 0.  0.
        -13    1    4    4    0    0  0.58180732583E+02  0.22758425789E+02 -0.36021375670E+03  0.36559115703E+03  0.00000000000E+00 0.  1.
         14    1    4    4    0    0  0.34392587421E+02 -0.50953170975E+02 -0.48679210778E+03  0.49065836577E+03  0.00000000000E+00 0. -1.
        -11    1    3    3    0    0 -0.25593680676E+01 -0.43474434784E+02 -0.61101029790E+02  0.75032744093E+02  0.00000000000E+00 0.  1.
         11    1    3    3    0    0  0.36652009801E+02  0.39778031309E+02 -0.98148654832E+02  0.11206614137E+03  0.00000000000E+00 0. -1.
          1    1    1    2  501    0 -0.12666596174E+03  0.31891148662E+02 -0.25794417858E+03  0.28913061147E+03  0.00000000000E+00 0. -1.
<scales pt_clust_5="13000.00000" pt_clust_6="13000.00000" pt_clust_7="13000.00000" pt_clust_8="13000.00000" pt_clust_9="122.36759"></scales>
<clustering>
<clus scale="   79.872">  5  6 -1 -1</clus>
<clus scale="   92.030">  7  8 -1 -1</clus>
<clus scale="   98.212">  2  7  1 -1</clus>
<clus scale="  122.368">  1  9  2 -1</clus>
<clus scale="  122.368">  1  5  2 -1</clus>
</clustering>
</event>
<event>
 9    2  0.1723348E-004  0.1078369E+03  0.7546771E-02  0.1273489E+00
         -1   -1    0    0    0  501 -0.00000000000E+00  0.00000000000E+00  0.59918328687E+02  0.59918328687E+02  0.00000000000E+00 0.  1.
         21   -1    0    0  501  502  0.00000000000E+00 -0.00000000000E+00 -0.22108801331E+03  0.22108801331E+03  0.00000000000E+00 0.  1.
         24    2    1    2    0    0  0.62144081717E+02  0.24296340074E+02 -0.57805138146E+02  0.11348995005E+03  0.71318551116E+02 0.  0.
         23    2    1    2    0    0 -0.34394585593E+02 -0.26232997565E+02 -0.93138859557E+02  0.13787942431E+03  0.92003971708E+02 0.  0.
        -11    1    3    3    0    0  0.48627324967E+02  0.47081347937E+02 -0.54284346280E+02  0.86764395394E+02  0.00000000000E+00 0.  1.
         12    1    3    3    0    0  0.13516756750E+02 -0.22785007864E+02 -0.35207918659E+01  0.26725554657E+02  0.00000000000E+00 0. -1.
        -11    1    4    4    0    0 -0.13483123227E+02  0.21231756576E+02 -0.80718192779E+02  0.84545897268E+02  0.00000000000E+00 0.  1.
         11    1    4    4    0    0 -0.20911462366E+02 -0.47464754141E+02 -0.12420666778E+02  0.53333527046E+02  0.00000000000E+00 0. -1.
         -2    1    1    2    0  502 -0.27749496124E+02  0.19366574914E+01 -0.10225686918E+02  0.29636967630E+02  0.00000000000E+00 0.  1.
<scales pt_clust_5="13000.00000" pt_clust_6="13000.00000" pt_clust_7="13000.00000" pt_clust_8="13000.00000" pt_clust_9="27.81701"></scales>
<clustering>
<clus scale="   27.817">  2  9  1 -1</clus>
<clus scale="   71.319">  5  6 -1 -1</clus>
<clus scale="   90.832">  1  5  2 -1</clus>
<clus scale="   92.004">  7  8 -1 -1</clus>
<clus scale="   27.817">  2  5  1 -1</clus>
</clustering>
</event>
<event>
 9    2  0.1723348E-004  0.1041041E+03  0.7546771E-02  0.1281400E+00
         21   -1    0    0  501  502  0.00000000000E+00  0.00000000000E+00  0.51370248978E+02  0.51370248978E+02  0.00000000000E+00 0. -1.
          2   -1    0    0  502    0 -0.00000000000E+00 -0.00000000000E+00 -0.87054699846E+03  0.87054699846E+03  0.00000000000E+00 0. -1.
         24    2    1    2    0    0 -0.13348323462E+02 -0.28777495785E+02 -0.75196972106E+03  0.75696643393E+03  0.80829442123E+02 0.  0.
         23    2    1    2    0    0  0.33429906215E+02  0.16662705481E+02 -0.14132597493E+02  0.10692553170E+03  0.99187371341E+02 0.  0.
        -11    1    3    3    0    0 -0.26183776137E+02 -0.25918610093E+01 -0.77083316060E+02  0.81450263911E+02  0.00000000000E+00 0.  1.
         12    1    3    3    0    0  0.12835452675E+02 -0.26185634776E+02 -0.67488640499E+03  0.67551617002E+03  0.00000000000E+00 0. -1.
        -13    1    4    4    0    0  0.33412137817E+02  0.39318458985E+02 -0.45117557967E+02  0.68541273751E+02  0.00000000000E+00 0. -1.
         13    1    4    4    0    0  0.17768398555E-01 -0.22655753504E+02  0.30984960474E+02  0.38384257947E+02  0.00000000000E+00 0.  1.
          1    1    1    2  501    0 -0.20081582753E+02  0.12114790304E+02 -0.53074430936E+02  0.58025281811E+02  0.00000000000E+00 0. -1.
<scales pt_clust_5="13000.00000" pt_clust_6="13000.00000" pt_clust_7="13000.00000" pt_clust_8="13000.00000" pt_clust_9="23.45290"></scales>
<clustering>
<clus scale="   23.453">  1  9  2 -1</clus>
<clus scale="   80.829">  5  6 -1 -1</clus>
<clus scale="   86.792">  2  5  1 -1</clus>
<clus scale="   99.187">  7  8 -1 -1</clus>
<clus scale="   23.453">  1  5  2 -1</clus>
</clustering>
</event>
<event>
 9    2  0.1723348E-004  0.1066868E+03  0.7546771E-02  0.1271919E+00
          2   -1    0    0  502    0 -0.00000000000E+00  0.00000000000E+00  0.72138114928E+03  0.72138114928E+03  0.00000000000E+00 0. -1.
         21   -1    0    0  501  502  0.00000000000E+00 -0.00000000000E+00 -0.45442133240E+02  0.45442133240E+02  0.00000000000E+00 0. -1.
         23    2    1    2    0    0  0.51342484510E+02 -0.39087706050E+02  0.27753421733E+03  0.29960250765E+03  0.92587911311E+02 0.  0.
         24    2    1    2    0    0 -0.33613952082E+02 -0.16509615847E+02  0.29697780558E+02  0.93924339984E+02  0.80853931762E+02 0.  0.
        -11    1    4    4    0    0 -0.48429478399E+02 -0.25346529624E+02  0.45048540514E+02  0.70832421562E+02  0.00000000000E+00 0.  1.
         12    1    4    4    0    0  0.14815526317E+02  0.88369137767E+01 -0.15350759956E+02  0.23091918421E+02  0.00000000000E+00 0. -1.
        -11    1    3    3    0    0  0.55880098985E+02 -0.60966592562E+02  0.16157720623E+03  0.18151227078E+03  0.00000000000E+00 0. -1.
         11    1    3    3    0    0 -0.45376144749E+01  0.21878886513E+02  0.11595701110E+03  0.11809023687E+03  0.00000000000E+00 0.  1.
          1    1    1    2  501    0 -0.17728532428E+02  0.55597321897E+02  0.36870701816E+03  0.37329643489E+03  0.00000000000E+00 0. -1.
<scales pt_clust_5="13000.00000" pt_clust_6="13000.00000" pt_clust_7="13000.00000" pt_clust_8="13000.00000" pt_clust_9="58.35552"></scales>
<clustering>
<clus scale="   58.356">  2  9  1 -1</clus>
<clus scale="   80.854">  5  6 -1 -1</clus>
<clus scale="   92.588">  7  8 -1 -1</clus>
<clus scale="   96.679">  2  5  1 -1</clus>
<clus scale="   58.356">  2  5  1 -1</clus>
</clustering>
</event>
<event>
 9    2  0.1723348E-004  0.1284275E+03  0.7546771E-02  0.1243226E+00
         21   -1    0    0  501  502  0.00000000000E+00  0.00000000000E+00  0.18985255659E+03  0.18985255659E+03  0.00000000000E+00 0. -1.
          2   -1    0    0  502    0 -0.00000000000E+00 -0.00000000000E+00 -0.19972916630E+03  0.19972916630E+03  0.00000000000E+00 0. -1.
         23    2    1    2    0    0 -0.21637312267E+02  0.30711310250E+02  0.51544049647E+02  0.11040834876E+03  0.90121343542E+02 0.  0.
         24    2    1    2    0    0  0.11232388859E+03  0.73169032258E+01 -0.10293411819E+03  0.17243271922E+03  0.80420252119E+02 0.  0.
        -11    1    4    4    0    0  0.20294063549E+02 -0.31917141170E+02 -0.34753781118E+02  0.51365145943E+02  0.00000000000E+00 0.  1.
         12    1    4    4    0    0  0.92029825044E+02  0.39234044396E+02 -0.68180337069E+02  0.12106757328E+03  0.00000000000E+00 0. -1.
        -13    1    3    3    0    0 -0.26554738169E+02 -0.25941440833E+02  0.61125739654E+01  0.37622812657E+02  0.00000000000E+00 0.  1.
         13    1    3    3    0    0  0.49174259016E+01  0.56652751083E+02  0.45431475682E+02  0.72785536100E+02  0.00000000000E+00 0. -1.
          1    1    1    2  501    0 -0.90686576325E+02 -0.38028213476E+02  0.41513458834E+02  0.10674065491E+03  0.00000000000E+00 0. -1.
<scales pt_clust_5="13000.00000" pt_clust_6="13000.00000" pt_clust_7="13000.00000" pt_clust_8="13000.00000" pt_clust_9="100.13093"></scales>
<clustering>
<clus scale="   80.420">  5  6 -1 -1</clus>
<clus scale="   90.121">  7  8 -1 -1</clus>
<clus scale="   97.638">  2  7  1 -1</clus>
<clus scale="  100.131">  1  9  2 -1</clus>
<clus scale="  100.131">  1  5  2 -1</clus>
</clustering>
</event>
<event>
 9    2  0.1723348E-004  0.1237860E+03  0.7546771E-02  0.1240766E+00
         21   -1    0    0  501  502  0.00000000000E+00  0.00000000000E+00  0.93318246588E+03  0.93318246588E+03  0.00000000000E+00 0. -1.
          2   -1    0    0  502    0 -0.00000000000E+00 -0.00000000000E+00 -0.23247713864E+02  0.23247713864E+02  0.00000000000E+00 0. -1.
         23    2    1    2    0    0 -0.90430411394E+01  0.99510223417E+02  0.30923440591E+03  0.33804060053E+03  0.93067011627E+02 0.  0.
         24    2    1    2    0    0  0.20448763316E+02 -0.54176345311E+02  0.44002847914E+03  0.45105548275E+03  0.80453450864E+02 0.  0.
        -11    1    4    4    0    0 -0.11026516186E+02 -0.61723201228E+02  0.22377597380E+03  0.23239411370E+03  0.00000000000E+00 0.  1.
         12    1    4    4    0    0  0.31475279502E+02  0.75468559167E+01  0.21625250533E+03  0.21866136906E+03  0.00000000000E+00 0. -1.
        -11    1    3    3    0    0 -0.11994263241E+02  0.23756583617E+02  0.85591886391E+01  0.27955273671E+02  0.00000000000E+00 0. -1.
         11    1    3    3    0    0  0.29512221021E+01  0.75753639800E+02  0.30067521727E+03  0.31008532686E+03  0.00000000000E+00 0.  1.
          1    1    1    2  501    0 -0.11405722177E+02 -0.45333878106E+02  0.16067186697E+03  0.16733409646E+03  0.00000000000E+00 0. -1.
<scales pt_clust_5="13000.00000" pt_clust_6="13000.00000" pt_clust_7="13000.00000" pt_clust_8="13000.00000" pt_clust_9="46.74667"></scales>
<clustering>
<clus scale="   46.747">  1  9  2 -1</clus>
<clus scale="   80.453">  5  6 -1 -1</clus>
<clus scale="   93.067">  7  8 -1 -1</clus>
<clus scale="  114.605">  1  5  2 -1</clus>
<clus scale="   46.747">  1  5  2 -1</clus>
</clustering>
</event>
<event>
 9    2  0.1723348E-004  0.1985176E+03  0.7546771E-02  0.1167243E+00
         -3   -1    0    0    0  501 -0.00000000000E+00  0.00000000000E+00  0.35504547172E+03  0.35504547172E+03  0.00000000000E+00 0.  1.
         21   -1    0    0  501  502  0.00000000000E+00 -0.00000000000E+00 -0.27596803189E+03  0.27596803189E+03  0.00000000000E+00 0.  1.
         23    2    1    2    0    0  0.71347142900E+02 -0.71018898094E+02  0.33430831397E+02  0.13996891087E+03  0.91321283581E+02 0.  0.
         24    2    1    2    0    0 -0.20320160326E+03 -0.50637884762E+02  0.16221829352E+03  0.27709382903E+03  0.81308845723E+02 0.  0.
        -13    1    4    4    0    0 -0.12149704018E+03 -0.68799926553E+02  0.86637007376E+02  0.16431960234E+03  0.00000000000E+00 0.  1.
         14    1    4    4    0    0 -0.81704563072E+02  0.18162041790E+02  0.75581286144E+02  0.11277422668E+03  0.00000000000E+00 0. -1.
        -13    1    3    3    0    0  0.91903517674E+02 -0.68897401647E+02  0.24441894860E+02  0.11743302235E+03  0.00000000000E+00 0. -1.
         13    1    3    3    0    0 -0.20556374774E+02 -0.21214964466E+01  0.89889365373E+01  0.22535888514E+02  0.00000000000E+00 0.  1.
         -4    1    1    2    0  502  0.13185446036E+03  0.12165678286E+03 -0.11657168509E+03  0.21395076372E+03  0.00000000000E+00 0.  1.
<scales pt_clust_5="13000.00000" pt_clust_6="13000.00000" pt_clust_7="13000.00000" pt_clust_8="13000.00000" pt_clust_9="181.10252"></scales>
<clustering>
<clus scale="   81.309">  5  6 -1 -1</clus>
<clus scale="   91.321">  7  8 -1 -1</clus>
<clus scale="  135.918">  1  7  2 -1</clus>
<clus scale="  181.103">  2  9  1 -1</clus>
<clus scale="  181.103">  2  5  1 -1</clus>
</clustering>
</event>
<event>
 9    2  0.1723348E-004  0.1101643E+03  0.7546771E-02  0.1263670E+00
         -1   -1    0    0    0  501 -0.00000000000E+00  0.00000000000E+00  0.85985787350E+03  0.85985787350E+03  0.00000000000E+00 0.  1.
         21   -1    0    0  501  502  0.00000000000E+00 -0.00000000000E+00 -0.19597394563E+02  0.19597394563E+02  0.00000000000E+00 0. -1.
         24    2    1    2    0    0 -0.90908080103E+01  0.61782297265E+02  0.51505429657E+03  0.52516885506E+03  0.81373846272E+02 0.  0.
         23    2    1    2    0    0  0.35691773657E+02 -0.58674257008E+02  0.27317140041E+03  0.29576385479E+03  0.90205724064E+02 0.  0.
        -11    1    3    3    0    0  0.16335578537E+02  0.70018622380E+02  0.43134816243E+03  0.43729932065E+03  0.00000000000E+00 0.  1.
         12    1    3    3    0    0 -0.25426386547E+02 -0.82363251148E+01  0.83706134143E+02  0.87869534409E+02  0.00000000000E+00 0. -1.
        -11    1    4    4    0    0 -0.84531894941E+01 -0.62985781264E+02  0.11387728375E+03  0.13040974200E+03  0.00000000000E+00 0.  1.
         11    1    4    4    0    0  0.44144963151E+02  0.43115242559E+01  0.15929411667E+03  0.16535411279E+03  0.00000000000E+00 0. -1.
         -2    1    1    2    0  502 -0.26600965646E+02 -0.31080402572E+01  0.52034781949E+02  0.58522558215E+02  0.00000000000E+00 0.  1.
<scales pt_clust_5="13000.00000" pt_clust_6="13000.00000" pt_clust_7="13000.00000" pt_clust_8="13000.00000" pt_clust_9="26.78192"></scales>
<clustering>
<clus scale="   26.782">  2  9  1 -1</clus>
<clus scale="   81.374">  5  6 -1 -1</clus>
<clus scale="   90.206">  7  8 -1 -1</clus>
<clus scale="  103.057">  1  5  2 -1</clus>
<clus scale="   26.782">  2  5  1 -1</clus>
</clustering>
</event>
<event>
 9    2  0.1723348E-004  0.1068811E+03  0.7546771E-02  0.1267814E+00
         21   -1    0    0  501  502  0.00000000000E+00  0.00000000000E+00  0.38528738674E+02  0.38528738674E+02  0.00000000000E+00 0. -1.
          2   -1    0    0  502    0 -0.00000000000E+00 -0.00000000000E+00 -0.15918464955E+04  0.15918464955E+04  0.00000000000E+00 0. -1.
         24    2    1    2    0    0 -0.36953134336E+02 -0.50977695709E+02 -0.12615908843E+04  0.12657415128E+04  0.80782165293E+02 0.  0.
         23    2    1    2    0    0  0.10710548956E+03  0.30639564197E+02 -0.22946104668E+03  0.26865442359E+03  0.84335393406E+02 0.  0.
        -13    1    3    3    0    0 -0.30140014527E+02 -0.24130607587E+02 -0.19470823666E+03  0.19849938066E+03  0.00000000000E+00 0.  1.
         14    1    3    3    0    0 -0.68131198092E+01 -0.26847088122E+02 -0.10668826477E+04  0.10672421322E+04  0.00000000000E+00 0. -1.
        -13    1    4    4    0    0  0.24336992256E+01  0.31621549274E+02 -0.31378075156E+02  0.44614222742E+02  0.00000000000E+00 0.  1.
         13    1    4    4    0    0  0.10467179033E+03 -0.98198507659E+00 -0.19808297153E+03  0.22404020084E+03  0.00000000000E+00 0. -1.
          1    1    1    2  501    0 -0.70152355219E+02  0.20338131512E+02 -0.62265825792E+02  0.95979297756E+02  0.00000000000E+00 0. -1.
<scales pt_clust_5="13000.00000" pt_clust_6="13000.00000" pt_clust_7="13000.00000" pt_clust_8="13000.00000" pt_clust_9="73.04103"></scales>
<clustering>
<clus scale="   73.041">  1  9  2 -1</clus>
<clus scale="   80.782">  5  6 -1 -1</clus>
<clus scale="   84.335">  7  8 -1 -1</clus>
<clus scale="  104.100">  2  5  1 -1</clus>
<clus scale="   73.041">  1  5  2 -1</clus>
</clustering>
</event>
<event>
 9    2  0.1723348E-004  0.1322049E+03  0.7546771E-02  0.1243861E+00
         21   -1    0    0  501  502  0.00000000000E+00  0.00000000000E+00  0.13747486707E+03  0.13747486707E+03  0.00000000000E+00 0.  1.
         -3   -1    0    0    0  501 -0.00000000000E+00 -0.00000000000E+00 -0.20911400530E+03  0.20911400530E+03  0.00000000000E+00 0.  1.
         24    2    1    2    0    0  0.15249948283E+02 -0.28744463014E+02 -0.83051454817E+01  0.88754203450E+02  0.82155511757E+02 0.  0.
         23    2    1    2    0    0  0.45257411804E+02 -0.67734006961E+02  0.64565930531E+01  0.12426834958E+03  0.93620543111E+02 0.  0.
        -11    1    3    3    0    0  0.47094116170E+02 -0.29260927281E+02 -0.11889898870E+02  0.56704738235E+02  0.00000000000E+00 0.  1.
         12    1    3    3    0    0 -0.31844167887E+02  0.51646426718E+00  0.35847533888E+01  0.32049465215E+02  0.00000000000E+00 0. -1.
        -11    1    4    4    0    0  0.66506904963E+02 -0.16431061245E+02  0.55558368965E+01  0.68731473904E+02  0.00000000000E+00 0.  1.
         11    1    4    4    0    0 -0.21249493159E+02 -0.51302945716E+02  0.90075615660E+00  0.55536875680E+02  0.00000000000E+00 0. -1.
         -4    1    1    2    0  502 -0.60507360088E+02  0.96478469975E+02 -0.69790585800E+02  0.13356631933E+03  0.00000000000E+00 0.  1.
<scales pt_clust_5="13000.00000" pt_clust_6="13000.00000" pt_clust_7="13000.00000" pt_clust_8="13000.00000" pt_clust_9="93.34527"></scales>
<clustering>
<clus scale="   82.156">  5  6 -1 -1</clus>
<clus scale="   88.365">  2  5  1 -1</clus>
<clus scale="   93.345">  1  9  2 -1</clus>
<clus scale="   93.621">  7  8 -1 -1</clus>
<clus scale="   93.345">  1  5  2 -1</clus>
</clustering>
</event>
<event>
 9    2  0.1723348E-004  0.1850080E+03  0.7546771E-02  0.1185201E+00
         -1   -1    0    0    0  501 -0.00000000000E+00  0.00000000000E+00  0.79628156563E+03  0.79628156563E+03  0.00000000000E+00 0.  1.
         21   -1    0    0  501  502  0.00000000000E+00 -0.00000000000E+00 -0.74075053215E+02  0.74075053215E+02  0.00000000000E+00 0.  1.
         23    2    1    2    0    0 -0.42273710236E+02  0.48517641022E+02  0.11953013031E+03  0.16369912288E+03  0.91481816299E+02 0.  0.
         24    2    1    2    0    0 -0.11162556365E+03 -0.12540263168E+03  0.22783720029E+03  0.29422483417E+03  0.80451082747E+02 0.  0.
        -11    1    4    4    0    0 -0.77240794923E+02 -0.11048082136E+03  0.12151312763E+03  0.18148716890E+03  0.00000000000E+00 0.  1.
         12    1    4    4    0    0 -0.34384768724E+02 -0.14921810318E+02  0.10632407267E+03  0.11273766527E+03  0.00000000000E+00 0. -1.
        -11    1    3    3    0    0 -0.44874646120E+02  0.16380507399E+02  0.12233878142E+03  0.13133481004E+03  0.00000000000E+00 0.  1.
         11    1    3    3    0    0  0.26009358837E+01  0.32137133623E+02 -0.28086511143E+01  0.32364312847E+02  0.00000000000E+00 0. -1.
         -2    1    1    2    0  502  0.15389927388E+03  0.76884990655E+02  0.37483918182E+03  0.41243266179E+03  0.00000000000E+00 0.  1.
<scales pt_clust_5="13000.00000" pt_clust_6="13000.00000" pt_clust_7="13000.00000" pt_clust_8="13000.00000" pt_clust_9="166.60016"></scales>
<clustering>
<clus scale="   80.451">  5  6 -1 -1</clus>
<clus scale="   91.482">  7  8 -1 -1</clus>
<clus scale="  111.848">  1  7  2 -1</clus>
<clus scale="  166.600">  2  9  1 -1</clus>
<clus scale="  166.600">  2  5  1 -1</clus>
</clustering>
</event>
<event>
 9    2  0.1723348E-004  0.1678467E+03  0.7546771E-02  0.1200510E+00
         21   -1    0    0  501  502  0.00000000000E+00  0.00000000000E+00  0.53028684510E+02  0.53028684510E+02  0.00000000000E+00 0.  1.
         -1   -1    0    0    0  501 -0.00000000000E+00 -0.00000000000E+00 -0.10040428034E+04  0.10040428034E+04  0.00000000000E+00 0.  1.
         24    2    1    2    0    0  0.63598260282E+02  0.30061490396E+02 -0.37347500330E+03  0.38849313252E+03  0.80590967313E+02 0.  0.
         23    2    1    2    0    0 -0.57239187571E+01 -0.15537606457E+03 -0.20193605299E+03  0.26841483563E+03  0.84225113850E+02 0.  0.
        -13    1    3    3    0    0 -0.18193322151E+02  0.11773742633E+02 -0.53462254378E+02  0.57687352424E+02  0.00000000000E+00 0.  1.
         14    1    3    3    0    0  0.81791582433E+02  0.18287747763E+02 -0.32001274892E+03  0.33080578010E+03  0.00000000000E+00 0. -1.
        -11    1    4    4    0    0  0.20132842563E+02 -0.13111275711E+03 -0.11895126890E+03  0.17817208198E+03  0.00000000000E+00 0.  1.
         11    1    4    4    0    0 -0.25856761320E+02 -0.24263307461E+02 -0.82984784097E+02  0.90242753652E+02  0.00000000000E+00 0. -1.
         -2    1    1    2    0  502 -0.57874341525E+02  0.12531457417E+03 -0.37560306257E+03  0.40016351972E+03  0.00000000000E+00 0.  1.
<scales pt_clust_5="13000.00000" pt_clust_6="13000.00000" pt_clust_7="13000.00000" pt_clust_8="13000.00000" pt_clust_9="145.18492"></scales>
<clustering>
<clus scale="   80.591">  5  6 -1 -1</clus>
<clus scale="   84.225">  7  8 -1 -1</clus>
<clus scale="  106.974">  2  5  1 -1</clus>
<clus scale="  145.185">  1  9  2 -1</clus>
<clus scale="  145.185">  1  5  2 -1</clus>
</clustering>
</event>
<event>
 9    2  0.1723348E-004  0.9640386E+02  0.7546771E-02  0.1294690E+00
         21   -1    0    0  501  502  0.00000000000E+00  0.00000000000E+00  0.54980790243E+03  0.54980790243E+03  0.00000000000E+00 0. -1.
          2   -1    0    0  502    0 -0.00000000000E+00 -0.00000000000E+00 -0.34594459661E+02  0.34594459661E+02  0.00000000000E+00 0. -1.
         24    2    1    2    0    0 -0.14359814245E+02 -0.35874328513E+02  0.60557493150E+02  0.10789415088E+03  0.80503205560E+02 0.  0.
         23    2    1    2    0    0 -0.12367075656E+02 -0.39068485287E+01  0.26627571881E+03  0.28212719349E+03  0.92329772308E+02 0.  0.
        -11    1    3    3    0    0 -0.18643016451E+01 -0.37557916379E+02  0.77871551394E+02  0.86475726189E+02  0.00000000000E+00 0.  1.
         12    1    3    3    0    0 -0.12495512600E+02  0.16835878659E+01 -0.17314058244E+02  0.21418424688E+02  0.00000000000E+00 0. -1.
        -11    1    4    4    0    0  0.39115855393E+02  0.84724877805E+01  0.12521498039E+03  0.13145578917E+03  0.00000000000E+00 0.  1.
         11    1    4    4    0    0 -0.51482931049E+02 -0.12379336309E+02  0.14106073842E+03  0.15067140432E+03  0.00000000000E+00 0. -1.
          1    1    1    2  501    0  0.26726889901E+02  0.39781177042E+02  0.18838023081E+03  0.19438101772E+03  0.00000000000E+00 0. -1.
<scales pt_clust_5="13000.00000" pt_clust_6="13000.00000" pt_clust_7="13000.00000" pt_clust_8="13000.00000" pt_clust_9="47.92566"></scales>
<clustering>
<clus scale="   47.926">  1  9  2 -1</clus>
<clus scale="   80.503">  5  6 -1 -1</clus>
<clus scale="   85.145">  2  5  1 -1</clus>
<clus scale="   92.330">  7  8 -1 -1</clus>
<clus scale="   47.926">  1  5  2 -1</clus>
</clustering>
</event>
<event>
 9    2  0.1723348E-004  0.1253748E+03  0.7546771E-02  0.1237140E+00
         21   -1    0    0  501  502  0.00000000000E+00  0.00000000000E+00  0.25409368101E+03  0.25409368101E+03  0.00000000000E+00 0.  1.
         -3   -1    0    0    0  501 -0.00000000000E+00 -0.00000000000E+00 -0.88341679718E+02  0.88341679718E+02  0.00000000000E+00 0.  1.
         24    2    1    2    0    0  0.86336095696E+02 -0.86280213038E+00  0.47062538286E+02  0.12832034798E+03  0.82441272113E+02 0.  0.
         23    2    1    2    0    0 -0.79268872192E+02  0.42401233502E+02  0.59724247843E+02  0.14164237289E+03  0.91728715881E+02 0.  0.
        -11    1    3    3    0    0  0.47878743874E+02 -0.40917238394E+02  0.32706057262E+02  0.70966757672E+02  0.00000000000E+00 0.  1.
         12    1    3    3    0    0  0.38457351822E+02  0.40054436264E+02  0.14356481024E+02  0.57353590306E+02  0.00000000000E+00 0. -1.
        -11    1    4    4    0    0 -0.81317855090E+02  0.47446170242E+01  0.64132940578E+02  0.10367323191E+03  0.00000000000E+00 0. -1.
         11    1    4    4    0    0  0.20489828979E+01  0.37656616477E+02 -0.44086927351E+01  0.37969140984E+02  0.00000000000E+00 0.  1.
         -4    1    1    2    0  502 -0.70672235036E+01 -0.41538431371E+02  0.58965215159E+02  0.72472639856E+02  0.00000000000E+00 0.  1.
<scales pt_clust_5="13000.00000" pt_clust_6="13000.00000" pt_clust_7="13000.00000" pt_clust_8="13000.00000" pt_clust_9="42.13534"></scales>
<clustering>
<clus scale="   42.135">  1  9  2 -1</clus>
<clus scale="   82.441">  5  6 -1 -1</clus>
<clus scale="   91.729">  7  8 -1 -1</clus>
<clus scale="  118.749">  2  5  1 -1</clus>
<clus scale="   42.135">  1  5  2 -1</clus>
</clustering>
</event>
<event>
 9    2  0.1723348E-004  0.1098282E+03  0.7546771E-02  0.1262765E+00
          2   -1    0    0  502    0 -0.00000000000E+00  0.00000000000E+00  0.13736793243E+04  0.13736793243E+04  0.00000000000E+00 0. -1.
         21   -1    0    0  501  502  0.00000000000E+00 -0.00000000000E+00 -0.22692056002E+02  0.22692056002E+02  0.00000000000E+00 0. -1.
         24    2    1    2    0    0 -0.53808800299E+02 -0.41059992429E+02  0.97171153770E+03  0.97782631159E+03  0.85671892540E+02 0.  0.
         23    2    1    2    0    0  0.25720786423E+02  0.45856443513E+02  0.37547788587E+03  0.38979848473E+03  0.90525375734E+02 0.  0.
        -13    1    3    3    0    0 -0.17373851865E+02  0.13902117344E+02  0.64671051213E+02  0.68391991200E+02  0.00000000000E+00 0.  1.
         14    1    3    3    0    0 -0.36434948434E+02 -0.54962109773E+02  0.90704048649E+03  0.90943432039E+03  0.00000000000E+00 0. -1.
        -13    1    4    4    0    0  0.16176915553E+02  0.73099351325E+02  0.29304357381E+03  0.30245618511E+03  0.00000000000E+00 0. -1.
         13    1    4    4    0    0  0.95438708695E+01 -0.27242907812E+02  0.82434312065E+02  0.87342299620E+02  0.00000000000E+00 0.  1.
          1    1    1    2  501    0  0.28088013877E+02 -0.47964510842E+01  0.37978447333E+01  0.28746583991E+02  0.00000000000E+00 0. -1.
<scales pt_clust_5="13000.00000" pt_clust_6="13000.00000" pt_clust_7="13000.00000" pt_clust_8="13000.00000" pt_clust_9="28.49460"></scales>
<clustering>
<clus scale="   28.495">  2  9  1 -1</clus>
<clus scale="   85.672">  5  6 -1 -1</clus>
<clus scale="   90.525">  7  8 -1 -1</clus>
<clus scale="  105.863">  1  5  2 -1</clus>
<clus scale="   28.495">  2  5  1 -1</clus>
</clustering>
</event>
<event>
 9    2  0.1723348E-004  0.1085556E+03  0.7546771E-02  0.1267856E+00
          2   -1    0    0  502    0 -0.00000000000E+00  0.00000000000E+00  0.26861028995E+03  0.26861028995E+03  0.00000000000E+00 0. -1.
         21   -1    0    0  501  502  0.00000000000E+00 -0.00000000000E+00 -0.78875696803E+02  0.78875696803E+02  0.00000000000E+00 0. -1.
         24    2    1    2    0    0 -0.19773632300E+02 -0.55837323706E+02  0.58158199952E+02  0.11543367360E+03  0.80210682121E+02 0.  0.
         23    2    1    2    0    0 -0.86417868504E+01  0.61033693376E+02  0.14221952359E+02  0.11119494645E+03  0.91445393427E+02 0.  0.
        -11    1    3    3    0    0  0.22867611953E+02 -0.25045387586E+02 -0.38391729101E+01  0.34131193422E+02  0.00000000000E+00 0.  1.
         12    1    3    3    0    0 -0.42641244253E+02 -0.30791936120E+02  0.61997372862E+02  0.81302480179E+02  0.00000000000E+00 0. -1.
        -13    1    4    4    0    0 -0.62950644677E+01  0.21137843126E+02  0.51823685765E+02  0.56321671272E+02  0.00000000000E+00 0.  1.
         13    1    4    4    0    0 -0.23467223827E+01  0.39895850250E+02 -0.37601733405E+02  0.54873275173E+02  0.00000000000E+00 0. -1.
          1    1    1    2  501    0  0.28415419151E+02 -0.51963696704E+01  0.11735444084E+03  0.12085736671E+03  0.00000000000E+00 0. -1.
<scales pt_clust_5="13000.00000" pt_clust_6="13000.00000" pt_clust_7="13000.00000" pt_clust_8="13000.00000" pt_clust_9="28.88666"></scales>
<clustering>
<clus scale="   28.887">  2  9  1 -1</clus>
<clus scale="   80.211">  5  6 -1 -1</clus>
<clus scale="   91.445">  7  8 -1 -1</clus>
<clus scale="   99.276">  1  5  2 -1</clus>
<clus scale="   28.887">  2  5  1 -1</clus>
</clustering>
</event>
<event>
 9    2  0.1723348E-004  0.1299463E+03  0.7546771E-02  0.1228984E+00
          2   -1    0    0  502    0 -0.00000000000E+00  0.00000000000E+00  0.81333954777E+03  0.81333954777E+03  0.00000000000E+00 0. -1.
         21   -1    0    0  501  502  0.00000000000E+00 -0.00000000000E+00 -0.19164099398E+03  0.19164099398E+03  0.00000000000E+00 0. -1.
         23    2    1    2    0    0 -0.72609305990E+02  0.19857487929E+02 -0.58127081741E+02  0.13066008250E+03  0.89592792031E+02 0.  0.
         24    2    1    2    0    0  0.61830614554E+02 -0.11184737700E+03 -0.32241582493E+02  0.15625497277E+03  0.83923990825E+02 0.  0.
        -13    1    4    4    0    0  0.37871455474E+01 -0.26631464073E+02 -0.44934710955E+02  0.52370846840E+02  0.00000000000E+00 0.  1.
         14    1    4    4    0    0  0.58043469007E+02 -0.85215912928E+02  0.12693128462E+02  0.10388412593E+03  0.00000000000E+00 0. -1.
        -11    1    3    3    0    0  0.15646396016E+02  0.23441006380E+02 -0.89802053966E+01  0.29579293051E+02  0.00000000000E+00 0.  1.
         11    1    3    3    0    0 -0.88255702007E+02 -0.35835184509E+01 -0.49146876344E+02  0.10108078945E+03  0.00000000000E+00 0. -1.
          1    1    1    2  501    0  0.10778691436E+02  0.91989889072E+02  0.71206721803E+03  0.71806548648E+03  0.00000000000E+00 0. -1.
<scales pt_clust_5="13000.00000" pt_clust_6="13000.00000" pt_clust_7="13000.00000" pt_clust_8="13000.00000" pt_clust_9="92.61927"></scales>
<clustering>
<clus scale="   83.924">  5  6 -1 -1</clus>
<clus scale="   89.593">  7  8 -1 -1</clus>
<clus scale="   92.619">  2  9  1 -1</clus>
<clus scale="  126.105">  2  5  1 -1</clus>
<clus scale="   92.619">  2  5  1 -1</clus>
</clustering>
</event>
<event>
 9    2  0.1723348E-004  0.1854902E+03  0.7546771E-02  0.1188895E+00
         21   -1    0    0  501  502  0.00000000000E+00  0.00000000000E+00  0.80937093051E+02  0.80937093051E+02  0.00000000000E+00 0.  1.
          2   -1    0    0  502    0 -0.00000000000E+00 -0.00000000000E+00 -0.73239277387E+03  0.73239277387E+03  0.00000000000E+00 0. -1.
         23    2    1    2    0    0  0.26624066495E+02  0.37939936858E+02 -0.12247828965E+03  0.15954116173E+03  0.91127224945E+02 0.  0.
         24    2    1    2    0    0 -0.11194901102E+03  0.11868889666E+03 -0.15375391648E+03  0.23833041173E+03  0.80879435348E+02 0.  0.
        -11    1    4    4    0    0 -0.11636985463E+03  0.98675353900E+02 -0.10435386213E+03  0.18484722631E+03  0.00000000000E+00 0.  1.
         12    1    4    4    0    0  0.44208436103E+01  0.20013542762E+02 -0.49400054359E+02  0.53483185421E+02  0.00000000000E+00 0. -1.
        -13    1    3    3    0    0  0.14232297068E+02  0.65635935236E+02 -0.10465568564E+03  0.12435210819E+03  0.00000000000E+00 0.  1.
         13    1    3    3    0    0  0.12391769428E+02 -0.27695998378E+02 -0.17822604009E+02  0.35189053545E+02  0.00000000000E+00 0. -1.
          1    1    1    2  501    0  0.85324944524E+02 -0.15662883352E+03 -0.37522347468E+03  0.41545829345E+03  0.00000000000E+00 0. -1.
<scales pt_clust_5="13000.00000" pt_clust_6="13000.00000" pt_clust_7="13000.00000" pt_clust_8="13000.00000" pt_clust_9="166.92860"></scales>
<clustering>
<clus scale="   80.879">  5  6 -1 -1</clus>
<clus scale="   91.127">  7  8 -1 -1</clus>
<clus scale="  102.237">  2  7  1 -1</clus>
<clus scale="  166.929">  1  9  2 -1</clus>
<clus scale="  166.929">  1  5  2 -1</clus>
</clustering>
</event>
<event>
 9    2  0.1723348E-004  0.9628851E+02  0.7546771E-02  0.1292887E+00
          2   -1    0    0  502    0 -0.00000000000E+00  0.00000000000E+00  0.61167471889E+03  0.61167471889E+03  0.00000000000E+00 0. -1.
         21   -1    0    0  501  502  0.00000000000E+00 -0.00000000000E+00 -0.26429931376E+02  0.26429931376E+02  0.00000000000E+00 0. -1.
         24    2    1    2    0    0 -0.12078700070E+02 -0.12940339105E+02  0.20396656305E+03  0.22053520520E+03  0.81976036225E+02 0.  0.
         23    2    1    2    0    0  0.61626557880E+02  0.16821610762E+02  0.18977784331E+03  0.21972493424E+03  0.90457822729E+02 0.  0.
        -13    1    3    3    0    0  0.25380996932E+02 -0.31122179202E+02  0.12455481665E+03  0.13086897032E+03  0.00000000000E+00 0.  1.
         14    1    3    3    0    0 -0.37459697002E+02  0.18181840097E+02  0.79411746407E+02  0.89666234872E+02  0.00000000000E+00 0. -1.
        -11    1    4    4    0    0  0.21708469092E+02  0.25169693686E+02  0.90431976720E+01  0.34446342835E+02  0.00000000000E+00 0. -1.
         11    1    4    4    0    0  0.39918088788E+02 -0.83480829245E+01  0.18073464564E+03  0.18527859141E+03  0.00000000000E+00 0.  1.
          1    1    1    2  501    0 -0.49547857810E+02 -0.38812716566E+01  0.19150038115E+03  0.19784451083E+03  0.00000000000E+00 0. -1.
<scales pt_clust_5="13000.00000" pt_clust_6="13000.00000" pt_clust_7="13000.00000" pt_clust_8="13000.00000" pt_clust_9="49.69967"></scales>
<clustering>
<clus scale="   49.700">  2  9  1 -1</clus>
<clus scale="   81.976">  5  6 -1 -1</clus>
<clus scale="   88.368">  1  5  2 -1</clus>
<clus scale="   90.458">  7  8 -1 -1</clus>
<clus scale="   49.700">  2  5  1 -1</clus>
</clustering>
</event>
<event>
 9    2  0.1723348E-004  0.1136476E+03  0.7546771E-02  0.1257641E+00
          2   -1    0    0  502    0 -0.00000000000E+00  0.00000000000E+00  0.21794394162E+03  0.21794394162E+03  0.00000000000E+00 0. -1.
         21   -1    0    0  501  502  0.00000000000E+00 -0.00000000000E+00 -0.11735352837E+03  0.11735352837E+03  0.00000000000E+00 0.  1.
         24    2    1    2    0    0 -0.14210773792E+02 -0.73181785825E+02  0.13578369024E+03  0.17474142395E+03  0.80869245340E+02 0.  0.
         23    2    1    2    0    0  0.22564229928E+01  0.52885436307E+02  0.13772204709E+02  0.10621944047E+03  0.91054572055E+02 0.  0.
        -13    1    3    3    0    0 -0.18935594861E+02 -0.29728865417E+02  0.34963575016E+01  0.35420145503E+02  0.00000000000E+00 0.  1.
         14    1    3    3    0    0  0.47248210691E+01 -0.43452920408E+02  0.13228733274E+03  0.13932127845E+03  0.00000000000E+00 0. -1.
        -13    1    4    4    0    0  0.38853009921E+02  0.15512066777E+02 -0.17420603903E+02  0.45317303935E+02  0.00000000000E+00 0.  1.
         13    1    4    4    0    0 -0.36596586928E+02  0.37373369530E+02  0.31192808612E+02  0.60902136530E+02  0.00000000000E+00 0. -1.
          1    1    1    2  501    0  0.11954350799E+02  0.20296349518E+02 -0.48965481696E+02  0.54336605567E+02  0.00000000000E+00 0. -1.
<scales pt_clust_5="13000.00000" pt_clust_6="13000.00000" pt_clust_7="13000.00000" pt_clust_8="13000.00000" pt_clust_9="23.55522"></scales>
<clustering>
<clus scale="   23.555">  2  9  1 -1</clus>
<clus scale="   80.869">  5  6 -1 -1</clus>
<clus scale="   91.055">  7  8 -1 -1</clus>
<clus scale="  105.663">  1  5  2 -1</clus>
<clus scale="   23.555">  2  5  1 -1</clus>
</clustering>
</event>
<event>
 9    2  0.1723348E-004  0.9553230E+02  0.7546771E-02  0.1296044E+00
         21   -1    0    0  501  502  0.00000000000E+00  0.00000000000E+00  0.23637145498E+03  0.23637145498E+03  0.00000000000E+00 0. -1.
          2   -1    0    0  502    0 -0.00000000000E+00 -0.00000000000E+00 -0.51884895623E+03  0.51884895623E+03  0.00000000000E+00 0. -1.
         23    2    1    2    0    0 -0.14569771492E+02 -0.19070814636E+02 -0.44249117859E+03  0.45255425592E+03  0.91820135131E+02 0.  0.
         24    2    1    2    0    0 -0.49427638961E+01  0.53062750969E+02 -0.35419588161E+02  0.10334141514E+03  0.81146869326E+02 0.  0.
        -13    1    4    4    0    0 -0.12327561223E+02  0.49133648603E+02  0.14527653636E+02  0.52698547522E+02  0.00000000000E+00 0.  1.
         14    1    4    4    0    0  0.73847973266E+01  0.39291023656E+01 -0.49947241798E+02  0.50642867614E+02  0.00000000000E+00 0. -1.
        -11    1    3    3    0    0 -0.16390744578E+02  0.35925322533E+02 -0.16493696099E+03  0.16959801416E+03  0.00000000000E+00 0.  1.
         11    1    3    3    0    0  0.18209730854E+01 -0.54996137169E+02 -0.27755421760E+03  0.28295624176E+03  0.00000000000E+00 0. -1.
          1    1    1    2  501    0  0.19512535388E+02 -0.33991936333E+02  0.19543326550E+03  0.19932474015E+03  0.00000000000E+00 0. -1.
<scales pt_clust_5="13000.00000" pt_clust_6="13000.00000" pt_clust_7="13000.00000" pt_clust_8="13000.00000" pt_clust_9="39.19427"></scales>
<clustering>
<clus scale="   39.194">  1  9  2 -1</clus>
<clus scale="   81.147">  5  6 -1 -1</clus>
<clus scale="   85.325">  1  5  2 -1</clus>
<clus scale="   91.820">  7  8 -1 -1</clus>
<clus scale="   39.194">  1  5  2 -1</clus>
</clustering>
</event>
<event>
 9    2  0.1723348E-004  0.1073291E+03  0.7546771E-02  0.1270181E+00
         -3   -1    0    0    0  501 -0.00000000000E+00  0.00000000000E+00  0.80738464416E+03  0.80738464416E+03  0.00000000000E+00 0.  1.
         21   -1    0    0  501  502  0.00000000000E+00 -0.00000000000E+00 -0.20756073216E+02  0.20756073216E+02  0.00000000000E+00 0.  1.
         24    2    1    2    0    0  0.75202006999E+01  0.47475104233E+02  0.41680042463E+03  0.42742248717E+03  0.81590131914E+02 0.  0.
         23    2    1    2    0    0 -0.34276251929E+02 -0.65171691863E+02  0.24742699382E+03  0.27418326420E+03  0.92380377942E+02 0.  0.
        -13    1    3    3    0    0 -0.34223014251E+02  0.32286154179E+02  0.15869725646E+03  0.16552471013E+03  0.00000000000E+00 0.  1.
         14    1    3    3    0    0  0.41743214951E+02  0.15188950054E+02  0.25810316817E+03  0.26189777704E+03  0.00000000000E+00 0. -1.
        -11    1    4    4    0    0  0.32004799029E+02 -0.25140705194E+02  0.86658246059E+02  0.95739301379E+02  0.00000000000E+00 0.  1.
         11    1    4    4    0    0 -0.66281050958E+02 -0.40030986670E+02  0.16076874776E+03  0.17844396282E+03  0.00000000000E+00 0. -1.
         -4    1    1    2    0  502  0.26756051229E+02  0.17696587630E+02  0.12240115249E+03  0.12653496601E+03  0.00000000000E+00 0.  1.
<scales pt_clust_5="13000.00000" pt_clust_6="13000.00000" pt_clust_7="13000.00000" pt_clust_8="13000.00000" pt_clust_9="32.07891"></scales>
<clustering>
<clus scale="   32.079">  2  9  1 -1</clus>
<clus scale="   81.590">  5  6 -1 -1</clus>
<clus scale="   92.380">  7  8 -1 -1</clus>
<clus scale="   98.195">  1  5  2 -1</clus>
<clus scale="   32.079">  2  5  1 -1</clus>
</clustering>
</event>
<event>
 9    2  0.1723348E-004  0.9602628E+02  0.7546771E-02  0.1294351E+00
         21   -1    0    0  501  502  0.00000000000E+00  0.00000000000E+00  0.14740755904E+03  0.14740755904E+03  0.00000000000E+00 0.  1.
         -3   -1    0    0    0  501 -0.00000000000E+00 -0.00000000000E+00 -0.78794189420E+02  0.78794189420E+02  0.00000000000E+00 0.  1.
         24    2    1    2    0    0 -0.12823260614E+02  0.34876145726E+02  0.10848144683E+02  0.90644094559E+02  0.81962723734E+02 0.  0.
         23    2    1    2    0    0  0.18224283728E+02 -0.72161930872E+01  0.49967607570E+02  0.10631646946E+03  0.91772718780E+02 0.  0.
        -13    1    3    3    0    0  0.24117472497E+02  0.29034919199E+02 -0.19496217318E+02  0.42482720043E+02  0.00000000000E+00 0.  1.
         14    1    3    3    0    0 -0.36940733110E+02  0.58412265266E+01  0.30344362000E+02  0.48161374516E+02  0.00000000000E+00 0. -1.
        -11    1    4    4    0    0 -0.19341611178E+02  0.24328193610E+02 -0.62545392150E+01  0.31702968127E+02  0.00000000000E+00 0.  1.
         11    1    4    4    0    0  0.37565894906E+02 -0.31544386697E+02  0.56222146785E+02  0.74613501334E+02  0.00000000000E+00 0. -1.
         -4    1    1    2    0  502 -0.54010231144E+01 -0.27659952639E+02  0.77976173617E+01  0.29241184435E+02  0.00000000000E+00 0.  1.
<scales pt_clust_5="13000.00000" pt_clust_6="13000.00000" pt_clust_7="13000.00000" pt_clust_8="13000.00000" pt_clust_9="28.18235"></scales>
<clustering>
<clus scale="   28.182">  1  9  2 -1</clus>
<clus scale="   81.963">  5  6 -1 -1</clus>
<clus scale="   86.699">  2  5  1 -1</clus>
<clus scale="   91.773">  7  8 -1 -1</clus>
<clus scale="   28.182">  1  5  2 -1</clus>
</clustering>
</event>
<event>
 9    2  0.1723348E-004  0.1082282E+03  0.7546771E-02  0.1268261E+00
         -1   -1    0    0    0  501 -0.00000000000E+00  0.00000000000E+00  0.11369895088E+03  0.11369895088E+03  0.00000000000E+00 0.  1.
         21   -1    0    0  501  502  0.00000000000E+00 -0.00000000000E+00 -0.21705337894E+03  0.21705337894E+03  0.00000000000E+00 0. -1.
         24    2    1    2    0    0  0.12262033831E+02  0.65733652075E+02  0.40269209865E+02  0.11205724754E+03  0.80398675208E+02 0.  0.
         23    2    1    2    0    0  0.31080087162E+02 -0.40426728693E+02 -0.57942951621E+02  0.11939674479E+03  0.91092836233E+02 0.  0.
        -11    1    3    3    0    0  0.26462562953E+02  0.70844859225E+02  0.75212985006E+01  0.75998889780E+02  0.00000000000E+00 0.  1.
         12    1    3    3    0    0 -0.14200529122E+02 -0.51112071504E+01  0.32747911365E+02  0.36058357764E+02  0.00000000000E+00 0. -1.
        -13    1    4    4    0    0  0.18530666288E+02 -0.69909784137E+02 -0.38879794302E+02  0.82112130140E+02  0.00000000000E+00 0.  1.
         13    1    4    4    0    0  0.12549420874E+02  0.29483055444E+02 -0.19063157319E+02  0.37284614650E+02  0.00000000000E+00 0. -1.
         -2    1    1    2    0  502 -0.43342120993E+02 -0.25306923382E+02 -0.85680686303E+02  0.99298337491E+02  0.00000000000E+00 0.  1.
<scales pt_clust_5="13000.00000" pt_clust_6="13000.00000" pt_clust_7="13000.00000" pt_clust_8="13000.00000" pt_clust_9="50.18944"></scales>
<clustering>
<clus scale="   50.189">  2  9  1 -1</clus>
<clus scale="   80.399">  5  6 -1 -1</clus>
<clus scale="   91.093">  7  8 -1 -1</clus>
<clus scale="   99.395">  1  5  2 -1</clus>
<clus scale="   50.189">  2  5  1 -1</clus>
</clustering>
</event>
<event>
 9    2  0.1723348E-004  0.1086320E+03  0.7546771E-02  0.1266461E+00
         21   -1    0    0  501  502  0.00000000000E+00  0.00000000000E+00  0.22177669444E+03  0.22177669444E+03  0.00000000000E+00 0.  1.
          4   -1    0    0  502    0 -0.00000000000E+00 -0.00000000000E+00 -0.16832677034E+03  0.16832677034E+03  0.00000000000E+00 0. -1.
         24    2    1    2    0    0 -0.58230853186E+02  0.45521014220E+01 -0.12072653741E+03  0.15702721179E+03  0.81676768531E+02 0.  0.
         23    2    1    2    0    0  0.80868635321E+02  0.16340074405E+02  0.12297597543E+03  0.17332307764E+03  0.90061448464E+02 0.  0.
        -11    1    3    3    0    0  0.17318162617E+02 -0.12442310924E+02 -0.15426665739E+02  0.26319420080E+02  0.00000000000E+00 0.  1.
         12    1    3    3    0    0 -0.75549015803E+02  0.16994412346E+02 -0.10529987167E+03  0.13070779171E+03  0.00000000000E+00 0. -1.
        -11    1    4    4    0    0  0.51986889228E+02  0.39766996828E+02  0.27748442552E+02  0.71091678503E+02  0.00000000000E+00 0.  1.
         11    1    4    4    0    0  0.28881746093E+02 -0.23426922423E+02  0.95227532875E+02  0.10223139913E+03  0.00000000000E+00 0. -1.
          3    1    1    2  501    0 -0.22637782134E+02 -0.20892175827E+02  0.51200486080E+02  0.59753175359E+02  0.00000000000E+00 0. -1.
<scales pt_clust_5="13000.00000" pt_clust_6="13000.00000" pt_clust_7="13000.00000" pt_clust_8="13000.00000" pt_clust_9="30.80507"></scales>
<clustering>
<clus scale="   30.805">  1  9  2 -1</clus>
<clus scale="   81.677">  5  6 -1 -1</clus>
<clus scale="   90.061">  7  8 -1 -1</clus>
<clus scale="  101.789">  2  5  1 -1</clus>
<clus scale="   30.805">  1  5  2 -1</clus>
</clustering>
</event>
<event>
 9    2  0.1723348E-004  0.3023771E+03  0.7546771E-02  0.1084340E+00
          2   -1    0    0  502    0 -0.00000000000E+00  0.00000000000E+00  0.13551925469E+04  0.13551925469E+04  0.00000000000E+00 0. -1.
         21   -1    0    0  501  502  0.00000000000E+00 -0.00000000000E+00 -0.86381641397E+02  0.86381641397E+02  0.00000000000E+00 0. -1.
         24    2    1    2    0    0  0.29082057510E+03 -0.79388020613E+02  0.88880407942E+03  0.94227369479E+03  0.83832926609E+02 0.  0.
         23    2    1    2    0    0 -0.24693742403E+03  0.88852346197E+02  0.31260299140E+03  0.41831542491E+03  0.91620596324E+02 0.  0.
        -11    1    3    3    0    0  0.11926559677E+03 -0.47661256478E+02  0.49799565374E+03  0.51429130762E+03  0.00000000000E+00 0.  1.
         12    1    3    3    0    0  0.17155497833E+03 -0.31726764136E+02  0.39080842568E+03  0.42798238718E+03  0.00000000000E+00 0. -1.
        -13    1    4    4    0    0 -0.18163526941E+03  0.95705628723E+02  0.27318165409E+03  0.34172965132E+03  0.00000000000E+00 0. -1.
         13    1    4    4    0    0 -0.65302154626E+02 -0.68532825269E+01  0.39421337307E+02  0.76585773582E+02  0.00000000000E+00 0.  1.
          1    1    1    2  501    0 -0.43883151069E+02 -0.94643255831E+01  0.67403834723E+02  0.80985068635E+02  0.00000000000E+00 0. -1.
<scales pt_clust_5="13000.00000" pt_clust_6="13000.00000" pt_clust_7="13000.00000" pt_clust_8="13000.00000" pt_clust_9="44.89214"></scales>
<clustering>
<clus scale="   44.892">  2  9  1 -1</clus>
<clus scale="   83.833">  5  6 -1 -1</clus>
<clus scale="   91.621">  7  8 -1 -1</clus>
<clus scale="  300.109">  1  5  2 -1</clus>
<clus scale="   44.892">  2  5  1 -1</clus>
</clustering>
</event>
<event>
 9    2  0.1723348E-004  0.9934414E+02  0.7546771E-02  0.1284821E+00
          2   -1    0    0  502    0 -0.00000000000E+00  0.00000000000E+00  0.21956599398E+03  0.21956599398E+03  0.00000000000E+00 0. -1.
         21   -1    0    0  501  502  0.00000000000E+00 -0.00000000000E+00 -0.84377202944E+02  0.84377202944E+02  0.00000000000E+00 0.  1.
         23    2    1    2    0    0  0.15532750927E+02 -0.20443091805E+02  0.22596936078E+02  0.98856393436E+02  0.92751165217E+02 0.  0.
         24    2    1    2    0    0 -0.54171442679E+02 -0.10354713430E+01  0.22286726558E+02  0.10454182156E+03  0.86583352166E+02 0.  0.
        -13    1    4    4    0    0 -0.69310759941E+02 -0.17915026225E+02 -0.16008522062E+01  0.71606510430E+02  0.00000000000E+00 0.  1.
         14    1    4    4    0    0  0.15139317262E+02  0.16879554882E+02  0.23887578764E+02  0.32935311133E+02  0.00000000000E+00 0. -1.
        -11    1    3    3    0    0 -0.14734838259E+02  0.25160664773E+02 -0.14669467744E+02  0.32639972338E+02  0.00000000000E+00 0.  1.
         11    1    3    3    0    0  0.30267589186E+02 -0.45603756578E+02  0.37266403823E+02  0.66216421098E+02  0.00000000000E+00 0. -1.
          1    1    1    2  501    0  0.38638691751E+02  0.21478563148E+02  0.90305128396E+02  0.10054498192E+03  0.00000000000E+00 0. -1.
<scales pt_clust_5="13000.00000" pt_clust_6="13000.00000" pt_clust_7="13000.00000" pt_clust_8="13000.00000" pt_clust_9="44.20723"></scales>
<clustering>
<clus scale="   44.207">  2  9  1 -1</clus>
<clus scale="   86.583">  5  6 -1 -1</clus>
<clus scale="   92.751">  7  8 -1 -1</clus>
<clus scale="   93.612">  2  5  1 -1</clus>
<clus scale="   44.207">  2  5  1 -1</clus>
</clustering>
</event>
<event>
 9    2  0.1723348E-004  0.1710443E+03  0.7546771E-02  0.1208990E+00
          2   -1    0    0  502    0 -0.00000000000E+00  0.00000000000E+00  0.40186101035E+03  0.40186101035E+03  0.00000000000E+00 0. -1.
         21   -1    0    0  501  502  0.00000000000E+00 -0.00000000000E+00 -0.48133928484E+03  0.48133928484E+03  0.00000000000E+00 0.  1.
         24    2    1    2    0    0 -0.16426197915E+02  0.18275969858E+02 -0.10713922586E+03  0.13627043380E+03  0.80541829851E+02 0.  0.
         23    2    1    2    0    0  0.14488398431E+03  0.15032790968E+02 -0.32640258210E+03  0.36881365946E+03  0.90925882368E+02 0.  0.
        -13    1    3    3    0    0 -0.42835260713E+02  0.18340622009E+02 -0.97668470626E+02  0.10821445435E+03  0.00000000000E+00 0.  1.
         14    1    3    3    0    0  0.26409062799E+02 -0.64652150477E-01 -0.94707552391E+01  0.28055979445E+02  0.00000000000E+00 0. -1.
        -13    1    4    4    0    0  0.13835877237E+03 -0.13812103067E+02 -0.29221198629E+03  0.32360743041E+03  0.00000000000E+00 0.  1.
         13    1    4    4    0    0  0.65252119368E+01  0.28844894035E+02 -0.34190595809E+02  0.45206229045E+02  0.00000000000E+00 0. -1.
          1    1    1    2  501    0 -0.12845778639E+03 -0.33308760827E+02  0.35406353348E+03  0.37811620195E+03  0.00000000000E+00 0. -1.
<scales pt_clust_5="13000.00000" pt_clust_6="13000.00000" pt_clust_7="13000.00000" pt_clust_8="13000.00000" pt_clust_9="144.87463"></scales>
<clustering>
<clus scale="   80.542">  5  6 -1 -1</clus>
<clus scale="   84.207">  1  5  2 -1</clus>
<clus scale="   90.926">  7  8 -1 -1</clus>
<clus scale="  144.875">  2  9  1 -1</clus>
<clus scale="  144.875">  2  5  1 -1</clus>
</clustering>
</event>
<event>
 9    2  0.1723348E-004  0.1128841E+03  0.7546771E-02  0.1260952E+00
         21   -1    0    0  501  502  0.00000000000E+00  0.00000000000E+00  0.15930672787E+03  0.15930672787E+03  0.00000000000E+00 0. -1.
          2   -1    0    0  502    0 -0.00000000000E+00 -0.00000000000E+00 -0.57467684994E+03  0.57467684994E+03  0.00000000000E+00 0. -1.
         24    2    1    2    0    0 -0.43297620280E+02 -0.88923675147E+02 -0.47700943358E+03  0.49363404597E+03  0.79714915138E+02 0.  0.
         23    2    1    2    0    0  0.41190736464E+02  0.20365141230E+02 -0.62068753756E+02  0.98898491040E+02  0.61781595880E+02 0.  0.
        -11    1    3    3    0    0 -0.55937269273E+02 -0.49083726322E+02 -0.19823101344E+03  0.21173975766E+03  0.00000000000E+00 0.  1.
         12    1    3    3    0    0  0.12639648993E+02 -0.39839948825E+02 -0.27877842014E+03  0.28189428832E+03  0.00000000000E+00 0. -1.
        -11    1    4    4    0    0 -0.74884835694E+01  0.21382682480E+02 -0.38130888119E+01  0.22974684818E+02  0.00000000000E+00 0. -1.
         11    1    4    4    0    0  0.48679220033E+02 -0.10175412500E+01 -0.58255664944E+02  0.75923806222E+02  0.00000000000E+00 0.  1.
          1    1    1    2  501    0  0.21068838165E+01  0.68558533917E+02  0.12370806526E+03  0.14145104080E+03  0.00000000000E+00 0. -1.
<scales pt_clust_5="13000.00000" pt_clust_6="13000.00000" pt_clust_7="13000.00000" pt_clust_8="13000.00000" pt_clust_9="68.59090"></scales>
<clustering>
<clus scale="   61.782">  7  8 -1 -1</clus>
<clus scale="   68.591">  1  9  2 -1</clus>
<clus scale="   79.715">  5  6 -1 -1</clus>
<clus scale="  101.021">  1  7  2 -1</clus>
<clus scale="   68.591">  1  5  2 -1</clus>
</clustering>
</event>
<event>
 9    2  0.1723348E-004  0.1166935E+03  0.7546771E-02  0.1253771E+00
          4   -1    0    0  502    0 -0.00000000000E+00  0.00000000000E+00  0.15538319118E+03  0.15538319118E+03  0.00000000000E+00 0. -1.
         21   -1    0    0  501  502  0.00000000000E+00 -0.00000000000E+00 -0.14642598644E+03  0.14642598644E+03  0.00000000000E+00 0.  1.
         23    2    1    2    0    0  0.73983032267E+02  0.15222453329E+00  0.68844106505E+02  0.13320856582E+03  0.86784208071E+02 0.  0.
         24    2    1    2    0    0 -0.84703374814E+02  0.21151270039E+02 -0.94676165414E+01  0.11282544755E+03  0.70837193073E+02 0.  0.
        -11    1    4    4    0    0 -0.70073676949E+02  0.19789946078E+02 -0.36956478076E+02  0.81656251682E+02  0.00000000000E+00 0.  1.
         12    1    4    4    0    0 -0.14629697865E+02  0.13613239612E+01  0.27488861534E+02  0.31169195867E+02  0.00000000000E+00 0. -1.
        -11    1    3    3    0    0  0.69580979585E+02 -0.24638161896E+02  0.77074412512E+02  0.10671933661E+03  0.00000000000E+00 0. -1.
         11    1    3    3    0    0  0.44020526817E+01  0.24790386430E+02 -0.82303060069E+01  0.26489229210E+02  0.00000000000E+00 0.  1.
          3    1    1    2  501    0  0.10720342548E+02 -0.21303494573E+02 -0.50419285219E+02  0.55775164252E+02  0.00000000000E+00 0. -1.
<scales pt_clust_5="13000.00000" pt_clust_6="13000.00000" pt_clust_7="13000.00000" pt_clust_8="13000.00000" pt_clust_9="23.84879"></scales>
<clustering>
<clus scale="   23.849">  2  9  1 -1</clus>
<clus scale="   70.837">  5  6 -1 -1</clus>
<clus scale="   86.784">  7  8 -1 -1</clus>
<clus scale="  105.375">  2  5  1 -1</clus>
<clus scale="   23.849">  2  5  1 -1</clus>
</clustering>
</event>
<event>
 9    2  0.1723348E-004  0.9357473E+02  0.7546771E-02  0.1299502E+00
         21   -1    0    0  501  502  0.00000000000E+00  0.00000000000E+00  0.45048786019E+02  0.45048786019E+02  0.00000000000E+00 0.  1.
         -1   -1    0    0    0  501 -0.00000000000E+00 -0.00000000000E+00 -0.51692810693E+03  0.51692810693E+03  0.00000000000E+00 0.  1.
         24    2    1    2    0    0 -0.40624176361E+02 -0.10921318062E+02 -0.27125425526E+03  0.28634747525E+03  0.81525497176E+02 0.  0.
         23    2    1    2    0    0 -0.40335666935E+02  0.72786603026E+01 -0.68065561567E+02  0.12025957731E+03  0.90274583021E+02 0.  0.
        -13    1    3    3    0    0 -0.37295452920E+02  0.29975749644E+02 -0.18075009867E+03  0.18697618711E+03  0.00000000000E+00 0.  1.
         14    1    3    3    0    0 -0.33287234413E+01 -0.40897067705E+02 -0.90504156590E+02  0.99371288141E+02  0.00000000000E+00 0. -1.
        -13    1    4    4    0    0 -0.14767077861E+02  0.46126593294E+02 -0.51985929593E+02  0.71051151104E+02  0.00000000000E+00 0. -1.
         13    1    4    4    0    0 -0.25568589074E+02 -0.38847932992E+02 -0.16079631974E+02  0.49208426203E+02  0.00000000000E+00 0.  1.
         -2    1    1    2    0  502  0.80959843296E+02  0.36426577589E+01 -0.13255950408E+03  0.15536984040E+03  0.00000000000E+00 0.  1.
<scales pt_clust_5="13000.00000" pt_clust_6="13000.00000" pt_clust_7="13000.00000" pt_clust_8="13000.00000" pt_clust_9="81.04179"></scales>
<clustering>
<clus scale="   81.042">  1  9  2 -1</clus>
<clus scale="   81.525">  5  6 -1 -1</clus>
<clus scale="   85.165">  2  5  1 -1</clus>
<clus scale="   90.275">  7  8 -1 -1</clus>
<clus scale="   81.042">  1  5  2 -1</clus>
</clustering>
</event>
<event>
 9    2  0.1723348E-004  0.1481294E+03  0.7546771E-02  0.1226436E+00
         -1   -1    0    0    0  501 -0.00000000000E+00  0.00000000000E+00  0.12985012022E+03  0.12985012022E+03  0.00000000000E+00 0.  1.
         21   -1    0    0  501  502  0.00000000000E+00 -0.00000000000E+00 -0.30138873291E+03  0.30138873291E+03  0.00000000000E+00 0.  1.
         24    2    1    2    0    0 -0.30541449060E+02  0.95382715765E+01 -0.11709296687E+03  0.14753364812E+03  0.83854968273E+02 0.  0.
         23    2    1    2    0    0 -0.86268928961E+02  0.38719147092E+02  0.25978052727E+02  0.13390061844E+03  0.91175742054E+02 0.  0.
        -13    1    3    3    0    0 -0.21550192786E+02  0.46242882179E+02 -0.77640605617E+02  0.92902522043E+02  0.00000000000E+00 0.  1.
         14    1    3    3    0    0 -0.89912562736E+01 -0.36704610602E+02 -0.39452361248E+02  0.54631126081E+02  0.00000000000E+00 0. -1.
        -11    1    4    4    0    0 -0.39029206999E+02  0.55458125450E+02 -0.14655165072E+02  0.69380519893E+02  0.00000000000E+00 0. -1.
         11    1    4    4    0    0 -0.47239721962E+02 -0.16738978358E+02  0.40633217799E+02  0.64520098545E+02  0.00000000000E+00 0.  1.
         -2    1    1    2    0  502  0.11681037802E+03 -0.48257418668E+02 -0.80423698546E+02  0.14980458657E+03  0.00000000000E+00 0.  1.
<scales pt_clust_5="13000.00000" pt_clust_6="13000.00000" pt_clust_7="13000.00000" pt_clust_8="13000.00000" pt_clust_9="116.74461"></scales>
<clustering>
<clus scale="   83.855">  5  6 -1 -1</clus>
<clus scale="   89.752">  1  5  2 -1</clus>
<clus scale="   91.176">  7  8 -1 -1</clus>
<clus scale="  116.745">  2  9  1 -1</clus>
<clus scale="  116.745">  2  5  1 -1</clus>
</clustering>
</event>
<event>
 9    2  0.1723348E-004  0.1126088E+03  0.7546771E-02  0.1259813E+00
         -3   -1    0    0    0  501 -0.00000000000E+00  0.00000000000E+00  0.71866542619E+03  0.71866542619E+03  0.00000000000E+00 0.  1.
         21   -1    0    0  501  502  0.00000000000E+00 -0.00000000000E+00 -0.30935879171E+02  0.30935879171E+02  0.00000000000E+00 0. -1.
         24    2    1    2    0    0 -0.33235449466E+02  0.81306080601E+02  0.35894558039E+03  0.37813384484E+03  0.80174815805E+02 0.  0.
         23    2    1    2    0    0  0.38541368284E+02 -0.15430202108E+02  0.14486155089E+03  0.17603143734E+03  0.90987195815E+02 0.  0.
        -13    1    3    3    0    0 -0.43410082470E+02  0.46108626180E+02  0.31313171224E+03  0.31947129743E+03  0.00000000000E+00 0.  1.
         14    1    3    3    0    0  0.10174633004E+02  0.35197454421E+02  0.45813868149E+02  0.58662547416E+02  0.00000000000E+00 0. -1.
        -13    1    4    4    0    0  0.60559621174E+02 -0.10481011704E+02  0.14007029956E+03  0.15296080590E+03  0.00000000000E+00 0.  1.
         13    1    4    4    0    0 -0.22018252889E+02 -0.49491904045E+01  0.47912513263E+01  0.23070631444E+02  0.00000000000E+00 0. -1.
         -4    1    1    2    0  502 -0.53059188181E+01 -0.65875878493E+02  0.18392241574E+03  0.19543602318E+03  0.00000000000E+00 0.  1.
<scales pt_clust_5="13000.00000" pt_clust_6="13000.00000" pt_clust_7="13000.00000" pt_clust_8="13000.00000" pt_clust_9="66.08925"></scales>
<clustering>
<clus scale="   66.089">  2  9  1 -1</clus>
<clus scale="   80.175">  5  6 -1 -1</clus>
<clus scale="   90.987">  7  8 -1 -1</clus>
<clus scale="  104.068">  1  5  2 -1</clus>
<clus scale="   66.089">  2  5  1 -1</clus>
</clustering>
</event>
<event>
 9    2  0.1723348E-004  0.1772128E+03  0.7546771E-02  0.1197301E+00
          2   -1    0    0  502    0 -0.00000000000E+00  0.00000000000E+00  0.11949299523E+04  0.11949299523E+04  0.00000000000E+00 0. -1.
         21   -1    0    0  501  502  0.00000000000E+00 -0.00000000000E+00 -0.39938721660E+02  0.39938721660E+02  0.00000000000E+00 0.  1.
         23    2    1    2    0    0  0.29527602049E+02  0.19122153876E+02  0.30454895108E+03  0.31976540180E+03  0.90897263617E+02 0.  0.
         24    2    1    2    0    0  0.15865687894E+02 -0.16560653302E+03  0.43946111132E+03  0.47644196232E+03  0.78699626828E+02 0.  0.
        -11    1    4    4    0    0  0.10927819806E+02 -0.17397220048E+03  0.41740923124E+03  0.45234523333E+03  0.00000000000E+00 0.  1.
         12    1    4    4    0    0  0.49378680882E+01  0.83656674560E+01  0.22051880076E+02  0.24096728993E+02  0.00000000000E+00 0. -1.
        -11    1    3    3    0    0 -0.17460726503E+02 -0.26192964613E+02  0.11790392495E+03  0.12203394562E+03  0.00000000000E+00 0.  1.
         11    1    3    3    0    0  0.46988328552E+02  0.45315118489E+02  0.18664502613E+03  0.19773145618E+03  0.00000000000E+00 0. -1.
          1    1    1    2  501    0 -0.45393289944E+02  0.14648437915E+03  0.41098116824E+03  0.43866130985E+03  0.00000000000E+00 0. -1.
<scales pt_clust_5="13000.00000" pt_clust_6="13000.00000" pt_clust_7="13000.00000" pt_clust_8="13000.00000" pt_clust_9="158.77899"></scales>
<clustering>
<clus scale="   78.700">  5  6 -1 -1</clus>
<clus scale="   90.897">  7  8 -1 -1</clus>
<clus scale="   97.467">  1  7  2 -1</clus>
<clus scale="  158.779">  2  9  1 -1</clus>
<clus scale="  158.779">  2  5  1 -1</clus>
</clustering>
</event>
<event>
 9    2  0.1723348E-004  0.2692147E+03  0.7546771E-02  0.1138793E+00
         21   -1    0    0  501  502  0.00000000000E+00  0.00000000000E+00  0.10542048454E+03  0.10542048454E+03  0.00000000000E+00 0. -1.
          2   -1    0    0  502    0 -0.00000000000E+00 -0.00000000000E+00 -0.18887641067E+04  0.18887641067E+04  0.00000000000E+00 0. -1.
         23    2    1    2    0    0  0.21075141962E+02  0.55110378902E+02  0.25066703624E+02  0.10947357884E+03  0.88740122620E+02 0.  0.
         24    2    1    2    0    0  0.23759485023E+03 -0.99178871237E+02 -0.92770251480E+03  0.96574504718E+03  0.75787722238E+02 0.  0.
        -11    1    4    4    0    0  0.19814022970E+02  0.10316058607E+02 -0.12002070591E+03  0.12208188407E+03  0.00000000000E+00 0.  1.
         12    1    4    4    0    0  0.21778082726E+03 -0.10949492984E+03 -0.80768180889E+03  0.84366316311E+03  0.00000000000E+00 0. -1.
        -11    1    3    3    0    0 -0.78245891766E+01  0.42808764396E+02  0.52204917996E+02  0.67964461065E+02  0.00000000000E+00 0. -1.
         11    1    3    3    0    0  0.28899731139E+02  0.12301614506E+02 -0.27138214372E+02  0.41509117777E+02  0.00000000000E+00 0.  1.
          1    1    1    2  501    0 -0.25866999219E+03  0.44068492335E+02 -0.88070781095E+03  0.91896596517E+03  0.00000000000E+00 0. -1.
<scales pt_clust_5="13000.00000" pt_clust_6="13000.00000" pt_clust_7="13000.00000" pt_clust_8="13000.00000" pt_clust_9="258.32686"></scales>
<clustering>
<clus scale="   75.788">  5  6 -1 -1</clus>
<clus scale="   88.740">  7  8 -1 -1</clus>
<clus scale="  106.565">  2  7  1 -1</clus>
<clus scale="  258.327">  1  9  2 -1</clus>
<clus scale="  258.327">  1  5  2 -1</clus>
</clustering>
</event>
<event>
 9    2  0.1723348E-004  0.1775186E+03  0.7546771E-02  0.1173515E+00
          2   -1    0    0  502    0 -0.00000000000E+00  0.00000000000E+00  0.33405878516E+03  0.33405878516E+03  0.00000000000E+00 0. -1.
         21   -1    0    0  501  502  0.00000000000E+00 -0.00000000000E+00 -0.22687825650E+03  0.22687825650E+03  0.00000000000E+00 0. -1.
         23    2    1    2    0    0 -0.29861381674E+02 -0.12548021047E+03  0.15171865969E+03  0.22474865094E+03  0.10419414124E+03 0.  0.
         24    2    1    2    0    0  0.88774518034E+02  0.19202029856E+03 -0.80648383279E+02  0.24025981689E+03  0.80423303673E+02 0.  0.
        -11    1    4    4    0    0 -0.64038516407E+01  0.63607883631E+02 -0.39718467736E+02  0.75263064349E+02  0.00000000000E+00 0.  1.
         12    1    4    4    0    0  0.95178369674E+02  0.12841241493E+03 -0.40929915543E+02  0.16499675254E+03  0.00000000000E+00 0. -1.
        -11    1    3    3    0    0 -0.22535614600E+02  0.10673857887E+02  0.45586985321E+02  0.51961123912E+02  0.00000000000E+00 0.  1.
         11    1    3    3    0    0 -0.73257670737E+01 -0.13615406835E+03  0.10613167437E+03  0.17278752703E+03  0.00000000000E+00 0. -1.
          1    1    1    2  501    0 -0.58913136360E+02 -0.66540088097E+02  0.36110252245E+02  0.95928573830E+02  0.00000000000E+00 0. -1.
<scales pt_clust_5="13000.00000" pt_clust_6="13000.00000" pt_clust_7="13000.00000" pt_clust_8="13000.00000" pt_clust_9="88.87266"></scales>
<clustering>
<clus scale="   80.423">  5  6 -1 -1</clus>
<clus scale="   88.873">  2  9  1 -1</clus>
<clus scale="  104.194">  7  8 -1 -1</clus>
<clus scale="  164.695">  2  5  1 -1</clus>
<clus scale="   88.873">  2  5  1 -1</clus>
</clustering>
</event>
<event>
 9    2  0.1723348E-004  0.1421194E+03  0.7546771E-02  0.1225736E+00
         21   -1    0    0  501  502  0.00000000000E+00  0.00000000000E+00  0.64067504091E+03  0.64067504091E+03  0.00000000000E+00 0.  1.
         -3   -1    0    0    0  501 -0.00000000000E+00 -0.00000000000E+00 -0.66098211689E+02  0.66098211689E+02  0.00000000000E+00 0.  1.
         23    2    1    2    0    0  0.47670464179E+02  0.23970525306E+02  0.49981969115E+02  0.11459051599E+03  0.88236783031E+02 0.  0.
         24    2    1    2    0    0  0.52094776437E+02 -0.97076193297E+02  0.17931486908E+03  0.22541876055E+03  0.80759781452E+02 0.  0.
        -13    1    4    4    0    0  0.99058572314E+00 -0.59121024753E+02  0.37622406862E+02  0.70083680883E+02  0.00000000000E+00 0.  1.
         14    1    4    4    0    0  0.51104190714E+02 -0.37955168543E+02  0.14169246222E+03  0.15533507967E+03  0.00000000000E+00 0. -1.
        -11    1    3    3    0    0  0.30839006972E+02 -0.24133395071E+02  0.50148668012E+02  0.63626676889E+02  0.00000000000E+00 0. -1.
         11    1    3    3    0    0  0.16831457207E+02  0.48103920377E+02 -0.16669889702E+00  0.50963839100E+02  0.00000000000E+00 0.  1.
         -4    1    1    2    0  502 -0.99765240616E+02  0.73105667991E+02  0.34527999103E+03  0.36676397605E+03  0.00000000000E+00 0.  1.
<scales pt_clust_5="13000.00000" pt_clust_6="13000.00000" pt_clust_7="13000.00000" pt_clust_8="13000.00000" pt_clust_9="116.94355"></scales>
<clustering>
<clus scale="   80.760">  5  6 -1 -1</clus>
<clus scale="   88.237">  7  8 -1 -1</clus>
<clus scale="  103.115">  2  7  1 -1</clus>
<clus scale="  116.944">  1  9  2 -1</clus>
<clus scale="  116.944">  1  5  2 -1</clus>
</clustering>
</event>
<event>
 9    2  0.1723348E-004  0.9318160E+02  0.7546771E-02  0.1302998E+00
         -1   -1    0    0    0  501 -0.00000000000E+00  0.00000000000E+00  0.41806141097E+03  0.41806141097E+03  0.00000000000E+00 0.  1.
         21   -1    0    0  501  502  0.00000000000E+00 -0.00000000000E+00 -0.44403455253E+02  0.44403455253E+02  0.00000000000E+00 0.  1.
         23    2    1    2    0    0  0.11415182223E+02 -0.17122843020E+02  0.18825945872E+03  0.21017608637E+03  0.91152977718E+02 0.  0.
         24    2    1    2    0    0 -0.25526605759E+02 -0.22580812694E+01  0.19773632648E+02  0.84937806769E+02  0.78528516719E+02 0.  0.
        -13    1    4    4    0    0 -0.52766064949E+02  0.82518245042E+01  0.12793141086E+02  0.54918254495E+02  0.00000000000E+00 0.  1.
         14    1    4    4    0    0  0.27239459190E+02 -0.10509905774E+02  0.69804915619E+01  0.30019552275E+02  0.00000000000E+00 0. -1.
        -11    1    3    3    0    0  0.17140411925E+02  0.35415693915E+02  0.97674554108E+02  0.10530139418E+03  0.00000000000E+00 0. -1.
         11    1    3    3    0    0 -0.57252297020E+01 -0.52538536935E+02  0.90584904607E+02  0.10487469219E+03  0.00000000000E+00 0.  1.
         -2    1    1    2    0  502  0.14111423537E+02  0.19380924289E+02  0.16562486436E+03  0.16735097309E+03  0.00000000000E+00 0.  1.
<scales pt_clust_5="13000.00000" pt_clust_6="13000.00000" pt_clust_7="13000.00000" pt_clust_8="13000.00000" pt_clust_9="23.97401"></scales>
<clustering>
<clus scale="   23.974">  2  9  1 -1</clus>
<clus scale="   78.529">  5  6 -1 -1</clus>
<clus scale="   80.874">  2  5  1 -1</clus>
<clus scale="   91.153">  7  8 -1 -1</clus>
<clus scale="   23.974">  2  5  1 -1</clus>
</clustering>
</event>
<event>
 9    2  0.1723348E-004  0.1776002E+03  0.7546771E-02  0.1192037E+00
          2   -1    0    0  502    0 -0.00000000000E+00  0.00000000000E+00  0.74943810063E+03  0.74943810063E+03  0.00000000000E+00 0. -1.
         21   -1    0    0  501  502  0.00000000000E+00 -0.00000000000E+00 -0.99159687105E+02  0.99159687105E+02  0.00000000000E+00 0.  1.
         24    2    1    2    0    0 -0.31594523877E+01  0.73293588601E+02  0.31001247080E+03  0.32850744994E+03  0.80171568207E+02 0.  0.
         23    2    1    2    0    0  0.76672544546E+02  0.11165430441E+03  0.56526693770E+02  0.17351010286E+03  0.92547965421E+02 0.  0.
        -11    1    3    3    0    0  0.22163745764E+02  0.74471028787E+02  0.27150790946E+03  0.28240699470E+03  0.00000000000E+00 0.  1.
         12    1    3    3    0    0 -0.25323198151E+02 -0.11774401860E+01  0.38504561336E+02  0.46100455243E+02  0.00000000000E+00 0. -1.
        -13    1    4    4    0    0  0.39075262448E+02  0.23626742903E+02 -0.21068598803E+02  0.50289014418E+02  0.00000000000E+00 0.  1.
         13    1    4    4    0    0  0.37597282098E+02  0.88027561510E+02  0.77595292573E+02  0.12322108844E+03  0.00000000000E+00 0. -1.
          1    1    1    2  501    0 -0.73513092158E+02 -0.18494789301E+03  0.28373924895E+03  0.34658023493E+03  0.00000000000E+00 0. -1.
<scales pt_clust_5="13000.00000" pt_clust_6="13000.00000" pt_clust_7="13000.00000" pt_clust_8="13000.00000" pt_clust_9="151.58076"></scales>
<clustering>
<clus scale="   80.172">  5  6 -1 -1</clus>
<clus scale="   92.548">  7  8 -1 -1</clus>
<clus scale="  108.671">  1  5  2 -1</clus>
<clus scale="  151.581">  2  9  1 -1</clus>
<clus scale="  151.581">  2  5  1 -1</clus>
</clustering>
</event>
<event>
 9    2  0.1723348E-004  0.1560247E+03  0.7546771E-02  0.1207890E+00
         21   -1    0    0  501  502  0.00000000000E+00  0.00000000000E+00  0.52940052878E+02  0.52940052878E+02  0.00000000000E+00 0. -1.
          2   -1    0    0  502    0 -0.00000000000E+00 -0.00000000000E+00 -0.11527563813E+04  0.11527563813E+04  0.00000000000E+00 0. -1.
         24    2    1    2    0    0 -0.67836839669E+02  0.40585673467E+02 -0.71435166218E+03  0.72332539011E+03  0.81561565852E+02 0.  0.
         23    2    1    2    0    0 -0.65560407267E+02 -0.85941838710E+02 -0.23574708333E+03  0.27678076742E+03  0.96678535743E+02 0.  0.
        -11    1    3    3    0    0 -0.27996980733E+02  0.44102401305E+02 -0.17859594721E+03  0.18607892167E+03  0.00000000000E+00 0.  1.
         12    1    3    3    0    0 -0.39839858936E+02 -0.35167278380E+01 -0.53575571497E+03  0.53724646845E+03  0.00000000000E+00 0. -1.
        -13    1    4    4    0    0 -0.66072104883E+01 -0.19622182006E+02  0.40460512731E+01  0.21096345371E+02  0.00000000000E+00 0.  1.
         13    1    4    4    0    0 -0.58953196778E+02 -0.66319656704E+02 -0.23979313461E+03  0.25568442205E+03  0.00000000000E+00 0. -1.
          1    1    1    2  501    0  0.13339724694E+03  0.45356165243E+02 -0.14971758291E+03  0.20559027664E+03  0.00000000000E+00 0. -1.
<scales pt_clust_5="13000.00000" pt_clust_6="13000.00000" pt_clust_7="13000.00000" pt_clust_8="13000.00000" pt_clust_9="122.46207"></scales>
<clustering>
<clus scale="   81.562">  5  6 -1 -1</clus>
<clus scale="   96.679">  7  8 -1 -1</clus>
<clus scale="  113.584">  2  5  1 -1</clus>
<clus scale="  122.462">  1  9  2 -1</clus>
<clus scale="  122.462">  1  5  2 -1</clus>
</clustering>
</event>
<event>
 9    2  0.1723348E-004  0.1207557E+03  0.7546771E-02  0.1261423E+00
         21   -1    0    0  501  502  0.00000000000E+00  0.00000000000E+00  0.11257711547E+03  0.11257711547E+03  0.00000000000E+00 0. -1.
          2   -1    0    0  502    0 -0.00000000000E+00 -0.00000000000E+00 -0.53087102582E+03  0.53087102582E+03  0.00000000000E+00 0. -1.
         24    2    1    2    0    0  0.13047066329E+00  0.49705575436E+01 -0.17581560634E+03  0.19389913174E+03  0.81615086784E+02 0.  0.
         23    2    1    2    0    0  0.80919851596E+01  0.82224976632E+02  0.60095393309E+02  0.13455454568E+03  0.87561649485E+02 0.  0.
        -13    1    3    3    0    0  0.17412463294E+02  0.37628155937E+02 -0.65111178244E+02  0.77191563849E+02  0.00000000000E+00 0.  1.
         14    1    3    3    0    0 -0.17281992630E+02 -0.32657598393E+02 -0.11070442810E+03  0.11670756789E+03  0.00000000000E+00 0. -1.
        -13    1    4    4    0    0 -0.12758063091E+02  0.78611224465E+02  0.10115558430E+02  0.80279619506E+02  0.00000000000E+00 0. -1.
         13    1    4    4    0    0  0.20850048251E+02  0.36137521678E+01  0.49979834879E+02  0.54274926175E+02  0.00000000000E+00 0.  1.
          1    1    1    2  501    0 -0.82224558229E+01 -0.87195534176E+02 -0.30257369731E+03  0.31499446386E+03  0.00000000000E+00 0. -1.
<scales pt_clust_5="13000.00000" pt_clust_6="13000.00000" pt_clust_7="13000.00000" pt_clust_8="13000.00000" pt_clust_9="83.15586"></scales>
<clustering>
<clus scale="   81.615">  5  6 -1 -1</clus>
<clus scale="   81.766">  2  5  1 -1</clus>
<clus scale="   83.156">  1  9  2 -1</clus>
<clus scale="   87.562">  7  8 -1 -1</clus>
<clus scale="   83.156">  1  5  2 -1</clus>
</clustering>
</event>
<event>
 9    2  0.1723348E-004  0.9934714E+02  0.7546771E-02  0.1282133E+00
         21   -1    0    0  501  502  0.00000000000E+00  0.00000000000E+00  0.65280736218E+02  0.65280736218E+02  0.00000000000E+00 0.  1.
         -3   -1    0    0    0  501 -0.00000000000E+00 -0.00000000000E+00 -0.29647935969E+03  0.29647935969E+03  0.00000000000E+00 0.  1.
         23    2    1    2    0    0  0.12974283762E+02  0.35097166131E+02 -0.10934375757E+03  0.14773476488E+03  0.92029127595E+02 0.  0.
         24    2    1    2    0    0 -0.62661844839E+02  0.52298022453E+01 -0.64646046075E+02  0.12818846732E+03  0.91100572179E+02 0.  0.
        -13    1    4    4    0    0 -0.85596893269E+02 -0.39017808967E+01 -0.54161060693E+02  0.10136800544E+03  0.00000000000E+00 0.  1.
         14    1    4    4    0    0  0.22935048430E+02  0.91315831420E+01 -0.10484985382E+02  0.26820461883E+02  0.00000000000E+00 0. -1.
        -11    1    3    3    0    0 -0.32234440321E+02  0.40712792420E+02 -0.43913715575E+02  0.68007389488E+02  0.00000000000E+00 0.  1.
         11    1    3    3    0    0  0.45208724083E+02 -0.56156262889E+01 -0.65430041997E+02  0.79727375396E+02  0.00000000000E+00 0. -1.
         -4    1    1    2    0  502  0.49687561077E+02 -0.40326968376E+02 -0.57208819826E+02  0.85836863701E+02  0.00000000000E+00 0.  1.
<scales pt_clust_5="13000.00000" pt_clust_6="13000.00000" pt_clust_7="13000.00000" pt_clust_8="13000.00000" pt_clust_9="63.99314"></scales>
<clustering>
<clus scale="   63.993">  1  9  2 -1</clus>
<clus scale="   91.101">  5  6 -1 -1</clus>
<clus scale="   92.029">  7  8 -1 -1</clus>
<clus scale="   98.488">  1  5  2 -1</clus>
<clus scale="   63.993">  1  5  2 -1</clus>
</clustering>
</event>
<event>
 9    2  0.1723348E-004  0.1025531E+03  0.7546771E-02  0.1279083E+00
         21   -1    0    0  501  502  0.00000000000E+00  0.00000000000E+00  0.66312370241E+03  0.66312370241E+03  0.00000000000E+00 0.  1.
         -1   -1    0    0    0  501 -0.00000000000E+00 -0.00000000000E+00 -0.36040015596E+02  0.36040015596E+02  0.00000000000E+00 0.  1.
         24    2    1    2    0    0 -0.89531389473E+01 -0.51486363989E+02  0.27942358592E+03  0.29559245775E+03  0.81033057090E+02 0.  0.
         23    2    1    2    0    0 -0.20035950465E+02  0.46317710414E+02  0.35785636225E+03  0.37240964877E+03  0.89894387358E+02 0.  0.
        -11    1    3    3    0    0 -0.24031722362E+01 -0.62098039168E+02  0.11517379917E+03  0.13086995729E+03  0.00000000000E+00 0.  1.
         12    1    3    3    0    0 -0.65499667111E+01  0.10611675178E+02  0.16424978674E+03  0.16472250046E+03  0.00000000000E+00 0. -1.
        -11    1    4    4    0    0 -0.48472819996E+02  0.38936883014E+02  0.31062627487E+03  0.31678759094E+03  0.00000000000E+00 0.  1.
         11    1    4    4    0    0  0.28436869531E+02  0.73808274004E+01  0.47230087387E+02  0.55622057822E+02  0.00000000000E+00 0. -1.
         -2    1    1    2    0  502  0.28989089413E+02  0.51686535746E+01 -0.10196261356E+02  0.31161611486E+02  0.00000000000E+00 0.  1.
<scales pt_clust_5="13000.00000" pt_clust_6="13000.00000" pt_clust_7="13000.00000" pt_clust_8="13000.00000" pt_clust_9="29.44628"></scales>
<clustering>
<clus scale="   29.446">  1  9  2 -1</clus>
<clus scale="   81.033">  5  6 -1 -1</clus>
<clus scale="   89.894">  7  8 -1 -1</clus>
<clus scale="   94.881">  2  5  1 -1</clus>
<clus scale="   29.446">  1  5  2 -1</clus>
</clustering>
</event>
<event>
 9    2  0.1723348E-004  0.1249446E+03  0.7546771E-02  0.1246440E+00
          2   -1    0    0  502    0 -0.00000000000E+00  0.00000000000E+00  0.31054120032E+03  0.31054120032E+03  0.00000000000E+00 0. -1.
         21   -1    0    0  501  502  0.00000000000E+00 -0.00000000000E+00 -0.11981605129E+03  0.11981605129E+03  0.00000000000E+00 0.  1.
         23    2    1    2    0    0 -0.21791005845E+02 -0.17438706703E+02  0.18334546535E+03  0.20854946300E+03  0.95385336535E+02 0.  0.
         24    2    1    2    0    0 -0.56518824473E+02 -0.56034954642E+02  0.10481753276E+02  0.11438138928E+03  0.81479699317E+02 0.  0.
        -13    1    4    4    0    0 -0.45070200775E+02 -0.76172342575E+02  0.17409493192E+02  0.90203321582E+02  0.00000000000E+00 0.  1.
         14    1    4    4    0    0 -0.11448623699E+02  0.20137387933E+02 -0.69277399155E+01  0.24178067700E+02  0.00000000000E+00 0. -1.
        -13    1    3    3    0    0 -0.16711757732E+02 -0.41158862279E+02  0.17832866093E+03  0.18377825252E+03  0.00000000000E+00 0. -1.
         13    1    3    3    0    0 -0.50792481121E+01  0.23720155576E+02  0.50168044185E+01  0.24771210477E+02  0.00000000000E+00 0.  1.
          1    1    1    2  501    0  0.78309830318E+02  0.73473661345E+02 -0.31020695958E+01  0.10742639932E+03  0.00000000000E+00 0. -1.
<scales pt_clust_5="13000.00000" pt_clust_6="13000.00000" pt_clust_7="13000.00000" pt_clust_8="13000.00000" pt_clust_9="94.72185"></scales>
<clustering>
<clus scale="   81.480">  5  6 -1 -1</clus>
<clus scale="   95.385">  7  8 -1 -1</clus>
<clus scale="   99.385">  1  7  2 -1</clus>
<clus scale="   94.722">  2  9  1 -1</clus>
<clus scale="   94.722">  2  5  1 -1</clus>
</clustering>
</event>
<event>
 9    2  0.1723348E-004  0.1937316E+03  0.7546771E-02  0.1185232E+00
          2   -1    0    0  502    0 -0.00000000000E+00  0.00000000000E+00  0.59918674115E+03  0.59918674115E+03  0.00000000000E+00 0. -1.
         21   -1    0    0  501  502  0.00000000000E+00 -0.00000000000E+00 -0.13925002135E+03  0.13925002135E+03  0.00000000000E+00 0. -1.
         23    2    1    2    0    0  0.37308024724E+02  0.41698624012E+02  0.32156973069E+03  0.33597991006E+03  0.79653903301E+02 0.  0.
         24    2    1    2    0    0  0.67038440720E+02  0.12712995476E+03  0.11858988748E+03  0.20300157523E+03  0.80559916844E+02 0.  0.
        -13    1    4    4    0    0  0.28411300027E+02  0.64467197612E+00  0.54038001827E+01  0.28927817539E+02  0.00000000000E+00 0.  1.
         14    1    4    4    0    0  0.38627140693E+02  0.12648528278E+03  0.11318608729E+03  0.17407375769E+03  0.00000000000E+00 0. -1.
        -11    1    3    3    0    0  0.44043429807E+02 -0.36150675455E+01  0.22229201241E+03  0.22664207731E+03  0.00000000000E+00 0. -1.
         11    1    3    3    0    0 -0.67354050829E+01  0.45313691557E+02  0.99277718280E+02  0.10933783275E+03  0.00000000000E+00 0.  1.
          1    1    1    2  501    0 -0.10434646544E+03 -0.16882857877E+03  0.19777101628E+02  0.19945527722E+03  0.00000000000E+00 0. -1.
<scales pt_clust_5="13000.00000" pt_clust_6="13000.00000" pt_clust_7="13000.00000" pt_clust_8="13000.00000" pt_clust_9="176.18753"></scales>
<clustering>
<clus scale="   79.654">  7  8 -1 -1</clus>
<clus scale="   80.560">  5  6 -1 -1</clus>
<clus scale="   97.342">  1  7  2 -1</clus>
<clus scale="  176.188">  2  9  1 -1</clus>
<clus scale="  176.188">  2  5  1 -1</clus>
</clustering>
</event>
<event>
 9    2  0.1723348E-004  0.1338640E+03  0.7546771E-02  0.1223840E+00
         21   -1    0    0  501  502  0.00000000000E+00  0.00000000000E+00  0.36262637610E+02  0.36262637610E+02  0.00000000000E+00 0.  1.
          2   -1    0    0  502    0 -0.00000000000E+00 -0.00000000000E+00 -0.11985663666E+04  0.11985663666E+04  0.00000000000E+00 0. -1.
         24    2    1    2    0    0  0.10242651531E+03 -0.36170153477E+02 -0.61413283601E+03  0.62865516959E+03  0.79048788328E+02 0.  0.
         23    2    1    2    0    0 -0.98601271958E+02 -0.69041397349E+02 -0.37526626841E+03  0.40373838291E+03  0.87698256820E+02 0.  0.
        -13    1    3    3    0    0  0.11136118639E+03 -0.24801256361E+02 -0.58622649479E+03  0.59722518312E+03  0.00000000000E+00 0.  1.
         14    1    3    3    0    0 -0.89346710878E+01 -0.11368897116E+02 -0.27906341221E+02  0.31429986469E+02  0.00000000000E+00 0. -1.
        -11    1    4    4    0    0 -0.19663286944E+02  0.54300417526E+01 -0.10051972073E+02  0.22741423646E+02  0.00000000000E+00 0. -1.
         11    1    4    4    0    0 -0.78937985014E+02 -0.74471439101E+02 -0.36521429634E+03  0.38099695927E+03  0.00000000000E+00 0.  1.
          1    1    1    2  501    0 -0.38252433477E+01  0.10521155083E+03 -0.17290462457E+03  0.20243545171E+03  0.00000000000E+00 0. -1.
<scales pt_clust_5="13000.00000" pt_clust_6="13000.00000" pt_clust_7="13000.00000" pt_clust_8="13000.00000" pt_clust_9="105.28107"></scales>
<clustering>
<clus scale="   79.049">  5  6 -1 -1</clus>
<clus scale="   87.698">  7  8 -1 -1</clus>
<clus scale="  105.281">  1  9  2 -1</clus>
<clus scale="  128.364">  2  5  1 -1</clus>
<clus scale="  105.281">  1  5  2 -1</clus>
</clustering>
</event>
<event>
 9    2  0.1723348E-004  0.1181979E+03  0.7546771E-02  0.1250160E+00
          2   -1    0    0  502    0 -0.00000000000E+00  0.00000000000E+00  0.30589468296E+03  0.30589468296E+03  0.00000000000E+00 0. -1.
         21   -1    0    0  501  502  0.00000000000E+00 -0.00000000000E+00 -0.76156243476E+02  0.76156243476E+02  0.00000000000E+00 0.  1.
         24    2    1    2    0    0 -0.30506194764E+02 -0.77693954365E+02  0.17244597952E+03  0.20757263712E+03  0.79886202575E+02 0.  0.
         23    2    1    2    0    0 -0.13609035843E+02  0.55710545866E+02  0.14970552518E+02  0.10951239311E+03  0.92086785290E+02 0.  0.
        -11    1    3    3    0    0 -0.21691457715E+02  0.30869920437E+01  0.65898039708E+01  0.22879562366E+02  0.00000000000E+00 0.  1.
         12    1    3    3    0    0 -0.88147370494E+01 -0.80780946408E+02  0.16585617555E+03  0.18469307475E+03  0.00000000000E+00 0. -1.
        -13    1    4    4    0    0  0.20793155390E+02 -0.73566818871E-01 -0.25177536647E+02  0.32653775812E+02  0.00000000000E+00 0.  1.
         13    1    4    4    0    0 -0.34402191233E+02  0.55784112685E+02  0.40148089165E+02  0.76858617300E+02  0.00000000000E+00 0. -1.
          1    1    1    2  501    0  0.44115230607E+02  0.21983408499E+02  0.42321907445E+02  0.64965896211E+02  0.00000000000E+00 0. -1.
<scales pt_clust_5="13000.00000" pt_clust_6="13000.00000" pt_clust_7="13000.00000" pt_clust_8="13000.00000" pt_clust_9="49.28921"></scales>
<clustering>
<clus scale="   49.289">  2  9  1 -1</clus>
<clus scale="   79.886">  5  6 -1 -1</clus>
<clus scale="   92.087">  7  8 -1 -1</clus>
<clus scale="  108.961">  1  5  2 -1</clus>
<clus scale="   49.289">  2  5  1 -1</clus>
</clustering>
</event>
<event>
 9    2  0.1723348E-004  0.9174607E+02  0.7546771E-02  0.1303386E+00
         21   -1    0    0  501  502  0.00000000000E+00  0.00000000000E+00  0.29193482234E+02  0.29193482234E+02  0.00000000000E+00 0. -1.
          4   -1    0    0  502    0 -0.00000000000E+00 -0.00000000000E+00 -0.42621458165E+03  0.42621458165E+03  0.00000000000E+00 0. -1.
         23    2    1    2    0    0  0.12382715223E+02 -0.50500572291E+01 -0.12281369251E+03  0.15182307904E+03  0.88250833119E+02 0.  0.
         24    2    1    2    0    0 -0.24303297953E+02  0.27929226192E+02 -0.13087040547E+03  0.15794483706E+03  0.80304523911E+02 0.  0.
        -11    1    4    4    0    0 -0.48391268028E+02  0.71897092177E+01 -0.45350758065E+02  0.66709054836E+02  0.00000000000E+00 0.  1.
         12    1    4    4    0    0  0.24087970076E+02  0.20739516975E+02 -0.85519647403E+02  0.91235782228E+02  0.00000000000E+00 0. -1.
        -11    1    3    3    0    0 -0.23667634124E+01 -0.36251594833E+02 -0.10857077477E+03  0.11448752260E+03  0.00000000000E+00 0.  1.
         11    1    3    3    0    0  0.14749478635E+02  0.31201537604E+02 -0.14242917744E+02  0.37335556440E+02  0.00000000000E+00 0. -1.
          3    1    1    2  501    0  0.11920582730E+02 -0.22879168963E+02 -0.14333700144E+03  0.14564014778E+03  0.00000000000E+00 0. -1.
<scales pt_clust_5="13000.00000" pt_clust_6="13000.00000" pt_clust_7="13000.00000" pt_clust_8="13000.00000" pt_clust_9="25.79840"></scales>
<clustering>
<clus scale="   25.798">  1  9  2 -1</clus>
<clus scale="   80.305">  5  6 -1 -1</clus>
<clus scale="   84.131">  1  5  2 -1</clus>
<clus scale="   88.251">  7  8 -1 -1</clus>
<clus scale="   25.798">  1  5  2 -1</clus>
</clustering>
</event>
<event>
 9    2  0.3286761E-004  0.9820676E+02  0.7546771E-02  0.1286171E+00
          2   -1    0    0  502    0 -0.00000000000E+00  0.00000000000E+00  0.29936351625E+03  0.29936351625E+03  0.00000000000E+00 0. -1.
         21   -1    0    0  501  502  0.00000000000E+00 -0.00000000000E+00 -0.25851196018E+03  0.25851196018E+03  0.00000000000E+00 0.  1.
         23    2    1    2    0    0 -0.12440325215E+02  0.30368207676E+02  0.15817734625E+03  0.18382103149E+03  0.87710370081E+02 0.  0.
         24    2    1    2    0    0  0.10196930027E+02 -0.79167131837E+02 -0.22503459554E+03  0.25578545250E+03  0.91729037800E+02 0.  0.
        -13    1    4    4    0    0 -0.50763373185E+01 -0.86590989493E+02 -0.22225006034E+03  0.23857673395E+03  0.00000000000E+00 0.  1.
         14    1    4    4    0    0  0.15273267345E+02  0.74238576551E+01 -0.27845352028E+01  0.17208718551E+02  0.00000000000E+00 0. -1.
        -11    1    3    3    0    0  0.68407496397E+01 -0.29730495463E+02  0.53571201722E+02  0.61648778333E+02  0.00000000000E+00 0.  1.
         11    1    3    3    0    0 -0.19281074855E+02  0.60098703138E+02  0.10460614453E+03  0.12217225315E+03  0.00000000000E+00 0. -1.
          1    1    1    2  501    0  0.22433951884E+01  0.48798924162E+02  0.10770880536E+03  0.11826899244E+03  0.00000000000E+00 0. -1.
<scales pt_clust_5="13000.00000" pt_clust_6="13000.00000" pt_clust_7="13000.00000" pt_clust_8="13000.00000" pt_clust_9="48.85049"></scales>
<clustering>
<clus scale="   48.850">  2  9  1 -1</clus>
<clus scale="   87.710">  7  8 -1 -1</clus>
<clus scale="   91.729">  5  6 -1 -1</clus>
<clus scale="   94.464">  1  7  2 -1</clus>
<clus scale="   48.850">  2  5  1 -1</clus>
</clustering>
</event>
<event>
 9    2  0.1723348E-004  0.9742008E+02  0.7546771E-02  0.1294835E+00
          2   -1    0    0  502    0 -0.00000000000E+00  0.00000000000E+00  0.45129569523E+03  0.45129569523E+03  0.00000000000E+00 0. -1.
         21   -1    0    0  501  502  0.00000000000E+00 -0.00000000000E+00 -0.28765450563E+02  0.28765450563E+02  0.00000000000E+00 0.  1.
         23    2    1    2    0    0 -0.28447683851E+02 -0.20846980364E+02  0.28284848315E+03  0.29991967875E+03  0.93298885153E+02 0.  0.
         24    2    1    2    0    0  0.14416087831E+02  0.10015083620E+01  0.66518979961E+02  0.10304723218E+03  0.77363626831E+02 0.  0.
        -13    1    4    4    0    0 -0.85869148729E+01  0.35551808598E+02  0.24748124183E+02  0.44160342529E+02  0.00000000000E+00 0.  1.
         14    1    4    4    0    0  0.23003002704E+02 -0.34550300236E+02  0.41770855778E+02  0.58886889646E+02  0.00000000000E+00 0. -1.
        -13    1    3    3    0    0 -0.33133111818E+02 -0.55273149612E+02  0.16821038051E+03  0.18013232991E+03  0.00000000000E+00 0. -1.
         13    1    3    3    0    0  0.46854279668E+01  0.34426169247E+02  0.11463810265E+03  0.11978734884E+03  0.00000000000E+00 0.  1.
          1    1    1    2  501    0  0.14031596020E+02  0.19845472002E+02  0.73162781548E+02  0.77094234867E+02  0.00000000000E+00 0. -1.
<scales pt_clust_5="13000.00000" pt_clust_6="13000.00000" pt_clust_7="13000.00000" pt_clust_8="13000.00000" pt_clust_9="24.30492"></scales>
<clustering>
<clus scale="   24.305">  2  9  1 -1</clus>
<clus scale="   77.364">  5  6 -1 -1</clus>
<clus scale="   82.287">  2  5  1 -1</clus>
<clus scale="   93.299">  7  8 -1 -1</clus>
<clus scale="   24.305">  2  5  1 -1</clus>
</clustering>
</event>
<event>
 9    2  0.1750758E-004  0.9610964E+02  0.7546771E-02  0.1295199E+00
          2   -1    0    0  502    0 -0.00000000000E+00  0.00000000000E+00  0.70106257914E+03  0.70106257914E+03  0.00000000000E+00 0. -1.
         21   -1    0    0  501  502  0.00000000000E+00 -0.00000000000E+00 -0.53438879722E+02  0.53438879722E+02  0.00000000000E+00 0.  1.
         24    2    1    2    0    0  0.32253077365E+02 -0.40038031655E+01  0.62863315376E+03  0.63437806415E+03  0.78737505826E+02 0.  0.
         23    2    1    2    0    0 -0.31743897609E+02 -0.16342271470E+02  0.97788338161E+01  0.97783348783E+02  0.90505319381E+02 0.  0.
        -11    1    3    3    0    0 -0.20348265885E+02 -0.71349533187E+01  0.69520633778E+02  0.72787897375E+02  0.00000000000E+00 0.  1.
         12    1    3    3    0    0  0.52601343249E+02  0.31311501532E+01  0.55911251999E+03  0.56159016678E+03  0.00000000000E+00 0. -1.
        -11    1    4    4    0    0  0.16166691459E+02 -0.39183569597E+02  0.13739862944E+02  0.44558925849E+02  0.00000000000E+00 0.  1.
         11    1    4    4    0    0 -0.47910589068E+02  0.22841298127E+02 -0.39610291277E+01  0.53224422935E+02  0.00000000000E+00 0. -1.
          1    1    1    2  501    0 -0.50917975537E+00  0.20346074635E+02  0.92117118366E+01  0.22340045928E+02  0.00000000000E+00 0. -1.
<scales pt_clust_5="13000.00000" pt_clust_6="13000.00000" pt_clust_7="13000.00000" pt_clust_8="13000.00000" pt_clust_9="20.35244"></scales>
<clustering>
<clus scale="   20.352">  2  9  1 -1</clus>
<clus scale="   78.738">  5  6 -1 -1</clus>
<clus scale="   85.120">  1  5  2 -1</clus>
<clus scale="   90.505">  7  8 -1 -1</clus>
<clus scale="   20.352">  2  5  1 -1</clus>
</clustering>
</event>
<event>
 9    2  0.1723348E-004  0.1540459E+03  0.7546771E-02  0.1213627E+00
          2   -1    0    0  502    0 -0.00000000000E+00  0.00000000000E+00  0.14059470685E+04  0.14059470685E+04  0.00000000000E+00 0. -1.
         21   -1    0    0  501  502  0.00000000000E+00 -0.00000000000E+00 -0.53916136636E+02  0.53916136636E+02  0.00000000000E+00 0. -1.
         24    2    1    2    0    0 -0.12387626604E+02  0.65431765747E+02  0.21445832271E+03  0.23853194665E+03  0.80438474200E+02 0.  0.
         23    2    1    2    0    0  0.11350410705E+03 -0.12942786612E+03  0.10621193175E+04  0.10798630900E+04  0.91499145548E+02 0.  0.
        -13    1    3    3    0    0 -0.19684553804E+02  0.29707624490E+02  0.19291980518E+03  0.19618378078E+03  0.00000000000E+00 0.  1.
         14    1    3    3    0    0  0.72969271994E+01  0.35724141257E+02  0.21538517533E+02  0.42348165871E+02  0.00000000000E+00 0. -1.
        -13    1    4    4    0    0  0.66432837674E+02 -0.11069177102E+02  0.39264938617E+03  0.39838346987E+03  0.00000000000E+00 0.  1.
         13    1    4    4    0    0  0.47071269375E+02 -0.11835868902E+03  0.66946993131E+03  0.68147962008E+03  0.00000000000E+00 0. -1.
          1    1    1    2  501    0 -0.10111648045E+03  0.63996100377E+02  0.75453291660E+02  0.14146816852E+03  0.00000000000E+00 0. -1.
<scales pt_clust_5="13000.00000" pt_clust_6="13000.00000" pt_clust_7="13000.00000" pt_clust_8="13000.00000" pt_clust_9="123.92760"></scales>
<clustering>
<clus scale="   80.438">  5  6 -1 -1</clus>
<clus scale="   91.499">  7  8 -1 -1</clus>
<clus scale="  104.428">  1  5  2 -1</clus>
<clus scale="  123.928">  2  9  1 -1</clus>
<clus scale="  123.928">  2  5  1 -1</clus>
</clustering>
</event>
<event>
 9    2  0.1723348E-004  0.1306228E+03  0.7546771E-02  0.1233735E+00
         21   -1    0    0  501  502  0.00000000000E+00  0.00000000000E+00  0.26292134503E+03  0.26292134503E+03  0.00000000000E+00 0.  1.
          2   -1    0    0  502    0 -0.00000000000E+00 -0.00000000000E+00 -0.15174933634E+03  0.15174933634E+03  0.00000000000E+00 0. -1.
         24    2    1    2    0    0  0.16218358643E+01  0.83442350845E+02 -0.86369073801E+02  0.14332884561E+03  0.78219465671E+02 0.  0.
         23    2    1    2    0    0 -0.31917920572E+02 -0.68918600389E+02  0.83538693292E+02  0.15249177552E+03  0.10250122532E+03 0.  0.
        -13    1    3    3    0    0  0.34960346423E+02  0.20762628061E+02 -0.47006399323E+02  0.62152346080E+02  0.00000000000E+00 0.  1.
         14    1    3    3    0    0 -0.33338510559E+02  0.62679722784E+02 -0.39362674479E+02  0.81176499535E+02  0.00000000000E+00 0. -1.
        -13    1    4    4    0    0 -0.50094628596E+02 -0.51412550899E+02  0.99456318498E+02  0.12265513236E+03  0.00000000000E+00 0.  1.
         13    1    4    4    0    0  0.18176708023E+02 -0.17506049490E+02 -0.15917625206E+02  0.29836643168E+02  0.00000000000E+00 0. -1.
          1    1    1    2  501    0  0.30296084708E+02 -0.14523750456E+02  0.11400238919E+03  0.11885006023E+03  0.00000000000E+00 0. -1.
<scales pt_clust_5="13000.00000" pt_clust_6="13000.00000" pt_clust_7="13000.00000" pt_clust_8="13000.00000" pt_clust_9="33.59750"></scales>
<clustering>
<clus scale="   33.598">  1  9  2 -1</clus>
<clus scale="   78.219">  5  6 -1 -1</clus>
<clus scale="  102.501">  7  8 -1 -1</clus>
<clus scale="  112.579">  2  5  1 -1</clus>
<clus scale="   33.598">  1  5  2 -1</clus>
</clustering>
</event>
<event>
 9    2  0.1723348E-004  0.3317171E+03  0.7546771E-02  0.1070604E+00
         -1   -1    0    0    0  501 -0.00000000000E+00  0.00000000000E+00  0.36076873234E+03  0.36076873234E+03  0.00000000000E+00 0.  1.
         21   -1    0    0  501  502  0.00000000000E+00 -0.00000000000E+00 -0.37021934424E+03  0.37021934424E+03  0.00000000000E+00 0.  1.
         23    2    1    2    0    0 -0.29581632239E+03  0.55724262060E+02 -0.26000266656E+02  0.31517924207E+03  0.89718731561E+02 0.  0.
         24    2    1    2    0    0  0.33638331373E+03 -0.50413162244E+02 -0.33160416093E+02  0.35142731767E+03  0.81892159135E+02 0.  0.
        -11    1    4    4    0    0  0.31471478336E+03 -0.64912191274E+02 -0.41605759422E+02  0.32402164536E+03  0.00000000000E+00 0.  1.
         12    1    4    4    0    0  0.21668530365E+02  0.14499029030E+02  0.84453433283E+01  0.27405672313E+02  0.00000000000E+00 0. -1.
        -11    1    3    3    0    0 -0.10863178768E+03  0.54478687923E+02 -0.38754196663E+02  0.12755657761E+03  0.00000000000E+00 0.  1.
         11    1    3    3    0    0 -0.18718453471E+03  0.12455741367E+01  0.12753930008E+02  0.18762266447E+03  0.00000000000E+00 0. -1.
         -2    1    1    2    0  502 -0.40566991336E+02 -0.53110998160E+01  0.49710070849E+02  0.64381516844E+02  0.00000000000E+00 0.  1.
<scales pt_clust_5="13000.00000" pt_clust_6="13000.00000" pt_clust_7="13000.00000" pt_clust_8="13000.00000" pt_clust_9="40.91320"></scales>
<clustering>
<clus scale="   40.913">  2  9  1 -1</clus>
<clus scale="   81.892">  5  6 -1 -1</clus>
<clus scale="   89.719">  7  8 -1 -1</clus>
<clus scale="  329.686">  2  5  1 -1</clus>
<clus scale="   40.913">  2  5  1 -1</clus>
</clustering>
</event>
<event>
 9    2  0.1723348E-004  0.9603489E+02  0.7546771E-02  0.1296140E+00
         21   -1    0    0  501  502  0.00000000000E+00  0.00000000000E+00  0.89878148450E+02  0.89878148450E+02  0.00000000000E+00 0.  1.
          4   -1    0    0  502    0 -0.00000000000E+00 -0.00000000000E+00 -0.16655688191E+03  0.16655688191E+03  0.00000000000E+00 0. -1.
         23    2    1    2    0    0 -0.61684955054E+01  0.40165570466E+02 -0.30727573433E+02  0.10526647613E+03  0.92116903124E+02 0.  0.
         24    2    1    2    0    0  0.10973648590E+02 -0.73012401086E+01  0.14958255734E+02  0.81791968591E+02  0.79324949675E+02 0.  0.
        -13    1    4    4    0    0  0.24484153907E+02  0.18526161542E+02  0.34893933999E+02  0.46478802522E+02  0.00000000000E+00 0.  1.
         14    1    4    4    0    0 -0.13510505317E+02 -0.25827401650E+02 -0.19935678264E+02  0.35313166069E+02  0.00000000000E+00 0. -1.
        -13    1    3    3    0    0 -0.28588650563E+02  0.60984562171E+02 -0.94806831827E+01  0.68016991390E+02  0.00000000000E+00 0.  1.
         13    1    3    3    0    0  0.22420155057E+02 -0.20818991705E+02 -0.21246890250E+02  0.37249484744E+02  0.00000000000E+00 0. -1.
          3    1    1    2  501    0 -0.48051530845E+01 -0.32864330357E+02 -0.60909415766E+02  0.69376585639E+02  0.00000000000E+00 0. -1.
<scales pt_clust_5="13000.00000" pt_clust_6="13000.00000" pt_clust_7="13000.00000" pt_clust_8="13000.00000" pt_clust_9="33.21377"></scales>
<clustering>
<clus scale="   33.214">  1  9  2 -1</clus>
<clus scale="   79.325">  5  6 -1 -1</clus>
<clus scale="   83.843">  1  5  2 -1</clus>
<clus scale="   92.117">  7  8 -1 -1</clus>
<clus scale="   33.214">  1  5  2 -1</clus>
</clustering>
</event>
<event>
 9    2  0.1723348E-004  0.1096883E+03  0.7546771E-02  0.1264673E+00
         21   -1    0    0  501  502  0.00000000000E+00  0.00000000000E+00  0.13315050730E+03  0.13315050730E+03  0.00000000000E+00 0. -1.
         -1   -1    0    0    0  501 -0.00000000000E+00 -0.00000000000E+00 -0.17344821226E+03  0.17344821226E+03  0.00000000000E+00 0.  1.
         23    2    1    2    0    0 -0.34799341985E+02 -0.56169142140E+02 -0.96902413732E+02  0.14935433866E+03  0.92469854315E+02 0.  0.
         24    2    1    2    0    0 -0.12120677248E+02  0.51457434368E+02  0.31755176816E+02  0.10394158892E+03  0.83670091926E+02 0.  0.
        -13    1    4    4    0    0  0.33070767740E+02  0.28331190424E+02 -0.94337396525E+00  0.43557111752E+02  0.00000000000E+00 0.  1.
         14    1    4    4    0    0 -0.45191444988E+02  0.23126243945E+02  0.32698550781E+02  0.60384477164E+02  0.00000000000E+00 0. -1.
        -11    1    3    3    0    0 -0.49814453488E+02 -0.15958492998E+02 -0.11184940485E+02  0.53490711051E+02  0.00000000000E+00 0.  1.
         11    1    3    3    0    0  0.15015111503E+02 -0.40210649142E+02 -0.85717473247E+02  0.95863627605E+02  0.00000000000E+00 0. -1.
         -2    1    1    2    0  502  0.46920019233E+02  0.47117077717E+01  0.24849531963E+02  0.53302791989E+02  0.00000000000E+00 0.  1.
<scales pt_clust_5="13000.00000" pt_clust_6="13000.00000" pt_clust_7="13000.00000" pt_clust_8="13000.00000" pt_clust_9="47.15600"></scales>
<clustering>
<clus scale="   47.156">  1  9  2 -1</clus>
<clus scale="   83.670">  5  6 -1 -1</clus>
<clus scale="   92.470">  7  8 -1 -1</clus>
<clus scale="  102.379">  1  5  2 -1</clus>
<clus scale="   47.156">  1  5  2 -1</clus>
</clustering>
</event>
<event>
 9    2  0.1723348E-004  0.9252690E+02  0.7546771E-02  0.1298039E+00
          2   -1    0    0  502    0 -0.00000000000E+00  0.00000000000E+00  0.20502303715E+03  0.20502303715E+03  0.00000000000E+00 0. -1.
         21   -1    0    0  501  502  0.00000000000E+00 -0.00000000000E+00 -0.37867862759E+03  0.37867862759E+03  0.00000000000E+00 0. -1.
         24    2    1    2    0    0 -0.22880723791E+02 -0.73799589089E+01  0.11619455371E+03  0.14831040699E+03  0.88976464264E+02 0.  0.
         23    2    1    2    0    0 -0.47261077693E+02  0.39877614092E+02  0.23598499450E+02  0.11255070564E+03  0.91032623791E+02 0.  0.
        -11    1    3    3    0    0 -0.45381281322E+02 -0.34167587198E+02  0.78314558261E+02  0.96747375907E+02  0.00000000000E+00 0.  1.
         12    1    3    3    0    0  0.22500557530E+02  0.26787628289E+02  0.37879995452E+02  0.51563031078E+02  0.00000000000E+00 0. -1.
        -13    1    4    4    0    0 -0.22191596356E+02  0.13266582939E+02 -0.34980963533E+02  0.43498700917E+02  0.00000000000E+00 0.  1.
         13    1    4    4    0    0 -0.25069481337E+02  0.26611031152E+02  0.58579462983E+02  0.69052004727E+02  0.00000000000E+00 0. -1.
          1    1    1    2  501    0  0.70141801485E+02 -0.32497655183E+02 -0.31344864361E+03  0.32284055211E+03  0.00000000000E+00 0. -1.
<scales pt_clust_5="13000.00000" pt_clust_6="13000.00000" pt_clust_7="13000.00000" pt_clust_8="13000.00000" pt_clust_9="77.30440"></scales>
<clustering>
<clus scale="   77.304">  2  9  1 -1</clus>
<clus scale="   88.976">  5  6 -1 -1</clus>
<clus scale="   90.505">  1  5  2 -1</clus>
<clus scale="   91.033">  7  8 -1 -1</clus>
<clus scale="   77.304">  2  5  1 -1</clus>
</clustering>
</event>
<event>
 9    2  0.1723348E-004  0.1583001E+03  0.7546771E-02  0.1192174E+00
          2   -1    0    0  502    0 -0.00000000000E+00  0.00000000000E+00  0.10521734270E+04  0.10521734270E+04  0.00000000000E+00 0. -1.
         21   -1    0    0  501  502  0.00000000000E+00 -0.00000000000E+00 -0.36559959741E+02  0.36559959741E+02  0.00000000000E+00 0.  1.
         23    2    1    2    0    0 -0.13108843291E+03 -0.76746284871E+01  0.71530956235E+03  0.73280304163E+03  0.89941373500E+02 0.  0.
         24    2    1    2    0    0  0.12762979637E+03 -0.12690019829E+02  0.18594037953E+03  0.23971633130E+03  0.80247699216E+02 0.  0.
        -13    1    4    4    0    0  0.48682671911E+02  0.33294446644E+02  0.60077803542E+02  0.84189460148E+02  0.00000000000E+00 0.  1.
         14    1    4    4    0    0  0.78947124459E+02 -0.45984466473E+02  0.12586257599E+03  0.15552687115E+03  0.00000000000E+00 0. -1.
        -13    1    3    3    0    0 -0.30458862030E+02  0.28924247237E+02  0.10358484543E+03  0.11177734366E+03  0.00000000000E+00 0.  1.
         13    1    3    3    0    0 -0.10062957089E+03 -0.36598875724E+02  0.61172471692E+03  0.62102569797E+03  0.00000000000E+00 0. -1.
          1    1    1    2  501    0  0.34586365448E+01  0.20364648316E+02  0.11436352541E+03  0.11621401384E+03  0.00000000000E+00 0. -1.
<scales pt_clust_5="13000.00000" pt_clust_6="13000.00000" pt_clust_7="13000.00000" pt_clust_8="13000.00000" pt_clust_9="20.65627"></scales>
<clustering>
<clus scale="   20.656">  2  9  1 -1</clus>
<clus scale="   80.248">  5  6 -1 -1</clus>
<clus scale="   89.941">  7  8 -1 -1</clus>
<clus scale="  153.001">  2  5  1 -1</clus>
<clus scale="   20.656">  2  5  1 -1</clus>
</clustering>
</event>
<event>
 9    2  0.1723348E-004  0.1091875E+03  0.7546771E-02  0.1264055E+00
          2   -1    0    0  502    0 -0.00000000000E+00  0.00000000000E+00  0.50527211497E+03  0.50527211497E+03  0.00000000000E+00 0. -1.
         21   -1    0    0  501  502  0.00000000000E+00 -0.00000000000E+00 -0.49618484869E+02  0.49618484869E+02  0.00000000000E+00 0.  1.
         23    2    1    2    0    0  0.55659737441E+02 -0.31623668639E+02  0.38943622484E+03  0.40503357465E+03  0.91068988069E+02 0.  0.
         24    2    1    2    0    0 -0.26471115688E+02  0.38267615975E+02  0.28910239251E+02  0.10202458524E+03  0.86070225170E+02 0.  0.
        -13    1    4    4    0    0 -0.12820393155E+02 -0.20878036868E+02 -0.13502658863E+02  0.27974572391E+02  0.00000000000E+00 0.  1.
         14    1    4    4    0    0 -0.13650722533E+02  0.59145652843E+02  0.42412898113E+02  0.74050012844E+02  0.00000000000E+00 0. -1.
        -13    1    3    3    0    0  0.12442930896E+02 -0.58821028433E+02  0.20070700954E+03  0.20951859964E+03  0.00000000000E+00 0.  1.
         13    1    3    3    0    0  0.43216806544E+02  0.27197359794E+02  0.18872921530E+03  0.19551497501E+03  0.00000000000E+00 0. -1.
          1    1    1    2  501    0 -0.29188621752E+02 -0.66439473360E+01  0.37307166015E+02  0.47832439955E+02  0.00000000000E+00 0. -1.
<scales pt_clust_5="13000.00000" pt_clust_6="13000.00000" pt_clust_7="13000.00000" pt_clust_8="13000.00000" pt_clust_9="29.93522"></scales>
<clustering>
<clus scale="   29.935">  2  9  1 -1</clus>
<clus scale="   86.070">  5  6 -1 -1</clus>
<clus scale="   91.069">  7  8 -1 -1</clus>
<clus scale="  105.054">  2  5  1 -1</clus>
<clus scale="   29.935">  2  5  1 -1</clus>
</clustering>
</event>
<event>
 9    2  0.1723348E-004  0.9454519E+02  0.7546771E-02  0.1295165E+00
         -1   -1    0    0    0  501 -0.00000000000E+00  0.00000000000E+00  0.30386664650E+03  0.30386664650E+03  0.00000000000E+00 0.  1.
         21   -1    0    0  501  502  0.00000000000E+00 -0.00000000000E+00 -0.92413165809E+02  0.92413165809E+02  0.00000000000E+00 0.  1.
         23    2    1    2    0    0 -0.15189982448E+02 -0.16586712923E+02  0.24326575517E+03  0.26073917411E+03  0.91108916512E+02 0.  0.
         24    2    1    2    0    0  0.11373401879E+02  0.44161585649E+02 -0.56839677290E+01  0.97361739484E+02  0.85833565165E+02 0.  0.
        -11    1    4    4    0    0 -0.87159008254E+01  0.44853773952E+02 -0.37915917020E+02  0.59375455606E+02  0.00000000000E+00 0.  1.
         12    1    4    4    0    0  0.20089302704E+02 -0.69218830312E+00  0.32231949291E+02  0.37986283878E+02  0.00000000000E+00 0. -1.
        -13    1    3    3    0    0 -0.40225088173E+02  0.78852290198E+01  0.51587788912E+02  0.65890321900E+02  0.00000000000E+00 0.  1.
         13    1    3    3    0    0  0.25035105725E+02 -0.24471941943E+02  0.19167796626E+03  0.19484885222E+03  0.00000000000E+00 0. -1.
         -2    1    1    2    0  502  0.38165805690E+01 -0.27574872726E+02 -0.26128306749E+02  0.38178898709E+02  0.00000000000E+00 0.  1.
<scales pt_clust_5="13000.00000" pt_clust_6="13000.00000" pt_clust_7="13000.00000" pt_clust_8="13000.00000" pt_clust_9="27.83774"></scales>
<clustering>
<clus scale="   27.838">  2  9  1 -1</clus>
<clus scale="   85.834">  5  6 -1 -1</clus>
<clus scale="   89.473">  2  5  1 -1</clus>
<clus scale="   91.109">  7  8 -1 -1</clus>
<clus scale="   27.838">  2  5  1 -1</clus>
</clustering>
</event>
<event>
 9    2  0.1723348E-004  0.8699053E+02  0.7546771E-02  0.1310334E+00
         21   -1    0    0  501  502  0.00000000000E+00  0.00000000000E+00  0.97779123497E+02  0.97779123497E+02  0.00000000000E+00 0. -1.
          2   -1    0    0  502    0 -0.00000000000E+00 -0.00000000000E+00 -0.24171462739E+03  0.24171462739E+03  0.00000000000E+00 0. -1.
         24    2    1    2    0    0  0.15595857766E+02  0.32337880028E+02 -0.77247747675E+02  0.11823042599E+03  0.81989327624E+02 0.  0.
         23    2    1    2    0    0 -0.24604059250E+02  0.96849860651E+01  0.48145191607E+02  0.98651437730E+02  0.81945030384E+02 0.  0.
        -13    1    3    3    0    0  0.44916286747E+02  0.90107627151E+01 -0.20405113745E+02  0.50150127884E+02  0.00000000000E+00 0.  1.
         14    1    3    3    0    0 -0.29320428981E+02  0.23327117312E+02 -0.56842633930E+02  0.68080298104E+02  0.00000000000E+00 0. -1.
        -11    1    4    4    0    0  0.24066542558E+01  0.41840573746E+02  0.12968302369E+02  0.43870291342E+02  0.00000000000E+00 0. -1.
         11    1    4    4    0    0 -0.27010713506E+02 -0.32155587681E+02  0.35176889238E+02  0.54781146389E+02  0.00000000000E+00 0.  1.
          1    1    1    2  501    0  0.90082014840E+01 -0.42022866093E+02 -0.11483294783E+03  0.12261188717E+03  0.00000000000E+00 0. -1.
<scales pt_clust_5="13000.00000" pt_clust_6="13000.00000" pt_clust_7="13000.00000" pt_clust_8="13000.00000" pt_clust_9="42.97756"></scales>
<clustering>
<clus scale="   42.978">  1  9  2 -1</clus>
<clus scale="   81.945">  7  8 -1 -1</clus>
<clus scale="   81.989">  5  6 -1 -1</clus>
<clus scale="   86.949">  1  7  2 -1</clus>
<clus scale="   42.978">  1  5  2 -1</clus>
</clustering>
</event>
<event>
 9    2  0.1723348E-004  0.2248780E+03  0.7546771E-02  0.1147922E+00
         -3   -1    0    0    0  501 -0.00000000000E+00  0.00000000000E+00  0.73215334390E+03  0.73215334390E+03  0.00000000000E+00 0.  1.
         21   -1    0    0  501  502  0.00000000000E+00 -0.00000000000E+00 -0.16304455640E+03  0.16304455640E+03  0.00000000000E+00 0.  1.
         24    2    1    2    0    0  0.60872748027E+02  0.10725559181E+03  0.21110030635E+03  0.25718244170E+03  0.79813630097E+02 0.  0.
         23    2    1    2    0    0  0.18107579855E+03  0.34883094345E+02  0.33237715217E+02  0.20880856712E+03  0.92146605460E+02 0.  0.
        -13    1    3    3    0    0  0.56852143164E+02  0.99476436830E+02  0.21783884834E+03  0.24613307684E+03  0.00000000000E+00 0.  1.
         14    1    3    3    0    0  0.40206048627E+01  0.77791549762E+01 -0.67385419908E+01  0.11049364858E+02  0.00000000000E+00 0. -1.
        -11    1    4    4    0    0  0.86797381050E+02 -0.13578304572E+02 -0.20127623621E+02  0.90129223589E+02  0.00000000000E+00 0.  1.
         11    1    4    4    0    0  0.94278417501E+02  0.48461398918E+02  0.53365338838E+02  0.11867934353E+03  0.00000000000E+00 0. -1.
         -4    1    1    2    0  502 -0.24194854658E+03 -0.14213868615E+03  0.32477076594E+03  0.42920689149E+03  0.00000000000E+00 0.  1.
<scales pt_clust_5="13000.00000" pt_clust_6="13000.00000" pt_clust_7="13000.00000" pt_clust_8="13000.00000" pt_clust_9="205.13208"></scales>
<clustering>
<clus scale="   79.814">  5  6 -1 -1</clus>
<clus scale="   92.147">  7  8 -1 -1</clus>
<clus scale="  146.900">  1  5  2 -1</clus>
<clus scale="  205.132">  2  9  1 -1</clus>
<clus scale="  205.132">  2  5  1 -1</clus>
</clustering>
</event>
<event>
 9    2  0.1723348E-004  0.1156831E+03  0.7546771E-02  0.1254696E+00
         21   -1    0    0  501  502  0.00000000000E+00  0.00000000000E+00  0.58870413990E+02  0.58870413990E+02  0.00000000000E+00 0. -1.
          2   -1    0    0  502    0 -0.00000000000E+00 -0.00000000000E+00 -0.14196642264E+04  0.14196642264E+04  0.00000000000E+00 0. -1.
         24    2    1    2    0    0  0.72104092335E+02  0.27933274140E+02 -0.73204494547E+03  0.74030833303E+03  0.78659759917E+02 0.  0.
         23    2    1    2    0    0 -0.12344958146E+02  0.43112941952E+02  0.11567680103E+01  0.10151614733E+03  0.91066274227E+02 0.  0.
        -11    1    3    3    0    0  0.31053283247E+02 -0.54897451501E+01 -0.78127442070E+02  0.84251652249E+02  0.00000000000E+00 0.  1.
         12    1    3    3    0    0  0.41050809088E+02  0.33423019290E+02 -0.65391750340E+03  0.65605668079E+03  0.00000000000E+00 0. -1.
        -13    1    4    4    0    0  0.16681661742E+02 -0.18946347804E+02 -0.17249982371E+02  0.30574561737E+02  0.00000000000E+00 0.  1.
         13    1    4    4    0    0 -0.29026619888E+02  0.62059289756E+02  0.18406750382E+02  0.70941585595E+02  0.00000000000E+00 0. -1.
          1    1    1    2  501    0 -0.59759134189E+02 -0.71046216092E+02 -0.62990563490E+03  0.63671015998E+03  0.00000000000E+00 0. -1.
<scales pt_clust_5="13000.00000" pt_clust_6="13000.00000" pt_clust_7="13000.00000" pt_clust_8="13000.00000" pt_clust_9="92.83710"></scales>
<clustering>
<clus scale="   78.660">  5  6 -1 -1</clus>
<clus scale="   91.066">  7  8 -1 -1</clus>
<clus scale="   92.837">  1  9  2 -1</clus>
<clus scale="  106.193">  2  5  1 -1</clus>
<clus scale="   92.837">  1  5  2 -1</clus>
</clustering>
</event>
<event>
 9    2  0.1723348E-004  0.1370472E+03  0.7546771E-02  0.1226231E+00
          2   -1    0    0  502    0 -0.00000000000E+00  0.00000000000E+00  0.68577286234E+03  0.68577286234E+03  0.00000000000E+00 0. -1.
         21   -1    0    0  501  502  0.00000000000E+00 -0.00000000000E+00 -0.53028379521E+02  0.53028379521E+02  0.00000000000E+00 0. -1.
         23    2    1    2    0    0 -0.31169502433E+02 -0.60702212322E+02  0.27157940953E+03  0.29446491230E+03  0.91092878035E+02 0.  0.
         24    2    1    2    0    0 -0.80420333859E+02  0.87135778497E+02  0.22121429233E+03  0.26340196004E+03  0.79904664633E+02 0.  0.
        -13    1    4    4    0    0 -0.58718639525E+02  0.58117508285E+02  0.71170736427E+02  0.10904493166E+03  0.00000000000E+00 0.  1.
         14    1    4    4    0    0 -0.21701694334E+02  0.29018270212E+02  0.15004355590E+03  0.15435702838E+03  0.00000000000E+00 0. -1.
        -13    1    3    3    0    0  0.23082436817E+02  0.81830184558E+01  0.40754234709E+02  0.47546485961E+02  0.00000000000E+00 0.  1.
         13    1    3    3    0    0 -0.54251939251E+02 -0.68885230778E+02  0.23082517482E+03  0.24691842634E+03  0.00000000000E+00 0. -1.
          1    1    1    2  501    0  0.11158983629E+03 -0.26433566175E+02  0.13995078096E+03  0.18093436952E+03  0.00000000000E+00 0. -1.
<scales pt_clust_5="13000.00000" pt_clust_6="13000.00000" pt_clust_7="13000.00000" pt_clust_8="13000.00000" pt_clust_9="111.34263"></scales>
<clustering>
<clus scale="   79.905">  5  6 -1 -1</clus>
<clus scale="   91.093">  7  8 -1 -1</clus>
<clus scale="  113.817">  1  7  2 -1</clus>
<clus scale="  111.343">  2  9  1 -1</clus>
<clus scale="  111.343">  2  5  1 -1</clus>
</clustering>
</event>
<event>
 9    2  0.1723348E-004  0.1662440E+03  0.7546771E-02  0.1196697E+00
         21   -1    0    0  501  502  0.00000000000E+00  0.00000000000E+00  0.10393283952E+03  0.10393283952E+03  0.00000000000E+00 0. -1.
          2   -1    0    0  502    0 -0.00000000000E+00 -0.00000000000E+00 -0.51348614453E+03  0.51348614453E+03  0.00000000000E+00 0. -1.
         23    2    1    2    0    0  0.20921707359E+02  0.70896728870E+02 -0.47054943067E+02  0.12854834536E+03  0.94055544363E+02 0.  0.
         24    2    1    2    0    0 -0.10052479401E+03  0.70460371775E+02 -0.25457292470E+03  0.29402100099E+03  0.81062178786E+02 0.  0.
        -13    1    4    4    0    0 -0.49500867686E+02 -0.10516701911E+02 -0.73973907351E+02  0.89627428221E+02  0.00000000000E+00 0.  1.
         14    1    4    4    0    0 -0.51023926321E+02  0.80977073686E+02 -0.18059901735E+03  0.20439357277E+03  0.00000000000E+00 0. -1.
        -13    1    3    3    0    0 -0.16997681565E+02  0.49011653103E+02  0.13707266715E+02  0.53655870874E+02  0.00000000000E+00 0. -1.
         13    1    3    3    0    0  0.37919388923E+02  0.21885075767E+02 -0.60762209782E+02  0.74892474490E+02  0.00000000000E+00 0.  1.
          1    1    1    2  501    0  0.79603086648E+02 -0.14135710064E+03 -0.10792543725E+03  0.19484963770E+03  0.00000000000E+00 0. -1.
<scales pt_clust_5="13000.00000" pt_clust_6="13000.00000" pt_clust_7="13000.00000" pt_clust_8="13000.00000" pt_clust_9="145.14123"></scales>
<clustering>
<clus scale="   81.062">  5  6 -1 -1</clus>
<clus scale="   94.056">  7  8 -1 -1</clus>
<clus scale="  119.627">  2  7  1 -1</clus>
<clus scale="  145.141">  1  9  2 -1</clus>
<clus scale="  145.141">  1  5  2 -1</clus>
</clustering>
</event>
<event>
 9    2  0.1723348E-004  0.1060099E+03  0.7546771E-02  0.1271581E+00
         21   -1    0    0  501  502  0.00000000000E+00  0.00000000000E+00  0.71253571068E+02  0.71253571068E+02  0.00000000000E+00 0. -1.
          2   -1    0    0  502    0 -0.00000000000E+00 -0.00000000000E+00 -0.37528936357E+03  0.37528936357E+03  0.00000000000E+00 0. -1.
         23    2    1    2    0    0 -0.72928543179E+02  0.53264354051E+01 -0.26900955379E+03  0.29270741257E+03  0.89244305242E+02 0.  0.
         24    2    1    2    0    0  0.25929735951E+02 -0.64832921304E+01 -0.56314913983E+02  0.10222705481E+03  0.81022323561E+02 0.  0.
        -11    1    4    4    0    0  0.35378357487E+02 -0.37189275264E+02 -0.44702217718E+02  0.68065840493E+02  0.00000000000E+00 0.  1.
         12    1    4    4    0    0 -0.94486215369E+01  0.30705983134E+02 -0.11612696265E+02  0.34161214318E+02  0.00000000000E+00 0. -1.
        -13    1    3    3    0    0  0.12838948529E+02 -0.21780866866E+02 -0.53180256642E+02  0.58884500994E+02  0.00000000000E+00 0.  1.
         13    1    3    3    0    0 -0.85767491707E+02  0.27107302271E+02 -0.21582929715E+03  0.23382291157E+03  0.00000000000E+00 0. -1.
          1    1    1    2  501    0  0.46998807228E+02  0.11568567253E+01  0.21288675268E+02  0.51608467261E+02  0.00000000000E+00 0. -1.
<scales pt_clust_5="13000.00000" pt_clust_6="13000.00000" pt_clust_7="13000.00000" pt_clust_8="13000.00000" pt_clust_9="47.01304"></scales>
<clustering>
<clus scale="   47.013">  1  9  2 -1</clus>
<clus scale="   81.022">  5  6 -1 -1</clus>
<clus scale="   89.244">  7  8 -1 -1</clus>
<clus scale="   99.188">  1  5  2 -1</clus>
<clus scale="   47.013">  1  5  2 -1</clus>
</clustering>
</event>
<event>
 9    2  0.1723348E-004  0.1212528E+03  0.7546771E-02  0.1244571E+00
         21   -1    0    0  501  502  0.00000000000E+00  0.00000000000E+00  0.78387048240E+02  0.78387048240E+02  0.00000000000E+00 0.  1.
          2   -1    0    0  502    0 -0.00000000000E+00 -0.00000000000E+00 -0.54257810513E+03  0.54257810513E+03  0.00000000000E+00 0. -1.
         23    2    1    2    0    0  0.21147675707E+02 -0.71435238423E+02 -0.40005686381E+03  0.41713172124E+03  0.91668757505E+02 0.  0.
         24    2    1    2    0    0 -0.39500899364E+02  0.89111087076E+02 -0.99123962177E+02  0.16054878838E+03  0.80307201934E+02 0.  0.
        -13    1    4    4    0    0 -0.44598674753E+02  0.95329133853E+02 -0.61125055610E+02  0.12170849590E+03  0.00000000000E+00 0.  1.
         14    1    4    4    0    0  0.50977753897E+01 -0.62180467777E+01 -0.37998906568E+02  0.38840292481E+02  0.00000000000E+00 0. -1.
        -13    1    3    3    0    0 -0.22958410713E+02 -0.11429498348E+02 -0.29164882478E+02  0.38836998145E+02  0.00000000000E+00 0.  1.
         13    1    3    3    0    0  0.44106086420E+02 -0.60005740075E+02 -0.37089198133E+03  0.37829472309E+03  0.00000000000E+00 0. -1.
          1    1    1    2  501    0  0.18353223656E+02 -0.17675848652E+02  0.34989769093E+02  0.43284643759E+02  0.00000000000E+00 0. -1.
<scales pt_clust_5="13000.00000" pt_clust_6="13000.00000" pt_clust_7="13000.00000" pt_clust_8="13000.00000" pt_clust_9="25.48090"></scales>
<clustering>
<clus scale="   25.481">  1  9  2 -1</clus>
<clus scale="   80.307">  5  6 -1 -1</clus>
<clus scale="   91.669">  7  8 -1 -1</clus>
<clus scale="  112.909">  1  5  2 -1</clus>
<clus scale="   25.481">  1  5  2 -1</clus>
</clustering>
</event>
<event>
 9    2  0.1723348E-004  0.1051181E+03  0.7546771E-02  0.1273484E+00
          2   -1    0    0  502    0 -0.00000000000E+00  0.00000000000E+00  0.32275477619E+03  0.32275477619E+03  0.00000000000E+00 0. -1.
         21   -1    0    0  501  502  0.00000000000E+00 -0.00000000000E+00 -0.25783996018E+03  0.25783996018E+03  0.00000000000E+00 0. -1.
         23    2    1    2    0    0 -0.63979923611E+02  0.28899688283E+01  0.26764940238E+03  0.28968290034E+03  0.90433387686E+02 0.  0.
         24    2    1    2    0    0  0.13254225607E+02  0.72096654085E+01 -0.19115964174E+01  0.83535433456E+02  0.82139276050E+02 0.  0.
        -11    1    4    4    0    0  0.64749220222E+00 -0.37074473662E+02  0.31538907282E+01  0.37214014432E+02  0.00000000000E+00 0.  1.
         12    1    4    4    0    0  0.12606733405E+02  0.44284139070E+02 -0.50654871456E+01  0.46321419024E+02  0.00000000000E+00 0. -1.
        -13    1    3    3    0    0 -0.41718500936E+02 -0.36699664439E+02  0.20438408915E+03  0.21180215907E+03  0.00000000000E+00 0. -1.
         13    1    3    3    0    0 -0.22261422675E+02  0.39589633268E+02  0.63265313229E+02  0.77880741263E+02  0.00000000000E+00 0.  1.
          1    1    1    2  501    0  0.50725698003E+02 -0.10099634237E+02 -0.20082298996E+03  0.20737640258E+03  0.00000000000E+00 0. -1.
<scales pt_clust_5="13000.00000" pt_clust_6="13000.00000" pt_clust_7="13000.00000" pt_clust_8="13000.00000" pt_clust_9="51.72136"></scales>
<clustering>
<clus scale="   51.721">  2  9  1 -1</clus>
<clus scale="   82.139">  5  6 -1 -1</clus>
<clus scale="   90.433">  7  8 -1 -1</clus>
<clus scale="   98.074">  2  5  1 -1</clus>
<clus scale="   51.721">  2  5  1 -1</clus>
</clustering>
</event>
<event>
 9    2  0.1723348E-004  0.1254259E+03  0.7546771E-02  0.1250453E+00
         21   -1    0    0  501  502  0.00000000000E+00  0.00000000000E+00  0.18290573641E+03  0.18290573641E+03  0.00000000000E+00 0.  1.
          2   -1    0    0  502    0 -0.00000000000E+00 -0.00000000000E+00 -0.26634874457E+03  0.26634874457E+03  0.00000000000E+00 0. -1.
         24    2    1    2    0    0 -0.39642459553E+02 -0.48310560252E+01 -0.98339244565E+02  0.13375064165E+03  0.81386506374E+02 0.  0.
         23    2    1    2    0    0  0.42012937688E+01 -0.83933518944E+02  0.12016956893E+03  0.17331487864E+03  0.92384172818E+02 0.  0.
        -13    1    3    3    0    0 -0.62641923292E+02 -0.16343716302E+02 -0.74271211107E+02  0.98525836284E+02  0.00000000000E+00 0.  1.
         14    1    3    3    0    0  0.22999463738E+02  0.11512660276E+02 -0.24068033458E+02  0.35224805371E+02  0.00000000000E+00 0. -1.
        -13    1    4    4    0    0  0.30410990901E+02 -0.50277076563E+02  0.16225561423E+02  0.60958031782E+02  0.00000000000E+00 0. -1.
         13    1    4    4    0    0 -0.26209697132E+02 -0.33656442381E+02  0.10394400751E+03  0.11235684685E+03  0.00000000000E+00 0.  1.
          1    1    1    2  501    0  0.35441165785E+02  0.88764574969E+02 -0.10527333253E+03  0.14218896069E+03  0.00000000000E+00 0. -1.
<scales pt_clust_5="13000.00000" pt_clust_6="13000.00000" pt_clust_7="13000.00000" pt_clust_8="13000.00000" pt_clust_9="84.83412"></scales>
<clustering>
<clus scale="   81.387">  5  6 -1 -1</clus>
<clus scale="   90.657">  2  5  1 -1</clus>
<clus scale="   84.834">  1  9  2 -1</clus>
<clus scale="   92.384">  7  8 -1 -1</clus>
<clus scale="   84.834">  1  5  2 -1</clus>
</clustering>
</event>
<event>
 9    2  0.1723348E-004  0.1043463E+03  0.7546771E-02  0.1274913E+00
         -3   -1    0    0    0  501 -0.00000000000E+00  0.00000000000E+00  0.93196824709E+02  0.93196824709E+02  0.00000000000E+00 0.  1.
         21   -1    0    0  501  502  0.00000000000E+00 -0.00000000000E+00 -0.25186667378E+03  0.25186667378E+03  0.00000000000E+00 0. -1.
         24    2    1    2    0    0 -0.44395994137E+02  0.10426955495E+02  0.22872517561E+02  0.97754810732E+02  0.83385401992E+02 0.  0.
         23    2    1    2    0    0  0.57235662267E+02 -0.32751796339E+02 -0.69405758586E+02  0.13225272546E+03  0.91241563269E+02 0.  0.
        -13    1    3    3    0    0 -0.40431247762E+02 -0.30899311823E+02  0.23914008405E+02  0.56225733119E+02  0.00000000000E+00 0.  1.
         14    1    3    3    0    0 -0.39647463750E+01  0.41326267318E+02 -0.10414908443E+01  0.41529077614E+02  0.00000000000E+00 0. -1.
        -13    1    4    4    0    0 -0.55984735498E+01 -0.36750824131E+02  0.17811965970E+01  0.37217450769E+02  0.00000000000E+00 0.  1.
         13    1    4    4    0    0  0.62834135817E+02  0.39990277920E+01 -0.71186955183E+02  0.95035274690E+02  0.00000000000E+00 0. -1.
         -4    1    1    2    0  502 -0.12839668131E+02  0.22324840845E+02 -0.11213660804E+03  0.11505596229E+03  0.00000000000E+00 0.  1.
<scales pt_clust_5="13000.00000" pt_clust_6="13000.00000" pt_clust_7="13000.00000" pt_clust_8="13000.00000" pt_clust_9="25.75375"></scales>
<clustering>
<clus scale="   25.754">  2  9  1 -1</clus>
<clus scale="   83.385">  5  6 -1 -1</clus>
<clus scale="   91.242">  7  8 -1 -1</clus>
<clus scale="   97.551">  1  5  2 -1</clus>
<clus scale="   25.754">  2  5  1 -1</clus>
</clustering>
</event>
<event>
 9    2  0.1723348E-004  0.2738460E+03  0.7546771E-02  0.1112731E+00
          2   -1    0    0  502    0 -0.00000000000E+00  0.00000000000E+00  0.25303080456E+03  0.25303080456E+03  0.00000000000E+00 0. -1.
         21   -1    0    0  501  502  0.00000000000E+00 -0.00000000000E+00 -0.60127953614E+03  0.60127953614E+03  0.00000000000E+00 0.  1.
         23    2    1    2    0    0 -0.13472919865E+03 -0.10205145375E+03 -0.95693706445E+01  0.19323671694E+03  0.93179395466E+02 0.  0.
         24    2    1    2    0    0  0.57304638677E+02 -0.21738846943E+03 -0.13367107672E+03  0.27369161127E+03  0.80607524922E+02 0.  0.
        -13    1    4    4    0    0  0.48502079825E+02 -0.16220717301E+03 -0.56638370608E+02  0.17852597500E+03  0.00000000000E+00 0.  1.
         14    1    4    4    0    0  0.88025588519E+01 -0.55181296419E+02 -0.77032706109E+02  0.95165636274E+02  0.00000000000E+00 0. -1.
        -11    1    3    3    0    0 -0.91225677821E+02 -0.67976921401E+02  0.38387571200E+02  0.12006911243E+03  0.00000000000E+00 0.  1.
         11    1    3    3    0    0 -0.43503520832E+02 -0.34074532345E+02 -0.47956941844E+02  0.73167604514E+02  0.00000000000E+00 0. -1.
          1    1    1    2  501    0  0.77424559975E+02  0.31943992317E+03 -0.20500828422E+03  0.38738201249E+03  0.00000000000E+00 0. -1.
<scales pt_clust_5="13000.00000" pt_clust_6="13000.00000" pt_clust_7="13000.00000" pt_clust_8="13000.00000" pt_clust_9="261.71383"></scales>
<clustering>
<clus scale="   80.608">  5  6 -1 -1</clus>
<clus scale="   93.179">  7  8 -1 -1</clus>
<clus scale="  193.000">  1  7  2 -1</clus>
<clus scale="  261.714">  2  9  1 -1</clus>
<clus scale="  261.714">  2  5  1 -1</clus>
</clustering>
</event>
<event>
 9    2  0.1723348E-004  0.2274708E+03  0.7546771E-02  0.1129853E+00
         21   -1    0    0  501  502  0.00000000000E+00  0.00000000000E+00  0.11426471653E+03  0.11426471653E+03  0.00000000000E+00 0.  1.
          2   -1    0    0  502    0 -0.00000000000E+00 -0.00000000000E+00 -0.57846923675E+03  0.57846923675E+03  0.00000000000E+00 0. -1.
         23    2    1    2    0    0 -0.63222337029E+02  0.21967417989E+03 -0.26084525509E+03  0.36084273824E+03  0.99566186145E+02 0.  0.
         24    2    1    2    0    0  0.85998899133E+02 -0.16141868343E+03 -0.15177140312E+03  0.25081235125E+03  0.80127864831E+02 0.  0.
        -13    1    4    4    0    0  0.60134128329E+02 -0.50545320172E+02 -0.95974566133E+02  0.12402443358E+03  0.00000000000E+00 0.  1.
         14    1    4    4    0    0  0.25864770803E+02 -0.11087336325E+03 -0.55796836987E+02  0.12678791767E+03  0.00000000000E+00 0. -1.
        -13    1    3    3    0    0 -0.32212235834E+02  0.36766830713E+02 -0.11784936129E+02  0.50282329875E+02  0.00000000000E+00 0.  1.
         13    1    3    3    0    0 -0.31010101195E+02  0.18290734918E+03 -0.24906031896E+03  0.31056040836E+03  0.00000000000E+00 0. -1.
          1    1    1    2  501    0 -0.22776562103E+02 -0.58255496462E+02 -0.51587862007E+02  0.81078863804E+02  0.00000000000E+00 0. -1.
<scales pt_clust_5="13000.00000" pt_clust_6="13000.00000" pt_clust_7="13000.00000" pt_clust_8="13000.00000" pt_clust_9="62.54978"></scales>
<clustering>
<clus scale="   62.550">  1  9  2 -1</clus>
<clus scale="   80.128">  5  6 -1 -1</clus>
<clus scale="   99.566">  7  8 -1 -1</clus>
<clus scale="  219.659">  1  5  2 -1</clus>
<clus scale="   62.550">  1  5  2 -1</clus>
</clustering>
</event>
<event>
 9    2  0.1723348E-004  0.8315946E+02  0.7546771E-02  0.1322334E+00
         21   -1    0    0  501  502  0.00000000000E+00  0.00000000000E+00  0.23700677643E+02  0.23700677643E+02  0.00000000000E+00 0.  1.
          2   -1    0    0  502    0 -0.00000000000E+00 -0.00000000000E+00 -0.68224638576E+03  0.68224638576E+03  0.00000000000E+00 0. -1.
         24    2    1    2    0    0  0.36980256015E+01  0.19535427649E+02 -0.20211874504E+03  0.21842749512E+03  0.80394497340E+02 0.  0.
         23    2    1    2    0    0  0.51020587632E+02  0.76486649007E-01 -0.15538409967E+03  0.18091630766E+03  0.77352347947E+02 0.  0.
        -11    1    3    3    0    0 -0.30639855121E+02 -0.16929733423E+01 -0.35207961264E+02  0.46704040692E+02  0.00000000000E+00 0.  1.
         12    1    3    3    0    0  0.34337880723E+02  0.21228400991E+02 -0.16691078378E+03  0.17172345443E+03  0.00000000000E+00 0. -1.
        -11    1    4    4    0    0 -0.65393637377E+00 -0.31806949281E+02 -0.48930416073E+02  0.58363475500E+02  0.00000000000E+00 0. -1.
         11    1    4    4    0    0  0.51674524006E+02  0.31883435930E+02 -0.10645368360E+03  0.12255283216E+03  0.00000000000E+00 0.  1.
          1    1    1    2  501    0 -0.54718613234E+02 -0.19611914298E+02 -0.30104286341E+03  0.30660326062E+03  0.00000000000E+00 0. -1.
<scales pt_clust_5="13000.00000" pt_clust_6="13000.00000" pt_clust_7="13000.00000" pt_clust_8="13000.00000" pt_clust_9="58.12708"></scales>
<clustering>
<clus scale="   58.127">  1  9  2 -1</clus>
<clus scale="   77.352">  7  8 -1 -1</clus>
<clus scale="   80.222">  1  7  2 -1</clus>
<clus scale="   80.394">  5  6 -1 -1</clus>
<clus scale="   58.127">  1  5  2 -1</clus>
</clustering>
</event>
<event>
 9    2  0.1723348E-004  0.2331431E+03  0.7546771E-02  0.1137247E+00
          2   -1    0    0  502    0 -0.00000000000E+00  0.00000000000E+00  0.28069771597E+04  0.28069771597E+04  0.00000000000E+00 0. -1.
         21   -1    0    0  501  502  0.00000000000E+00 -0.00000000000E+00 -0.70506636464E+02  0.70506636464E+02  0.00000000000E+00 0.  1.
         23    2    1    2    0    0 -0.14480374479E+03 -0.87005567316E-01  0.15720740498E+03  0.23179260920E+03  0.89696786014E+02 0.  0.
         24    2    1    2    0    0 -0.16815693900E+02 -0.21388579594E+03  0.50949015916E+03  0.55862019993E+03  0.80289502558E+02 0.  0.
        -11    1    4    4    0    0  0.61871963847E+01 -0.96805750146E+02  0.13984595835E+03  0.17019555437E+03  0.00000000000E+00 0.  1.
         12    1    4    4    0    0 -0.23002890284E+02 -0.11708004579E+03  0.36964420081E+03  0.38842464556E+03  0.00000000000E+00 0. -1.
        -13    1    3    3    0    0 -0.31679802064E+02 -0.37608990879E+02  0.62716723862E+02  0.79695881360E+02  0.00000000000E+00 0. -1.
         13    1    3    3    0    0 -0.11312394273E+03  0.37521985312E+02  0.94490681120E+02  0.15209672783E+03  0.00000000000E+00 0.  1.
          1    1    1    2  501    0  0.16161943869E+03  0.21397280151E+03  0.20697729591E+04  0.20870709870E+04  0.00000000000E+00 0. -1.
<scales pt_clust_5="13000.00000" pt_clust_6="13000.00000" pt_clust_7="13000.00000" pt_clust_8="13000.00000" pt_clust_9="218.88203"></scales>
<clustering>
<clus scale="   80.290">  5  6 -1 -1</clus>
<clus scale="   89.697">  7  8 -1 -1</clus>
<clus scale="  170.334">  1  7  2 -1</clus>
<clus scale="  218.882">  2  9  1 -1</clus>
<clus scale="  218.882">  2  5  1 -1</clus>
</clustering>
</event>
<event>
 9    2  0.1723348E-004  0.1116239E+03  0.7546771E-02  0.1262016E+00
          4   -1    0    0  502    0 -0.00000000000E+00  0.00000000000E+00  0.60595133621E+03  0.60595133621E+03  0.00000000000E+00 0. -1.
         21   -1    0    0  501  502  0.00000000000E+00 -0.00000000000E+00 -0.71994160545E+02  0.71994160545E+02  0.00000000000E+00 0.  1.
         24    2    1    2    0    0  0.49335446627E+02  0.36450453469E+02  0.47163070419E+03  0.48268363081E+03  0.82373202362E+02 0.  0.
         23    2    1    2    0    0 -0.61728655676E+01 -0.79763454343E+02  0.49631117000E+02  0.13281031293E+03  0.93675068874E+02 0.  0.
        -13    1    3    3    0    0  0.18720557102E+02 -0.26502679165E+02  0.16555539484E+03  0.16870518671E+03  0.00000000000E+00 0.  1.
         14    1    3    3    0    0  0.30614889525E+02  0.62953132635E+02  0.30607530934E+03  0.31397844410E+03  0.00000000000E+00 0. -1.
        -13    1    4    4    0    0 -0.24944369754E+02  0.13012500210E+02  0.69703720605E+01  0.28985044951E+02  0.00000000000E+00 0. -1.
         13    1    4    4    0    0  0.18771504187E+02 -0.92775954552E+02  0.42660744939E+02  0.10382526798E+03  0.00000000000E+00 0.  1.
          3    1    1    2  501    0 -0.43162581060E+02  0.43313000873E+02  0.12695354477E+02  0.62451553013E+02  0.00000000000E+00 0. -1.
<scales pt_clust_5="13000.00000" pt_clust_6="13000.00000" pt_clust_7="13000.00000" pt_clust_8="13000.00000" pt_clust_9="61.14756"></scales>
<clustering>
<clus scale="   61.148">  2  9  1 -1</clus>
<clus scale="   82.373">  5  6 -1 -1</clus>
<clus scale="   93.675">  7  8 -1 -1</clus>
<clus scale="  102.324">  1  5  2 -1</clus>
<clus scale="   61.148">  2  5  1 -1</clus>
</clustering>
</event>
<event>
 9    2  0.1723348E-004  0.1109708E+03  0.7546771E-02  0.1262462E+00
         21   -1    0    0  501  502  0.00000000000E+00  0.00000000000E+00  0.25139551762E+03  0.25139551762E+03  0.00000000000E+00 0.  1.
          2   -1    0    0  502    0 -0.00000000000E+00 -0.00000000000E+00 -0.11699053350E+03  0.11699053350E+03  0.00000000000E+00 0. -1.
         24    2    1    2    0    0  0.21549674900E+02  0.59490379052E+02 -0.44330826481E+02  0.11177160298E+03  0.80772367601E+02 0.  0.
         23    2    1    2    0    0 -0.63372315008E+02 -0.44656144438E+02  0.67652960675E+02  0.13699594084E+03  0.90447460849E+02 0.  0.
        -11    1    3    3    0    0  0.48569845977E+02  0.25818256591E+02 -0.40739836163E+02  0.68449591396E+02  0.00000000000E+00 0.  1.
         12    1    3    3    0    0 -0.27020171077E+02  0.33672122461E+02 -0.35909903172E+01  0.43322011582E+02  0.00000000000E+00 0. -1.
        -13    1    4    4    0    0 -0.35783077061E+02 -0.13117976927E+02 -0.17617000392E+02  0.41986529095E+02  0.00000000000E+00 0. -1.
         13    1    4    4    0    0 -0.27589237947E+02 -0.31538167511E+02  0.85269961067E+02  0.95009411749E+02  0.00000000000E+00 0.  1.
          1    1    1    2  501    0  0.41822640108E+02 -0.14834234614E+02  0.11108284992E+03  0.11961850730E+03  0.00000000000E+00 0. -1.
<scales pt_clust_5="13000.00000" pt_clust_6="13000.00000" pt_clust_7="13000.00000" pt_clust_8="13000.00000" pt_clust_9="44.37553"></scales>
<clustering>
<clus scale="   44.376">  1  9  2 -1</clus>
<clus scale="   80.772">  5  6 -1 -1</clus>
<clus scale="   90.447">  7  8 -1 -1</clus>
<clus scale="  103.237">  2  5  1 -1</clus>
<clus scale="   44.376">  1  5  2 -1</clus>
</clustering>
</event>
<event>
 9    2  0.1723348E-004  0.1466880E+03  0.7546771E-02  0.1206862E+00
          2   -1    0    0  502    0 -0.00000000000E+00  0.00000000000E+00  0.74949511900E+03  0.74949511900E+03  0.00000000000E+00 0. -1.
         21   -1    0    0  501  502  0.00000000000E+00 -0.00000000000E+00 -0.55279105761E+02  0.55279105761E+02  0.00000000000E+00 0. -1.
         24    2    1    2    0    0  0.83866438855E+02  0.69091015818E+02  0.43960886079E+03  0.46001292393E+03  0.80924604803E+02 0.  0.
         23    2    1    2    0    0 -0.13664217055E+03 -0.32679442412E+02  0.19014501596E+03  0.25384129438E+03  0.92418866623E+02 0.  0.
        -11    1    3    3    0    0  0.63092014971E+02  0.53168359906E+02  0.16821704709E+03  0.18736182050E+03  0.00000000000E+00 0.  1.
         12    1    3    3    0    0  0.20774423884E+02  0.15922655912E+02  0.27139181370E+03  0.27265110343E+03  0.00000000000E+00 0. -1.
        -13    1    4    4    0    0 -0.12251409893E+02  0.27396403363E+02  0.35379441380E+02  0.46393586129E+02  0.00000000000E+00 0.  1.
         13    1    4    4    0    0 -0.12439076065E+03 -0.60075845775E+02  0.15476557458E+03  0.20744770825E+03  0.00000000000E+00 0. -1.
          1    1    1    2  501    0  0.52775731692E+02 -0.36411573406E+02  0.64462136489E+02  0.90920006458E+02  0.00000000000E+00 0. -1.
<scales pt_clust_5="13000.00000" pt_clust_6="13000.00000" pt_clust_7="13000.00000" pt_clust_8="13000.00000" pt_clust_9="64.11771"></scales>
<clustering>
<clus scale="   64.118">  2  9  1 -1</clus>
<clus scale="   80.925">  5  6 -1 -1</clus>
<clus scale="   92.419">  7  8 -1 -1</clus>
<clus scale="  139.732">  1  5  2 -1</clus>
<clus scale="   64.118">  2  5  1 -1</clus>
</clustering>
</event>
<event>
 9    2  0.1723348E-004  0.1633965E+03  0.7546771E-02  0.1186276E+00
          4   -1    0    0  502    0 -0.00000000000E+00  0.00000000000E+00  0.10888555239E+03  0.10888555239E+03  0.00000000000E+00 0. -1.
         21   -1    0    0  501  502  0.00000000000E+00 -0.00000000000E+00 -0.60368847261E+03  0.60368847261E+03  0.00000000000E+00 0.  1.
         23    2    1    2    0    0  0.14231309508E+02 -0.13599022494E+03 -0.50962263257E+01  0.15627797673E+03  0.75504721973E+02 0.  0.
         24    2    1    2    0    0  0.57391133285E+02  0.15269200677E+03 -0.29004234145E+03  0.34351781285E+03  0.85272133782E+02 0.  0.
        -13    1    4    4    0    0  0.62668071173E+02  0.14194534041E+03 -0.29267278926E+03  0.33125991062E+03  0.00000000000E+00 0.  1.
         14    1    4    4    0    0 -0.52769378873E+01  0.10746666355E+02  0.26304478174E+01  0.12257902224E+02  0.00000000000E+00 0. -1.
        -11    1    3    3    0    0 -0.28398591187E+02 -0.62536470001E+02 -0.16366058899E+02  0.70605509314E+02  0.00000000000E+00 0.  1.
         11    1    3    3    0    0  0.42629900694E+02 -0.73453754936E+02  0.11269832573E+02  0.85672467419E+02  0.00000000000E+00 0. -1.
          3    1    1    2  501    0 -0.71622442793E+02 -0.16701781829E+02 -0.19966435245E+03  0.21277823541E+03  0.00000000000E+00 0. -1.
<scales pt_clust_5="13000.00000" pt_clust_6="13000.00000" pt_clust_7="13000.00000" pt_clust_8="13000.00000" pt_clust_9="73.54403"></scales>
<clustering>
<clus scale="   73.544">  2  9  1 -1</clus>
<clus scale="   75.505">  7  8 -1 -1</clus>
<clus scale="   85.272">  5  6 -1 -1</clus>
<clus scale="  158.518">  1  7  2 -1</clus>
<clus scale="   73.544">  2  5  1 -1</clus>
</clustering>
</event>
<event>
 9    2  0.1723348E-004  0.9464721E+02  0.7546771E-02  0.1298260E+00
         21   -1    0    0  501  502  0.00000000000E+00  0.00000000000E+00  0.66120218619E+02  0.66120218619E+02  0.00000000000E+00 0.  1.
          2   -1    0    0  502    0 -0.00000000000E+00 -0.00000000000E+00 -0.43120998224E+03  0.43120998224E+03  0.00000000000E+00 0. -1.
         24    2    1    2    0    0 -0.22038760182E+02  0.10521202012E+02 -0.35275631508E+03  0.36271020107E+03  0.80779140166E+02 0.  0.
         23    2    1    2    0    0  0.25730187524E+02  0.17318080973E+02  0.12008353626E+02  0.97455828259E+02  0.91605018565E+02 0.  0.
        -11    1    3    3    0    0  0.13916429743E+02 -0.28232792379E+02 -0.13769622221E+03  0.14124803430E+03  0.00000000000E+00 0.  1.
         12    1    3    3    0    0 -0.35955189925E+02  0.38753994391E+02 -0.21506009287E+03  0.22146216677E+03  0.00000000000E+00 0. -1.
        -13    1    4    4    0    0  0.44474577356E+02 -0.23202026260E+02 -0.32672049925E+01  0.50269241908E+02  0.00000000000E+00 0. -1.
         13    1    4    4    0    0 -0.18744389832E+02  0.40520107233E+02  0.15275558619E+02  0.47186586351E+02  0.00000000000E+00 0.  1.
          1    1    1    2  501    0 -0.36914273424E+01 -0.27839282985E+02 -0.24341802160E+02  0.37164171527E+02  0.00000000000E+00 0. -1.
<scales pt_clust_5="13000.00000" pt_clust_6="13000.00000" pt_clust_7="13000.00000" pt_clust_8="13000.00000" pt_clust_9="28.08295"></scales>
<clustering>
<clus scale="   28.083">  1  9  2 -1</clus>
<clus scale="   80.779">  5  6 -1 -1</clus>
<clus scale="   84.213">  2  5  1 -1</clus>
<clus scale="   91.605">  7  8 -1 -1</clus>
<clus scale="   28.083">  1  5  2 -1</clus>
</clustering>
</event>
<event>
 9    2  0.1723348E-004  0.1448548E+03  0.7546771E-02  0.1233847E+00
         21   -1    0    0  501  502  0.00000000000E+00  0.00000000000E+00  0.58435392681E+02  0.58435392681E+02  0.00000000000E+00 0. -1.
          4   -1    0    0  502    0 -0.00000000000E+00 -0.00000000000E+00 -0.54374814285E+03  0.54374814285E+03  0.00000000000E+00 0. -1.
         24    2    1    2    0    0 -0.20181256042E+02  0.59032843217E+00 -0.19921918429E+03  0.21557275730E+03  0.79847972537E+02 0.  0.
         23    2    1    2    0    0 -0.43580553680E+02  0.99289344063E+02 -0.17224143463E+03  0.22228237184E+03  0.89357162692E+02 0.  0.
        -11    1    3    3    0    0 -0.15467125556E+01 -0.35036708426E+02 -0.50284773730E+02  0.61306783687E+02  0.00000000000E+00 0.  1.
         12    1    3    3    0    0 -0.18634543487E+02  0.35627036858E+02 -0.14893441056E+03  0.15426597361E+03  0.00000000000E+00 0. -1.
        -13    1    4    4    0    0  0.71021319685E+01  0.62042474726E+02 -0.35654533108E+02  0.71909350433E+02  0.00000000000E+00 0.  1.
         13    1    4    4    0    0 -0.50682685649E+02  0.37246869337E+02 -0.13658690152E+03  0.15037302141E+03  0.00000000000E+00 0. -1.
          3    1    1    2  501    0  0.63761809723E+02 -0.99879672495E+02 -0.11385213126E+03  0.16432840640E+03  0.00000000000E+00 0. -1.
<scales pt_clust_5="13000.00000" pt_clust_6="13000.00000" pt_clust_7="13000.00000" pt_clust_8="13000.00000" pt_clust_9="114.00971"></scales>
<clustering>
<clus scale="   79.848">  5  6 -1 -1</clus>
<clus scale="   82.361">  2  5  1 -1</clus>
<clus scale="   89.357">  7  8 -1 -1</clus>
<clus scale="  114.010">  1  9  2 -1</clus>
<clus scale="  114.010">  1  5  2 -1</clus>
</clustering>
</event>
<event>
 9    2  0.1723348E-004  0.1576264E+03  0.7546771E-02  0.1209531E+00
         21   -1    0    0  501  502  0.00000000000E+00  0.00000000000E+00  0.16141099226E+03  0.16141099226E+03  0.00000000000E+00 0. -1.
          4   -1    0    0  502    0 -0.00000000000E+00 -0.00000000000E+00 -0.41369668397E+03  0.41369668397E+03  0.00000000000E+00 0. -1.
         24    2    1    2    0    0  0.59669772219E+02  0.36014306770E+02 -0.25800906688E+03  0.27907044444E+03  0.80337552628E+02 0.  0.
         23    2    1    2    0    0  0.98169664374E+02 -0.62685874905E+01 -0.12628962827E+02  0.13437429891E+03  0.90666329541E+02 0.  0.
        -11    1    3    3    0    0  0.31276408640E+02  0.35545885537E+01 -0.20242908725E+02  0.37424914039E+02  0.00000000000E+00 0.  1.
         12    1    3    3    0    0  0.28393363579E+02  0.32459718217E+02 -0.23776615815E+03  0.24164553040E+03  0.00000000000E+00 0. -1.
        -11    1    4    4    0    0  0.51400251050E+02 -0.48569725483E+02 -0.65730880787E+01  0.71022598716E+02  0.00000000000E+00 0. -1.
         11    1    4    4    0    0  0.46769413324E+02  0.42301137993E+02 -0.60558747480E+01  0.63351700191E+02  0.00000000000E+00 0.  1.
          3    1    1    2  501    0 -0.15783943659E+03 -0.29745719280E+02  0.18352337991E+02  0.16166293289E+03  0.00000000000E+00 0. -1.
<scales pt_clust_5="13000.00000" pt_clust_6="13000.00000" pt_clust_7="13000.00000" pt_clust_8="13000.00000" pt_clust_9="128.94069"></scales>
<clustering>
<clus scale="   80.338">  5  6 -1 -1</clus>
<clus scale="   90.666">  7  8 -1 -1</clus>
<clus scale="  106.356">  2  5  1 -1</clus>
<clus scale="  128.941">  1  9  2 -1</clus>
<clus scale="  128.941">  1  5  2 -1</clus>
</clustering>
</event>
<event>
 9    2  0.1723348E-004  0.1494849E+03  0.7546771E-02  0.1225077E+00
         21   -1    0    0  501  502  0.00000000000E+00  0.00000000000E+00  0.10111739656E+03  0.10111739656E+03  0.00000000000E+00 0. -1.
          2   -1    0    0  502    0 -0.00000000000E+00 -0.00000000000E+00 -0.63878638826E+03  0.63878638826E+03  0.00000000000E+00 0. -1.
         24    2    1    2    0    0  0.13678315015E+02  0.37739507077E+02 -0.39192303542E+03  0.40208690347E+03  0.80366943149E+02 0.  0.
         23    2    1    2    0    0 -0.11872277363E+03  0.20177806685E+02 -0.22423650586E+01  0.15078203376E+03  0.90708062717E+02 0.  0.
        -13    1    3    3    0    0 -0.25022146317E+02 -0.10137552054E+02 -0.90489817298E+02  0.94431376155E+02  0.00000000000E+00 0.  1.
         14    1    3    3    0    0  0.38700461332E+02  0.47877059131E+02 -0.30143321812E+03  0.30765552731E+03  0.00000000000E+00 0. -1.
        -11    1    4    4    0    0 -0.17152568120E+02 -0.26735804969E+02  0.18840069754E+02  0.36931857370E+02  0.00000000000E+00 0.  1.
         11    1    4    4    0    0 -0.10157020551E+03  0.46913611654E+02 -0.21082434813E+02  0.11385017639E+03  0.00000000000E+00 0. -1.
          1    1    1    2  501    0  0.10504445862E+03 -0.57917313762E+02 -0.14350359122E+03  0.18703484759E+03  0.00000000000E+00 0. -1.
<scales pt_clust_5="13000.00000" pt_clust_6="13000.00000" pt_clust_7="13000.00000" pt_clust_8="13000.00000" pt_clust_9="118.81829"></scales>
<clustering>
<clus scale="   80.367">  5  6 -1 -1</clus>
<clus scale="   89.834">  2  5  1 -1</clus>
<clus scale="   90.708">  7  8 -1 -1</clus>
<clus scale="  118.818">  1  9  2 -1</clus>
<clus scale="  118.818">  1  5  2 -1</clus>
</clustering>
</event>
<event>
 9    2  0.1723348E-004  0.1861585E+03  0.7546771E-02  0.1170687E+00
         21   -1    0    0  501  502  0.00000000000E+00  0.00000000000E+00  0.85372375648E+02  0.85372375648E+02  0.00000000000E+00 0. -1.
          2   -1    0    0  502    0 -0.00000000000E+00 -0.00000000000E+00 -0.90055234696E+03  0.90055234696E+03  0.00000000000E+00 0. -1.
         24    2    1    2    0    0 -0.92241500180E+02  0.90899197452E+02 -0.19485638789E+03  0.24732509349E+03  0.80184359523E+02 0.  0.
         23    2    1    2    0    0  0.75614046875E+02  0.12915530121E+03 -0.19816841077E+03  0.26224320334E+03  0.84274567675E+02 0.  0.
        -13    1    3    3    0    0 -0.90724030161E+02  0.67972862680E+02 -0.10479802327E+03  0.15438194645E+03  0.00000000000E+00 0.  1.
         14    1    3    3    0    0 -0.15174700191E+01  0.22926334772E+02 -0.90058364629E+02  0.92943147036E+02  0.00000000000E+00 0. -1.
        -13    1    4    4    0    0  0.51628995421E+02  0.61258391777E+02 -0.16403705377E+03  0.18255491980E+03  0.00000000000E+00 0.  1.
         13    1    4    4    0    0  0.23985051454E+02  0.67896909436E+02 -0.34131356995E+02  0.79688283546E+02  0.00000000000E+00 0. -1.
          1    1    1    2  501    0  0.16627453306E+02 -0.22005449866E+03 -0.42215517265E+03  0.47635642578E+03  0.00000000000E+00 0. -1.
<scales pt_clust_5="13000.00000" pt_clust_6="13000.00000" pt_clust_7="13000.00000" pt_clust_8="13000.00000" pt_clust_9="165.99044"></scales>
<clustering>
<clus scale="   80.184">  5  6 -1 -1</clus>
<clus scale="   84.275">  7  8 -1 -1</clus>
<clus scale="  152.318">  2  5  1 -1</clus>
<clus scale="  165.990">  1  9  2 -1</clus>
<clus scale="  165.990">  1  5  2 -1</clus>
</clustering>
</event>
<event>
 9    2  0.1723348E-004  0.1474813E+03  0.7546771E-02  0.1205423E+00
         21   -1    0    0  501  502  0.00000000000E+00  0.00000000000E+00  0.88390458378E+02  0.88390458378E+02  0.00000000000E+00 0.  1.
          2   -1    0    0  502    0 -0.00000000000E+00 -0.00000000000E+00 -0.96229442860E+03  0.96229442860E+03  0.00000000000E+00 0. -1.
         23    2    1    2    0    0  0.10551644697E+03 -0.44346696171E+02 -0.60911111851E+03  0.62626332942E+03  0.89939162995E+02 0.  0.
         24    2    1    2    0    0 -0.95478457642E+02  0.80994626210E+02 -0.32260322872E+03  0.35524156265E+03  0.80296072796E+02 0.  0.
        -13    1    4    4    0    0 -0.62324946987E+02  0.90355108718E+02 -0.20299834803E+03  0.23077429231E+03  0.00000000000E+00 0.  1.
         14    1    4    4    0    0 -0.33153510655E+02 -0.93604825081E+01 -0.11960488069E+03  0.12446727034E+03  0.00000000000E+00 0. -1.
        -13    1    3    3    0    0  0.43515682960E+02 -0.61380669098E+02 -0.41541833067E+03  0.42217720291E+03  0.00000000000E+00 0. -1.
         13    1    3    3    0    0  0.62000764006E+02  0.17033972927E+02 -0.19369278784E+03  0.20408612651E+03  0.00000000000E+00 0.  1.
          1    1    1    2  501    0 -0.10037989323E+02 -0.36647930039E+02  0.57810377008E+02  0.69179994909E+02  0.00000000000E+00 0. -1.
<scales pt_clust_5="13000.00000" pt_clust_6="13000.00000" pt_clust_7="13000.00000" pt_clust_8="13000.00000" pt_clust_9="37.99779"></scales>
<clustering>
<clus scale="   37.998">  1  9  2 -1</clus>
<clus scale="   80.296">  5  6 -1 -1</clus>
<clus scale="   89.939">  7  8 -1 -1</clus>
<clus scale="  141.807">  1  5  2 -1</clus>
<clus scale="   37.998">  1  5  2 -1</clus>
</clustering>
</event>
<event>
 9    2  0.1723348E-004  0.1195979E+03  0.7546771E-02  0.1248059E+00
          2   -1    0    0  502    0 -0.00000000000E+00  0.00000000000E+00  0.11321345327E+03  0.11321345327E+03  0.00000000000E+00 0. -1.
         21   -1    0    0  501  502  0.00000000000E+00 -0.00000000000E+00 -0.29354246112E+03  0.29354246112E+03  0.00000000000E+00 0.  1.
         24    2    1    2    0    0  0.11244681175E+02  0.73480515878E+02  0.38043157446E+02  0.11377419489E+03  0.77275199945E+02 0.  0.
         23    2    1    2    0    0 -0.29301598365E+02 -0.84271067284E+02 -0.74308341982E+02  0.14739025874E+03  0.90785253405E+02 0.  0.
        -11    1    3    3    0    0 -0.27246423353E+02  0.24099461722E+02 -0.64793565625E+01  0.36947715792E+02  0.00000000000E+00 0.  1.
         12    1    3    3    0    0  0.38491104528E+02  0.49381054156E+02  0.44522514008E+02  0.76826479100E+02  0.00000000000E+00 0. -1.
        -13    1    4    4    0    0 -0.49353423566E+02 -0.87304145913E+02 -0.77651495051E+02  0.12683662324E+03  0.00000000000E+00 0.  1.
         13    1    4    4    0    0  0.20051825201E+02  0.30330786296E+01  0.33431530687E+01  0.20553635501E+02  0.00000000000E+00 0. -1.
          1    1    1    2  501    0  0.18056917190E+02  0.10790551406E+02 -0.14406382331E+03  0.14559146075E+03  0.00000000000E+00 0. -1.
<scales pt_clust_5="13000.00000" pt_clust_6="13000.00000" pt_clust_7="13000.00000" pt_clust_8="13000.00000" pt_clust_9="21.03540"></scales>
<clustering>
<clus scale="   21.035">  2  9  1 -1</clus>
<clus scale="   77.275">  5  6 -1 -1</clus>
<clus scale="   90.785">  7  8 -1 -1</clus>
<clus scale="  109.696">  1  5  2 -1</clus>
<clus scale="   21.035">  2  5  1 -1</clus>
</clustering>
</event>
<event>
 9    2  0.1723348E-004  0.1046643E+03  0.7546771E-02  0.1273582E+00
          2   -1    0    0  502    0 -0.00000000000E+00  0.00000000000E+00  0.98438218242E+02  0.98438218242E+02  0.00000000000E+00 0. -1.
         21   -1    0    0  501  502  0.00000000000E+00 -0.00000000000E+00 -0.38607890153E+03  0.38607890153E+03  0.00000000000E+00 0.  1.
         23    2    1    2    0    0 -0.15803439480E+02 -0.40686248765E+02 -0.31001054093E+02  0.10390029588E+03  0.89045418696E+02 0.  0.
         24    2    1    2    0    0 -0.14163447173E+02 -0.56877143399E+02 -0.25967000596E+03  0.27850995356E+03  0.81875940053E+02 0.  0.
        -11    1    4    4    0    0  0.31529256709E+02 -0.22369352168E+02 -0.14863938091E+03  0.15358433352E+03  0.00000000000E+00 0.  1.
         12    1    4    4    0    0 -0.45692703882E+02 -0.34507791230E+02 -0.11103062505E+03  0.12492562004E+03  0.00000000000E+00 0. -1.
        -13    1    3    3    0    0  0.25477531022E+02 -0.49889464541E+02 -0.24367722851E+02  0.61088862947E+02  0.00000000000E+00 0.  1.
         13    1    3    3    0    0 -0.41280970502E+02  0.92032157766E+01 -0.66333312425E+01  0.42811432931E+02  0.00000000000E+00 0. -1.
          1    1    1    2  501    0  0.29966886653E+02  0.97563392164E+02  0.30303767654E+01  0.10210687033E+03  0.00000000000E+00 0. -1.
<scales pt_clust_5="13000.00000" pt_clust_6="13000.00000" pt_clust_7="13000.00000" pt_clust_8="13000.00000" pt_clust_9="65.19939"></scales>
<clustering>
<clus scale="   81.876">  5  6 -1 -1</clus>
<clus scale="   89.045">  7  8 -1 -1</clus>
<clus scale="   99.168">  1  7  2 -1</clus>
<clus scale="   65.199">  2  9  1 -1</clus>
<clus scale="   65.199">  2  5  1 -1</clus>
</clustering>
</event>
<event>
 9    2  0.1723348E-004  0.1325251E+03  0.7546771E-02  0.1227527E+00
         21   -1    0    0  501  502  0.00000000000E+00  0.00000000000E+00  0.26376120483E+03  0.26376120483E+03  0.00000000000E+00 0.  1.
         -3   -1    0    0    0  501 -0.00000000000E+00 -0.00000000000E+00 -0.17950226677E+03  0.17950226677E+03  0.00000000000E+00 0.  1.
         24    2    1    2    0    0 -0.87698020462E+02 -0.49561307178E+01 -0.78604979692E+02  0.14293510583E+03  0.80846741562E+02 0.  0.
         23    2    1    2    0    0  0.12199906320E+03 -0.15382126605E+02  0.19475230648E+03  0.24926883601E+03  0.95321091517E+02 0.  0.
        -11    1    3    3    0    0 -0.44294659502E+02 -0.42918013207E+02 -0.42511292026E+02  0.74907827814E+02  0.00000000000E+00 0.  1.
         12    1    3    3    0    0 -0.43403360959E+02  0.37961882489E+02 -0.36093687666E+02  0.68027278014E+02  0.00000000000E+00 0. -1.
        -13    1    4    4    0    0  0.11022740465E+03 -0.48507039625E+02  0.15028903851E+03  0.19258714580E+03  0.00000000000E+00 0.  1.
         13    1    4    4    0    0  0.11771658553E+02  0.33124913020E+02  0.44463267962E+02  0.56681690215E+02  0.00000000000E+00 0. -1.
         -4    1    1    2    0  502 -0.34301042743E+02  0.20338257323E+02 -0.31888388726E+02  0.51059529764E+02  0.00000000000E+00 0.  1.
<scales pt_clust_5="13000.00000" pt_clust_6="13000.00000" pt_clust_7="13000.00000" pt_clust_8="13000.00000" pt_clust_9="39.87741"></scales>
<clustering>
<clus scale="   39.877">  1  9  2 -1</clus>
<clus scale="   80.847">  5  6 -1 -1</clus>
<clus scale="   95.321">  7  8 -1 -1</clus>
<clus scale="  122.528">  2  5  1 -1</clus>
<clus scale="   39.877">  1  5  2 -1</clus>
</clustering>
</event>
<event>
 9    2  0.1723348E-004  0.1718669E+03  0.7546771E-02  0.1203567E+00
         21   -1    0    0  501  502  0.00000000000E+00  0.00000000000E+00  0.22531164006E+03  0.22531164006E+03  0.00000000000E+00 0. -1.
          4   -1    0    0  502    0 -0.00000000000E+00 -0.00000000000E+00 -0.19847874947E+03  0.19847874947E+03  0.00000000000E+00 0. -1.
         23    2    1    2    0    0 -0.16539902939E+02 -0.18972426737E+02 -0.20192486377E+02  0.95422397600E+02  0.89800757748E+02 0.  0.
         24    2    1    2    0    0 -0.14122439319E+03 -0.15178021764E+02  0.24529633053E+02  0.16538981927E+03  0.81101096449E+02 0.  0.
        -11    1    4    4    0    0 -0.21022706448E+02  0.28663238678E+02  0.33837212371E+01  0.35706932202E+02  0.00000000000E+00 0.  1.
         12    1    4    4    0    0 -0.12020168674E+03 -0.43841260442E+02  0.21145911816E+02  0.12968288707E+03  0.00000000000E+00 0. -1.
        -11    1    3    3    0    0 -0.36709004987E+02 -0.94232526044E+01 -0.47106953744E+02  0.60460018424E+02  0.00000000000E+00 0.  1.
         11    1    3    3    0    0  0.20169102048E+02 -0.95491741322E+01  0.26914467367E+02  0.34962379176E+02  0.00000000000E+00 0. -1.
          3    1    1    2  501    0  0.15776429613E+03  0.34150448500E+02  0.22495743914E+02  0.16297817265E+03  0.00000000000E+00 0. -1.
<scales pt_clust_5="13000.00000" pt_clust_6="13000.00000" pt_clust_7="13000.00000" pt_clust_8="13000.00000" pt_clust_9="151.52840"></scales>
<clustering>
<clus scale="   81.101">  5  6 -1 -1</clus>
<clus scale="   89.801">  7  8 -1 -1</clus>
<clus scale="   93.261">  2  7  1 -1</clus>
<clus scale="  151.528">  1  9  2 -1</clus>
<clus scale="  151.528">  1  5  2 -1</clus>
</clustering>
</event>
<event>
 9    2  0.1723348E-004  0.1735491E+03  0.7546771E-02  0.1194120E+00
         21   -1    0    0  501  502  0.00000000000E+00  0.00000000000E+00  0.39101856960E+03  0.39101856960E+03  0.00000000000E+00 0. -1.
          2   -1    0    0  502    0 -0.00000000000E+00 -0.00000000000E+00 -0.13567954120E+03  0.13567954120E+03  0.00000000000E+00 0. -1.
         24    2    1    2    0    0  0.74743037413E+02  0.22529223288E+02  0.21318924813E+02  0.11327551998E+03  0.79263858904E+02 0.  0.
         23    2    1    2    0    0 -0.18598585309E+03  0.41712121317E+02  0.12866297240E+03  0.24728397554E+03  0.90909655575E+02 0.  0.
        -13    1    3    3    0    0  0.28531824816E+02 -0.12209971743E+02  0.41695151104E+02  0.51977245626E+02  0.00000000000E+00 0.  1.
         14    1    3    3    0    0  0.46211212598E+02  0.34739195031E+02 -0.20376226291E+02  0.61298274356E+02  0.00000000000E+00 0. -1.
        -13    1    4    4    0    0 -0.16364820457E+03  0.50534754597E+02  0.72094299929E+02  0.18582810434E+03  0.00000000000E+00 0.  1.
         13    1    4    4    0    0 -0.22337648518E+02 -0.88226332804E+01  0.56568672466E+02  0.61455871192E+02  0.00000000000E+00 0. -1.
          1    1    1    2  501    0  0.11124281568E+03 -0.64241344605E+02  0.10535713119E+03  0.16613861528E+03  0.00000000000E+00 0. -1.
<scales pt_clust_5="13000.00000" pt_clust_6="13000.00000" pt_clust_7="13000.00000" pt_clust_8="13000.00000" pt_clust_9="147.83340"></scales>
<clustering>
<clus scale="   79.264">  5  6 -1 -1</clus>
<clus scale="   90.910">  7  8 -1 -1</clus>
<clus scale="  111.251">  2  5  1 -1</clus>
<clus scale="  147.833">  1  9  2 -1</clus>
<clus scale="  147.833">  1  5  2 -1</clus>
</clustering>
</event>
<event>
 9    2  0.1723348E-004  0.1069253E+03  0.7546771E-02  0.1270978E+00
         21   -1    0    0  501  502  0.00000000000E+00  0.00000000000E+00  0.30936979624E+03  0.30936979624E+03  0.00000000000E+00 0.  1.
          2   -1    0    0  502    0 -0.00000000000E+00 -0.00000000000E+00 -0.67353866977E+02  0.67353866977E+02  0.00000000000E+00 0. -1.
         24    2    1    2    0    0 -0.64184289367E+02 -0.49296960867E+00  0.27355812250E+02  0.10604268920E+03  0.79855152919E+02 0.  0.
         23    2    1    2    0    0  0.30128090167E+02  0.68324672001E+01  0.21565602848E+03  0.23602544382E+03  0.90808056265E+02 0.  0.
        -11    1    3    3    0    0 -0.57624432390E+02  0.29986101286E+02  0.60533268188E+00  0.64962357610E+02  0.00000000000E+00 0.  1.
         12    1    3    3    0    0 -0.65598569763E+01 -0.30479070895E+02  0.26750479568E+02  0.41080331587E+02  0.00000000000E+00 0. -1.
        -11    1    4    4    0    0 -0.31074311038E+02 -0.81333592456E+01  0.87727971267E+02  0.93423558494E+02  0.00000000000E+00 0.  1.
         11    1    4    4    0    0  0.61202401205E+02  0.14965826446E+02  0.12792805722E+03  0.14260188532E+03  0.00000000000E+00 0. -1.
          1    1    1    2  501    0  0.34056199200E+02 -0.63394975914E+01 -0.99591147432E+00  0.34655530198E+02  0.00000000000E+00 0. -1.
<scales pt_clust_5="13000.00000" pt_clust_6="13000.00000" pt_clust_7="13000.00000" pt_clust_8="13000.00000" pt_clust_9="34.64123"></scales>
<clustering>
<clus scale="   34.641">  1  9  2 -1</clus>
<clus scale="   79.855">  5  6 -1 -1</clus>
<clus scale="   90.808">  7  8 -1 -1</clus>
<clus scale="   97.794">  2  5  1 -1</clus>
<clus scale="   34.641">  1  5  2 -1</clus>
</clustering>
</event>
<event>
 9    2  0.1723348E-004  0.1202959E+03  0.7546771E-02  0.1246261E+00
          2   -1    0    0  502    0 -0.00000000000E+00  0.00000000000E+00  0.16741982369E+03  0.16741982369E+03  0.00000000000E+00 0. -1.
         21   -1    0    0  501  502  0.00000000000E+00 -0.00000000000E+00 -0.13424542470E+03  0.13424542470E+03  0.00000000000E+00 0.  1.
         24    2    1    2    0    0 -0.25168699957E+02 -0.45630512455E+02  0.32850758016E+01  0.10635454355E+03  0.92654681950E+02 0.  0.
         23    2    1    2    0    0  0.32582962433E+02  0.10219837488E+03  0.10208260562E+02  0.13495974317E+03  0.81263561484E+02 0.  0.
        -11    1    3    3    0    0  0.20664754820E+02  0.57702675359E+01 -0.24077780543E+02  0.32250078994E+02  0.00000000000E+00 0.  1.
         12    1    3    3    0    0 -0.45833454778E+02 -0.51400779990E+02  0.27362856345E+02  0.74104464561E+02  0.00000000000E+00 0. -1.
        -11    1    4    4    0    0  0.23562753131E+02  0.58858577236E+02 -0.34385511109E+02  0.72124190280E+02  0.00000000000E+00 0.  1.
         11    1    4    4    0    0  0.90202093018E+01  0.43339797642E+02  0.44593771671E+02  0.62835552893E+02  0.00000000000E+00 0. -1.
          1    1    1    2  501    0 -0.74142624755E+01 -0.56567862424E+02  0.19681062623E+02  0.60350961659E+02  0.00000000000E+00 0. -1.
<scales pt_clust_5="13000.00000" pt_clust_6="13000.00000" pt_clust_7="13000.00000" pt_clust_8="13000.00000" pt_clust_9="57.05171"></scales>
<clustering>
<clus scale="   57.052">  2  9  1 -1</clus>
<clus scale="   81.264">  7  8 -1 -1</clus>
<clus scale="   92.655">  5  6 -1 -1</clus>
<clus scale="  111.759">  2  7  1 -1</clus>
<clus scale="   57.052">  2  5  1 -1</clus>
</clustering>
</event>
<event>
 9    2  0.1723348E-004  0.9984485E+02  0.7546771E-02  0.1284515E+00
         -1   -1    0    0    0  501 -0.00000000000E+00  0.00000000000E+00  0.90244364390E+02  0.90244364390E+02  0.00000000000E+00 0.  1.
         21   -1    0    0  501  502  0.00000000000E+00 -0.00000000000E+00 -0.20074501336E+03  0.20074501336E+03  0.00000000000E+00 0. -1.
         23    2    1    2    0    0  0.58242753879E+01 -0.42714147863E+02  0.97372868196E+01  0.98256610970E+02  0.87756060949E+02 0.  0.
         24    2    1    2    0    0  0.12184913289E+02  0.55146340325E+02 -0.33344503987E+02  0.10312607743E+03  0.79583546894E+02 0.  0.
        -13    1    4    4    0    0  0.15589974960E+02  0.67909517297E+02 -0.26688359002E+01  0.69727129181E+02  0.00000000000E+00 0.  1.
         14    1    4    4    0    0 -0.34050616714E+01 -0.12763176971E+02 -0.30675668087E+02  0.33398948247E+02  0.00000000000E+00 0. -1.
        -11    1    3    3    0    0  0.32454972795E+02 -0.56500726968E+02 -0.39806136109E+01  0.65280186058E+02  0.00000000000E+00 0. -1.
         11    1    3    3    0    0 -0.26630697407E+02  0.13786579105E+02  0.13717900430E+02  0.32976424912E+02  0.00000000000E+00 0.  1.
         -2    1    1    2    0  502 -0.18009188677E+02 -0.12432192462E+02 -0.86893431807E+02  0.89606689357E+02  0.00000000000E+00 0.  1.
<scales pt_clust_5="13000.00000" pt_clust_6="13000.00000" pt_clust_7="13000.00000" pt_clust_8="13000.00000" pt_clust_9="21.88356"></scales>
<clustering>
<clus scale="   21.884">  2  9  1 -1</clus>
<clus scale="   79.584">  5  6 -1 -1</clus>
<clus scale="   87.756">  7  8 -1 -1</clus>
<clus scale="   92.744">  2  5  1 -1</clus>
<clus scale="   21.884">  2  5  1 -1</clus>
</clustering>
</event>
<event>
 9    2  0.1723348E-004  0.1101506E+03  0.7546771E-02  0.1270149E+00
         21   -1    0    0  501  502  0.00000000000E+00  0.00000000000E+00  0.13926171936E+03  0.13926171936E+03  0.00000000000E+00 0.  1.
         -3   -1    0    0    0  501 -0.00000000000E+00 -0.00000000000E+00 -0.19714623975E+03  0.19714623975E+03  0.00000000000E+00 0.  1.
         24    2    1    2    0    0 -0.11978119201E+02  0.37466465492E+02 -0.69220789476E+02  0.11425257767E+03  0.81944630288E+02 0.  0.
         23    2    1    2    0    0 -0.14381010374E+02  0.50809607683E+02  0.57861709194E+02  0.11894644101E+03  0.89508931092E+02 0.  0.
        -13    1    3    3    0    0 -0.18962420549E+02  0.58333793522E+02 -0.27788992467E+02  0.67339683413E+02  0.00000000000E+00 0.  1.
         14    1    3    3    0    0  0.69843013482E+01 -0.20867328030E+02 -0.41431797008E+02  0.46912894259E+02  0.00000000000E+00 0. -1.
        -11    1    4    4    0    0  0.17412365164E+02  0.65840060777E+02  0.31726108976E+02  0.75130886155E+02  0.00000000000E+00 0.  1.
         11    1    4    4    0    0 -0.31793375538E+02 -0.15030453094E+02  0.26135600219E+02  0.43815554853E+02  0.00000000000E+00 0. -1.
         -4    1    1    2    0  502  0.26359129575E+02 -0.88276073175E+02 -0.46525440116E+02  0.10320894043E+03  0.00000000000E+00 0.  1.
<scales pt_clust_5="13000.00000" pt_clust_6="13000.00000" pt_clust_7="13000.00000" pt_clust_8="13000.00000" pt_clust_9="64.19750"></scales>
<clustering>
<clus scale="   81.945">  5  6 -1 -1</clus>
<clus scale="   89.509">  7  8 -1 -1</clus>
<clus scale="   90.896">  2  5  1 -1</clus>
<clus scale="   64.198">  1  9  2 -1</clus>
<clus scale="   64.198">  1  5  2 -1</clus>
</clustering>
</event>
<event>
 9    2  0.1723348E-004  0.1235036E+03  0.7546771E-02  0.1243436E+00
         21   -1    0    0  501  502  0.00000000000E+00  0.00000000000E+00  0.52237659898E+02  0.52237659898E+02  0.00000000000E+00 0. -1.
          2   -1    0    0  502    0 -0.00000000000E+00 -0.00000000000E+00 -0.49551200706E+03  0.49551200706E+03  0.00000000000E+00 0. -1.
         23    2    1    2    0    0 -0.13925392195E+02 -0.11638134099E+03 -0.28336112824E+03  0.32098111606E+03  0.94851540797E+02 0.  0.
         24    2    1    2    0    0  0.46797810198E+01  0.43777755940E+02 -0.92951042336E+02  0.12756827378E+03  0.75467714540E+02 0.  0.
        -13    1    4    4    0    0  0.83884154604E+01  0.32210137313E+02 -0.10518631794E+03  0.11032687769E+03  0.00000000000E+00 0.  1.
         14    1    4    4    0    0 -0.37086344405E+01  0.11567618627E+02  0.12235275600E+02  0.17241396090E+02  0.00000000000E+00 0. -1.
        -11    1    3    3    0    0 -0.35446253901E+02 -0.55682218551E+02 -0.22354427580E+03  0.23308579884E+03  0.00000000000E+00 0. -1.
         11    1    3    3    0    0  0.21520861706E+02 -0.60699122436E+02 -0.59816852439E+02  0.87895317217E+02  0.00000000000E+00 0.  1.
          1    1    1    2  501    0  0.92456111748E+01  0.72603585047E+02 -0.66962176583E+02  0.99200277118E+02  0.00000000000E+00 0. -1.
<scales pt_clust_5="13000.00000" pt_clust_6="13000.00000" pt_clust_7="13000.00000" pt_clust_8="13000.00000" pt_clust_9="73.18990"></scales>
<clustering>
<clus scale="   73.190">  1  9  2 -1</clus>
<clus scale="   75.468">  5  6 -1 -1</clus>
<clus scale="   94.852">  7  8 -1 -1</clus>
<clus scale="  109.324">  1  5  2 -1</clus>
<clus scale="   73.190">  1  5  2 -1</clus>
</clustering>
</event>
<event>
 9    2  0.1723348E-004  0.1219097E+03  0.7546771E-02  0.1242792E+00
         21   -1    0    0  501  502  0.00000000000E+00  0.00000000000E+00  0.82201063941E+02  0.82201063941E+02  0.00000000000E+00 0. -1.
         -1   -1    0    0    0  501 -0.00000000000E+00 -0.00000000000E+00 -0.25282652526E+03  0.25282652526E+03  0.00000000000E+00 0.  1.
         24    2    1    2    0    0  0.79781747677E+02 -0.37097122557E+02 -0.11713956108E+03  0.16757944306E+03  0.81362578642E+02 0.  0.
         23    2    1    2    0    0 -0.71276821082E+02  0.57946855170E+01 -0.13960184852E+02  0.11631637013E+03  0.90667786975E+02 0.  0.
        -13    1    3    3    0    0  0.63767660695E+02  0.13332670375E+02 -0.50147019308E+02  0.82211910301E+02  0.00000000000E+00 0.  1.
         14    1    3    3    0    0  0.16014086982E+02 -0.50429792932E+02 -0.66992541769E+02  0.85367532761E+02  0.00000000000E+00 0. -1.
        -11    1    4    4    0    0 -0.54742702482E+02  0.25095889906E+02  0.28660627794E+02  0.66693318637E+02  0.00000000000E+00 0. -1.
         11    1    4    4    0    0 -0.16534118600E+02 -0.19301204389E+02 -0.42620812646E+02  0.49623051492E+02  0.00000000000E+00 0.  1.
         -2    1    1    2    0  502 -0.85049265954E+01  0.31302437040E+02 -0.39525715392E+02  0.51131776013E+02  0.00000000000E+00 0.  1.
<scales pt_clust_5="13000.00000" pt_clust_6="13000.00000" pt_clust_7="13000.00000" pt_clust_8="13000.00000" pt_clust_9="32.43728"></scales>
<clustering>
<clus scale="   32.437">  1  9  2 -1</clus>
<clus scale="   81.363">  5  6 -1 -1</clus>
<clus scale="   90.668">  7  8 -1 -1</clus>
<clus scale="  115.157">  2  5  1 -1</clus>
<clus scale="   32.437">  1  5  2 -1</clus>
</clustering>
</event>
<event>
 9    2  0.1723348E-004  0.2101169E+03  0.7546771E-02  0.1141473E+00
          4   -1    0    0  502    0 -0.00000000000E+00  0.00000000000E+00  0.13959718816E+03  0.13959718816E+03  0.00000000000E+00 0. -1.
         21   -1    0    0  501  502  0.00000000000E+00 -0.00000000000E+00 -0.24530423604E+03  0.24530423604E+03  0.00000000000E+00 0. -1.
         24    2    1    2    0    0  0.79422106872E+01  0.65609456400E+02  0.47542056626E+02  0.11350528793E+03  0.79091869121E+02 0.  0.
         23    2    1    2    0    0 -0.71802709017E+00  0.33462241642E+02 -0.12897534835E+02  0.99448605630E+02  0.92754738846E+02 0.  0.
        -13    1    3    3    0    0 -0.19048754480E+02  0.72478207483E+02  0.38307624291E+02  0.84163054163E+02  0.00000000000E+00 0.  1.
         14    1    3    3    0    0  0.26990965168E+02 -0.68687510830E+01  0.92344323350E+01  0.29342233771E+02  0.00000000000E+00 0. -1.
        -11    1    4    4    0    0  0.22365206998E+02 -0.26296643830E+02 -0.34423926925E+01  0.34692449153E+02  0.00000000000E+00 0.  1.
         11    1    4    4    0    0 -0.23083234088E+02  0.59758885472E+02 -0.94551421426E+01  0.64756156477E+02  0.00000000000E+00 0. -1.
          3    1    1    2  501    0 -0.72241835970E+01 -0.99071698041E+02 -0.14035156968E+03  0.17194753064E+03  0.00000000000E+00 0. -1.
<scales pt_clust_5="13000.00000" pt_clust_6="13000.00000" pt_clust_7="13000.00000" pt_clust_8="13000.00000" pt_clust_9="99.33474"></scales>
<clustering>
<clus scale="   79.092">  5  6 -1 -1</clus>
<clus scale="   92.755">  7  8 -1 -1</clus>
<clus scale="   95.135">  5  7 -1 -1</clus>
<clus scale="   99.335">  2  9  1 -1</clus>
<clus scale="   99.335">  2  5  1 -1</clus>
</clustering>
</event>
<event>
 9    2  0.1723348E-004  0.9361226E+02  0.7546771E-02  0.1300102E+00
         21   -1    0    0  501  502  0.00000000000E+00  0.00000000000E+00  0.28759002347E+02  0.28759002347E+02  0.00000000000E+00 0.  1.
          2   -1    0    0  502    0 -0.00000000000E+00 -0.00000000000E+00 -0.60807296855E+03  0.60807296855E+03  0.00000000000E+00 0. -1.
         24    2    1    2    0    0  0.24616251053E+02  0.10590662902E+01 -0.46482678428E+03  0.47249380187E+03  0.81113327999E+02 0.  0.
         23    2    1    2    0    0 -0.97175779411E+01  0.18481657393E+02 -0.88759874356E+02  0.12876142526E+03  0.90913070341E+02 0.  0.
        -11    1    3    3    0    0  0.15741969723E+02 -0.36956387597E+02 -0.15112753440E+03  0.15637492078E+03  0.00000000000E+00 0.  1.
         12    1    3    3    0    0  0.88742813307E+01  0.38015453887E+02 -0.31369924988E+03  0.31611888108E+03  0.00000000000E+00 0. -1.
        -11    1    4    4    0    0 -0.44477149657E+02 -0.73253520928E+01 -0.24572597438E+02  0.51338973205E+02  0.00000000000E+00 0.  1.
         11    1    4    4    0    0  0.34759571716E+02  0.25807009486E+02 -0.64187276918E+02  0.77422452058E+02  0.00000000000E+00 0. -1.
          1    1    1    2  501    0 -0.14898673112E+02 -0.19540723684E+02 -0.25727307567E+02  0.35576743769E+02  0.00000000000E+00 0. -1.
<scales pt_clust_5="13000.00000" pt_clust_6="13000.00000" pt_clust_7="13000.00000" pt_clust_8="13000.00000" pt_clust_9="24.57255"></scales>
<clustering>
<clus scale="   24.573">  1  9  2 -1</clus>
<clus scale="   81.113">  5  6 -1 -1</clus>
<clus scale="   84.128">  2  5  1 -1</clus>
<clus scale="   90.913">  7  8 -1 -1</clus>
<clus scale="   24.573">  1  5  2 -1</clus>
</clustering>
</event>
<event>
 9    2  0.1723348E-004  0.3848111E+03  0.7546771E-02  0.1063461E+00
         21   -1    0    0  501  502  0.00000000000E+00  0.00000000000E+00  0.33521115456E+03  0.33521115456E+03  0.00000000000E+00 0. -1.
          2   -1    0    0  502    0 -0.00000000000E+00 -0.00000000000E+00 -0.97554296064E+03  0.97554296064E+03  0.00000000000E+00 0. -1.
         23    2    1    2    0    0 -0.15923178397E+03 -0.18063863928E+03  0.41666871117E+02  0.26057545363E+03  0.90434284757E+02 0.  0.
         24    2    1    2    0    0  0.14914815207E+03 -0.27707064978E+03 -0.38877544050E+03  0.50650657338E+03  0.79932781166E+02 0.  0.
        -11    1    4    4    0    0  0.31282427907E+02 -0.76586686178E+02 -0.16083251564E+03  0.18086240317E+03  0.00000000000E+00 0.  1.
         12    1    4    4    0    0  0.11786572416E+03 -0.20048396360E+03 -0.22794292487E+03  0.32564417021E+03  0.00000000000E+00 0. -1.
        -11    1    3    3    0    0 -0.16908200795E+03 -0.15568531611E+03  0.31988243967E+02  0.23205579246E+03  0.00000000000E+00 0. -1.
         11    1    3    3    0    0  0.98502239765E+01 -0.24953323177E+02  0.96786271499E+01  0.28519661173E+02  0.00000000000E+00 0.  1.
          1    1    1    2  501    0  0.10083631899E+02  0.45770928907E+03 -0.29322323670E+03  0.54367208819E+03  0.00000000000E+00 0. -1.
<scales pt_clust_5="13000.00000" pt_clust_6="13000.00000" pt_clust_7="13000.00000" pt_clust_8="13000.00000" pt_clust_9="376.41781"></scales>
<clustering>
<clus scale="   79.933">  5  6 -1 -1</clus>
<clus scale="   90.434">  7  8 -1 -1</clus>
<clus scale="  257.223">  2  7  1 -1</clus>
<clus scale="  376.418">  1  9  2 -1</clus>
<clus scale="  376.418">  1  5  2 -1</clus>
</clustering>
</event>
<event>
 9    2  0.1723348E-004  0.1090413E+03  0.7546771E-02  0.1267539E+00
          4   -1    0    0  502    0 -0.00000000000E+00  0.00000000000E+00  0.41929201632E+03  0.41929201632E+03  0.00000000000E+00 0. -1.
         21   -1    0    0  501  502  0.00000000000E+00 -0.00000000000E+00 -0.12110517771E+03  0.12110517771E+03  0.00000000000E+00 0.  1.
         23    2    1    2    0    0 -0.12466601757E+02  0.57849386719E+02  0.19739670073E+03  0.22603283202E+03  0.92862349677E+02 0.  0.
         24    2    1    2    0    0  0.95250710237E+02 -0.14678768329E+02 -0.51606165857E+02  0.13564238715E+03  0.80296306240E+02 0.  0.
        -11    1    4    4    0    0  0.36957141681E+02 -0.30677168250E+02 -0.57483333119E+02  0.74908294331E+02  0.00000000000E+00 0.  1.
         12    1    4    4    0    0  0.58293568556E+02  0.15998399921E+02  0.58771672621E+01  0.60734092815E+02  0.00000000000E+00 0. -1.
        -13    1    3    3    0    0 -0.35789538926E+02  0.62047691889E+02  0.18682114117E+03  0.20008234793E+03  0.00000000000E+00 0.  1.
         13    1    3    3    0    0  0.23322937169E+02 -0.41983051702E+01  0.10575559565E+02  0.25950484092E+02  0.00000000000E+00 0. -1.
          3    1    1    2  501    0 -0.82784108480E+02 -0.43170618389E+02  0.15239630374E+03  0.17872197487E+03  0.00000000000E+00 0. -1.
<scales pt_clust_5="13000.00000" pt_clust_6="13000.00000" pt_clust_7="13000.00000" pt_clust_8="13000.00000" pt_clust_9="93.36445"></scales>
<clustering>
<clus scale="   80.296">  5  6 -1 -1</clus>
<clus scale="   92.862">  7  8 -1 -1</clus>
<clus scale="   93.364">  2  9  1 -1</clus>
<clus scale="   98.560">  2  5  1 -1</clus>
<clus scale="   93.364">  2  5  1 -1</clus>
</clustering>
</event>
<event>
 9    2  0.1723348E-004  0.1553890E+03  0.7546771E-02  0.1195693E+00
          2   -1    0    0  502    0 -0.00000000000E+00  0.00000000000E+00  0.80701974094E+03  0.80701974094E+03  0.00000000000E+00 0. -1.
         21   -1    0    0  501  502  0.00000000000E+00 -0.00000000000E+00 -0.73462580124E+02  0.73462580124E+02  0.00000000000E+00 0.  1.
         24    2    1    2    0    0  0.13067172577E+03  0.19255867060E+00  0.58078891425E+03  0.60084475239E+03  0.81384989764E+02 0.  0.
         23    2    1    2    0    0 -0.10523576566E+03 -0.64331488512E+02  0.14330644966E+03  0.20999335866E+03  0.91363917268E+02 0.  0.
        -11    1    3    3    0    0  0.79526010272E+02  0.35661170346E+02  0.26448132265E+03  0.27847167794E+03  0.00000000000E+00 0.  1.
         12    1    3    3    0    0  0.51145715498E+02 -0.35468611676E+02  0.31630759160E+03  0.32237307445E+03  0.00000000000E+00 0. -1.
        -13    1    4    4    0    0 -0.67893479364E+02 -0.48613484843E+02  0.14725775761E+03  0.16928568347E+03  0.00000000000E+00 0. -1.
         13    1    4    4    0    0 -0.37342286293E+02 -0.15718003669E+02 -0.39513079558E+01  0.40707675191E+02  0.00000000000E+00 0.  1.
          1    1    1    2  501    0 -0.25435960114E+02  0.64138929841E+02  0.94617969022E+01  0.69644210016E+02  0.00000000000E+00 0. -1.
<scales pt_clust_5="13000.00000" pt_clust_6="13000.00000" pt_clust_7="13000.00000" pt_clust_8="13000.00000" pt_clust_9="68.99848"></scales>
<clustering>
<clus scale="   68.998">  2  9  1 -1</clus>
<clus scale="   81.385">  5  6 -1 -1</clus>
<clus scale="   91.364">  7  8 -1 -1</clus>
<clus scale="  149.739">  1  5  2 -1</clus>
<clus scale="   68.998">  2  5  1 -1</clus>
</clustering>
</event>
<event>
 9    2  0.1723348E-004  0.1006574E+03  0.7546771E-02  0.1285281E+00
          2   -1    0    0  502    0 -0.00000000000E+00  0.00000000000E+00  0.99543128051E+03  0.99543128051E+03  0.00000000000E+00 0. -1.
         21   -1    0    0  501  502  0.00000000000E+00 -0.00000000000E+00 -0.26449307389E+02  0.26449307389E+02  0.00000000000E+00 0. -1.
         24    2    1    2    0    0  0.27556687342E+02 -0.60187214149E+02  0.28131894590E+03  0.29989124320E+03  0.80078315804E+02 0.  0.
         23    2    1    2    0    0  0.20699414621E+02  0.38061550211E+01  0.13924557649E+03  0.16857342925E+03  0.92653752731E+02 0.  0.
        -11    1    3    3    0    0 -0.13770164574E+02 -0.25505836712E+02  0.26011459183E+02  0.38945617822E+02  0.00000000000E+00 0.  1.
         12    1    3    3    0    0  0.41326851916E+02 -0.34681377438E+02  0.25530748672E+03  0.26094562538E+03  0.00000000000E+00 0. -1.
        -13    1    4    4    0    0 -0.99086817646E+01  0.28072091923E+02  0.68653322744E+01  0.30550893710E+02  0.00000000000E+00 0. -1.
         13    1    4    4    0    0  0.30608096386E+02 -0.24265936902E+02  0.13238024422E+03  0.13802253554E+03  0.00000000000E+00 0.  1.
          1    1    1    2  501    0 -0.48256101964E+02  0.56381059128E+02  0.54841745073E+03  0.55341591544E+03  0.00000000000E+00 0. -1.
<scales pt_clust_5="13000.00000" pt_clust_6="13000.00000" pt_clust_7="13000.00000" pt_clust_8="13000.00000" pt_clust_9="74.21240"></scales>
<clustering>
<clus scale="   74.212">  2  9  1 -1</clus>
<clus scale="   80.078">  5  6 -1 -1</clus>
<clus scale="   89.217">  1  5  2 -1</clus>
<clus scale="   92.654">  7  8 -1 -1</clus>
<clus scale="   74.212">  2  5  1 -1</clus>
</clustering>
</event>
<event>
 9    2  0.1723348E-004  0.1273394E+03  0.7546771E-02  0.1241180E+00
          2   -1    0    0  502    0 -0.00000000000E+00  0.00000000000E+00  0.10965036007E+04  0.10965036007E+04  0.00000000000E+00 0. -1.
         21   -1    0    0  501  502  0.00000000000E+00 -0.00000000000E+00 -0.22302645780E+02  0.22302645780E+02  0.00000000000E+00 0. -1.
         24    2    1    2    0    0 -0.75637351038E+02 -0.38110211810E+02  0.31934725556E+03  0.33494707362E+03  0.55076995010E+02 0.  0.
         23    2    1    2    0    0  0.47841812726E+02  0.94851564398E+02  0.41053574302E+03  0.43379199630E+03  0.91379655523E+02 0.  0.
        -11    1    3    3    0    0 -0.45787991307E+02 -0.61122695037E+01  0.86882031189E+02  0.98399122607E+02  0.00000000000E+00 0.  1.
         12    1    3    3    0    0 -0.29849359731E+02 -0.31997942307E+02  0.23246522437E+03  0.23654795101E+03  0.00000000000E+00 0. -1.
        -13    1    4    4    0    0 -0.26450671737E+02  0.12652947792E+02  0.83831713011E+02  0.88811548964E+02  0.00000000000E+00 0.  1.
         13    1    4    4    0    0  0.74292484463E+02  0.82198616606E+02  0.32670403000E+03  0.34498044733E+03  0.00000000000E+00 0. -1.
          1    1    1    2  501    0  0.27795538312E+02 -0.56741352587E+02  0.34431795631E+03  0.35006717652E+03  0.00000000000E+00 0. -1.
<scales pt_clust_5="13000.00000" pt_clust_6="13000.00000" pt_clust_7="13000.00000" pt_clust_8="13000.00000" pt_clust_9="63.18368"></scales>
<clustering>
<clus scale="   55.077">  5  6 -1 -1</clus>
<clus scale="   63.184">  2  9  1 -1</clus>
<clus scale="   91.380">  7  8 -1 -1</clus>
<clus scale="  104.396">  1  5  2 -1</clus>
<clus scale="   63.184">  2  5  1 -1</clus>
</clustering>
</event>
<event>
 9    2  0.1723348E-004  0.1036203E+03  0.7546771E-02  0.1277397E+00
         21   -1    0    0  501  502  0.00000000000E+00  0.00000000000E+00  0.58974501198E+02  0.58974501198E+02  0.00000000000E+00 0.  1.
          2   -1    0    0  502    0 -0.00000000000E+00 -0.00000000000E+00 -0.25527281777E+03  0.25527281777E+03  0.00000000000E+00 0. -1.
         23    2    1    2    0    0 -0.52535289288E+02 -0.19366455080E+02 -0.15604285392E+03  0.18901186758E+03  0.90780491429E+02 0.  0.
         24    2    1    2    0    0  0.28252758398E+02  0.31166438960E+02 -0.35830430920E+02  0.97877420903E+02  0.80787402905E+02 0.  0.
        -11    1    4    4    0    0  0.13935467606E+01  0.53555415747E+02 -0.32713715321E+02  0.62771902142E+02  0.00000000000E+00 0.  1.
         12    1    4    4    0    0  0.26859211638E+02 -0.22388976787E+02 -0.31167155988E+01  0.35105518761E+02  0.00000000000E+00 0. -1.
        -11    1    3    3    0    0  0.23334722087E+02  0.97708895580E+01 -0.40384123028E+02  0.47653509108E+02  0.00000000000E+00 0.  1.
         11    1    3    3    0    0 -0.75870011375E+02 -0.29137344638E+02 -0.11565873090E+03  0.14135835848E+03  0.00000000000E+00 0. -1.
          1    1    1    2  501    0  0.24282530890E+02 -0.11799983881E+02 -0.44250317298E+01  0.27358030481E+02  0.00000000000E+00 0. -1.
<scales pt_clust_5="13000.00000" pt_clust_6="13000.00000" pt_clust_7="13000.00000" pt_clust_8="13000.00000" pt_clust_9="26.99779"></scales>
<clustering>
<clus scale="   26.998">  1  9  2 -1</clus>
<clus scale="   80.787">  5  6 -1 -1</clus>
<clus scale="   90.780">  7  8 -1 -1</clus>
<clus scale="   94.988">  1  5  2 -1</clus>
<clus scale="   26.998">  1  5  2 -1</clus>
</clustering>
</event>
<event>
 9    2  0.1723348E-004  0.9209227E+02  0.7546771E-02  0.1305299E+00
          4   -1    0    0  502    0 -0.00000000000E+00  0.00000000000E+00  0.48585601896E+03  0.48585601896E+03  0.00000000000E+00 0. -1.
         21   -1    0    0  501  502  0.00000000000E+00 -0.00000000000E+00 -0.65461847531E+02  0.65461847531E+02  0.00000000000E+00 0. -1.
         23    2    1    2    0    0  0.76170310229E+00  0.83500096671E+01  0.22973551444E+03  0.24744814563E+03  0.91552582304E+02 0.  0.
         24    2    1    2    0    0 -0.30046081730E+02 -0.11113610799E+02 -0.22414268745E+02  0.88776057536E+02  0.79702632177E+02 0.  0.
        -11    1    4    4    0    0 -0.22804442050E+02  0.20569355570E+02  0.19014577680E+02  0.36120563812E+02  0.00000000000E+00 0.  1.
         12    1    4    4    0    0 -0.72416396796E+01 -0.31682966368E+02 -0.41428846425E+02  0.52655493724E+02  0.00000000000E+00 0. -1.
        -13    1    3    3    0    0 -0.41180664957E+02  0.18558577114E+02  0.15154499164E+03  0.15813333754E+03  0.00000000000E+00 0.  1.
         13    1    3    3    0    0  0.41942368060E+02 -0.10208567447E+02  0.78190522803E+02  0.89314808089E+02  0.00000000000E+00 0. -1.
          3    1    1    2  501    0  0.29284378627E+02  0.27636011317E+01  0.21307292574E+03  0.21509366333E+03  0.00000000000E+00 0. -1.
<scales pt_clust_5="13000.00000" pt_clust_6="13000.00000" pt_clust_7="13000.00000" pt_clust_8="13000.00000" pt_clust_9="29.41451"></scales>
<clustering>
<clus scale="   29.415">  2  9  1 -1</clus>
<clus scale="   79.703">  5  6 -1 -1</clus>
<clus scale="   80.322">  2  5  1 -1</clus>
<clus scale="   91.553">  7  8 -1 -1</clus>
<clus scale="   29.415">  2  5  1 -1</clus>
</clustering>
</event>
<event>
 9    2  0.1723348E-004  0.1484505E+03  0.7546771E-02  0.1221500E+00
         21   -1    0    0  501  502  0.00000000000E+00  0.00000000000E+00  0.20390167016E+03  0.20390167016E+03  0.00000000000E+00 0. -1.
          2   -1    0    0  502    0 -0.00000000000E+00 -0.00000000000E+00 -0.24671371436E+03  0.24671371436E+03  0.00000000000E+00 0. -1.
         23    2    1    2    0    0  0.36522789535E+02  0.14089429648E+02  0.91647740797E+02  0.13479070292E+03  0.90756812504E+02 0.  0.
         24    2    1    2    0    0 -0.10719708474E+03  0.75406487569E+02 -0.23945444159E+02  0.15702356470E+03  0.83100314268E+02 0.  0.
        -13    1    4    4    0    0  0.32447914465E+01  0.24039669487E+02  0.15742046018E+02  0.28917925123E+02  0.00000000000E+00 0.  1.
         14    1    4    4    0    0 -0.11044187618E+03  0.51366818082E+02 -0.39687490178E+02  0.12810563958E+03  0.00000000000E+00 0. -1.
        -11    1    3    3    0    0  0.62884417614E+02 -0.92937643520E+01  0.60647433962E+02  0.87857471399E+02  0.00000000000E+00 0. -1.
         11    1    3    3    0    0 -0.26361628080E+02  0.23383194000E+02  0.31000306835E+02  0.46933231516E+02  0.00000000000E+00 0.  1.
          1    1    1    2  501    0  0.70674295202E+02 -0.89495917217E+02 -0.11051434084E+03  0.15880111691E+03  0.00000000000E+00 0. -1.
<scales pt_clust_5="13000.00000" pt_clust_6="13000.00000" pt_clust_7="13000.00000" pt_clust_8="13000.00000" pt_clust_9="123.01176"></scales>
<clustering>
<clus scale="   83.100">  5  6 -1 -1</clus>
<clus scale="   90.757">  7  8 -1 -1</clus>
<clus scale="   98.839">  2  7  1 -1</clus>
<clus scale="  123.012">  1  9  2 -1</clus>
<clus scale="  123.012">  1  5  2 -1</clus>
</clustering>
</event>
<event>
 9    2  0.1723348E-004  0.1332277E+03  0.7546771E-02  0.1224617E+00
         21   -1    0    0  501  502  0.00000000000E+00  0.00000000000E+00  0.23582221963E+03  0.23582221963E+03  0.00000000000E+00 0. -1.
          4   -1    0    0  502    0 -0.00000000000E+00 -0.00000000000E+00 -0.50184767212E+03  0.50184767212E+03  0.00000000000E+00 0. -1.
         23    2    1    2    0    0 -0.94505608738E+02  0.27010296266E+02 -0.44126826277E+03  0.46115723420E+03  0.91035425766E+02 0.  0.
         24    2    1    2    0    0  0.78191265150E+02 -0.49667462180E+02  0.29440598455E+02  0.12806135258E+03  0.83380036225E+02 0.  0.
        -11    1    4    4    0    0  0.92543247968E+02 -0.26686611869E+02  0.30256351449E+02  0.10095481564E+03  0.00000000000E+00 0.  1.
         12    1    4    4    0    0 -0.14351982818E+02 -0.22980850311E+02 -0.81575299356E+00  0.27106536938E+02  0.00000000000E+00 0. -1.
        -13    1    3    3    0    0 -0.12089854126E+01  0.27936294433E+02 -0.37664722047E+02  0.46909801527E+02  0.00000000000E+00 0.  1.
         13    1    3    3    0    0 -0.93296623325E+02 -0.92599816719E+00 -0.40360354072E+03  0.41424743268E+03  0.00000000000E+00 0. -1.
          3    1    1    2  501    0  0.16314343587E+02  0.22657165914E+02  0.14580221182E+03  0.14845130497E+03  0.00000000000E+00 0. -1.
<scales pt_clust_5="13000.00000" pt_clust_6="13000.00000" pt_clust_7="13000.00000" pt_clust_8="13000.00000" pt_clust_9="27.91962"></scales>
<clustering>
<clus scale="   27.920">  1  9  2 -1</clus>
<clus scale="   83.380">  5  6 -1 -1</clus>
<clus scale="   91.035">  7  8 -1 -1</clus>
<clus scale="  128.119">  1  5  2 -1</clus>
<clus scale="   27.920">  1  5  2 -1</clus>
</clustering>
</event>
<event>
 9    2  0.1723348E-004  0.9865603E+02  0.7546771E-02  0.1290079E+00
          2   -1    0    0  502    0 -0.00000000000E+00  0.00000000000E+00  0.71581666913E+03  0.71581666913E+03  0.00000000000E+00 0. -1.
         21   -1    0    0  501  502  0.00000000000E+00 -0.00000000000E+00 -0.57358847788E+02  0.57358847788E+02  0.00000000000E+00 0. -1.
         24    2    1    2    0    0  0.26499009722E+02  0.31289489953E+02  0.49759246230E+03  0.50538587531E+03  0.78328760527E+02 0.  0.
         23    2    1    2    0    0 -0.46869898597E+02  0.20123781118E+02  0.18084165928E+03  0.20899040584E+03  0.91496065703E+02 0.  0.
        -11    1    3    3    0    0  0.35218927350E+02  0.39301325843E+02  0.18009673931E+03  0.18766939699E+03  0.00000000000E+00 0.  1.
         12    1    3    3    0    0 -0.87199176289E+01 -0.80118358901E+01  0.31749572299E+03  0.31771647831E+03  0.00000000000E+00 0. -1.
        -11    1    4    4    0    0  0.71198647250E+01 -0.27780052391E+02  0.28580989687E+02  0.40488229845E+02  0.00000000000E+00 0. -1.
         11    1    4    4    0    0 -0.53989763322E+02  0.47903833508E+02  0.15226066960E+03  0.16850217599E+03  0.00000000000E+00 0.  1.
          1    1    1    2  501    0  0.20370888876E+02 -0.51413271071E+02 -0.19976300242E+02  0.58799235770E+02  0.00000000000E+00 0. -1.
<scales pt_clust_5="13000.00000" pt_clust_6="13000.00000" pt_clust_7="13000.00000" pt_clust_8="13000.00000" pt_clust_9="55.30188"></scales>
<clustering>
<clus scale="   55.302">  2  9  1 -1</clus>
<clus scale="   78.329">  5  6 -1 -1</clus>
<clus scale="   86.585">  1  5  2 -1</clus>
<clus scale="   91.496">  7  8 -1 -1</clus>
<clus scale="   55.302">  2  5  1 -1</clus>
</clustering>
</event>
<event>
 9    2  0.1723348E-004  0.1038237E+03  0.7546771E-02  0.1278687E+00
          2   -1    0    0  502    0 -0.00000000000E+00  0.00000000000E+00  0.80641875761E+03  0.80641875761E+03  0.00000000000E+00 0. -1.
         21   -1    0    0  501  502  0.00000000000E+00 -0.00000000000E+00 -0.87256233622E+02  0.87256233622E+02  0.00000000000E+00 0. -1.
         24    2    1    2    0    0  0.35089850801E+02 -0.28456871764E+02  0.60747101558E+03  0.61434776822E+03  0.79756218374E+02 0.  0.
         23    2    1    2    0    0  0.52223149310E+01  0.78498901533E+02  0.15844082181E+03  0.19986167228E+03  0.93015288615E+02 0.  0.
        -13    1    3    3    0    0 -0.37928948649E+01 -0.42320261260E+02  0.18270901284E+03  0.18758457809E+03  0.00000000000E+00 0.  1.
         14    1    3    3    0    0  0.38882745666E+02  0.13863389496E+02  0.42476200274E+03  0.42676319013E+03  0.00000000000E+00 0. -1.
        -11    1    4    4    0    0  0.38369775494E+02  0.39966010732E+02  0.32933567956E+02  0.64452630540E+02  0.00000000000E+00 0. -1.
         11    1    4    4    0    0 -0.33147460563E+02  0.38532890801E+02  0.12550725385E+03  0.13540904174E+03  0.00000000000E+00 0.  1.
          1    1    1    2  501    0 -0.40312165732E+02 -0.50042029769E+02 -0.46749313400E+02  0.79465550730E+02  0.00000000000E+00 0. -1.
<scales pt_clust_5="13000.00000" pt_clust_6="13000.00000" pt_clust_7="13000.00000" pt_clust_8="13000.00000" pt_clust_9="64.25944"></scales>
<clustering>
<clus scale="   64.259">  2  9  1 -1</clus>
<clus scale="   79.756">  5  6 -1 -1</clus>
<clus scale="   92.133">  1  5  2 -1</clus>
<clus scale="   93.015">  7  8 -1 -1</clus>
<clus scale="   64.259">  2  5  1 -1</clus>
</clustering>
</event>
<event>
 9    2  0.1723348E-004  0.9520243E+02  0.7546771E-02  0.1296754E+00
          4   -1    0    0  502    0 -0.00000000000E+00  0.00000000000E+00  0.17115570292E+03  0.17115570292E+03  0.00000000000E+00 0. -1.
         21   -1    0    0  501  502  0.00000000000E+00 -0.00000000000E+00 -0.94611129633E+02  0.94611129633E+02  0.00000000000E+00 0. -1.
         24    2    1    2    0    0 -0.25508607821E+02  0.10192062134E+01  0.94868329719E+02  0.12711541014E+03  0.80663496431E+02 0.  0.
         23    2    1    2    0    0  0.28310170161E+02  0.30241772395E+02  0.37157998299E+01  0.10029989604E+03  0.91270101591E+02 0.  0.
        -11    1    3    3    0    0 -0.48027326666E+02 -0.24858397679E+01  0.92433615521E+02  0.10419585781E+03  0.00000000000E+00 0.  1.
         12    1    3    3    0    0  0.22518718845E+02  0.35050459813E+01  0.24347141978E+01  0.22919552330E+02  0.00000000000E+00 0. -1.
        -11    1    4    4    0    0  0.54493693771E+01 -0.29612962113E+02 -0.14876870468E+02  0.33584883901E+02  0.00000000000E+00 0.  1.
         11    1    4    4    0    0  0.22860800783E+02  0.59854734508E+02  0.18592670298E+02  0.66715012136E+02  0.00000000000E+00 0. -1.
          3    1    1    2  501    0 -0.28015623394E+01 -0.31260978608E+02 -0.22039556264E+02  0.38351526376E+02  0.00000000000E+00 0. -1.
<scales pt_clust_5="13000.00000" pt_clust_6="13000.00000" pt_clust_7="13000.00000" pt_clust_8="13000.00000" pt_clust_9="31.38626"></scales>
<clustering>
<clus scale="   31.386">  2  9  1 -1</clus>
<clus scale="   80.663">  5  6 -1 -1</clus>
<clus scale="   85.087">  1  5  2 -1</clus>
<clus scale="   91.270">  7  8 -1 -1</clus>
<clus scale="   31.386">  2  5  1 -1</clus>
</clustering>
</event>
<event>
 9    2  0.1723348E-004  0.2775860E+03  0.7546771E-02  0.1138331E+00
         21   -1    0    0  501  502  0.00000000000E+00  0.00000000000E+00  0.23239924123E+03  0.23239924123E+03  0.00000000000E+00 0. -1.
          2   -1    0    0  502    0 -0.00000000000E+00 -0.00000000000E+00 -0.70548815415E+03  0.70548815415E+03  0.00000000000E+00 0. -1.
         23    2    1    2    0    0 -0.21405032809E+02  0.31565525553E+02  0.12480609171E+02  0.99093133909E+02  0.90604225893E+02 0.  0.
         24    2    1    2    0    0  0.24787194160E+02  0.23404808090E+03 -0.51200851426E+03  0.57184661256E+03  0.97277543434E+02 0.  0.
        -11    1    4    4    0    0 -0.25832375413E+01  0.75802502509E+02 -0.76740272330E+02  0.10789699671E+03  0.00000000000E+00 0.  1.
         12    1    4    4    0    0  0.27370431701E+02  0.15824557839E+03 -0.43526824193E+03  0.46394961585E+03  0.00000000000E+00 0. -1.
        -13    1    3    3    0    0 -0.39505888603E+02  0.47538776156E+02  0.30540217927E+02  0.68944581975E+02  0.00000000000E+00 0.  1.
         13    1    3    3    0    0  0.18100855794E+02 -0.15973250603E+02 -0.18059608755E+02  0.30148551934E+02  0.00000000000E+00 0. -1.
          1    1    1    2  501    0 -0.33821613508E+01 -0.26561360646E+03  0.26438992172E+02  0.26694764891E+03  0.00000000000E+00 0. -1.
<scales pt_clust_5="13000.00000" pt_clust_6="13000.00000" pt_clust_7="13000.00000" pt_clust_8="13000.00000" pt_clust_9="259.98286"></scales>
<clustering>
<clus scale="   90.604">  7  8 -1 -1</clus>
<clus scale="   97.278">  5  6 -1 -1</clus>
<clus scale="   98.304">  2  7  1 -1</clus>
<clus scale="  259.983">  1  9  2 -1</clus>
<clus scale="  259.983">  1  5  2 -1</clus>
</clustering>
</event>
<event>
 9    2  0.1723348E-004  0.1419044E+03  0.7546771E-02  0.1226215E+00
         -1   -1    0    0    0  501 -0.00000000000E+00  0.00000000000E+00  0.22341399060E+03  0.22341399060E+03  0.00000000000E+00 0.  1.
         21   -1    0    0  501  502  0.00000000000E+00 -0.00000000000E+00 -0.22010528744E+03  0.22010528744E+03  0.00000000000E+00 0.  1.
         23    2    1    2    0    0 -0.94094215270E+01 -0.45299722776E+02 -0.86856560452E+02  0.13439631084E+03  0.91529799396E+02 0.  0.
         24    2    1    2    0    0 -0.97508631842E+01  0.15000986796E+03  0.10659368644E+03  0.20141398851E+03  0.81285551988E+02 0.  0.
        -11    1    4    4    0    0 -0.98440143861E+01  0.29450600359E+02  0.68121302274E+02  0.74864907027E+02  0.00000000000E+00 0.  1.
         12    1    4    4    0    0  0.93151201908E-01  0.12055926760E+03  0.38472384162E+02  0.12654908148E+03  0.00000000000E+00 0. -1.
        -11    1    3    3    0    0 -0.49254917682E+02 -0.12163640078E+02 -0.42703125148E+02  0.66314085632E+02  0.00000000000E+00 0.  1.
         11    1    3    3    0    0  0.39845496155E+02 -0.33136082698E+02 -0.44153435304E+02  0.68082225210E+02  0.00000000000E+00 0. -1.
         -2    1    1    2    0  502  0.19160284711E+02 -0.10471014518E+03 -0.16428422819E+02  0.10770897869E+03  0.00000000000E+00 0.  1.
<scales pt_clust_5="13000.00000" pt_clust_6="13000.00000" pt_clust_7="13000.00000" pt_clust_8="13000.00000" pt_clust_9="116.31640"></scales>
<clustering>
<clus scale="   81.286">  5  6 -1 -1</clus>
<clus scale="   91.530">  7  8 -1 -1</clus>
<clus scale="  102.559">  1  7  2 -1</clus>
<clus scale="  116.316">  2  9  1 -1</clus>
<clus scale="  116.316">  2  5  1 -1</clus>
</clustering>
</event>
<event>
 9    2  0.1723348E-004  0.1950616E+03  0.7546771E-02  0.1155040E+00
         21   -1    0    0  501  502  0.00000000000E+00  0.00000000000E+00  0.67981690882E+03  0.67981690882E+03  0.00000000000E+00 0.  1.
         -1   -1    0    0    0  501 -0.00000000000E+00 -0.00000000000E+00 -0.17424876996E+03  0.17424876996E+03  0.00000000000E+00 0.  1.
         24    2    1    2    0    0  0.12067631968E+03  0.11097388261E+03 -0.49651573317E+02  0.18935906721E+03  0.80706882284E+02 0.  0.
         23    2    1    2    0    0 -0.21036066491E+03 -0.74150872166E+02  0.26279295720E+03  0.35662768840E+03  0.91505238055E+02 0.  0.
        -11    1    3    3    0    0  0.13266964703E+03  0.10103001799E+03 -0.41820896470E+02  0.17192232886E+03  0.00000000000E+00 0.  1.
         12    1    3    3    0    0 -0.11993327349E+02  0.99438646208E+01 -0.78306768466E+01  0.17436738352E+02  0.00000000000E+00 0. -1.
        -13    1    4    4    0    0 -0.84481989452E+02  0.11542903511E+02  0.12466239229E+03  0.15103362942E+03  0.00000000000E+00 0.  1.
         13    1    4    4    0    0 -0.12587867546E+03 -0.85693775677E+02  0.13813056491E+03  0.20559405898E+03  0.00000000000E+00 0. -1.
         -2    1    1    2    0  502  0.89684345234E+02 -0.36823010445E+02  0.29242675498E+03  0.30807892318E+03  0.00000000000E+00 0.  1.
<scales pt_clust_5="13000.00000" pt_clust_6="13000.00000" pt_clust_7="13000.00000" pt_clust_8="13000.00000" pt_clust_9="96.94955"></scales>
<clustering>
<clus scale="   80.707">  5  6 -1 -1</clus>
<clus scale="   91.505">  7  8 -1 -1</clus>
<clus scale="   96.950">  1  9  2 -1</clus>
<clus scale="  190.235">  2  5  1 -1</clus>
<clus scale="   96.950">  1  5  2 -1</clus>
</clustering>
</event>
<event>
 9    2  0.1723348E-004  0.8985640E+02  0.7546771E-02  0.1308026E+00
         21   -1    0    0  501  502  0.00000000000E+00  0.00000000000E+00  0.43132072893E+03  0.43132072893E+03  0.00000000000E+00 0.  1.
         -3   -1    0    0    0  501 -0.00000000000E+00 -0.00000000000E+00 -0.62579851898E+02  0.62579851898E+02  0.00000000000E+00 0.  1.
         23    2    1    2    0    0 -0.61215949922E+01 -0.71345620531E+01 -0.87048972091E+01  0.90167816574E+02  0.89252921573E+02 0.  0.
         24    2    1    2    0    0  0.32793046639E+02 -0.31017727817E+02  0.20690902796E+03  0.22695678911E+03  0.81612222895E+02 0.  0.
        -11    1    4    4    0    0  0.44102383205E+02 -0.35184029512E+02  0.20735811208E+03  0.21489607438E+03  0.00000000000E+00 0.  1.
         12    1    4    4    0    0 -0.11309336566E+02  0.41663016946E+01 -0.44908412034E+00  0.12060714735E+02  0.00000000000E+00 0. -1.
        -13    1    3    3    0    0  0.31259662086E+01 -0.42110660237E+02 -0.26497038001E+02  0.49851503420E+02  0.00000000000E+00 0.  1.
         13    1    3    3    0    0 -0.92475612008E+01  0.34976098184E+02  0.17792140792E+02  0.40316313154E+02  0.00000000000E+00 0. -1.
         -4    1    1    2    0  502 -0.26671451647E+02  0.38152289870E+02  0.17053674628E+03  0.17677597514E+03  0.00000000000E+00 0.  1.
<scales pt_clust_5="13000.00000" pt_clust_6="13000.00000" pt_clust_7="13000.00000" pt_clust_8="13000.00000" pt_clust_9="46.55066"></scales>
<clustering>
<clus scale="   46.551">  1  9  2 -1</clus>
<clus scale="   81.612">  5  6 -1 -1</clus>
<clus scale="   82.272">  1  5  2 -1</clus>
<clus scale="   89.253">  7  8 -1 -1</clus>
<clus scale="   46.551">  1  5  2 -1</clus>
</clustering>
</event>
<event>
 9    2  0.1723348E-004  0.9768699E+02  0.7546771E-02  0.1292984E+00
         -3   -1    0    0    0  501 -0.00000000000E+00  0.00000000000E+00  0.18389299166E+03  0.18389299166E+03  0.00000000000E+00 0.  1.
         21   -1    0    0  501  502  0.00000000000E+00 -0.00000000000E+00 -0.12410260138E+03  0.12410260138E+03  0.00000000000E+00 0. -1.
         23    2    1    2    0    0 -0.39573479310E+02  0.11522460730E+02  0.11285471580E+03  0.15102873498E+03  0.91513193295E+02 0.  0.
         24    2    1    2    0    0 -0.45996737630E+01 -0.15728035190E+02 -0.73709770092E+02  0.10802619306E+03  0.77252832251E+02 0.  0.
        -11    1    4    4    0    0 -0.20408308808E+02 -0.35533514624E+02 -0.14237605603E+02  0.43380169931E+02  0.00000000000E+00 0.  1.
         12    1    4    4    0    0  0.15808635045E+02  0.19805479434E+02 -0.59472164490E+02  0.64646023131E+02  0.00000000000E+00 0. -1.
        -13    1    3    3    0    0  0.62862517581E+01 -0.25692383580E+02  0.34148078093E+01  0.26669766545E+02  0.00000000000E+00 0. -1.
         13    1    3    3    0    0 -0.45859731068E+02  0.37214844310E+02  0.10943990799E+03  0.12435896844E+03  0.00000000000E+00 0.  1.
         -4    1    1    2    0  502  0.44173153073E+02  0.42055744606E+01  0.20645444571E+02  0.48940664998E+02  0.00000000000E+00 0.  1.
<scales pt_clust_5="13000.00000" pt_clust_6="13000.00000" pt_clust_7="13000.00000" pt_clust_8="13000.00000" pt_clust_9="44.37292"></scales>
<clustering>
<clus scale="   44.373">  2  9  1 -1</clus>
<clus scale="   77.253">  5  6 -1 -1</clus>
<clus scale="   84.475">  2  5  1 -1</clus>
<clus scale="   91.513">  7  8 -1 -1</clus>
<clus scale="   44.373">  2  5  1 -1</clus>
</clustering>
</event>
<event>
 9    2  0.1723348E-004  0.1013334E+03  0.7546771E-02  0.1281617E+00
         21   -1    0    0  501  502  0.00000000000E+00  0.00000000000E+00  0.29662870106E+03  0.29662870106E+03  0.00000000000E+00 0. -1.
         -3   -1    0    0    0  501 -0.00000000000E+00 -0.00000000000E+00 -0.92981595373E+02  0.92981595373E+02  0.00000000000E+00 0.  1.
         24    2    1    2    0    0  0.73644734837E+01  0.58969463963E+02 -0.27366968441E+02  0.10395467945E+03  0.80783607667E+02 0.  0.
         23    2    1    2    0    0  0.14651728675E+02  0.74681904950E+01  0.16991143615E+03  0.19274594335E+03  0.89502265451E+02 0.  0.
        -13    1    3    3    0    0  0.40887980468E+02  0.51684947303E+02 -0.16030850099E+02  0.67824397375E+02  0.00000000000E+00 0.  1.
         14    1    3    3    0    0 -0.33523506985E+02  0.72845166600E+01 -0.11336118342E+02  0.36130282072E+02  0.00000000000E+00 0. -1.
        -13    1    4    4    0    0  0.16983798207E+01  0.30423468555E+02  0.12159851139E+02  0.32807528293E+02  0.00000000000E+00 0.  1.
         13    1    4    4    0    0  0.12953348854E+02 -0.22955278060E+02  0.15775158501E+03  0.15993841506E+03  0.00000000000E+00 0. -1.
         -4    1    1    2    0  502 -0.22016202159E+02 -0.66437654458E+02  0.61102637975E+02  0.92909673634E+02  0.00000000000E+00 0.  1.
<scales pt_clust_5="13000.00000" pt_clust_6="13000.00000" pt_clust_7="13000.00000" pt_clust_8="13000.00000" pt_clust_9="69.99054"></scales>
<clustering>
<clus scale="   69.991">  1  9  2 -1</clus>
<clus scale="   80.784">  5  6 -1 -1</clus>
<clus scale="   89.502">  7  8 -1 -1</clus>
<clus scale="   93.722">  2  5  1 -1</clus>
<clus scale="   69.991">  1  5  2 -1</clus>
</clustering>
</event>
<event>
 9    2  0.1723348E-004  0.2075812E+03  0.7546771E-02  0.1156899E+00
          2   -1    0    0  502    0 -0.00000000000E+00  0.00000000000E+00  0.11719434386E+04  0.11719434386E+04  0.00000000000E+00 0. -1.
         21   -1    0    0  501  502  0.00000000000E+00 -0.00000000000E+00 -0.69036538201E+02  0.69036538201E+02  0.00000000000E+00 0. -1.
         23    2    1    2    0    0  0.27296256736E+01 -0.11990431540E+03  0.33641654676E+03  0.36879791358E+03  0.91931019898E+02 0.  0.
         24    2    1    2    0    0 -0.18817473691E+03  0.10329558156E+03  0.41449840814E+03  0.47398102227E+03  0.82276183325E+02 0.  0.
        -11    1    4    4    0    0 -0.19034575519E+02  0.19125766109E+02  0.12370393266E+02  0.29683945560E+02  0.00000000000E+00 0.  1.
         12    1    4    4    0    0 -0.16914016139E+03  0.84169815452E+02  0.40212801487E+03  0.44429707671E+03  0.00000000000E+00 0. -1.
        -11    1    3    3    0    0 -0.44007043470E+02 -0.69967588674E+02  0.18937318709E+03  0.20662595995E+03  0.00000000000E+00 0. -1.
         11    1    3    3    0    0  0.46736669143E+02 -0.49936726721E+02  0.14704335968E+03  0.16217195363E+03  0.00000000000E+00 0.  1.
          1    1    1    2  501    0  0.18544511124E+03  0.16608733835E+02  0.35199194554E+03  0.39820104099E+03  0.00000000000E+00 0. -1.
<scales pt_clust_5="13000.00000" pt_clust_6="13000.00000" pt_clust_7="13000.00000" pt_clust_8="13000.00000" pt_clust_9="190.57965"></scales>
<clustering>
<clus scale="   82.276">  5  6 -1 -1</clus>
<clus scale="   91.931">  7  8 -1 -1</clus>
<clus scale="  151.115">  1  7  2 -1</clus>
<clus scale="  190.580">  2  9  1 -1</clus>
<clus scale="  190.580">  2  5  1 -1</clus>
</clustering>
</event>
<event>
 9    2  0.1723348E-004  0.9707333E+02  0.7546771E-02  0.1291607E+00
         21   -1    0    0  501  502  0.00000000000E+00  0.00000000000E+00  0.66229018225E+02  0.66229018225E+02  0.00000000000E+00 0. -1.
         -3   -1    0    0    0  501 -0.00000000000E+00 -0.00000000000E+00 -0.24452382735E+03  0.24452382735E+03  0.00000000000E+00 0.  1.
         23    2    1    2    0    0  0.32237501136E+02 -0.21080063068E+02 -0.17274349787E+03  0.19851532953E+03  0.89913260769E+02 0.  0.
         24    2    1    2    0    0 -0.12566931946E+02  0.33888536390E+02 -0.86191858498E+01  0.88564744015E+02  0.80393176579E+02 0.  0.
        -13    1    4    4    0    0  0.24387463709E+02  0.34369391534E+02 -0.24041991170E+02  0.48518252236E+02  0.00000000000E+00 0.  1.
         14    1    4    4    0    0 -0.36954395655E+02 -0.48085514379E+00  0.15422805320E+02  0.40046491779E+02  0.00000000000E+00 0. -1.
        -13    1    3    3    0    0  0.14730178492E+02 -0.55434767826E+02 -0.83547422683E+02  0.10134181506E+03  0.00000000000E+00 0.  1.
         13    1    3    3    0    0  0.17507322644E+02  0.34354704759E+02 -0.89196075187E+02  0.97173514467E+02  0.00000000000E+00 0. -1.
         -4    1    1    2    0  502 -0.19670569190E+02 -0.12808473323E+02  0.30678745978E+01  0.23672772032E+02  0.00000000000E+00 0.  1.
<scales pt_clust_5="13000.00000" pt_clust_6="13000.00000" pt_clust_7="13000.00000" pt_clust_8="13000.00000" pt_clust_9="23.47314"></scales>
<clustering>
<clus scale="   23.473">  1  9  2 -1</clus>
<clus scale="   80.393">  5  6 -1 -1</clus>
<clus scale="   88.328">  1  5  2 -1</clus>
<clus scale="   89.913">  7  8 -1 -1</clus>
<clus scale="   23.473">  1  5  2 -1</clus>
</clustering>
</event>
<event>
 9    2  0.1723348E-004  0.1299365E+03  0.7546771E-02  0.1246918E+00
         21   -1    0    0  501  502  0.00000000000E+00  0.00000000000E+00  0.19190573373E+03  0.19190573373E+03  0.00000000000E+00 0. -1.
          2   -1    0    0  502    0 -0.00000000000E+00 -0.00000000000E+00 -0.16433517574E+03  0.16433517574E+03  0.00000000000E+00 0. -1.
         24    2    1    2    0    0 -0.10973720307E+02  0.37257542419E+02 -0.58825756836E+02  0.10545211702E+03  0.78429154732E+02 0.  0.
         23    2    1    2    0    0 -0.24037880954E+02  0.62106780127E+02 -0.41839417442E+01  0.11185044750E+03  0.89766059165E+02 0.  0.
        -11    1    3    3    0    0  0.32328414049E+02  0.22684954528E+02 -0.15312017672E+02  0.42357896573E+02  0.00000000000E+00 0.  1.
         12    1    3    3    0    0 -0.43302134356E+02  0.14572587890E+02 -0.43513739164E+02  0.63094220446E+02  0.00000000000E+00 0. -1.
        -11    1    4    4    0    0 -0.46488587417E+02  0.24091300551E+01 -0.10619615070E+02  0.47746925471E+02  0.00000000000E+00 0.  1.
         11    1    4    4    0    0  0.22450706463E+02  0.59697650072E+02  0.64356733260E+01  0.64103522025E+02  0.00000000000E+00 0. -1.
          1    1    1    2  501    0  0.35011601261E+02 -0.99364322546E+02  0.90580256576E+02  0.13893834496E+03  0.00000000000E+00 0. -1.
<scales pt_clust_5="13000.00000" pt_clust_6="13000.00000" pt_clust_7="13000.00000" pt_clust_8="13000.00000" pt_clust_9="93.94445"></scales>
<clustering>
<clus scale="   78.429">  5  6 -1 -1</clus>
<clus scale="   87.520">  2  5  1 -1</clus>
<clus scale="   89.766">  7  8 -1 -1</clus>
<clus scale="   93.944">  1  9  2 -1</clus>
<clus scale="   93.944">  1  5  2 -1</clus>
</clustering>
</event>
<event>
 9    2  0.1723348E-004  0.1249455E+03  0.7546771E-02  0.1237720E+00
          2   -1    0    0  502    0 -0.00000000000E+00  0.00000000000E+00  0.33738328258E+03  0.33738328258E+03  0.00000000000E+00 0. -1.
         21   -1    0    0  501  502  0.00000000000E+00 -0.00000000000E+00 -0.25765215475E+03  0.25765215475E+03  0.00000000000E+00 0. -1.
         24    2    1    2    0    0  0.86049988697E+02  0.14380440912E+02  0.18103699590E+03  0.21653307143E+03  0.80627411609E+02 0.  0.
         23    2    1    2    0    0 -0.70418283086E+02 -0.66304559081E+02  0.10283334268E+03  0.16728380223E+03  0.89744888291E+02 0.  0.
        -11    1    3    3    0    0  0.26234029765E+02  0.25018380807E+02  0.14121449406E+02  0.38904485979E+02  0.00000000000E+00 0.  1.
         12    1    3    3    0    0  0.59815958932E+02 -0.10637939895E+02  0.16691554649E+03  0.17762858545E+03  0.00000000000E+00 0. -1.
        -13    1    4    4    0    0 -0.25192013447E+02 -0.40263159830E+02  0.10479888623E+03  0.11505896809E+03  0.00000000000E+00 0.  1.
         13    1    4    4    0    0 -0.45226269639E+02 -0.26041399251E+02 -0.19655435495E+01  0.52224834148E+02  0.00000000000E+00 0. -1.
          1    1    1    2  501    0 -0.15631705612E+02  0.51924118169E+02 -0.20413921076E+03  0.21121856366E+03  0.00000000000E+00 0. -1.
<scales pt_clust_5="13000.00000" pt_clust_6="13000.00000" pt_clust_7="13000.00000" pt_clust_8="13000.00000" pt_clust_9="54.22605"></scales>
<clustering>
<clus scale="   54.226">  2  9  1 -1</clus>
<clus scale="   80.627">  5  6 -1 -1</clus>
<clus scale="   89.745">  7  8 -1 -1</clus>
<clus scale="  118.566">  1  5  2 -1</clus>
<clus scale="   54.226">  2  5  1 -1</clus>
</clustering>
</event>
<event>
 9    2  0.1723348E-004  0.1128565E+03  0.7546771E-02  0.1260601E+00
         21   -1    0    0  501  502  0.00000000000E+00  0.00000000000E+00  0.46549698894E+02  0.46549698894E+02  0.00000000000E+00 0. -1.
          2   -1    0    0  502    0 -0.00000000000E+00 -0.00000000000E+00 -0.58409814177E+03  0.58409814177E+03  0.00000000000E+00 0. -1.
         23    2    1    2    0    0 -0.80591818208E+02 -0.19601253947E+02 -0.22302516406E+03  0.25533567233E+03  0.92611184216E+02 0.  0.
         24    2    1    2    0    0  0.39099796590E+02 -0.39352558723E+02 -0.66582929106E+02  0.11710380886E+03  0.78756571983E+02 0.  0.
        -13    1    4    4    0    0  0.54835886173E+02 -0.23507224056E+02 -0.15938428203E+02  0.61754331741E+02  0.00000000000E+00 0.  1.
         14    1    4    4    0    0 -0.15736089582E+02 -0.15845334667E+02 -0.50644500903E+02  0.55349477122E+02  0.00000000000E+00 0. -1.
        -11    1    3    3    0    0 -0.70572222319E+02  0.58940501826E+01 -0.68933981990E+02  0.98828499248E+02  0.00000000000E+00 0. -1.
         11    1    3    3    0    0 -0.10019595889E+02 -0.25495304130E+02 -0.15409118207E+03  0.15650717308E+03  0.00000000000E+00 0.  1.
          1    1    1    2  501    0  0.41492021617E+02  0.58953812670E+02 -0.24794034971E+03  0.25820835947E+03  0.00000000000E+00 0. -1.
<scales pt_clust_5="13000.00000" pt_clust_6="13000.00000" pt_clust_7="13000.00000" pt_clust_8="13000.00000" pt_clust_9="72.09123"></scales>
<clustering>
<clus scale="   72.091">  1  9  2 -1</clus>
<clus scale="   78.757">  5  6 -1 -1</clus>
<clus scale="   92.611">  7  8 -1 -1</clus>
<clus scale="  101.796">  1  5  2 -1</clus>
<clus scale="   72.091">  1  5  2 -1</clus>
</clustering>
</event>
<event>
 9    2  0.1723348E-004  0.1734485E+03  0.7546771E-02  0.1175712E+00
         21   -1    0    0  501  502  0.00000000000E+00  0.00000000000E+00  0.20953344364E+03  0.20953344364E+03  0.00000000000E+00 0. -1.
          2   -1    0    0  502    0 -0.00000000000E+00 -0.00000000000E+00 -0.21659135963E+03  0.21659135963E+03  0.00000000000E+00 0. -1.
         24    2    1    2    0    0 -0.14930885047E+03  0.34552667230E+00 -0.39152942520E+02  0.17390503475E+03  0.80104656447E+02 0.  0.
         23    2    1    2    0    0  0.14379791122E+03  0.19726683383E+02  0.87974908768E+02  0.19258902724E+03  0.91016303656E+02 0.  0.
        -13    1    3    3    0    0 -0.10109381876E+03 -0.28676223202E+02  0.46371095244E+00  0.10508330503E+03  0.00000000000E+00 0.  1.
         14    1    3    3    0    0 -0.48215031714E+02  0.29021749874E+02 -0.39616653472E+02  0.68821729717E+02  0.00000000000E+00 0. -1.
        -13    1    4    4    0    0  0.30738528260E+02 -0.13719466241E+02  0.63943036598E+02  0.72261973422E+02  0.00000000000E+00 0.  1.
         13    1    4    4    0    0  0.11305938296E+03  0.33446149624E+02  0.24031872170E+02  0.12032705382E+03  0.00000000000E+00 0. -1.
          1    1    1    2  501    0  0.55109392503E+01 -0.20072210055E+02 -0.55879882231E+02  0.59630741283E+02  0.00000000000E+00 0. -1.
<scales pt_clust_5="13000.00000" pt_clust_6="13000.00000" pt_clust_7="13000.00000" pt_clust_8="13000.00000" pt_clust_9="20.81501"></scales>
<clustering>
<clus scale="   20.815">  1  9  2 -1</clus>
<clus scale="   80.105">  5  6 -1 -1</clus>
<clus scale="   91.016">  7  8 -1 -1</clus>
<clus scale="  167.980">  2  5  1 -1</clus>
<clus scale="   20.815">  1  5  2 -1</clus>
</clustering>
</event>
<event>
 9    2  0.1723348E-004  0.1375879E+03  0.7546771E-02  0.1218721E+00
         -1   -1    0    0    0  501 -0.00000000000E+00  0.00000000000E+00  0.94086409726E+02  0.94086409726E+02  0.00000000000E+00 0.  1.
         21   -1    0    0  501  502  0.00000000000E+00 -0.00000000000E+00 -0.62915389424E+03  0.62915389424E+03  0.00000000000E+00 0.  1.
         24    2    1    2    0    0  0.85044300932E+02  0.67161090115E+02 -0.39543483329E+00  0.13523986012E+03  0.80910557093E+02 0.  0.
         23    2    1    2    0    0 -0.11496404501E+03  0.23771802103E+02 -0.30062392842E+03  0.33513189096E+03  0.90315047368E+02 0.  0.
        -13    1    3    3    0    0  0.57027294712E+02  0.50200524166E+02  0.37855455740E+02  0.84883688056E+02  0.00000000000E+00 0.  1.
         14    1    3    3    0    0  0.28017006220E+02  0.16960565949E+02 -0.38250890574E+02  0.50356172060E+02  0.00000000000E+00 0. -1.
        -13    1    4    4    0    0 -0.80431995320E+02  0.27690053723E+02 -0.28426645857E+03  0.29672118970E+03  0.00000000000E+00 0.  1.
         13    1    4    4    0    0 -0.34532049695E+02 -0.39182516200E+01 -0.16357469846E+02  0.38410701264E+02  0.00000000000E+00 0. -1.
         -2    1    1    2    0  502  0.29919744083E+02 -0.90932892218E+02 -0.23404812126E+03  0.25286855289E+03  0.00000000000E+00 0.  1.
<scales pt_clust_5="13000.00000" pt_clust_6="13000.00000" pt_clust_7="13000.00000" pt_clust_8="13000.00000" pt_clust_9="95.72869"></scales>
<clustering>
<clus scale="   80.911">  5  6 -1 -1</clus>
<clus scale="   90.315">  7  8 -1 -1</clus>
<clus scale="   95.729">  2  9  1 -1</clus>
<clus scale="  131.606">  1  5  2 -1</clus>
<clus scale="   95.729">  2  5  1 -1</clus>
</clustering>
</event>
<event>
 9    2  0.1723348E-004  0.1254633E+03  0.7546771E-02  0.1237588E+00
         21   -1    0    0  501  502  0.00000000000E+00  0.00000000000E+00  0.31707411443E+03  0.31707411443E+03  0.00000000000E+00 0.  1.
         -1   -1    0    0    0  501 -0.00000000000E+00 -0.00000000000E+00 -0.16700370557E+03  0.16700370557E+03  0.00000000000E+00 0.  1.
         24    2    1    2    0    0 -0.14655698114E+02 -0.61833206327E+02 -0.42886297634E+02  0.11204385079E+03  0.81709577666E+02 0.  0.
         23    2    1    2    0    0  0.88988603365E+02  0.13273225096E+03  0.42186608429E+02  0.18959582133E+03  0.92898027759E+02 0.  0.
        -13    1    3    3    0    0 -0.99357124621E+01  0.18507057822E+02 -0.33436681310E+00  0.21008126345E+02  0.00000000000E+00 0.  1.
         14    1    3    3    0    0 -0.47199856515E+01 -0.80340264149E+02 -0.42551930821E+02  0.91035724442E+02  0.00000000000E+00 0. -1.
        -11    1    4    4    0    0  0.87552841508E+02  0.90087428429E+02  0.64749597729E+02  0.14132853648E+03  0.00000000000E+00 0.  1.
         11    1    4    4    0    0  0.14357618569E+01  0.42644822532E+02 -0.22562989300E+02  0.48267284853E+02  0.00000000000E+00 0. -1.
         -2    1    1    2    0  502 -0.74332905252E+02 -0.70899044634E+02  0.15077009807E+03  0.18243814789E+03  0.00000000000E+00 0.  1.
<scales pt_clust_5="13000.00000" pt_clust_6="13000.00000" pt_clust_7="13000.00000" pt_clust_8="13000.00000" pt_clust_9="102.72320"></scales>
<clustering>
<clus scale="   81.710">  5  6 -1 -1</clus>
<clus scale="   92.898">  7  8 -1 -1</clus>
<clus scale="  102.723">  1  9  2 -1</clus>
<clus scale="  117.420">  2  5  1 -1</clus>
<clus scale="  102.723">  1  5  2 -1</clus>
</clustering>
</event>
<event>
 9    2  0.1723348E-004  0.2214115E+03  0.7546771E-02  0.1150857E+00
         -1   -1    0    0    0  501 -0.00000000000E+00  0.00000000000E+00  0.31153410091E+03  0.31153410091E+03  0.00000000000E+00 0.  1.
         21   -1    0    0  501  502  0.00000000000E+00 -0.00000000000E+00 -0.39358816894E+03  0.39358816894E+03  0.00000000000E+00 0.  1.
         24    2    1    2    0    0 -0.38522166567E+02 -0.11500660676E+03  0.12864462694E+03  0.19276355202E+03  0.76797591311E+02 0.  0.
         23    2    1    2    0    0  0.95040991290E+02 -0.14067547376E+03 -0.13816250161E+03  0.24064341977E+03  0.99989997934E+02 0.  0.
        -13    1    3    3    0    0 -0.61154402154E+02 -0.76740703526E+02  0.98585702521E+02  0.13909758165E+03  0.00000000000E+00 0.  1.
         14    1    3    3    0    0  0.22632235587E+02 -0.38265903238E+02  0.30058924421E+02  0.53665970369E+02  0.00000000000E+00 0. -1.
        -11    1    4    4    0    0  0.40781107792E+02 -0.12931700408E+03 -0.69416902209E+02  0.15233086558E+03  0.00000000000E+00 0.  1.
         11    1    4    4    0    0  0.54259883498E+02 -0.11358469677E+02 -0.68745599398E+02  0.88312554188E+02  0.00000000000E+00 0. -1.
         -2    1    1    2    0  502 -0.56518824723E+02  0.25568208052E+03 -0.72536193363E+02  0.27171529805E+03  0.00000000000E+00 0.  1.
<scales pt_clust_5="13000.00000" pt_clust_6="13000.00000" pt_clust_7="13000.00000" pt_clust_8="13000.00000" pt_clust_9="197.54772"></scales>
<clustering>
<clus scale="   76.798">  5  6 -1 -1</clus>
<clus scale="   99.990">  7  8 -1 -1</clus>
<clus scale="  143.556">  1  5  2 -1</clus>
<clus scale="  197.548">  2  9  1 -1</clus>
<clus scale="  197.548">  2  5  1 -1</clus>
</clustering>
</event>
<event>
 9    2  0.1723348E-004  0.1032506E+03  0.7546771E-02  0.1279631E+00
         21   -1    0    0  501  502  0.00000000000E+00  0.00000000000E+00  0.49339172127E+02  0.49339172127E+02  0.00000000000E+00 0. -1.
          2   -1    0    0  502    0 -0.00000000000E+00 -0.00000000000E+00 -0.73619690116E+03  0.73619690116E+03  0.00000000000E+00 0. -1.
         24    2    1    2    0    0  0.51717994130E+02  0.26858920794E+02 -0.20798914585E+03  0.22941666013E+03  0.77306963518E+02 0.  0.
         23    2    1    2    0    0 -0.35650921277E+02  0.32694537221E+02 -0.35527431320E+02  0.10850781576E+03  0.90398156802E+02 0.  0.
        -13    1    3    3    0    0  0.10988929644E+02 -0.25191762455E+02 -0.36939801406E+02  0.46042701900E+02  0.00000000000E+00 0.  1.
         14    1    3    3    0    0  0.40729064485E+02  0.52050683248E+02 -0.17104934445E+03  0.18337395823E+03  0.00000000000E+00 0. -1.
        -13    1    4    4    0    0 -0.99885877038E+01  0.43824652853E+02 -0.57467301906E+02  0.72957952756E+02  0.00000000000E+00 0.  1.
         13    1    4    4    0    0 -0.25662333573E+02 -0.11130115632E+02  0.21939870586E+02  0.35549863006E+02  0.00000000000E+00 0. -1.
          1    1    1    2  501    0 -0.16067072853E+02 -0.59553458015E+02 -0.44334115186E+03  0.44761159740E+03  0.00000000000E+00 0. -1.
<scales pt_clust_5="13000.00000" pt_clust_6="13000.00000" pt_clust_7="13000.00000" pt_clust_8="13000.00000" pt_clust_9="61.68281"></scales>
<clustering>
<clus scale="   61.683">  1  9  2 -1</clus>
<clus scale="   77.307">  5  6 -1 -1</clus>
<clus scale="   90.398">  7  8 -1 -1</clus>
<clus scale="   92.007">  2  5  1 -1</clus>
<clus scale="   61.683">  1  5  2 -1</clus>
</clustering>
</event>
<event>
 9    2  0.2897568E-004  0.3525329E+03  0.7546771E-02  0.1100436E+00
         21   -1    0    0  501  502  0.00000000000E+00  0.00000000000E+00  0.40291957200E+03  0.40291957200E+03  0.00000000000E+00 0.  1.
          2   -1    0    0  502    0 -0.00000000000E+00 -0.00000000000E+00 -0.78904582681E+03  0.78904582681E+03  0.00000000000E+00 0. -1.
         23    2    1    2    0    0  0.80132480737E+02 -0.18276701860E+02 -0.11826946257E+03  0.17134399235E+03  0.92821579591E+02 0.  0.
         24    2    1    2    0    0 -0.31922793368E+03 -0.14977190612E+03  0.24027329302E+03  0.43444468071E+03  0.81687378194E+02 0.  0.
        -13    1    4    4    0    0 -0.31255270385E+03 -0.15860382619E+03  0.22916201133E+03  0.41875958951E+03  0.00000000000E+00 0.  1.
         14    1    4    4    0    0 -0.66752298294E+01  0.88319200700E+01  0.11111281683E+02  0.15685091203E+02  0.00000000000E+00 0. -1.
        -11    1    3    3    0    0  0.17792157258E+02 -0.50350814133E+02 -0.58587859021E+02  0.79273593134E+02  0.00000000000E+00 0. -1.
         11    1    3    3    0    0  0.62340323479E+02  0.32074112273E+02 -0.59681603545E+02  0.92070399213E+02  0.00000000000E+00 0.  1.
          1    1    1    2  501    0  0.23909545294E+03  0.16804860798E+03 -0.50813008527E+03  0.58617672575E+03  0.00000000000E+00 0. -1.
<scales pt_clust_5="13000.00000" pt_clust_6="13000.00000" pt_clust_7="13000.00000" pt_clust_8="13000.00000" pt_clust_9="342.93843"></scales>
<clustering>
<clus scale="   81.687">  5  6 -1 -1</clus>
<clus scale="   92.822">  7  8 -1 -1</clus>
<clus scale="  123.980">  2  7  1 -1</clus>
<clus scale="  342.938">  1  9  2 -1</clus>
<clus scale="  342.938">  1  5  2 -1</clus>
</clustering>
</event>
<event>
 9    2  0.1723348E-004  0.1144211E+03  0.7546771E-02  0.1260353E+00
          2   -1    0    0  502    0 -0.00000000000E+00  0.00000000000E+00  0.23370998148E+03  0.23370998148E+03  0.00000000000E+00 0. -1.
         21   -1    0    0  501  502  0.00000000000E+00 -0.00000000000E+00 -0.25487735737E+03  0.25487735737E+03  0.00000000000E+00 0.  1.
         23    2    1    2    0    0 -0.41938329477E+02 -0.21556925638E+02 -0.85112649220E+01  0.11445384121E+03  0.10394092368E+03 0.  0.
         24    2    1    2    0    0  0.63662541313E+02 -0.36853288721E+02 -0.17045255772E+03  0.20447674673E+03  0.85706367708E+02 0.  0.
        -13    1    4    4    0    0  0.55347410942E+02  0.10022768062E+02 -0.13128761292E+03  0.14282937052E+03  0.00000000000E+00 0.  1.
         14    1    4    4    0    0  0.83151303705E+01 -0.46876056783E+02 -0.39164944801E+02  0.61647376213E+02  0.00000000000E+00 0. -1.
        -13    1    3    3    0    0 -0.38229143186E+02 -0.62345543925E+02 -0.70307597741E+01  0.73470169586E+02  0.00000000000E+00 0.  1.
         13    1    3    3    0    0 -0.37091862905E+01  0.40788618287E+02 -0.14805051478E+01  0.40983671629E+02  0.00000000000E+00 0. -1.
          1    1    1    2  501    0 -0.21724211836E+02  0.58410214359E+02  0.15779644675E+03  0.16965675091E+03  0.00000000000E+00 0. -1.
<scales pt_clust_5="13000.00000" pt_clust_6="13000.00000" pt_clust_7="13000.00000" pt_clust_8="13000.00000" pt_clust_9="62.31933"></scales>
<clustering>
<clus scale="   62.319">  2  9  1 -1</clus>
<clus scale="   85.706">  5  6 -1 -1</clus>
<clus scale="   98.153">  2  5  1 -1</clus>
<clus scale="  103.941">  7  8 -1 -1</clus>
<clus scale="   62.319">  2  5  1 -1</clus>
</clustering>
</event>
<event>
 9    2  0.1723348E-004  0.2545370E+03  0.7546771E-02  0.1156956E+00
         21   -1    0    0  501  502  0.00000000000E+00  0.00000000000E+00  0.93561124613E+03  0.93561124613E+03  0.00000000000E+00 0. -1.
         -1   -1    0    0    0  501 -0.00000000000E+00 -0.00000000000E+00 -0.91614364665E+02  0.91614364665E+02  0.00000000000E+00 0.  1.
         24    2    1    2    0    0 -0.10229187266E+02 -0.94111376049E+01  0.19573995875E+03  0.21216548406E+03  0.80665081594E+02 0.  0.
         23    2    1    2    0    0 -0.10584809676E+03  0.21391130101E+03  0.29788875712E+03  0.39309791971E+03  0.93948914695E+02 0.  0.
        -13    1    3    3    0    0  0.28383542414E+02 -0.80670434213E+01  0.30378465017E+02  0.42350369613E+02  0.00000000000E+00 0.  1.
         14    1    3    3    0    0 -0.38612729680E+02 -0.13440941836E+01  0.16536149374E+03  0.16981511444E+03  0.00000000000E+00 0. -1.
        -11    1    4    4    0    0 -0.10263380493E+03  0.10939531241E+03  0.15148712337E+03  0.21318860392E+03  0.00000000000E+00 0.  1.
         11    1    4    4    0    0 -0.32142918299E+01  0.10451598860E+03  0.14640163374E+03  0.17990931579E+03  0.00000000000E+00 0. -1.
         -2    1    1    2    0  502  0.11607728402E+03 -0.20450016341E+03  0.35036816559E+03  0.42196220703E+03  0.00000000000E+00 0.  1.
<scales pt_clust_5="13000.00000" pt_clust_6="13000.00000" pt_clust_7="13000.00000" pt_clust_8="13000.00000" pt_clust_9="236.56432"></scales>
<clustering>
<clus scale="   80.665">  5  6 -1 -1</clus>
<clus scale="   81.854">  2  5  1 -1</clus>
<clus scale="   93.949">  7  8 -1 -1</clus>
<clus scale="  236.564">  1  9  2 -1</clus>
<clus scale="  236.564">  1  5  2 -1</clus>
</clustering>
</event>
<event>
 9    2  0.1723348E-004  0.1087441E+03  0.7546771E-02  0.1269472E+00
         -3   -1    0    0    0  501 -0.00000000000E+00  0.00000000000E+00  0.12057550394E+03  0.12057550394E+03  0.00000000000E+00 0.  1.
         21   -1    0    0  501  502  0.00000000000E+00 -0.00000000000E+00 -0.31825804527E+03  0.31825804527E+03  0.00000000000E+00 0. -1.
         24    2    1    2    0    0 -0.42500854839E+02 -0.16282768449E+02  0.45709021459E+01  0.91622532886E+02  0.79387304877E+02 0.  0.
         23    2    1    2    0    0  0.95857557742E+02  0.32244840203E+02 -0.24195658290E+03  0.27881463660E+03  0.94690086486E+02 0.  0.
        -11    1    3    3    0    0 -0.29496879739E+02 -0.33212713741E+02  0.33523595221E+02  0.55650531937E+02  0.00000000000E+00 0.  1.
         12    1    3    3    0    0 -0.13003975100E+02  0.16929945292E+02 -0.28952693075E+02  0.35972000949E+02  0.00000000000E+00 0. -1.
        -13    1    4    4    0    0  0.19015595060E+02  0.15274627661E+02 -0.85420937071E-02  0.24390719109E+02  0.00000000000E+00 0.  1.
         13    1    4    4    0    0  0.76841962682E+02  0.16970212542E+02 -0.24194804080E+03  0.25442391749E+03  0.00000000000E+00 0. -1.
         -4    1    1    2    0  502 -0.53356702903E+02 -0.15962071754E+02  0.39703139421E+02  0.68396379723E+02  0.00000000000E+00 0.  1.
<scales pt_clust_5="13000.00000" pt_clust_6="13000.00000" pt_clust_7="13000.00000" pt_clust_8="13000.00000" pt_clust_9="55.69316"></scales>
<clustering>
<clus scale="   55.693">  2  9  1 -1</clus>
<clus scale="   79.387">  5  6 -1 -1</clus>
<clus scale="   94.690">  7  8 -1 -1</clus>
<clus scale="   95.715">  1  5  2 -1</clus>
<clus scale="   55.693">  2  5  1 -1</clus>
</clustering>
</event>
<event>
 9    2  0.1723348E-004  0.1467242E+03  0.7546771E-02  0.1208759E+00
          2   -1    0    0  502    0 -0.00000000000E+00  0.00000000000E+00  0.13562886669E+03  0.13562886669E+03  0.00000000000E+00 0. -1.
         21   -1    0    0  501  502  0.00000000000E+00 -0.00000000000E+00 -0.34761226221E+03  0.34761226221E+03  0.00000000000E+00 0.  1.
         23    2    1    2    0    0  0.10250620501E+02  0.12211379733E+03 -0.18138749403E+02  0.15323559269E+03  0.90195775513E+02 0.  0.
         24    2    1    2    0    0 -0.62736200143E+02 -0.88027920442E+02 -0.22610834521E+03  0.25959581136E+03  0.67677588013E+02 0.  0.
        -13    1    4    4    0    0 -0.54178803239E+02 -0.89438860563E+02 -0.14917577293E+03  0.18217591424E+03  0.00000000000E+00 0.  1.
         14    1    4    4    0    0 -0.85573969042E+01  0.14109401210E+01 -0.76932572273E+02  0.77419897122E+02  0.00000000000E+00 0. -1.
        -13    1    3    3    0    0 -0.24454887592E+02  0.93519673007E+02  0.14398813152E+02  0.97730735118E+02  0.00000000000E+00 0.  1.
         13    1    3    3    0    0  0.34705508093E+02  0.28594124320E+02 -0.32537562555E+02  0.55504857577E+02  0.00000000000E+00 0. -1.
          1    1    1    2  501    0  0.52485579642E+02 -0.34085876885E+02  0.32263699088E+02  0.70409724841E+02  0.00000000000E+00 0. -1.
<scales pt_clust_5="13000.00000" pt_clust_6="13000.00000" pt_clust_7="13000.00000" pt_clust_8="13000.00000" pt_clust_9="62.58264"></scales>
<clustering>
<clus scale="   62.583">  2  9  1 -1</clus>
<clus scale="   67.678">  5  6 -1 -1</clus>
<clus scale="   90.196">  7  8 -1 -1</clus>
<clus scale="  134.063">  2  5  1 -1</clus>
<clus scale="   62.583">  2  5  1 -1</clus>
</clustering>
</event>
<event>
 9    2  0.1723348E-004  0.2924455E+03  0.7546771E-02  0.1099840E+00
         21   -1    0    0  501  502  0.00000000000E+00  0.00000000000E+00  0.11306572965E+04  0.11306572965E+04  0.00000000000E+00 0. -1.
          2   -1    0    0  502    0 -0.00000000000E+00 -0.00000000000E+00 -0.15724737477E+03  0.15724737477E+03  0.00000000000E+00 0. -1.
         24    2    1    2    0    0 -0.13436320177E+03  0.15515799236E+03  0.20171389339E+03  0.29888996054E+03  0.80741817803E+02 0.  0.
         23    2    1    2    0    0  0.91567055129E+02  0.21261796115E+03  0.30325931674E+03  0.39191872605E+03  0.89683619727E+02 0.  0.
        -11    1    3    3    0    0 -0.83356731406E+02  0.42099217460E+02  0.11193901905E+03  0.14577733969E+03  0.00000000000E+00 0.  1.
         12    1    3    3    0    0 -0.51006470366E+02  0.11305877490E+03  0.89774874346E+02  0.15311262086E+03  0.00000000000E+00 0. -1.
        -11    1    4    4    0    0  0.59657794388E+02  0.40460119804E+02  0.10566894620E+03  0.12791403331E+03  0.00000000000E+00 0.  1.
         11    1    4    4    0    0  0.31909260741E+02  0.17215784135E+03  0.19759037054E+03  0.26400469274E+03  0.00000000000E+00 0. -1.
          1    1    1    2  501    0  0.42796146643E+02 -0.36777595351E+03  0.46843671160E+03  0.59709598468E+03  0.00000000000E+00 0. -1.
<scales pt_clust_5="13000.00000" pt_clust_6="13000.00000" pt_clust_7="13000.00000" pt_clust_8="13000.00000" pt_clust_9="278.35461"></scales>
<clustering>
<clus scale="   80.742">  5  6 -1 -1</clus>
<clus scale="   89.684">  7  8 -1 -1</clus>
<clus scale="  220.560">  2  5  1 -1</clus>
<clus scale="  278.355">  1  9  2 -1</clus>
<clus scale="  278.355">  1  5  2 -1</clus>
</clustering>
</event>
<event>
 9    2  0.1723348E-004  0.2484403E+03  0.7546771E-02  0.1159966E+00
         21   -1    0    0  501  502  0.00000000000E+00  0.00000000000E+00  0.16296171167E+03  0.16296171167E+03  0.00000000000E+00 0.  1.
          2   -1    0    0  502    0 -0.00000000000E+00 -0.00000000000E+00 -0.12242463268E+04  0.12242463268E+04  0.00000000000E+00 0. -1.
         24    2    1    2    0    0  0.27728198789E+01  0.15987449897E+01  0.60267263927E+02  0.10181104929E+03  0.81994525059E+02 0.  0.
         23    2    1    2    0    0 -0.19807354794E+03 -0.12297729578E+03 -0.98824980583E+03  0.10196065272E+04  0.92753683694E+02 0.  0.
        -13    1    3    3    0    0  0.82507631962E+01 -0.33410335172E+02  0.56527513641E+02  0.66179191504E+02  0.00000000000E+00 0.  1.
         14    1    3    3    0    0 -0.54779433173E+01  0.35009080162E+02  0.37397502860E+01  0.35631857782E+02  0.00000000000E+00 0. -1.
        -11    1    4    4    0    0 -0.73530958710E+02 -0.38242317144E+02 -0.19033613189E+03  0.20759845812E+03  0.00000000000E+00 0.  1.
         11    1    4    4    0    0 -0.12454258923E+03 -0.84734978639E+02 -0.79791367393E+03  0.81200806904E+03  0.00000000000E+00 0. -1.
          1    1    1    2  501    0  0.19530072806E+03  0.12137855079E+03 -0.13330207321E+03  0.26579046201E+03  0.00000000000E+00 0. -1.
<scales pt_clust_5="13000.00000" pt_clust_6="13000.00000" pt_clust_7="13000.00000" pt_clust_8="13000.00000" pt_clust_9="230.47634"></scales>
<clustering>
<clus scale="   81.995">  5  6 -1 -1</clus>
<clus scale="   82.057">  2  5  1 -1</clus>
<clus scale="   92.754">  7  8 -1 -1</clus>
<clus scale="  230.476">  1  9  2 -1</clus>
<clus scale="  230.476">  1  5  2 -1</clus>
</clustering>
</event>
<event>
 9    2  0.1723348E-004  0.4934930E+03  0.7546771E-02  0.1015491E+00
         21   -1    0    0  501  502  0.00000000000E+00  0.00000000000E+00  0.23340585028E+03  0.23340585028E+03  0.00000000000E+00 0. -1.
          2   -1    0    0  502    0 -0.00000000000E+00 -0.00000000000E+00 -0.11576184662E+04  0.11576184662E+04  0.00000000000E+00 0. -1.
         24    2    1    2    0    0  0.76862600608E+02 -0.60605021107E+02 -0.23979872354E+03  0.27118623707E+03  0.80359936583E+02 0.  0.
         23    2    1    2    0    0  0.11563784809E+02 -0.35400303239E+03 -0.57600087684E+03  0.68226243385E+03  0.90846851706E+02 0.  0.
        -13    1    3    3    0    0  0.25111581856E+02 -0.29150169208E+02 -0.20331370394E+02  0.43516531690E+02  0.00000000000E+00 0.  1.
         14    1    3    3    0    0  0.51751018752E+02 -0.31454851898E+02 -0.21946735315E+03  0.22766970538E+03  0.00000000000E+00 0. -1.
        -13    1    4    4    0    0  0.37585764021E+01 -0.33012243172E+03 -0.56594433014E+03  0.65520068043E+03  0.00000000000E+00 0. -1.
         13    1    4    4    0    0  0.78052084064E+01 -0.23880600671E+02 -0.10056546701E+02  0.27061753421E+02  0.00000000000E+00 0.  1.
          1    1    1    2  501    0 -0.88426385417E+02  0.41460805350E+03 -0.10841301557E+03  0.43757564559E+03  0.00000000000E+00 0. -1.
<scales pt_clust_5="13000.00000" pt_clust_6="13000.00000" pt_clust_7="13000.00000" pt_clust_8="13000.00000" pt_clust_9="423.93285"></scales>
<clustering>
<clus scale="   80.360">  5  6 -1 -1</clus>
<clus scale="   90.847">  7  8 -1 -1</clus>
<clus scale="  126.139">  5  7 -1 -1</clus>
<clus scale="  423.933">  1  9  2 -1</clus>
<clus scale="  423.933">  1  5  2 -1</clus>
</clustering>
</event>
<event>
 9    2  0.1723348E-004  0.2690926E+03  0.7546771E-02  0.1135915E+00
         21   -1    0    0  501  502  0.00000000000E+00  0.00000000000E+00  0.11424228333E+04  0.11424228333E+04  0.00000000000E+00 0.  1.
          2   -1    0    0  502    0 -0.00000000000E+00 -0.00000000000E+00 -0.20597199720E+03  0.20597199720E+03  0.00000000000E+00 0. -1.
         23    2    1    2    0    0 -0.31713951676E+02 -0.60287404105E+02  0.82775650968E+02  0.14122245384E+03  0.91932732208E+02 0.  0.
         24    2    1    2    0    0  0.25428264485E+03 -0.48370198117E+02  0.91307437513E+03  0.95247341420E+03  0.80631573847E+02 0.  0.
        -13    1    4    4    0    0  0.16793595708E+03 -0.27902169585E+02  0.45327756274E+03  0.48419166209E+03  0.00000000000E+00 0.  1.
         14    1    4    4    0    0  0.86346687769E+02 -0.20468028532E+02  0.45979681239E+03  0.46828175212E+03  0.00000000000E+00 0. -1.
        -11    1    3    3    0    0 -0.52323294810E+02 -0.24831511857E+02  0.81765527517E+02  0.10019946432E+03  0.00000000000E+00 0.  1.
         11    1    3    3    0    0  0.20609343134E+02 -0.35455892248E+02  0.10101234514E+01  0.41022989517E+02  0.00000000000E+00 0. -1.
          1    1    1    2  501    0 -0.22256869318E+03  0.10865760222E+03 -0.59399190008E+02  0.25469896246E+03  0.00000000000E+00 0. -1.
<scales pt_clust_5="13000.00000" pt_clust_6="13000.00000" pt_clust_7="13000.00000" pt_clust_8="13000.00000" pt_clust_9="256.72839"></scales>
<clustering>
<clus scale="   80.632">  5  6 -1 -1</clus>
<clus scale="   91.933">  7  8 -1 -1</clus>
<clus scale="  114.420">  2  7  1 -1</clus>
<clus scale="  256.728">  1  9  2 -1</clus>
<clus scale="  256.728">  1  5  2 -1</clus>
</clustering>
</event>
<event>
 9    2  0.1723348E-004  0.1394202E+03  0.7546771E-02  0.1222033E+00
          2   -1    0    0  502    0 -0.00000000000E+00  0.00000000000E+00  0.31253743934E+03  0.31253743934E+03  0.00000000000E+00 0. -1.
         21   -1    0    0  501  502  0.00000000000E+00 -0.00000000000E+00 -0.13356888778E+03  0.13356888778E+03  0.00000000000E+00 0. -1.
         23    2    1    2    0    0  0.53215247726E+02  0.52332465361E+02 -0.85128408832E+01  0.11829825134E+03  0.91386313465E+02 0.  0.
         24    2    1    2    0    0 -0.51603346460E+02  0.84320535263E+02  0.72027745501E+02  0.14890534970E+03  0.84923194798E+02 0.  0.
        -11    1    4    4    0    0 -0.12869242238E+02  0.24023337701E+02  0.72270622489E+02  0.77238468557E+02  0.00000000000E+00 0.  1.
         12    1    4    4    0    0 -0.38734104222E+02  0.60297197562E+02 -0.24287698825E+00  0.71666881144E+02  0.00000000000E+00 0. -1.
        -13    1    3    3    0    0  0.76905981303E+02  0.53563070283E+02 -0.11355238179E+02  0.94405899670E+02  0.00000000000E+00 0. -1.
         13    1    3    3    0    0 -0.23690733577E+02 -0.12306049224E+01  0.28423972955E+01  0.23892351669E+02  0.00000000000E+00 0.  1.
          1    1    1    2  501    0 -0.16119012659E+01 -0.13665300062E+03  0.11545364694E+03  0.17890272607E+03  0.00000000000E+00 0. -1.
<scales pt_clust_5="13000.00000" pt_clust_6="13000.00000" pt_clust_7="13000.00000" pt_clust_8="13000.00000" pt_clust_9="110.57148"></scales>
<clustering>
<clus scale="   84.923">  5  6 -1 -1</clus>
<clus scale="   91.386">  7  8 -1 -1</clus>
<clus scale="  117.992">  1  7  2 -1</clus>
<clus scale="  110.571">  2  9  1 -1</clus>
<clus scale="  110.571">  2  5  1 -1</clus>
</clustering>
</event>
<event>
 9    2  0.1723348E-004  0.9664446E+02  0.7546771E-02  0.1292346E+00
         -1   -1    0    0    0  501 -0.00000000000E+00  0.00000000000E+00  0.17737900832E+03  0.17737900832E+03  0.00000000000E+00 0.  1.
         21   -1    0    0  501  502  0.00000000000E+00 -0.00000000000E+00 -0.13967517824E+03  0.13967517824E+03  0.00000000000E+00 0.  1.
         24    2    1    2    0    0  0.48317798877E+02 -0.18283293751E+02  0.75576568556E+02  0.12193051031E+03  0.80537836516E+02 0.  0.
         23    2    1    2    0    0  0.92030605834E+01 -0.39706496339E+02 -0.53361500270E+02  0.11198904586E+03  0.89625858469E+02 0.  0.
        -11    1    3    3    0    0 -0.20776364129E+02 -0.14946183862E+02  0.28226822891E+02  0.38102483501E+02  0.00000000000E+00 0.  1.
         12    1    3    3    0    0  0.69094163005E+02 -0.33371098892E+01  0.47349745665E+02  0.83828026807E+02  0.00000000000E+00 0. -1.
        -13    1    4    4    0    0  0.42899706854E+01 -0.61366641852E+02 -0.62751758163E+02  0.87875205452E+02  0.00000000000E+00 0.  1.
         13    1    4    4    0    0  0.49130898981E+01  0.21660145513E+02  0.93902578925E+01  0.24113840409E+02  0.00000000000E+00 0. -1.
         -2    1    1    2    0  502 -0.57520859460E+02  0.57989790090E+02  0.15488761798E+02  0.83134630388E+02  0.00000000000E+00 0.  1.
<scales pt_clust_5="13000.00000" pt_clust_6="13000.00000" pt_clust_7="13000.00000" pt_clust_8="13000.00000" pt_clust_9="81.67908"></scales>
<clustering>
<clus scale="   80.538">  5  6 -1 -1</clus>
<clus scale="   81.679">  2  9  1 -1</clus>
<clus scale="   88.282">  1  5  2 -1</clus>
<clus scale="   89.626">  7  8 -1 -1</clus>
<clus scale="   81.679">  2  5  1 -1</clus>
</clustering>
</event>
<event>
 9    2  0.1723348E-004  0.1116119E+03  0.7546771E-02  0.1261966E+00
         21   -1    0    0  501  502  0.00000000000E+00  0.00000000000E+00  0.12859630749E+03  0.12859630749E+03  0.00000000000E+00 0.  1.
         -3   -1    0    0    0  501 -0.00000000000E+00 -0.00000000000E+00 -0.26705212511E+03  0.26705212511E+03  0.00000000000E+00 0.  1.
         23    2    1    2    0    0 -0.57604096385E+02 -0.23685723782E+02 -0.19468836980E+03  0.22383899476E+03  0.91220002250E+02 0.  0.
         24    2    1    2    0    0  0.74569397654E+02  0.51769710191E+01 -0.99609245945E+00  0.10931533298E+03  0.79758721960E+02 0.  0.
        -13    1    4    4    0    0  0.22181736180E+02 -0.23635235053E+02 -0.28816978018E+02  0.43371326681E+02  0.00000000000E+00 0.  1.
         14    1    4    4    0    0  0.52387661473E+02  0.28812206072E+02  0.27820885558E+02  0.65944006298E+02  0.00000000000E+00 0. -1.
        -13    1    3    3    0    0  0.46356339179E+01 -0.42131090540E+02 -0.52058013077E+02  0.67130876782E+02  0.00000000000E+00 0.  1.
         13    1    3    3    0    0 -0.62239730303E+02  0.18445366758E+02 -0.14263035672E+03  0.15670811798E+03  0.00000000000E+00 0. -1.
         -4    1    1    2    0  502 -0.16965301269E+02  0.18508752763E+02  0.57228644630E+02  0.62494104859E+02  0.00000000000E+00 0.  1.
<scales pt_clust_5="13000.00000" pt_clust_6="13000.00000" pt_clust_7="13000.00000" pt_clust_8="13000.00000" pt_clust_9="25.10768"></scales>
<clustering>
<clus scale="   25.108">  1  9  2 -1</clus>
<clus scale="   79.759">  5  6 -1 -1</clus>
<clus scale="   91.220">  7  8 -1 -1</clus>
<clus scale="  102.458">  1  5  2 -1</clus>
<clus scale="   25.108">  1  5  2 -1</clus>
</clustering>
</event>
<event>
 9    2  0.1723348E-004  0.1568934E+03  0.7546771E-02  0.1209550E+00
          2   -1    0    0  502    0 -0.00000000000E+00  0.00000000000E+00  0.33674161089E+03  0.33674161089E+03  0.00000000000E+00 0. -1.
         21   -1    0    0  501  502  0.00000000000E+00 -0.00000000000E+00 -0.59568046081E+03  0.59568046081E+03  0.00000000000E+00 0. -1.
         23    2    1    2    0    0  0.38385436443E+02 -0.44001780407E+02  0.44260823050E+02  0.11654227528E+03  0.90628268551E+02 0.  0.
         24    2    1    2    0    0  0.94316688897E+02  0.11124131222E+02  0.23223268066E+03  0.26326908425E+03  0.79744646562E+02 0.  0.
        -11    1    4    4    0    0  0.60774448748E+02 -0.28713300647E+01  0.53940819254E+02  0.81310455286E+02  0.00000000000E+00 0.  1.
         12    1    4    4    0    0  0.33542240149E+02  0.13995461286E+02  0.17829186141E+03  0.18195862897E+03  0.00000000000E+00 0. -1.
        -13    1    3    3    0    0 -0.26408006333E+02  0.20679971775E+01  0.20713792934E+02  0.33626189623E+02  0.00000000000E+00 0.  1.
         13    1    3    3    0    0  0.64793442777E+02 -0.46069777585E+02  0.23547030116E+02  0.82916085658E+02  0.00000000000E+00 0. -1.
          1    1    1    2  501    0 -0.13270212534E+03  0.32877649186E+02 -0.53543235364E+03  0.55261071217E+03  0.00000000000E+00 0. -1.
<scales pt_clust_5="13000.00000" pt_clust_6="13000.00000" pt_clust_7="13000.00000" pt_clust_8="13000.00000" pt_clust_9="135.11594"></scales>
<clustering>
<clus scale="   79.745">  5  6 -1 -1</clus>
<clus scale="   90.628">  7  8 -1 -1</clus>
<clus scale="  107.810">  1  7  2 -1</clus>
<clus scale="  135.116">  2  9  1 -1</clus>
<clus scale="  135.116">  2  5  1 -1</clus>
</clustering>
</event>
<event>
 9    2  0.1723348E-004  0.1008382E+03  0.7546771E-02  0.1286017E+00
         21   -1    0    0  501  502  0.00000000000E+00  0.00000000000E+00  0.15812660597E+03  0.15812660597E+03  0.00000000000E+00 0. -1.
          2   -1    0    0  502    0 -0.00000000000E+00 -0.00000000000E+00 -0.13647082907E+03  0.13647082907E+03  0.00000000000E+00 0. -1.
         23    2    1    2    0    0  0.65577180826E+02 -0.12851363605E+02 -0.25458484654E+02  0.11864223179E+03  0.94669533279E+02 0.  0.
         24    2    1    2    0    0  0.76007821948E+01 -0.26837135633E+02  0.34457925060E+02  0.91750844115E+02  0.80329727109E+02 0.  0.
        -11    1    4    4    0    0 -0.33186032968E+02 -0.25551485140E+02  0.67439544332E+01  0.42422542338E+02  0.00000000000E+00 0.  1.
         12    1    4    4    0    0  0.40786815163E+02 -0.12856504934E+01  0.27713970627E+02  0.49328301777E+02  0.00000000000E+00 0. -1.
        -11    1    3    3    0    0  0.46970220870E+02  0.31209810446E+02  0.12282914029E+02  0.57715889439E+02  0.00000000000E+00 0. -1.
         11    1    3    3    0    0  0.18606959957E+02 -0.44061174051E+02 -0.37741398683E+02  0.60926342350E+02  0.00000000000E+00 0.  1.
          1    1    1    2  501    0 -0.73177963021E+02  0.39688499239E+02  0.12656336499E+02  0.84204359135E+02  0.00000000000E+00 0. -1.
<scales pt_clust_5="13000.00000" pt_clust_6="13000.00000" pt_clust_7="13000.00000" pt_clust_8="13000.00000" pt_clust_9="83.24777"></scales>
<clustering>
<clus scale="   80.330">  5  6 -1 -1</clus>
<clus scale="   83.248">  1  9  2 -1</clus>
<clus scale="   87.515">  1  5  2 -1</clus>
<clus scale="   94.670">  7  8 -1 -1</clus>
<clus scale="   83.248">  1  5  2 -1</clus>
</clustering>
</event>
<event>
 9    2  0.1723348E-004  0.2059783E+03  0.7546771E-02  0.1146182E+00
         21   -1    0    0  501  502  0.00000000000E+00  0.00000000000E+00  0.18359587519E+03  0.18359587519E+03  0.00000000000E+00 0.  1.
          2   -1    0    0  502    0 -0.00000000000E+00 -0.00000000000E+00 -0.38999788337E+03  0.38999788337E+03  0.00000000000E+00 0. -1.
         23    2    1    2    0    0  0.16887802768E+03  0.76612792376E+02 -0.27945616340E+03  0.34896400539E+03  0.96388908106E+02 0.  0.
         24    2    1    2    0    0 -0.14863016957E+03 -0.82998028801E+02  0.54016557693E+02  0.19611349250E+03  0.81013044281E+02 0.  0.
        -13    1    4    4    0    0 -0.76894479886E+02 -0.53274405573E+02  0.69998129968E+02  0.11683604549E+03  0.00000000000E+00 0.  1.
         14    1    4    4    0    0 -0.71735689683E+02 -0.29723623227E+02 -0.15981572275E+02  0.79277447010E+02  0.00000000000E+00 0. -1.
        -11    1    3    3    0    0  0.89491384582E+02  0.90371183786E+02 -0.15217417406E+03  0.19832457746E+03  0.00000000000E+00 0.  1.
         11    1    3    3    0    0  0.79386643103E+02 -0.13758391411E+02 -0.12728198934E+03  0.15063942793E+03  0.00000000000E+00 0. -1.
          1    1    1    2  501    0 -0.20247858116E+02  0.63852364250E+01  0.19037597528E+02  0.28516260662E+02  0.00000000000E+00 0. -1.
<scales pt_clust_5="13000.00000" pt_clust_6="13000.00000" pt_clust_7="13000.00000" pt_clust_8="13000.00000" pt_clust_9="21.23080"></scales>
<clustering>
<clus scale="   21.231">  1  9  2 -1</clus>
<clus scale="   81.013">  5  6 -1 -1</clus>
<clus scale="   96.389">  7  8 -1 -1</clus>
<clus scale="  199.247">  1  5  2 -1</clus>
<clus scale="   21.231">  1  5  2 -1</clus>
</clustering>
</event>
<event>
 9    2  0.1723348E-004  0.2484315E+03  0.7546771E-02  0.1145535E+00
          2   -1    0    0  502    0 -0.00000000000E+00  0.00000000000E+00  0.78494067726E+03  0.78494067726E+03  0.00000000000E+00 0. -1.
         21   -1    0    0  501  502  0.00000000000E+00 -0.00000000000E+00 -0.13684552480E+03  0.13684552480E+03  0.00000000000E+00 0. -1.
         24    2    1    2    0    0 -0.16696545966E+02 -0.89807871302E+02  0.29027247672E+03  0.31234441711E+03  0.70403805041E+02 0.  0.
         23    2    1    2    0    0 -0.18953277512E+03 -0.81116800633E+02  0.15602272970E+03  0.27407781167E+03  0.90955739108E+02 0.  0.
        -13    1    3    3    0    0  0.12352322938E+02 -0.27663780101E+02  0.28015204121E+02  0.41263982763E+02  0.00000000000E+00 0.  1.
         14    1    3    3    0    0 -0.29048868904E+02 -0.62144091200E+02  0.26225727260E+03  0.27108043435E+03  0.00000000000E+00 0. -1.
        -11    1    4    4    0    0 -0.44611686456E+02 -0.61206227046E+02  0.76183423491E+02  0.10742587590E+03  0.00000000000E+00 0.  1.
         11    1    4    4    0    0 -0.14492108867E+03 -0.19910573587E+02  0.79839306207E+02  0.16665193577E+03  0.00000000000E+00 0. -1.
          1    1    1    2  501    0  0.20622932109E+03  0.17092467193E+03  0.20179994604E+03  0.33536397328E+03  0.00000000000E+00 0. -1.
<scales pt_clust_5="13000.00000" pt_clust_6="13000.00000" pt_clust_7="13000.00000" pt_clust_8="13000.00000" pt_clust_9="231.18246"></scales>
<clustering>
<clus scale="   70.404">  5  6 -1 -1</clus>
<clus scale="   90.956">  7  8 -1 -1</clus>
<clus scale="  115.330">  1  5  2 -1</clus>
<clus scale="  231.182">  2  9  1 -1</clus>
<clus scale="  231.182">  2  5  1 -1</clus>
</clustering>
</event>
<event>
 9    2  0.1723348E-004  0.1049633E+03  0.7546771E-02  0.1274104E+00
         21   -1    0    0  501  502  0.00000000000E+00  0.00000000000E+00  0.16922777538E+03  0.16922777538E+03  0.00000000000E+00 0.  1.
          2   -1    0    0  502    0 -0.00000000000E+00 -0.00000000000E+00 -0.30221430254E+03  0.30221430254E+03  0.00000000000E+00 0. -1.
         24    2    1    2    0    0 -0.19392438563E+02 -0.52652755745E+02 -0.25131085429E+03  0.27014643966E+03  0.81691945838E+02 0.  0.
         23    2    1    2    0    0  0.92557072606E+01  0.32096386849E+02  0.17844151770E+02  0.98234572551E+02  0.90640892130E+02 0.  0.
        -13    1    3    3    0    0 -0.24871389392E+02  0.85218880831E+01 -0.14503874220E+03  0.14740232470E+03  0.00000000000E+00 0.  1.
         14    1    3    3    0    0  0.54789508285E+01 -0.61174643829E+02 -0.10627211209E+03  0.12274411496E+03  0.00000000000E+00 0. -1.
        -13    1    4    4    0    0 -0.26089291865E+02  0.44347244803E+02 -0.89444962130E+01  0.52223876571E+02  0.00000000000E+00 0. -1.
         13    1    4    4    0    0  0.35344999125E+02 -0.12250857954E+02  0.26788647983E+02  0.46010695980E+02  0.00000000000E+00 0.  1.
          1    1    1    2  501    0  0.10136731302E+02  0.20556368896E+02  0.10048017536E+03  0.10306106571E+03  0.00000000000E+00 0. -1.
<scales pt_clust_5="13000.00000" pt_clust_6="13000.00000" pt_clust_7="13000.00000" pt_clust_8="13000.00000" pt_clust_9="22.91981"></scales>
<clustering>
<clus scale="   22.920">  1  9  2 -1</clus>
<clus scale="   81.692">  5  6 -1 -1</clus>
<clus scale="   90.641">  7  8 -1 -1</clus>
<clus scale="   97.340">  2  5  1 -1</clus>
<clus scale="   22.920">  1  5  2 -1</clus>
</clustering>
</event>
<event>
 9    2  0.1723348E-004  0.1200048E+03  0.7546771E-02  0.1254192E+00
          2   -1    0    0  502    0 -0.00000000000E+00  0.00000000000E+00  0.21117862801E+03  0.21117862801E+03  0.00000000000E+00 0. -1.
         21   -1    0    0  501  502  0.00000000000E+00 -0.00000000000E+00 -0.11868694281E+03  0.11868694281E+03  0.00000000000E+00 0. -1.
         23    2    1    2    0    0 -0.78847385398E+01 -0.42980622616E+02  0.85949038313E+02  0.14342310634E+03  0.10617649091E+03 0.  0.
         24    2    1    2    0    0  0.38077088031E+02  0.82268760085E+02 -0.31756225651E+02  0.12381707546E+03  0.78129359328E+02 0.  0.
        -13    1    4    4    0    0  0.32417867851E+02  0.65036216410E+02  0.14527822256E+02  0.74105905436E+02  0.00000000000E+00 0.  1.
         14    1    4    4    0    0  0.56592201796E+01  0.17232543675E+02 -0.46284047907E+02  0.49711170024E+02  0.00000000000E+00 0. -1.
        -13    1    3    3    0    0 -0.15230530175E+02 -0.77753074381E+02  0.61205970115E+02  0.10011833200E+03  0.00000000000E+00 0. -1.
         13    1    3    3    0    0  0.73457916357E+01  0.34772451764E+02  0.24743068198E+02  0.43304774336E+02  0.00000000000E+00 0.  1.
          1    1    1    2  501    0 -0.30192349491E+02 -0.39288137469E+02  0.38298872539E+02  0.62625389032E+02  0.00000000000E+00 0. -1.
<scales pt_clust_5="13000.00000" pt_clust_6="13000.00000" pt_clust_7="13000.00000" pt_clust_8="13000.00000" pt_clust_9="49.54935"></scales>
<clustering>
<clus scale="   49.549">  2  9  1 -1</clus>
<clus scale="   78.129">  5  6 -1 -1</clus>
<clus scale="   96.083">  2  5  1 -1</clus>
<clus scale="  106.176">  7  8 -1 -1</clus>
<clus scale="   49.549">  2  5  1 -1</clus>
</clustering>
</event>
<event>
 9    2  0.1723348E-004  0.1065142E+03  0.7546771E-02  0.1272094E+00
          2   -1    0    0  502    0 -0.00000000000E+00  0.00000000000E+00  0.44395797275E+03  0.44395797275E+03  0.00000000000E+00 0. -1.
         21   -1    0    0  501  502  0.00000000000E+00 -0.00000000000E+00 -0.48343216005E+02  0.48343216005E+02  0.00000000000E+00 0. -1.
         23    2    1    2    0    0 -0.14159067149E+02 -0.21862696410E+02  0.15600911698E+03  0.18278053501E+03  0.91604709065E+02 0.  0.
         24    2    1    2    0    0  0.34792511714E+02  0.83077370830E+02  0.20066236142E+03  0.23409151927E+03  0.80131689652E+02 0.  0.
        -13    1    4    4    0    0  0.35498837646E+02  0.11707962688E+02  0.12326872335E+03  0.12881157564E+03  0.00000000000E+00 0.  1.
         14    1    4    4    0    0 -0.70632593194E+00  0.71369408142E+02  0.77393638077E+02  0.10527994362E+03  0.00000000000E+00 0. -1.
        -11    1    3    3    0    0 -0.13413043285E+02  0.33139710724E+02  0.90093882898E+02  0.96928106825E+02  0.00000000000E+00 0. -1.
         11    1    3    3    0    0 -0.74602386349E+00 -0.55002407134E+02  0.65915234080E+02  0.85852428188E+02  0.00000000000E+00 0.  1.
          1    1    1    2  501    0 -0.20633444565E+02 -0.61214674421E+02  0.38943278343E+02  0.75429134472E+02  0.00000000000E+00 0. -1.
<scales pt_clust_5="13000.00000" pt_clust_6="13000.00000" pt_clust_7="13000.00000" pt_clust_8="13000.00000" pt_clust_9="64.59857"></scales>
<clustering>
<clus scale="   64.599">  2  9  1 -1</clus>
<clus scale="   80.132">  5  6 -1 -1</clus>
<clus scale="   91.605">  7  8 -1 -1</clus>
<clus scale="   96.824">  2  5  1 -1</clus>
<clus scale="   64.599">  2  5  1 -1</clus>
</clustering>
</event>
<event>
 9    2  0.1723348E-004  0.1675362E+03  0.7546771E-02  0.1182409E+00
          2   -1    0    0  502    0 -0.00000000000E+00  0.00000000000E+00  0.44579094237E+03  0.44579094237E+03  0.00000000000E+00 0. -1.
         21   -1    0    0  501  502  0.00000000000E+00 -0.00000000000E+00 -0.33043765587E+03  0.33043765587E+03  0.00000000000E+00 0. -1.
         23    2    1    2    0    0 -0.49066977117E+02 -0.12151160852E+03  0.35650499819E+03  0.39200556626E+03  0.96953138174E+02 0.  0.
         24    2    1    2    0    0  0.98612652064E+02  0.17738441738E+03 -0.14788648398E+03  0.26474522075E+03  0.83844696280E+02 0.  0.
        -11    1    4    4    0    0  0.61665582527E+02  0.52869471978E+02 -0.22663564282E+02  0.84329486430E+02  0.00000000000E+00 0.  1.
         12    1    4    4    0    0  0.36947069537E+02  0.12451494540E+03 -0.12522291969E+03  0.18041573432E+03  0.00000000000E+00 0. -1.
        -11    1    3    3    0    0 -0.46614873388E+02 -0.11182880097E+02  0.68728928696E+02  0.83795398847E+02  0.00000000000E+00 0.  1.
         11    1    3    3    0    0 -0.24521037288E+01 -0.11032872842E+03  0.28777606949E+03  0.30821016742E+03  0.00000000000E+00 0. -1.
          1    1    1    2  501    0 -0.49545674947E+02 -0.55872808857E+02 -0.93265227708E+02  0.11947781122E+03  0.00000000000E+00 0. -1.
<scales pt_clust_5="13000.00000" pt_clust_6="13000.00000" pt_clust_7="13000.00000" pt_clust_8="13000.00000" pt_clust_9="74.67627"></scales>
<clustering>
<clus scale="   74.676">  2  9  1 -1</clus>
<clus scale="   83.845">  5  6 -1 -1</clus>
<clus scale="   96.953">  7  8 -1 -1</clus>
<clus scale="  160.307">  2  5  1 -1</clus>
<clus scale="   74.676">  2  5  1 -1</clus>
</clustering>
</event>
<event>
 9    2  0.1723348E-004  0.1432208E+03  0.7546771E-02  0.1223789E+00
         21   -1    0    0  501  502  0.00000000000E+00  0.00000000000E+00  0.22347949998E+03  0.22347949998E+03  0.00000000000E+00 0. -1.
          2   -1    0    0  502    0 -0.00000000000E+00 -0.00000000000E+00 -0.51022582078E+03  0.51022582078E+03  0.00000000000E+00 0. -1.
         23    2    1    2    0    0  0.49776905123E+02  0.10453002578E+02  0.16974609598E+03  0.19955644664E+03  0.91771633693E+02 0.  0.
         24    2    1    2    0    0  0.93465575591E+02  0.29742667244E+02 -0.18009771925E+03  0.22025696760E+03  0.80358591444E+02 0.  0.
        -11    1    4    4    0    0  0.67101777591E+02  0.57254366915E+02 -0.11664479200E+03  0.14624198640E+03  0.00000000000E+00 0.  1.
         12    1    4    4    0    0  0.26363797999E+02 -0.27511699671E+02 -0.63452927256E+02  0.74014981193E+02  0.00000000000E+00 0. -1.
        -11    1    3    3    0    0  0.38020519421E+02  0.46185224168E+02  0.13772702574E+03  0.15015781181E+03  0.00000000000E+00 0. -1.
         11    1    3    3    0    0  0.11756385702E+02 -0.35732221590E+02  0.32019070240E+02  0.49398634835E+02  0.00000000000E+00 0.  1.
          1    1    1    2  501    0 -0.14324248071E+03 -0.40195669822E+02 -0.27639469753E+03  0.31389190652E+03  0.00000000000E+00 0. -1.
<scales pt_clust_5="13000.00000" pt_clust_6="13000.00000" pt_clust_7="13000.00000" pt_clust_8="13000.00000" pt_clust_9="118.55255"></scales>
<clustering>
<clus scale="   80.359">  5  6 -1 -1</clus>
<clus scale="   91.772">  7  8 -1 -1</clus>
<clus scale="  104.924">  2  7  1 -1</clus>
<clus scale="  118.553">  1  9  2 -1</clus>
<clus scale="  118.553">  1  5  2 -1</clus>
</clustering>
</event>
<event>
 9    2  0.1723348E-004  0.1848598E+03  0.7546771E-02  0.1165291E+00
          2   -1    0    0  502    0 -0.00000000000E+00  0.00000000000E+00  0.74288612491E+03  0.74288612491E+03  0.00000000000E+00 0. -1.
         21   -1    0    0  501  502  0.00000000000E+00 -0.00000000000E+00 -0.88960844950E+02  0.88960844950E+02  0.00000000000E+00 0. -1.
         24    2    1    2    0    0 -0.96149027914E+02  0.84620868697E+02  0.21978732180E+03  0.26430989812E+03  0.71749065720E+02 0.  0.
         23    2    1    2    0    0  0.17774067667E+03 -0.15530809196E+03  0.26123929987E+03  0.36370423161E+03  0.91227434012E+02 0.  0.
        -13    1    3    3    0    0 -0.86308979858E+02  0.33307995124E+02  0.16077378686E+03  0.18549089758E+03  0.00000000000E+00 0.  1.
         14    1    3    3    0    0 -0.98400480567E+01  0.51312873573E+02  0.59013534942E+02  0.78819000541E+02  0.00000000000E+00 0. -1.
        -13    1    4    4    0    0  0.69547976994E+02 -0.13949839020E+02  0.46680178261E+02  0.84915005476E+02  0.00000000000E+00 0.  1.
         13    1    4    4    0    0  0.10819269968E+03 -0.14135825294E+03  0.21455912161E+03  0.27878922613E+03  0.00000000000E+00 0. -1.
          1    1    1    2  501    0 -0.81591648760E+02  0.70687223264E+02  0.17289865828E+03  0.20383284013E+03  0.00000000000E+00 0. -1.
<scales pt_clust_5="13000.00000" pt_clust_6="13000.00000" pt_clust_7="13000.00000" pt_clust_8="13000.00000" pt_clust_9="107.95320"></scales>
<clustering>
<clus scale="   71.749">  5  6 -1 -1</clus>
<clus scale="   91.227">  7  8 -1 -1</clus>
<clus scale="  107.953">  2  9  1 -1</clus>
<clus scale="  176.064">  1  5  2 -1</clus>
<clus scale="  107.953">  2  5  1 -1</clus>
</clustering>
</event>
<event>
 9    2  0.1723348E-004  0.9887775E+02  0.7546771E-02  0.1290546E+00
          4   -1    0    0  502    0 -0.00000000000E+00  0.00000000000E+00  0.47886171432E+02  0.47886171432E+02  0.00000000000E+00 0. -1.
         21   -1    0    0  501  502  0.00000000000E+00 -0.00000000000E+00 -0.47646816208E+03  0.47646816208E+03  0.00000000000E+00 0. -1.
         24    2    1    2    0    0  0.67401340719E+01  0.18371836026E+02 -0.53338546276E+02  0.96587905497E+02  0.78110621577E+02 0.  0.
         23    2    1    2    0    0 -0.90316614746E+01 -0.90896331599E+02 -0.27219979556E+03  0.30173846637E+03  0.92788250215E+02 0.  0.
        -13    1    3    3    0    0 -0.25047956132E+02  0.24284519428E+02 -0.53951545512E+02  0.64248791843E+02  0.00000000000E+00 0.  1.
         14    1    3    3    0    0  0.31788090204E+02 -0.59126834017E+01  0.61299923597E+00  0.32339113653E+02  0.00000000000E+00 0. -1.
        -13    1    4    4    0    0  0.41628540866E+02 -0.33147655603E+02 -0.11905913633E+03  0.13041004728E+03  0.00000000000E+00 0.  1.
         13    1    4    4    0    0 -0.50660202341E+02 -0.57748675996E+02 -0.15314065922E+03  0.17132841909E+03  0.00000000000E+00 0. -1.
          3    1    1    2  501    0  0.22915274027E+01  0.72524495573E+02 -0.10304364882E+03  0.12602796165E+03  0.00000000000E+00 0. -1.
<scales pt_clust_5="13000.00000" pt_clust_6="13000.00000" pt_clust_7="13000.00000" pt_clust_8="13000.00000" pt_clust_9="72.56069"></scales>
<clustering>
<clus scale="   72.561">  2  9  1 -1</clus>
<clus scale="   78.111">  5  6 -1 -1</clus>
<clus scale="   85.255">  1  5  2 -1</clus>
<clus scale="   92.788">  7  8 -1 -1</clus>
<clus scale="   72.561">  2  5  1 -1</clus>
</clustering>
</event>
<event>
 9    2  0.1723348E-004  0.1351963E+03  0.7546771E-02  0.1226203E+00
         21   -1    0    0  501  502  0.00000000000E+00  0.00000000000E+00  0.59376796066E+03  0.59376796066E+03  0.00000000000E+00 0.  1.
          4   -1    0    0  502    0 -0.00000000000E+00 -0.00000000000E+00 -0.61448474728E+02  0.61448474728E+02  0.00000000000E+00 0. -1.
         23    2    1    2    0    0  0.10281824177E+03 -0.52178987474E+02  0.12442935602E+03  0.19318846001E+03  0.92438513985E+02 0.  0.
         24    2    1    2    0    0 -0.26277108920E+02  0.73940911918E+02  0.34705943047E+03  0.36186560535E+03  0.65868984717E+02 0.  0.
        -13    1    4    4    0    0 -0.47618331929E+02  0.41853344317E+02  0.23306274537E+03  0.24153147051E+03  0.00000000000E+00 0.  1.
         14    1    4    4    0    0  0.21341223009E+02  0.32087567601E+02  0.11399668510E+03  0.12033413484E+03  0.00000000000E+00 0. -1.
        -13    1    3    3    0    0  0.88356032029E+02 -0.77878608034E+02  0.92810680409E+02  0.14995228702E+03  0.00000000000E+00 0. -1.
         13    1    3    3    0    0  0.14462209745E+02  0.25699620560E+02  0.31618675606E+02  0.43236172989E+02  0.00000000000E+00 0.  1.
          3    1    1    2  501    0 -0.76541132854E+02 -0.21761924445E+02  0.60830699444E+02  0.10016237002E+03  0.00000000000E+00 0. -1.
<scales pt_clust_5="13000.00000" pt_clust_6="13000.00000" pt_clust_7="13000.00000" pt_clust_8="13000.00000" pt_clust_9="79.57470"></scales>
<clustering>
<clus scale="   65.869">  5  6 -1 -1</clus>
<clus scale="   79.575">  1  9  2 -1</clus>
<clus scale="   92.439">  7  8 -1 -1</clus>
<clus scale="  118.625">  1  5  2 -1</clus>
<clus scale="   79.575">  1  5  2 -1</clus>
</clustering>
</event>
<event>
 9    2  0.1723348E-004  0.1118478E+03  0.7546771E-02  0.1260730E+00
         21   -1    0    0  501  502  0.00000000000E+00  0.00000000000E+00  0.24167081344E+03  0.24167081344E+03  0.00000000000E+00 0. -1.
          2   -1    0    0  502    0 -0.00000000000E+00 -0.00000000000E+00 -0.15557568656E+03  0.15557568656E+03  0.00000000000E+00 0. -1.
         23    2    1    2    0    0  0.56842199743E+02  0.36844648370E+02 -0.81561057443E+02  0.13971000268E+03  0.90984146816E+02 0.  0.
         24    2    1    2    0    0 -0.17320892603E+02 -0.56706400071E+02  0.18446567517E+03  0.21021861612E+03  0.81539267341E+02 0.  0.
        -11    1    4    4    0    0 -0.23636872575E+02 -0.93635237554E+01  0.69030966617E+01  0.26344450379E+02  0.00000000000E+00 0.  1.
         12    1    4    4    0    0  0.63159799720E+01 -0.47342876316E+02  0.17756257851E+03  0.18387416574E+03  0.00000000000E+00 0. -1.
        -13    1    3    3    0    0 -0.14578562536E+02  0.26635816297E+02 -0.55007891555E+02  0.62832072453E+02  0.00000000000E+00 0.  1.
         13    1    3    3    0    0  0.71420762280E+02  0.10208832073E+02 -0.26553165888E+02  0.76877930225E+02  0.00000000000E+00 0. -1.
          1    1    1    2  501    0 -0.39521307140E+02  0.19861751701E+02 -0.16809490847E+02  0.47317881200E+02  0.00000000000E+00 0. -1.
<scales pt_clust_5="13000.00000" pt_clust_6="13000.00000" pt_clust_7="13000.00000" pt_clust_8="13000.00000" pt_clust_9="44.23149"></scales>
<clustering>
<clus scale="   44.231">  1  9  2 -1</clus>
<clus scale="   81.539">  5  6 -1 -1</clus>
<clus scale="   90.984">  7  8 -1 -1</clus>
<clus scale="  104.310">  1  5  2 -1</clus>
<clus scale="   44.231">  1  5  2 -1</clus>
</clustering>
</event>
<event>
 9    2  0.1723348E-004  0.9979133E+02  0.7546771E-02  0.1287814E+00
         21   -1    0    0  501  502  0.00000000000E+00  0.00000000000E+00  0.49739260489E+02  0.49739260489E+02  0.00000000000E+00 0. -1.
          4   -1    0    0  502    0 -0.00000000000E+00 -0.00000000000E+00 -0.27070960547E+03  0.27070960547E+03  0.00000000000E+00 0. -1.
         23    2    1    2    0    0 -0.51837911817E+02  0.10447673869E+02 -0.86084842084E+02  0.13582175152E+03  0.90777889143E+02 0.  0.
         24    2    1    2    0    0  0.30232001280E+02 -0.51759136535E+01 -0.49522543479E+02  0.96414634225E+02  0.76827959732E+02 0.  0.
        -13    1    4    4    0    0 -0.78182945992E+01  0.27218412341E+02 -0.36009803623E+01  0.28547062202E+02  0.00000000000E+00 0.  1.
         14    1    4    4    0    0  0.38050295879E+02 -0.32394325995E+02 -0.45921563117E+02  0.67867572023E+02  0.00000000000E+00 0. -1.
        -13    1    3    3    0    0  0.18307080676E+02  0.91012329559E+01 -0.55761209851E+02  0.59391027675E+02  0.00000000000E+00 0.  1.
         13    1    3    3    0    0 -0.70144992493E+02  0.13464409134E+01 -0.30323632233E+02  0.76430723840E+02  0.00000000000E+00 0. -1.
          3    1    1    2  501    0  0.21605910537E+02 -0.52717602159E+01 -0.85362959419E+02  0.88212480221E+02  0.00000000000E+00 0. -1.
<scales pt_clust_5="13000.00000" pt_clust_6="13000.00000" pt_clust_7="13000.00000" pt_clust_8="13000.00000" pt_clust_9="22.23977"></scales>
<clustering>
<clus scale="   22.240">  1  9  2 -1</clus>
<clus scale="   76.828">  5  6 -1 -1</clus>
<clus scale="   87.294">  1  5  2 -1</clus>
<clus scale="   90.778">  7  8 -1 -1</clus>
<clus scale="   22.240">  1  5  2 -1</clus>
</clustering>
</event>
<event>
 9    2  0.1723348E-004  0.1487258E+03  0.7546771E-02  0.1224085E+00
         21   -1    0    0  501  502  0.00000000000E+00  0.00000000000E+00  0.88314182012E+02  0.88314182012E+02  0.00000000000E+00 0.  1.
         -3   -1    0    0    0  501 -0.00000000000E+00 -0.00000000000E+00 -0.46568319665E+03  0.46568319665E+03  0.00000000000E+00 0.  1.
         23    2    1    2    0    0  0.42650413311E+01  0.21379414498E+02 -0.20702263184E+03  0.22700264265E+03  0.90534853704E+02 0.  0.
         24    2    1    2    0    0  0.60051426554E+02  0.94092556015E+02 -0.12793830099E+03  0.18818252683E+03  0.81147221851E+02 0.  0.
        -13    1    4    4    0    0  0.69149979237E+02  0.37242045427E+02 -0.88880551849E+02  0.11861046359E+03  0.00000000000E+00 0.  1.
         14    1    4    4    0    0 -0.90985526825E+01  0.56850510588E+02 -0.39057749137E+02  0.69572063235E+02  0.00000000000E+00 0. -1.
        -11    1    3    3    0    0 -0.28084897827E+02 -0.21105737183E+02 -0.49689224984E+02  0.60854192193E+02  0.00000000000E+00 0. -1.
         11    1    3    3    0    0  0.32349939158E+02  0.42485151681E+02 -0.15733340686E+03  0.16614845046E+03  0.00000000000E+00 0.  1.
         -4    1    1    2    0  502 -0.64316467885E+02 -0.11547197051E+03 -0.42408081811E+02  0.13881220918E+03  0.00000000000E+00 0.  1.
<scales pt_clust_5="13000.00000" pt_clust_6="13000.00000" pt_clust_7="13000.00000" pt_clust_8="13000.00000" pt_clust_9="124.63740"></scales>
<clustering>
<clus scale="   81.147">  5  6 -1 -1</clus>
<clus scale="   90.535">  7  8 -1 -1</clus>
<clus scale="   93.123">  2  7  1 -1</clus>
<clus scale="  124.637">  1  9  2 -1</clus>
<clus scale="  124.637">  1  5  2 -1</clus>
</clustering>
</event>
<event>
 9    2  0.1723348E-004  0.9269451E+02  0.7546771E-02  0.1305135E+00
          2   -1    0    0  502    0 -0.00000000000E+00  0.00000000000E+00  0.84289390074E+02  0.84289390074E+02  0.00000000000E+00 0. -1.
         21   -1    0    0  501  502  0.00000000000E+00 -0.00000000000E+00 -0.19783911176E+03  0.19783911176E+03  0.00000000000E+00 0. -1.
         24    2    1    2    0    0 -0.20614201328E+02 -0.11996455066E+02  0.40923124842E+01  0.81037243467E+02  0.77339689531E+02 0.  0.
         23    2    1    2    0    0 -0.98238683857E+01 -0.97219875166E+01 -0.13196225149E+03  0.16105083554E+03  0.91281489796E+02 0.  0.
        -13    1    3    3    0    0 -0.18213026912E+01 -0.42928489429E+02  0.10619463975E+02  0.44259974732E+02  0.00000000000E+00 0.  1.
         14    1    3    3    0    0 -0.18792898637E+02  0.30932034363E+02 -0.65271514912E+01  0.36777268735E+02  0.00000000000E+00 0. -1.
        -11    1    4    4    0    0 -0.39996110654E+02 -0.33187158043E+02 -0.58585980866E+02  0.78315984833E+02  0.00000000000E+00 0. -1.
         11    1    4    4    0    0  0.30172242268E+02  0.23465170526E+02 -0.73376270620E+02  0.82734850706E+02  0.00000000000E+00 0.  1.
          1    1    1    2  501    0  0.30438069714E+02  0.21718442583E+02  0.14320217317E+02  0.40040422826E+02  0.00000000000E+00 0. -1.
<scales pt_clust_5="13000.00000" pt_clust_6="13000.00000" pt_clust_7="13000.00000" pt_clust_8="13000.00000" pt_clust_9="37.39209"></scales>
<clustering>
<clus scale="   37.392">  2  9  1 -1</clus>
<clus scale="   77.340">  5  6 -1 -1</clus>
<clus scale="   79.002">  1  5  2 -1</clus>
<clus scale="   91.281">  7  8 -1 -1</clus>
<clus scale="   37.392">  2  5  1 -1</clus>
</clustering>
</event>
<event>
 9    2  0.1723348E-004  0.1767530E+03  0.7546771E-02  0.1192251E+00
         21   -1    0    0  501  502  0.00000000000E+00  0.00000000000E+00  0.11703884613E+03  0.11703884613E+03  0.00000000000E+00 0. -1.
          2   -1    0    0  502    0 -0.00000000000E+00 -0.00000000000E+00 -0.57816417988E+03  0.57816417988E+03  0.00000000000E+00 0. -1.
         24    2    1    2    0    0  0.70635896553E+02  0.22384262758E+02 -0.25234432274E+03  0.27516733872E+03  0.80925409937E+02 0.  0.
         23    2    1    2    0    0 -0.66018195864E+02  0.13757270858E+03 -0.30725573389E+02  0.18063791224E+03  0.91658835615E+02 0.  0.
        -11    1    3    3    0    0  0.15780346315E+02  0.46927089528E+02 -0.10762740488E+03  0.11846868507E+03  0.00000000000E+00 0.  1.
         12    1    3    3    0    0  0.54855550238E+02 -0.24542826770E+02 -0.14471691786E+03  0.15669865364E+03  0.00000000000E+00 0. -1.
        -13    1    4    4    0    0  0.13871922378E+02  0.74523697701E+02 -0.19330259231E+02  0.78229602271E+02  0.00000000000E+00 0.  1.
         13    1    4    4    0    0 -0.79890118242E+02  0.63049010881E+02 -0.11395314157E+02  0.10240830997E+03  0.00000000000E+00 0. -1.
          1    1    1    2  501    0 -0.46177006887E+01 -0.15995697134E+03 -0.17805543761E+03  0.23939777506E+03  0.00000000000E+00 0. -1.
<scales pt_clust_5="13000.00000" pt_clust_6="13000.00000" pt_clust_7="13000.00000" pt_clust_8="13000.00000" pt_clust_9="151.13004"></scales>
<clustering>
<clus scale="   80.925">  5  6 -1 -1</clus>
<clus scale="   91.659">  7  8 -1 -1</clus>
<clus scale="  109.724">  2  5  1 -1</clus>
<clus scale="  151.130">  1  9  2 -1</clus>
<clus scale="  151.130">  1  5  2 -1</clus>
</clustering>
</event>
<event>
 9    2  0.1723348E-004  0.9384847E+02  0.7546771E-02  0.1299637E+00
         21   -1    0    0  501  502  0.00000000000E+00  0.00000000000E+00  0.66218493025E+02  0.66218493025E+02  0.00000000000E+00 0. -1.
          2   -1    0    0  502    0 -0.00000000000E+00 -0.00000000000E+00 -0.54579304360E+03  0.54579304360E+03  0.00000000000E+00 0. -1.
         24    2    1    2    0    0  0.31231313495E+01  0.22577542472E+02 -0.43769867173E+03  0.44570627584E+03  0.80959605486E+02 0.  0.
         23    2    1    2    0    0 -0.30822905268E+02 -0.19070588206E+02 -0.74750998875E+02  0.12317348919E+03  0.90940957676E+02 0.  0.
        -13    1    3    3    0    0  0.17665084172E+02 -0.26154568523E+02 -0.12638999596E+03  0.13027105486E+03  0.00000000000E+00 0.  1.
         14    1    3    3    0    0 -0.14541952822E+02  0.48732110995E+02 -0.31130867576E+03  0.31543522099E+03  0.00000000000E+00 0. -1.
        -11    1    4    4    0    0 -0.10278484085E+02 -0.40544563427E+02  0.96050176474E+00  0.41838157491E+02  0.00000000000E+00 0.  1.
         11    1    4    4    0    0 -0.20544421183E+02  0.21473975222E+02 -0.75711500640E+02  0.81335331700E+02  0.00000000000E+00 0. -1.
          1    1    1    2  501    0  0.27699773919E+02 -0.35069542668E+01  0.32875120030E+02  0.43131771588E+02  0.00000000000E+00 0. -1.
<scales pt_clust_5="13000.00000" pt_clust_6="13000.00000" pt_clust_7="13000.00000" pt_clust_8="13000.00000" pt_clust_9="27.92089"></scales>
<clustering>
<clus scale="   27.921">  1  9  2 -1</clus>
<clus scale="   80.960">  5  6 -1 -1</clus>
<clus scale="   84.212">  2  5  1 -1</clus>
<clus scale="   90.941">  7  8 -1 -1</clus>
<clus scale="   27.921">  1  5  2 -1</clus>
</clustering>
</event>
<event>
 9    2  0.1723348E-004  0.1956927E+03  0.7546771E-02  0.1181831E+00
          2   -1    0    0  502    0 -0.00000000000E+00  0.00000000000E+00  0.88385915913E+03  0.88385915913E+03  0.00000000000E+00 0. -1.
         21   -1    0    0  501  502  0.00000000000E+00 -0.00000000000E+00 -0.71779135152E+02  0.71779135152E+02  0.00000000000E+00 0.  1.
         24    2    1    2    0    0 -0.60810965273E+02 -0.10962622785E+02  0.29076295982E+03  0.30810171420E+03  0.81027247850E+02 0.  0.
         23    2    1    2    0    0 -0.10696514820E+03  0.10253841890E+03  0.35206465861E+03  0.39223023964E+03  0.89103124355E+02 0.  0.
        -11    1    3    3    0    0 -0.21756279893E+02 -0.43455751529E+02  0.10841883470E+03  0.11881238055E+03  0.00000000000E+00 0.  1.
         12    1    3    3    0    0 -0.39054685380E+02  0.32493128744E+02  0.18234412512E+03  0.18928933364E+03  0.00000000000E+00 0. -1.
        -13    1    4    4    0    0 -0.10752451055E+03  0.66816059528E+02  0.32035572857E+03  0.34446146229E+03  0.00000000000E+00 0.  1.
         13    1    4    4    0    0  0.55936235317E+00  0.35722359367E+02  0.31708930045E+02  0.47768777351E+02  0.00000000000E+00 0. -1.
          1    1    1    2  501    0  0.16777611347E+03 -0.91575796111E+02  0.16925240555E+03  0.25530634044E+03  0.00000000000E+00 0. -1.
<scales pt_clust_5="13000.00000" pt_clust_6="13000.00000" pt_clust_7="13000.00000" pt_clust_8="13000.00000" pt_clust_9="174.23047"></scales>
<clustering>
<clus scale="   81.027">  5  6 -1 -1</clus>
<clus scale="   89.103">  7  8 -1 -1</clus>
<clus scale="  101.900">  1  5  2 -1</clus>
<clus scale="  174.230">  2  9  1 -1</clus>
<clus scale="  174.230">  2  5  1 -1</clus>
</clustering>
</event>
<event>
 9    2  0.1723348E-004  0.2233605E+03  0.7546771E-02  0.1132180E+00
          2   -1    0    0  502    0 -0.00000000000E+00  0.00000000000E+00  0.51036297090E+03  0.51036297090E+03  0.00000000000E+00 0. -1.
         21   -1    0    0  501  502  0.00000000000E+00 -0.00000000000E+00 -0.20187630110E+03  0.20187630110E+03  0.00000000000E+00 0.  1.
         24    2    1    2    0    0 -0.11621216688E+03  0.13623213871E+03  0.15937713723E+03  0.25239217903E+03  0.78970100776E+02 0.  0.
         23    2    1    2    0    0  0.17228422974E+03 -0.15873668788E+03  0.24226415673E+03  0.34881414754E+03  0.90001088848E+02 0.  0.
        -11    1    3    3    0    0 -0.54977994940E+02  0.10924032318E+03  0.70572638801E+02  0.14119676159E+03  0.00000000000E+00 0.  1.
         12    1    3    3    0    0 -0.61234171936E+02  0.26991815530E+02  0.88804498432E+02  0.11119541744E+03  0.00000000000E+00 0. -1.
        -13    1    4    4    0    0  0.16132708521E+03 -0.12536496843E+03  0.23762872974E+03  0.31338509367E+03  0.00000000000E+00 0.  1.
         13    1    4    4    0    0  0.10957144526E+02 -0.33371719450E+02  0.46354269865E+01  0.35429053876E+02  0.00000000000E+00 0. -1.
          1    1    1    2  501    0 -0.56072062863E+02  0.22504549168E+02 -0.93154624158E+02  0.11103294542E+03  0.00000000000E+00 0. -1.
<scales pt_clust_5="13000.00000" pt_clust_6="13000.00000" pt_clust_7="13000.00000" pt_clust_8="13000.00000" pt_clust_9="60.41962"></scales>
<clustering>
<clus scale="   60.420">  2  9  1 -1</clus>
<clus scale="   78.970">  5  6 -1 -1</clus>
<clus scale="   90.001">  7  8 -1 -1</clus>
<clus scale="  219.148">  1  5  2 -1</clus>
<clus scale="   60.420">  2  5  1 -1</clus>
</clustering>
</event>
<event>
 9    2  0.1723348E-004  0.1002952E+03  0.7546771E-02  0.1286391E+00
         21   -1    0    0  501  502  0.00000000000E+00  0.00000000000E+00  0.24285544351E+03  0.24285544351E+03  0.00000000000E+00 0. -1.
          2   -1    0    0  502    0 -0.00000000000E+00 -0.00000000000E+00 -0.17975339906E+03  0.17975339906E+03  0.00000000000E+00 0. -1.
         23    2    1    2    0    0  0.31774408769E+02 -0.22130139360E+02 -0.14825000527E+03  0.17868042074E+03  0.91919924783E+02 0.  0.
         24    2    1    2    0    0 -0.38376758689E+02  0.44663602258E+02  0.17265069152E+03  0.19866096000E+03  0.78678477182E+02 0.  0.
        -13    1    4    4    0    0 -0.33983761812E+02 -0.14489557150E+02  0.86561466084E+02  0.94115518082E+02  0.00000000000E+00 0.  1.
         14    1    4    4    0    0 -0.43929968770E+01  0.59153159409E+02  0.86089225436E+02  0.10454544192E+03  0.00000000000E+00 0. -1.
        -13    1    3    3    0    0  0.62300964620E+02 -0.93271154704E+01 -0.72697464018E+02  0.96194212665E+02  0.00000000000E+00 0. -1.
         13    1    3    3    0    0 -0.30526555851E+02 -0.12803023889E+02 -0.75552541250E+02  0.82486208072E+02  0.00000000000E+00 0.  1.
          1    1    1    2  501    0  0.66023499201E+01 -0.22533462899E+02  0.38701358199E+02  0.45267461836E+02  0.00000000000E+00 0. -1.
<scales pt_clust_5="13000.00000" pt_clust_6="13000.00000" pt_clust_7="13000.00000" pt_clust_8="13000.00000" pt_clust_9="23.48080"></scales>
<clustering>
<clus scale="   23.481">  1  9  2 -1</clus>
<clus scale="   78.678">  5  6 -1 -1</clus>
<clus scale="   88.318">  1  5  2 -1</clus>
<clus scale="   91.920">  7  8 -1 -1</clus>
<clus scale="   23.481">  1  5  2 -1</clus>
</clustering>
</event>
<event>
 9    2  0.1723348E-004  0.1252875E+03  0.7546771E-02  0.1237341E+00
         21   -1    0    0  501  502  0.00000000000E+00  0.00000000000E+00  0.29429314662E+03  0.29429314662E+03  0.00000000000E+00 0.  1.
          2   -1    0    0  502    0 -0.00000000000E+00 -0.00000000000E+00 -0.91808686741E+02  0.91808686741E+02  0.00000000000E+00 0. -1.
         23    2    1    2    0    0  0.36363621863E+02  0.89173257845E+02  0.58412960369E+02  0.14670964628E+03  0.94007784053E+02 0.  0.
         24    2    1    2    0    0  0.59648718555E+01 -0.65151677695E+02  0.15606492852E+03  0.18926654462E+03  0.84765807938E+02 0.  0.
        -13    1    4    4    0    0 -0.19895564423E+02 -0.25852977277E+01  0.98133685786E+02  0.10016355392E+03  0.00000000000E+00 0.  1.
         14    1    4    4    0    0  0.25860436278E+02 -0.62566379967E+02  0.57931242733E+02  0.89102990698E+02  0.00000000000E+00 0. -1.
        -13    1    3    3    0    0  0.57518185427E+02  0.94552106109E+02  0.38542096168E+02  0.11719187515E+03  0.00000000000E+00 0. -1.
         13    1    3    3    0    0 -0.21154563565E+02 -0.53788482639E+01  0.19870864200E+02  0.29517771127E+02  0.00000000000E+00 0.  1.
          1    1    1    2  501    0 -0.42328493718E+02 -0.24021580150E+02 -0.11993429006E+02  0.50125642466E+02  0.00000000000E+00 0. -1.
<scales pt_clust_5="13000.00000" pt_clust_6="13000.00000" pt_clust_7="13000.00000" pt_clust_8="13000.00000" pt_clust_9="48.66970"></scales>
<clustering>
<clus scale="   48.670">  1  9  2 -1</clus>
<clus scale="   84.766">  5  6 -1 -1</clus>
<clus scale="   94.008">  7  8 -1 -1</clus>
<clus scale="  118.510">  1  5  2 -1</clus>
<clus scale="   48.670">  1  5  2 -1</clus>
</clustering>
</event>
<event>
 9    2  0.1723348E-004  0.2755021E+03  0.7546771E-02  0.1111485E+00
         -1   -1    0    0    0  501 -0.00000000000E+00  0.00000000000E+00  0.11893369145E+03  0.11893369145E+03  0.00000000000E+00 0.  1.
         21   -1    0    0  501  502  0.00000000000E+00 -0.00000000000E+00 -0.15629524575E+04  0.15629524575E+04  0.00000000000E+00 0.  1.
         23    2    1    2    0    0 -0.61020922747E+02  0.16244157823E+03 -0.98681043272E+02  0.21910685951E+03  0.90327450060E+02 0.  0.
         24    2    1    2    0    0 -0.19955708077E+03  0.20248339793E+02 -0.29727249141E+03  0.36746324771E+03  0.80157847503E+02 0.  0.
        -13    1    4    4    0    0 -0.20580408678E+03  0.12889963484E+02 -0.28100126831E+03  0.34854438180E+03  0.00000000000E+00 0.  1.
         14    1    4    4    0    0  0.62470060082E+01  0.73583763092E+01 -0.16271223109E+02  0.18918865913E+02  0.00000000000E+00 0. -1.
        -11    1    3    3    0    0 -0.29676448267E+02  0.66012051268E+01  0.27745865171E+01  0.30528115258E+02  0.00000000000E+00 0. -1.
         11    1    3    3    0    0 -0.31344474480E+02  0.15584037310E+03 -0.10145562979E+03  0.18857874426E+03  0.00000000000E+00 0.  1.
         -2    1    1    2    0  502  0.26057800352E+03 -0.18268991802E+03 -0.10480652313E+04  0.10953160417E+04  0.00000000000E+00 0.  1.
<scales pt_clust_5="13000.00000" pt_clust_6="13000.00000" pt_clust_7="13000.00000" pt_clust_8="13000.00000" pt_clust_9="263.58320"></scales>
<clustering>
<clus scale="   80.158">  5  6 -1 -1</clus>
<clus scale="   90.327">  7  8 -1 -1</clus>
<clus scale="  195.627">  1  7  2 -1</clus>
<clus scale="  263.583">  2  9  1 -1</clus>
<clus scale="  263.583">  2  5  1 -1</clus>
</clustering>
</event>
<event>
 9    2  0.1723348E-004  0.2699866E+03  0.7546771E-02  0.1101925E+00
          2   -1    0    0  502    0 -0.00000000000E+00  0.00000000000E+00  0.57432040500E+03  0.57432040500E+03  0.00000000000E+00 0. -1.
         21   -1    0    0  501  502  0.00000000000E+00 -0.00000000000E+00 -0.34996056766E+03  0.34996056766E+03  0.00000000000E+00 0. -1.
         23    2    1    2    0    0  0.13543499791E+03 -0.17845951510E+03  0.19402707524E+03  0.31046864553E+03  0.92486954453E+02 0.  0.
         24    2    1    2    0    0 -0.21297612332E+03  0.31889155533E+03 -0.10348773793E+03  0.40490634282E+03  0.78668808246E+02 0.  0.
        -11    1    4    4    0    0 -0.51114860517E+02  0.32095776295E+02 -0.23296289028E+01  0.60401117477E+02  0.00000000000E+00 0.  1.
         12    1    4    4    0    0 -0.16186126280E+03  0.28679577904E+03 -0.10115810902E+03  0.34450522535E+03  0.00000000000E+00 0. -1.
        -11    1    3    3    0    0  0.41651390769E+02 -0.75500543194E+01  0.61798456594E+02  0.74905880348E+02  0.00000000000E+00 0. -1.
         11    1    3    3    0    0  0.93783607140E+02 -0.17090946078E+03  0.13222861864E+03  0.23556276518E+03  0.00000000000E+00 0.  1.
          1    1    1    2  501    0  0.77541125410E+02 -0.14043204023E+03  0.13382050002E+03  0.20890598431E+03  0.00000000000E+00 0. -1.
<scales pt_clust_5="13000.00000" pt_clust_6="13000.00000" pt_clust_7="13000.00000" pt_clust_8="13000.00000" pt_clust_9="160.41761"></scales>
<clustering>
<clus scale="   78.669">  5  6 -1 -1</clus>
<clus scale="   92.487">  7  8 -1 -1</clus>
<clus scale="  160.418">  2  9  1 -1</clus>
<clus scale="  265.571">  2  5  1 -1</clus>
<clus scale="  160.418">  2  5  1 -1</clus>
</clustering>
</event>
<event>
 9    2  0.1723348E-004  0.3297766E+03  0.7546771E-02  0.1117921E+00
         21   -1    0    0  501  502  0.00000000000E+00  0.00000000000E+00  0.13652635282E+03  0.13652635282E+03  0.00000000000E+00 0. -1.
          2   -1    0    0  502    0 -0.00000000000E+00 -0.00000000000E+00 -0.10875309947E+04  0.10875309947E+04  0.00000000000E+00 0. -1.
         24    2    1    2    0    0 -0.21668871382E+02 -0.46125234756E+02 -0.12809920222E+03  0.16065254211E+03  0.82478824015E+02 0.  0.
         23    2    1    2    0    0  0.20281367790E+03  0.26846905965E+03 -0.26926200150E+03  0.43988954975E+03  0.88270983909E+02 0.  0.
        -13    1    3    3    0    0 -0.32104151360E+02 -0.29764597815E+02 -0.15574590440E+02  0.46466931091E+02  0.00000000000E+00 0.  1.
         14    1    3    3    0    0  0.10435279978E+02 -0.16360636942E+02 -0.11252461178E+03  0.11418561102E+03  0.00000000000E+00 0. -1.
        -13    1    4    4    0    0  0.16614572661E+03  0.15420689907E+03 -0.19293171911E+03  0.29766897458E+03  0.00000000000E+00 0.  1.
         13    1    4    4    0    0  0.36667951287E+02  0.11426216058E+03 -0.76330282393E+02  0.14222057517E+03  0.00000000000E+00 0. -1.
          1    1    1    2  501    0 -0.18114480652E+03 -0.22234382489E+03 -0.55364343814E+03  0.62351525562E+03  0.00000000000E+00 0. -1.
<scales pt_clust_5="13000.00000" pt_clust_6="13000.00000" pt_clust_7="13000.00000" pt_clust_8="13000.00000" pt_clust_9="317.74356"></scales>
<clustering>
<clus scale="   82.479">  5  6 -1 -1</clus>
<clus scale="   88.271">  7  8 -1 -1</clus>
<clus scale="   96.953">  2  5  1 -1</clus>
<clus scale="  317.744">  1  9  2 -1</clus>
<clus scale="  317.744">  1  5  2 -1</clus>
</clustering>
</event>
<event>
 9    2  0.1723348E-004  0.4366907E+03  0.7546771E-02  0.1031767E+00
          4   -1    0    0  502    0 -0.00000000000E+00  0.00000000000E+00  0.38703121404E+03  0.38703121404E+03  0.00000000000E+00 0. -1.
         21   -1    0    0  501  502  0.00000000000E+00 -0.00000000000E+00 -0.53617738457E+03  0.53617738457E+03  0.00000000000E+00 0.  1.
         24    2    1    2    0    0 -0.11213493272E+03 -0.79336270079E+02  0.85411249581E+02  0.18114598500E+03  0.81549368116E+02 0.  0.
         23    2    1    2    0    0 -0.25551204225E+03  0.15796536907E+02  0.46405930225E+02  0.27500587173E+03  0.89099858661E+02 0.  0.
        -13    1    3    3    0    0 -0.89585834653E+02 -0.19831548374E+02  0.70700492456E+02  0.11583381076E+03  0.00000000000E+00 0.  1.
         14    1    3    3    0    0 -0.22549098068E+02 -0.59504721705E+02  0.14710757125E+02  0.65312174241E+02  0.00000000000E+00 0. -1.
        -13    1    4    4    0    0 -0.19560895468E+03 -0.21533362408E+02  0.53867360078E+02  0.20403000105E+03  0.00000000000E+00 0.  1.
         13    1    4    4    0    0 -0.59903087578E+02  0.37329899315E+02 -0.74614298526E+01  0.70975870686E+02  0.00000000000E+00 0. -1.
          3    1    1    2  501    0  0.36764697497E+03  0.63539733172E+02 -0.28096335034E+03  0.46705674188E+03  0.00000000000E+00 0. -1.
<scales pt_clust_5="13000.00000" pt_clust_6="13000.00000" pt_clust_7="13000.00000" pt_clust_8="13000.00000" pt_clust_9="373.09730"></scales>
<clustering>
<clus scale="   81.549">  5  6 -1 -1</clus>
<clus scale="   89.100">  7  8 -1 -1</clus>
<clus scale="  139.945">  5  7 -1 -1</clus>
<clus scale="  373.097">  2  9  1 -1</clus>
<clus scale="  373.097">  2  5  1 -1</clus>
</clustering>
</event>
<event>
 9    2  0.1723348E-004  0.9506592E+02  0.7546771E-02  0.1298091E+00
         21   -1    0    0  501  502  0.00000000000E+00  0.00000000000E+00  0.49425856525E+02  0.49425856525E+02  0.00000000000E+00 0.  1.
          2   -1    0    0  502    0 -0.00000000000E+00 -0.00000000000E+00 -0.81029866255E+03  0.81029866255E+03  0.00000000000E+00 0. -1.
         24    2    1    2    0    0  0.34250436146E+02 -0.34846970441E+02 -0.14673413472E+03  0.17365512308E+03  0.78979692044E+02 0.  0.
         23    2    1    2    0    0  0.34862148911E+02 -0.77240051669E+01 -0.39368118743E+02  0.10559542976E+03  0.91244267389E+02 0.  0.
        -13    1    3    3    0    0  0.31607366822E+02 -0.51881709704E+02 -0.60583961922E+02  0.85797167094E+02  0.00000000000E+00 0.  1.
         14    1    3    3    0    0  0.26430693234E+01  0.17034739262E+02 -0.86150172798E+02  0.87857955988E+02  0.00000000000E+00 0. -1.
        -11    1    4    4    0    0 -0.11479160309E+02 -0.38284356150E+02 -0.49333744960E+01  0.40271593352E+02  0.00000000000E+00 0. -1.
         11    1    4    4    0    0  0.46341309219E+02  0.30560350983E+02 -0.34434744247E+02  0.65323836413E+02  0.00000000000E+00 0.  1.
          1    1    1    2  501    0 -0.69112585057E+02  0.42570975608E+02 -0.57477055256E+03  0.58047396622E+03  0.00000000000E+00 0. -1.
<scales pt_clust_5="13000.00000" pt_clust_6="13000.00000" pt_clust_7="13000.00000" pt_clust_8="13000.00000" pt_clust_9="81.17169"></scales>
<clustering>
<clus scale="   78.980">  5  6 -1 -1</clus>
<clus scale="   81.172">  1  9  2 -1</clus>
<clus scale="   83.365">  2  5  1 -1</clus>
<clus scale="   91.244">  7  8 -1 -1</clus>
<clus scale="   81.172">  1  5  2 -1</clus>
</clustering>
</event>
<event>
 9    2  0.1723348E-004  0.2097137E+03  0.7546771E-02  0.1172332E+00
          2   -1    0    0  502    0 -0.00000000000E+00  0.00000000000E+00  0.93969702444E+03  0.93969702444E+03  0.00000000000E+00 0. -1.
         21   -1    0    0  501  502  0.00000000000E+00 -0.00000000000E+00 -0.84012079362E+02  0.84012079362E+02  0.00000000000E+00 0. -1.
         24    2    1    2    0    0  0.56857297737E+02 -0.28087851762E+02  0.17125460805E+03  0.19964689041E+03  0.80678747819E+02 0.  0.
         23    2    1    2    0    0 -0.20253804981E+03 -0.17435317786E+02  0.15168054019E+03  0.26988030596E+03  0.92210310418E+02 0.  0.
        -11    1    3    3    0    0  0.61687581522E+02 -0.16628477773E+02  0.59828344240E+02  0.87528822462E+02  0.00000000000E+00 0.  1.
         12    1    3    3    0    0 -0.48302837854E+01 -0.11459373989E+02  0.11142626381E+03  0.11211806795E+03  0.00000000000E+00 0. -1.
        -13    1    4    4    0    0 -0.73064238736E+02  0.34969431836E+02  0.36532169860E+02  0.88858559406E+02  0.00000000000E+00 0.  1.
         13    1    4    4    0    0 -0.12947381107E+03 -0.52404749623E+02  0.11514837033E+03  0.18102174656E+03  0.00000000000E+00 0. -1.
          1    1    1    2  501    0  0.14568075207E+03  0.45523169548E+02  0.53274979684E+03  0.55418190743E+03  0.00000000000E+00 0. -1.
<scales pt_clust_5="13000.00000" pt_clust_6="13000.00000" pt_clust_7="13000.00000" pt_clust_8="13000.00000" pt_clust_9="188.35373"></scales>
<clustering>
<clus scale="   80.679">  5  6 -1 -1</clus>
<clus scale="   92.210">  7  8 -1 -1</clus>
<clus scale="  102.619">  1  5  2 -1</clus>
<clus scale="  188.354">  2  9  1 -1</clus>
<clus scale="  188.354">  2  5  1 -1</clus>
</clustering>
</event>
<event>
 9    2  0.2207106E-004  0.9163453E+02  0.7546771E-02  0.1303159E+00
          2   -1    0    0  502    0 -0.00000000000E+00  0.00000000000E+00  0.57489357992E+03  0.57489357992E+03  0.00000000000E+00 0. -1.
         21   -1    0    0  501  502  0.00000000000E+00 -0.00000000000E+00 -0.10138673358E+03  0.10138673358E+03  0.00000000000E+00 0.  1.
         24    2    1    2    0    0 -0.80225118309E+01 -0.20554653417E+02  0.53352328004E+03  0.54021207889E+03  0.81823867879E+02 0.  0.
         23    2    1    2    0    0  0.33051470432E+02  0.14591166919E+02 -0.51866415804E+02  0.10907870457E+03  0.88897338841E+02 0.  0.
        -11    1    3    3    0    0 -0.34857601728E+02 -0.12812346012E+02  0.11698170302E+03  0.12273519238E+03  0.00000000000E+00 0.  1.
         12    1    3    3    0    0  0.26835089897E+02 -0.77423074049E+01  0.41654157703E+03  0.41747688651E+03  0.00000000000E+00 0. -1.
        -13    1    4    4    0    0  0.52558105701E+02 -0.19340561659E+02 -0.23466363026E+02  0.60721347101E+02  0.00000000000E+00 0.  1.
         13    1    4    4    0    0 -0.19506635269E+02  0.33931728578E+02 -0.28400052778E+02  0.48357357471E+02  0.00000000000E+00 0. -1.
          1    1    1    2  501    0 -0.25028958601E+02  0.59634864979E+01 -0.81500178996E+01  0.26989530037E+02  0.00000000000E+00 0. -1.
<scales pt_clust_5="13000.00000" pt_clust_6="13000.00000" pt_clust_7="13000.00000" pt_clust_8="13000.00000" pt_clust_9="25.72959"></scales>
<clustering>
<clus scale="   25.730">  2  9  1 -1</clus>
<clus scale="   81.824">  5  6 -1 -1</clus>
<clus scale="   84.790">  1  5  2 -1</clus>
<clus scale="   88.897">  7  8 -1 -1</clus>
<clus scale="   25.730">  2  5  1 -1</clus>
</clustering>
</event>
<event>
 9    2  0.1723348E-004  0.1922419E+03  0.7546771E-02  0.1174811E+00
         -1   -1    0    0    0  501 -0.00000000000E+00  0.00000000000E+00  0.71582326004E+03  0.71582326004E+03  0.00000000000E+00 0.  1.
         21   -1    0    0  501  502  0.00000000000E+00 -0.00000000000E+00 -0.97222120197E+02  0.97222120197E+02  0.00000000000E+00 0.  1.
         23    2    1    2    0    0 -0.62207429173E+02 -0.65268300160E+02  0.10894175573E+03  0.16650455236E+03  0.87896214743E+02 0.  0.
         24    2    1    2    0    0 -0.97768911323E+02  0.14700437053E+03  0.37306009864E+03  0.42085835290E+03  0.82333899665E+02 0.  0.
        -11    1    4    4    0    0 -0.49075035786E+02  0.12034110834E+03  0.31384231255E+03  0.33968711874E+03  0.00000000000E+00 0.  1.
         12    1    4    4    0    0 -0.48693875537E+02  0.26663262188E+02  0.59217786092E+02  0.81171234159E+02  0.00000000000E+00 0. -1.
        -13    1    3    3    0    0  0.13140218394E+02 -0.33044369691E+02  0.63552209144E+02  0.72824988807E+02  0.00000000000E+00 0. -1.
         13    1    3    3    0    0 -0.75347647566E+02 -0.32223930469E+02  0.45389546581E+02  0.93679563553E+02  0.00000000000E+00 0.  1.
         -2    1    1    2    0  502  0.15997634050E+03 -0.81736070370E+02  0.13659928548E+03  0.22568247498E+03  0.00000000000E+00 0.  1.
<scales pt_clust_5="13000.00000" pt_clust_6="13000.00000" pt_clust_7="13000.00000" pt_clust_8="13000.00000" pt_clust_9="173.71836"></scales>
<clustering>
<clus scale="   82.334">  5  6 -1 -1</clus>
<clus scale="   87.896">  7  8 -1 -1</clus>
<clus scale="  125.919">  1  7  2 -1</clus>
<clus scale="  173.718">  2  9  1 -1</clus>
<clus scale="  173.718">  2  5  1 -1</clus>
</clustering>
</event>
<event>
 9    2  0.1723348E-004  0.2868396E+03  0.7546771E-02  0.1135854E+00
         21   -1    0    0  501  502  0.00000000000E+00  0.00000000000E+00  0.22156242344E+03  0.22156242344E+03  0.00000000000E+00 0.  1.
          2   -1    0    0  502    0 -0.00000000000E+00 -0.00000000000E+00 -0.73670709478E+03  0.73670709478E+03  0.00000000000E+00 0. -1.
         24    2    1    2    0    0  0.25718656366E+02  0.46258630941E+02 -0.62894062186E+02  0.11360689977E+03  0.78419094589E+02 0.  0.
         23    2    1    2    0    0 -0.13436004189E+02  0.26188871147E+03  0.21691552793E+02  0.27921870341E+03  0.93414867460E+02 0.  0.
        -13    1    3    3    0    0 -0.27787897373E+02  0.97462318718E+01 -0.15007829785E+02  0.33051342347E+02  0.00000000000E+00 0.  1.
         14    1    3    3    0    0  0.53506553739E+02  0.36512399069E+02 -0.47886232401E+02  0.80555557427E+02  0.00000000000E+00 0. -1.
        -13    1    4    4    0    0  0.10060874348E+02  0.56368118427E+02  0.42510490592E+02  0.71314288737E+02  0.00000000000E+00 0. -1.
         13    1    4    4    0    0 -0.23496878538E+02  0.20552059305E+03 -0.20818937799E+02  0.20790441467E+03  0.00000000000E+00 0.  1.
          1    1    1    2  501    0 -0.12282652176E+02 -0.30814734242E+03 -0.47394216195E+03  0.56544391504E+03  0.00000000000E+00 0. -1.
<scales pt_clust_5="13000.00000" pt_clust_6="13000.00000" pt_clust_7="13000.00000" pt_clust_8="13000.00000" pt_clust_9="271.20232"></scales>
<clustering>
<clus scale="   78.419">  5  6 -1 -1</clus>
<clus scale="   93.415">  7  8 -1 -1</clus>
<clus scale="   94.609">  2  5  1 -1</clus>
<clus scale="  271.202">  1  9  2 -1</clus>
<clus scale="  271.202">  1  5  2 -1</clus>
</clustering>
</event>
<event>
 9    2  0.1723348E-004  0.1826763E+03  0.7546771E-02  0.1179384E+00
          2   -1    0    0  502    0 -0.00000000000E+00  0.00000000000E+00  0.45156875556E+03  0.45156875556E+03  0.00000000000E+00 0. -1.
         21   -1    0    0  501  502  0.00000000000E+00 -0.00000000000E+00 -0.18530465248E+03  0.18530465248E+03  0.00000000000E+00 0. -1.
         24    2    1    2    0    0  0.35960144615E+02 -0.96146160753E+02  0.21613381442E+03  0.25343515495E+03  0.83536433978E+02 0.  0.
         23    2    1    2    0    0  0.14589563636E+03  0.13538162841E+02 -0.18883184161E+02  0.17211275575E+03  0.88302930232E+02 0.  0.
        -13    1    3    3    0    0 -0.26552137336E+02 -0.17397514805E+02  0.55117957689E+02  0.63605650522E+02  0.00000000000E+00 0.  1.
         14    1    3    3    0    0  0.62512281952E+02 -0.78748645948E+02  0.16101585673E+03  0.18982950443E+03  0.00000000000E+00 0. -1.
        -13    1    4    4    0    0  0.11775084331E+03  0.36934949146E+02  0.12314849283E+02  0.12402059136E+03  0.00000000000E+00 0. -1.
         13    1    4    4    0    0  0.28144793046E+02 -0.23396786305E+02 -0.31198033444E+02  0.48092164391E+02  0.00000000000E+00 0.  1.
          1    1    1    2  501    0 -0.18185578097E+03  0.82607997912E+02  0.69013472816E+02  0.21132549733E+03  0.00000000000E+00 0. -1.
<scales pt_clust_5="13000.00000" pt_clust_6="13000.00000" pt_clust_7="13000.00000" pt_clust_8="13000.00000" pt_clust_9="159.91640"></scales>
<clustering>
<clus scale="   83.536">  5  6 -1 -1</clus>
<clus scale="   88.303">  7  8 -1 -1</clus>
<clus scale="  132.346">  1  5  2 -1</clus>
<clus scale="  159.916">  2  9  1 -1</clus>
<clus scale="  159.916">  2  5  1 -1</clus>
</clustering>
</event>
<event>
 9    2  0.1723348E-004  0.1280372E+03  0.7546771E-02  0.1236437E+00
          2   -1    0    0  502    0 -0.00000000000E+00  0.00000000000E+00  0.92134764942E+03  0.92134764942E+03  0.00000000000E+00 0. -1.
         21   -1    0    0  501  502  0.00000000000E+00 -0.00000000000E+00 -0.71704116021E+02  0.71704116021E+02  0.00000000000E+00 0.  1.
         24    2    1    2    0    0 -0.15249766790E+01 -0.79076315810E+02  0.17971930956E+02  0.11452356930E+03  0.80853375601E+02 0.  0.
         23    2    1    2    0    0  0.40427559792E+02 -0.59749962942E+02  0.20733460285E+03  0.23776081581E+03  0.91313319574E+02 0.  0.
        -13    1    3    3    0    0 -0.61004401939E+01 -0.82930465008E+02 -0.11950574163E+02  0.84008890123E+02  0.00000000000E+00 0.  1.
         14    1    3    3    0    0  0.45754635149E+01  0.38541491976E+01  0.29922505119E+02  0.30514679172E+02  0.00000000000E+00 0. -1.
        -13    1    4    4    0    0  0.53259594614E+02 -0.25229058638E+02  0.18618920715E+03  0.19529339640E+03  0.00000000000E+00 0. -1.
         13    1    4    4    0    0 -0.12832034821E+02 -0.34520904304E+02  0.21145395696E+02  0.42467419403E+02  0.00000000000E+00 0.  1.
          1    1    1    2  501    0 -0.38902583113E+02  0.13882627875E+03  0.62433699960E+03  0.64076738034E+03  0.00000000000E+00 0. -1.
<scales pt_clust_5="13000.00000" pt_clust_6="13000.00000" pt_clust_7="13000.00000" pt_clust_8="13000.00000" pt_clust_9="89.75200"></scales>
<clustering>
<clus scale="   80.853">  5  6 -1 -1</clus>
<clus scale="   91.313">  7  8 -1 -1</clus>
<clus scale="  113.105">  1  5  2 -1</clus>
<clus scale="   89.752">  2  9  1 -1</clus>
<clus scale="   89.752">  2  5  1 -1</clus>
</clustering>
</event>
<event>
 9    2  0.1723348E-004  0.1132147E+03  0.7546771E-02  0.1258310E+00
         21   -1    0    0  501  502  0.00000000000E+00  0.00000000000E+00  0.24662513242E+03  0.24662513242E+03  0.00000000000E+00 0. -1.
         -1   -1    0    0    0  501 -0.00000000000E+00 -0.00000000000E+00 -0.11360605201E+03  0.11360605201E+03  0.00000000000E+00 0.  1.
         23    2    1    2    0    0 -0.36698346167E+02  0.61624281695E+02 -0.56015316240E+02  0.12858040200E+03  0.90834373559E+02 0.  0.
         24    2    1    2    0    0  0.45716529377E+02 -0.27975056581E+02  0.15524065319E+03  0.18311610332E+03  0.80989147684E+02 0.  0.
        -11    1    4    4    0    0 -0.16885666121E+02 -0.29498129142E+02  0.45921654800E+02  0.57131985112E+02  0.00000000000E+00 0.  1.
         12    1    4    4    0    0  0.62602195498E+02  0.15230725609E+01  0.10931899839E+03  0.12598411821E+03  0.00000000000E+00 0. -1.
        -11    1    3    3    0    0 -0.45233588313E+02  0.25185258953E+02 -0.71333942036E+02  0.88141398143E+02  0.00000000000E+00 0.  1.
         11    1    3    3    0    0  0.85352421463E+01  0.36439022742E+02  0.15318625796E+02  0.40439003860E+02  0.00000000000E+00 0. -1.
         -2    1    1    2    0  502 -0.90181832107E+01 -0.33649225114E+02  0.33793743453E+02  0.48534679104E+02  0.00000000000E+00 0.  1.
<scales pt_clust_5="13000.00000" pt_clust_6="13000.00000" pt_clust_7="13000.00000" pt_clust_8="13000.00000" pt_clust_9="34.83673"></scales>
<clustering>
<clus scale="   34.837">  1  9  2 -1</clus>
<clus scale="   80.989">  5  6 -1 -1</clus>
<clus scale="   90.834">  7  8 -1 -1</clus>
<clus scale="  105.480">  1  5  2 -1</clus>
<clus scale="   34.837">  1  5  2 -1</clus>
</clustering>
</event>
<event>
 9    2  0.1723348E-004  0.9973515E+02  0.7546771E-02  0.1285470E+00
         21   -1    0    0  501  502  0.00000000000E+00  0.00000000000E+00  0.94526132613E+02  0.94526132613E+02  0.00000000000E+00 0.  1.
         -1   -1    0    0    0  501 -0.00000000000E+00 -0.00000000000E+00 -0.73863318512E+03  0.73863318512E+03  0.00000000000E+00 0.  1.
         23    2    1    2    0    0  0.57561281717E+02  0.35763680041E+02 -0.50327322695E+03  0.51564694249E+03  0.89529248676E+02 0.  0.
         24    2    1    2    0    0  0.19881755628E+02 -0.33277980742E+02 -0.20072871316E+03  0.21957872273E+03  0.80125470217E+02 0.  0.
        -13    1    4    4    0    0  0.48326202430E+02 -0.36070308527E+02 -0.14153056000E+03  0.15384208921E+03  0.00000000000E+00 0.  1.
         14    1    4    4    0    0 -0.28444446802E+02  0.27923277849E+01 -0.59198153164E+02  0.65736633518E+02  0.00000000000E+00 0. -1.
        -11    1    3    3    0    0  0.81544405110E+02  0.32891624855E+02 -0.38157663052E+03  0.39157639605E+03  0.00000000000E+00 0.  1.
         11    1    3    3    0    0 -0.23983123393E+02  0.28720551860E+01 -0.12169659643E+03  0.12407054643E+03  0.00000000000E+00 0. -1.
         -2    1    1    2    0  502 -0.77443037345E+02 -0.24856992990E+01  0.59894887606E+02  0.97933652518E+02  0.00000000000E+00 0.  1.
<scales pt_clust_5="13000.00000" pt_clust_6="13000.00000" pt_clust_7="13000.00000" pt_clust_8="13000.00000" pt_clust_9="77.48292"></scales>
<clustering>
<clus scale="   77.483">  1  9  2 -1</clus>
<clus scale="   80.125">  5  6 -1 -1</clus>
<clus scale="   89.529">  7  8 -1 -1</clus>
<clus scale="   91.388">  1  5  2 -1</clus>
<clus scale="   77.483">  1  5  2 -1</clus>
</clustering>
</event>
<event>
 9    2  0.1723348E-004  0.3351331E+03  0.7546771E-02  0.1069070E+00
          2   -1    0    0  502    0 -0.00000000000E+00  0.00000000000E+00  0.13098710369E+04  0.13098710369E+04  0.00000000000E+00 0. -1.
         21   -1    0    0  501  502  0.00000000000E+00 -0.00000000000E+00 -0.19628461071E+03  0.19628461071E+03  0.00000000000E+00 0.  1.
         23    2    1    2    0    0  0.27905636708E+03 -0.16176219556E+03  0.10614489060E+04  0.11125894599E+04  0.84510722260E+02 0.  0.
         24    2    1    2    0    0 -0.30164806795E+03  0.14448441442E+03  0.81280860100E+02  0.35284468317E+03  0.77624025384E+02 0.  0.
        -11    1    4    4    0    0 -0.27264904585E+03  0.11592979443E+03  0.47713175407E+02  0.30008959753E+03  0.00000000000E+00 0.  1.
         12    1    4    4    0    0 -0.28999022102E+02  0.28554619986E+02  0.33567684692E+02  0.52755085641E+02  0.00000000000E+00 0. -1.
        -11    1    3    3    0    0  0.24980312601E+03 -0.15544162950E+03  0.10191822283E+04  0.10607997532E+04  0.00000000000E+00 0. -1.
         11    1    3    3    0    0  0.29253241077E+02 -0.63205660640E+01  0.42266677740E+02  0.51789706661E+02  0.00000000000E+00 0.  1.
          1    1    1    2  501    0  0.22591700871E+02  0.17277781143E+02 -0.29143339949E+02  0.40721504550E+02  0.00000000000E+00 0. -1.
<scales pt_clust_5="13000.00000" pt_clust_6="13000.00000" pt_clust_7="13000.00000" pt_clust_8="13000.00000" pt_clust_9="28.44128"></scales>
<clustering>
<clus scale="   28.441">  2  9  1 -1</clus>
<clus scale="   77.624">  5  6 -1 -1</clus>
<clus scale="   84.511">  7  8 -1 -1</clus>
<clus scale="  333.463">  2  5  1 -1</clus>
<clus scale="   28.441">  2  5  1 -1</clus>
</clustering>
</event>
<event>
 9    2  0.1723348E-004  0.1886971E+03  0.7546771E-02  0.1182213E+00
         21   -1    0    0  501  502  0.00000000000E+00  0.00000000000E+00  0.21336920261E+02  0.21336920261E+02  0.00000000000E+00 0. -1.
          2   -1    0    0  502    0 -0.00000000000E+00 -0.00000000000E+00 -0.26911665102E+04  0.26911665102E+04  0.00000000000E+00 0. -1.
         24    2    1    2    0    0  0.58880982528E+01 -0.78482637142E+02 -0.70173250780E+03  0.71072332134E+03  0.80653164596E+02 0.  0.
         23    2    1    2    0    0 -0.11702865578E+03  0.15672233409E+03 -0.91976554344E+03  0.94467430139E+03  0.90461508561E+02 0.  0.
        -11    1    3    3    0    0 -0.21735042054E+02 -0.76293502901E+02 -0.40474426202E+03  0.41244518215E+03  0.00000000000E+00 0.  1.
         12    1    3    3    0    0  0.27623140307E+02 -0.21891342416E+01 -0.29698824577E+03  0.29827813919E+03  0.00000000000E+00 0. -1.
        -11    1    4    4    0    0 -0.99247451268E+02  0.70274685734E+02 -0.42317109124E+03  0.44029803599E+03  0.00000000000E+00 0. -1.
         11    1    4    4    0    0 -0.17781204515E+02  0.86447648354E+02 -0.49659445220E+03  0.50437626540E+03  0.00000000000E+00 0.  1.
          1    1    1    2  501    0  0.11114055753E+03 -0.78239696946E+02 -0.10483315387E+04  0.10571058077E+04  0.00000000000E+00 0. -1.
<scales pt_clust_5="13000.00000" pt_clust_6="13000.00000" pt_clust_7="13000.00000" pt_clust_8="13000.00000" pt_clust_9="165.59990"></scales>
<clustering>
<clus scale="   80.653">  5  6 -1 -1</clus>
<clus scale="   90.462">  7  8 -1 -1</clus>
<clus scale="  112.690">  2  5  1 -1</clus>
<clus scale="  165.600">  1  9  2 -1</clus>
<clus scale="  165.600">  1  5  2 -1</clus>
</clustering>
</event>
<event>
 9    2  0.1723348E-004  0.1246669E+03  0.7546771E-02  0.1238322E+00
          2   -1    0    0  502    0 -0.00000000000E+00  0.00000000000E+00  0.77473650842E+03  0.77473650842E+03  0.00000000000E+00 0. -1.
         21   -1    0    0  501  502  0.00000000000E+00 -0.00000000000E+00 -0.87883060005E+02  0.87883060005E+02  0.00000000000E+00 0. -1.
         24    2    1    2    0    0  0.89644462171E+02 -0.30605042851E+02  0.68122969375E+03  0.69244208601E+03  0.80183218855E+02 0.  0.
         23    2    1    2    0    0 -0.37476125246E+02 -0.12992508902E+01  0.33539301157E+02  0.10295622780E+03  0.89827346080E+02 0.  0.
        -13    1    3    3    0    0  0.64723634809E+02  0.15644645439E+02  0.28114983914E+03  0.28892756165E+03  0.00000000000E+00 0.  1.
         14    1    3    3    0    0  0.24920827362E+02 -0.46249688290E+02  0.40007985461E+03  0.40351452436E+03  0.00000000000E+00 0. -1.
        -13    1    4    4    0    0 -0.17869993868E+02 -0.37650091116E+02 -0.10088975468E+02  0.42879522711E+02  0.00000000000E+00 0. -1.
         13    1    4    4    0    0 -0.19606131378E+02  0.36350840226E+02  0.43628276625E+02  0.60076705086E+02  0.00000000000E+00 0.  1.
          1    1    1    2  501    0 -0.52168336926E+02  0.31904293741E+02 -0.27915546490E+02  0.67221254619E+02  0.00000000000E+00 0. -1.
<scales pt_clust_5="13000.00000" pt_clust_6="13000.00000" pt_clust_7="13000.00000" pt_clust_8="13000.00000" pt_clust_9="61.15079"></scales>
<clustering>
<clus scale="   61.151">  2  9  1 -1</clus>
<clus scale="   80.183">  5  6 -1 -1</clus>
<clus scale="   89.827">  7  8 -1 -1</clus>
<clus scale="  117.908">  1  5  2 -1</clus>
<clus scale="   61.151">  2  5  1 -1</clus>
</clustering>
</event>
<event>
 9    2  0.1723348E-004  0.9687005E+02  0.7546771E-02  0.1291992E+00
          2   -1    0    0  502    0 -0.00000000000E+00  0.00000000000E+00  0.37025452328E+03  0.37025452328E+03  0.00000000000E+00 0. -1.
         21   -1    0    0  501  502  0.00000000000E+00 -0.00000000000E+00 -0.65253510534E+02  0.65253510534E+02  0.00000000000E+00 0.  1.
         24    2    1    2    0    0 -0.36162323231E+02  0.36713345486E+02  0.24236331506E+03  0.26068933687E+03  0.81014631469E+02 0.  0.
         23    2    1    2    0    0  0.41704944877E+01  0.17194724565E+02  0.64014087137E+02  0.11211740852E+03  0.90329720267E+02 0.  0.
        -11    1    3    3    0    0 -0.25832899558E+02  0.63930158541E+01  0.13961108622E+02  0.30051986711E+02  0.00000000000E+00 0.  1.
         12    1    3    3    0    0 -0.10329423673E+02  0.30320329632E+02  0.22840220643E+03  0.23063735016E+03  0.00000000000E+00 0. -1.
        -11    1    4    4    0    0 -0.24984095941E+02  0.12197998818E+02 -0.12202027330E+02  0.30362570644E+02  0.00000000000E+00 0.  1.
         11    1    4    4    0    0  0.29154590429E+02  0.49967257470E+01  0.76216114467E+02  0.81754837873E+02  0.00000000000E+00 0. -1.
          1    1    1    2  501    0  0.31991828743E+02 -0.53908070051E+02 -0.13763894472E+01  0.62701288431E+02  0.00000000000E+00 0. -1.
<scales pt_clust_5="13000.00000" pt_clust_6="13000.00000" pt_clust_7="13000.00000" pt_clust_8="13000.00000" pt_clust_9="62.68618"></scales>
<clustering>
<clus scale="   62.686">  2  9  1 -1</clus>
<clus scale="   81.015">  5  6 -1 -1</clus>
<clus scale="   88.248">  1  5  2 -1</clus>
<clus scale="   90.330">  7  8 -1 -1</clus>
<clus scale="   62.686">  2  5  1 -1</clus>
</clustering>
</event>
<event>
 9    2  0.1723348E-004  0.9467153E+02  0.7546771E-02  0.1296928E+00
         -1   -1    0    0    0  501 -0.00000000000E+00  0.00000000000E+00  0.33590589051E+02  0.33590589051E+02  0.00000000000E+00 0.  1.
         21   -1    0    0  501  502  0.00000000000E+00 -0.00000000000E+00 -0.53694854841E+03  0.53694854841E+03  0.00000000000E+00 0. -1.
         23    2    1    2    0    0 -0.25806794369E+02 -0.65638982184E+01 -0.59048178523E+02  0.11164154233E+03  0.90928934841E+02 0.  0.
         24    2    1    2    0    0  0.16900306608E+02  0.27750537710E+02 -0.29861748607E+03  0.31140371739E+03  0.82122831846E+02 0.  0.
        -11    1    4    4    0    0  0.49169016147E+00  0.21498904404E+02 -0.12755500824E+02  0.25002948847E+02  0.00000000000E+00 0.  1.
         12    1    4    4    0    0  0.16408616447E+02  0.62516333056E+01 -0.28586198524E+03  0.28640076854E+03  0.00000000000E+00 0. -1.
        -13    1    3    3    0    0  0.31503551679E+02 -0.77177334565E+01 -0.49276605766E+01  0.32807301274E+02  0.00000000000E+00 0. -1.
         13    1    3    3    0    0 -0.57310346048E+02  0.11538352382E+01 -0.54120517946E+02  0.78834241055E+02  0.00000000000E+00 0.  1.
         -2    1    1    2    0  502  0.89064877605E+01 -0.21186639491E+02 -0.14569229477E+03  0.14749387775E+03  0.00000000000E+00 0.  1.
<scales pt_clust_5="13000.00000" pt_clust_6="13000.00000" pt_clust_7="13000.00000" pt_clust_8="13000.00000" pt_clust_9="22.98259"></scales>
<clustering>
<clus scale="   22.983">  2  9  1 -1</clus>
<clus scale="   82.123">  5  6 -1 -1</clus>
<clus scale="   86.248">  2  5  1 -1</clus>
<clus scale="   90.929">  7  8 -1 -1</clus>
<clus scale="   22.983">  2  5  1 -1</clus>
</clustering>
</event>
<event>
 9    2  0.1723348E-004  0.9588503E+02  0.7546771E-02  0.1298373E+00
          2   -1    0    0  502    0 -0.00000000000E+00  0.00000000000E+00  0.56563771960E+03  0.56563771960E+03  0.00000000000E+00 0. -1.
         21   -1    0    0  501  502  0.00000000000E+00 -0.00000000000E+00 -0.32324203213E+02  0.32324203213E+02  0.00000000000E+00 0. -1.
         24    2    1    2    0    0  0.57898409078E+01  0.88685217629E+01  0.13173047635E+03  0.15280555321E+03  0.76710141155E+02 0.  0.
         23    2    1    2    0    0  0.68300258912E+02  0.30431391160E+01  0.21028330126E+03  0.23966471378E+03  0.92444157093E+02 0.  0.
        -11    1    3    3    0    0 -0.18777268963E+02 -0.18038192424E+02  0.10346807381E+03  0.10669397600E+03  0.00000000000E+00 0.  1.
         12    1    3    3    0    0  0.24567109871E+02  0.26906714187E+02  0.28262402538E+02  0.46111577212E+02  0.00000000000E+00 0. -1.
        -13    1    4    4    0    0  0.34696506636E+01 -0.30931067877E+02  0.23341563286E+02  0.38904986986E+02  0.00000000000E+00 0.  1.
         13    1    4    4    0    0  0.64830608248E+02  0.33974206993E+02  0.18694173797E+03  0.20075972680E+03  0.00000000000E+00 0. -1.
          1    1    1    2  501    0 -0.74090099820E+02 -0.11911660879E+02  0.19129973877E+03  0.20549165582E+03  0.00000000000E+00 0. -1.
<scales pt_clust_5="13000.00000" pt_clust_6="13000.00000" pt_clust_7="13000.00000" pt_clust_8="13000.00000" pt_clust_9="75.04156"></scales>
<clustering>
<clus scale="   75.042">  2  9  1 -1</clus>
<clus scale="   76.710">  5  6 -1 -1</clus>
<clus scale="   80.824">  1  5  2 -1</clus>
<clus scale="   92.444">  7  8 -1 -1</clus>
<clus scale="   75.042">  2  5  1 -1</clus>
</clustering>
</event>
<event>
 9    2  0.1723348E-004  0.1396684E+03  0.7546771E-02  0.1227456E+00
         21   -1    0    0  501  502  0.00000000000E+00  0.00000000000E+00  0.11136051013E+03  0.11136051013E+03  0.00000000000E+00 0.  1.
          4   -1    0    0  502    0 -0.00000000000E+00 -0.00000000000E+00 -0.41699289088E+03  0.41699289088E+03  0.00000000000E+00 0. -1.
         23    2    1    2    0    0 -0.15853223227E+01  0.47074079460E+02 -0.65694077019E+01  0.10503329498E+03  0.93650166750E+02 0.  0.
         24    2    1    2    0    0 -0.10779448835E+03  0.22770668052E+02 -0.55535623632E+02  0.14737119472E+03  0.80597199075E+02 0.  0.
        -11    1    4    4    0    0 -0.55587235868E+02 -0.28493141034E+02 -0.17304554593E+02  0.64817030842E+02  0.00000000000E+00 0.  1.
         12    1    4    4    0    0 -0.52207252480E+02  0.51263809086E+02 -0.38231069038E+02  0.82554163876E+02  0.00000000000E+00 0. -1.
        -11    1    3    3    0    0 -0.43014995873E+02  0.38278723740E+01  0.66744649479E+01  0.43697722586E+02  0.00000000000E+00 0. -1.
         11    1    3    3    0    0  0.41429673550E+02  0.43246207086E+02 -0.13243872650E+02  0.61335572391E+02  0.00000000000E+00 0.  1.
          3    1    1    2  501    0  0.10937981067E+03 -0.69844747511E+02 -0.24352734942E+03  0.27594891131E+03  0.00000000000E+00 0. -1.
<scales pt_clust_5="13000.00000" pt_clust_6="13000.00000" pt_clust_7="13000.00000" pt_clust_8="13000.00000" pt_clust_9="114.06737"></scales>
<clustering>
<clus scale="   80.597">  5  6 -1 -1</clus>
<clus scale="   93.650">  7  8 -1 -1</clus>
<clus scale="  104.828">  2  7  1 -1</clus>
<clus scale="  114.067">  1  9  2 -1</clus>
<clus scale="  114.067">  1  5  2 -1</clus>
</clustering>
</event>
<event>
 9    2  0.1723348E-004  0.1036993E+03  0.7546771E-02  0.1280160E+00
         21   -1    0    0  501  502  0.00000000000E+00  0.00000000000E+00  0.16233004211E+03  0.16233004211E+03  0.00000000000E+00 0.  1.
         -1   -1    0    0    0  501 -0.00000000000E+00 -0.00000000000E+00 -0.17853642818E+03  0.17853642818E+03  0.00000000000E+00 0.  1.
         23    2    1    2    0    0 -0.36302894708E+01  0.56188955589E+02 -0.10937254949E+03  0.15334130587E+03  0.91546839229E+02 0.  0.
         24    2    1    2    0    0 -0.28564176888E+02 -0.92092135366E+01  0.10140688924E+03  0.12997962255E+03  0.75568665976E+02 0.  0.
        -11    1    4    4    0    0 -0.52088799856E+02 -0.17465958244E+02  0.57768657105E+02  0.79721518497E+02  0.00000000000E+00 0.  1.
         12    1    4    4    0    0  0.23524622969E+02  0.82567447071E+01  0.43638232135E+02  0.50258104052E+02  0.00000000000E+00 0. -1.
        -11    1    3    3    0    0  0.35918174229E+02  0.55553091690E+02 -0.54573145484E+02  0.85758319971E+02  0.00000000000E+00 0.  1.
         11    1    3    3    0    0 -0.39548463700E+02  0.63586389942E+00 -0.54799404007E+02  0.67582985902E+02  0.00000000000E+00 0. -1.
         -2    1    1    2    0  502  0.32194466358E+02 -0.46979742052E+02 -0.82407258136E+01  0.57545541872E+02  0.00000000000E+00 0.  1.
<scales pt_clust_5="13000.00000" pt_clust_6="13000.00000" pt_clust_7="13000.00000" pt_clust_8="13000.00000" pt_clust_9="56.95246"></scales>
<clustering>
<clus scale="   56.952">  1  9  2 -1</clus>
<clus scale="   75.569">  5  6 -1 -1</clus>
<clus scale="   89.907">  1  5  2 -1</clus>
<clus scale="   91.547">  7  8 -1 -1</clus>
<clus scale="   56.952">  1  5  2 -1</clus>
</clustering>
</event>
<event>
 9    2  0.1723348E-004  0.1197245E+03  0.7546771E-02  0.1246769E+00
          4   -1    0    0  502    0 -0.00000000000E+00  0.00000000000E+00  0.41732935467E+03  0.41732935467E+03  0.00000000000E+00 0. -1.
         21   -1    0    0  501  502  0.00000000000E+00 -0.00000000000E+00 -0.74583256071E+02  0.74583256071E+02  0.00000000000E+00 0. -1.
         23    2    1    2    0    0  0.72854589310E+02  0.41380179710E+02  0.29202729859E+03  0.31742553268E+03  0.91972361158E+02 0.  0.
         24    2    1    2    0    0 -0.35003192153E+02 -0.29101021608E+02 -0.17634199588E+02  0.95394483314E+02  0.81957608141E+02 0.  0.
        -11    1    4    4    0    0 -0.33716741876E+02 -0.43029642545E+02  0.17645221167E+02  0.57443212396E+02  0.00000000000E+00 0.  1.
         12    1    4    4    0    0 -0.12864502772E+01  0.13928620938E+02 -0.35279420755E+02  0.37951270919E+02  0.00000000000E+00 0. -1.
        -11    1    3    3    0    0  0.46549551779E+02 -0.18224109672E+02  0.18922729130E+03  0.19571905047E+03  0.00000000000E+00 0. -1.
         11    1    3    3    0    0  0.26305037530E+02  0.59604289382E+02  0.10280000729E+03  0.12170648220E+03  0.00000000000E+00 0.  1.
          3    1    1    2  501    0 -0.37851397156E+02 -0.12279158103E+02  0.68352999597E+02  0.79092594750E+02  0.00000000000E+00 0. -1.
<scales pt_clust_5="13000.00000" pt_clust_6="13000.00000" pt_clust_7="13000.00000" pt_clust_8="13000.00000" pt_clust_9="39.79331"></scales>
<clustering>
<clus scale="   39.793">  2  9  1 -1</clus>
<clus scale="   81.958">  5  6 -1 -1</clus>
<clus scale="   91.972">  7  8 -1 -1</clus>
<clus scale="  112.214">  2  5  1 -1</clus>
<clus scale="   39.793">  2  5  1 -1</clus>
</clustering>
</event>
<event>
 9    2  0.1723348E-004  0.1162471E+03  0.7546771E-02  0.1254728E+00
          2   -1    0    0  502    0 -0.00000000000E+00  0.00000000000E+00  0.20977620406E+03  0.20977620406E+03  0.00000000000E+00 0. -1.
         21   -1    0    0  501  502  0.00000000000E+00 -0.00000000000E+00 -0.11639682249E+03  0.11639682249E+03  0.00000000000E+00 0. -1.
         23    2    1    2    0    0 -0.49850049434E+02 -0.55230208601E+02  0.79216780036E+02  0.14096407396E+03  0.89778441388E+02 0.  0.
         24    2    1    2    0    0  0.66791483440E+02  0.35300857183E+02  0.67714164284E+02  0.12561062117E+03  0.74064615904E+02 0.  0.
        -13    1    4    4    0    0  0.20315424694E+02 -0.16905848322E+02 -0.24867468726E+01  0.26546338693E+02  0.00000000000E+00 0.  1.
         14    1    4    4    0    0  0.46476058746E+02  0.52206705505E+02  0.70200911156E+02  0.99064282481E+02  0.00000000000E+00 0. -1.
        -11    1    3    3    0    0 -0.24854313705E+02 -0.39175130169E+02 -0.95422115815E+01  0.47365404414E+02  0.00000000000E+00 0.  1.
         11    1    3    3    0    0 -0.24995735729E+02 -0.16055078433E+02  0.88758991618E+02  0.93598669548E+02  0.00000000000E+00 0. -1.
          1    1    1    2  501    0 -0.16941434007E+02  0.19929351418E+02 -0.53551562755E+02  0.59598331417E+02  0.00000000000E+00 0. -1.
<scales pt_clust_5="13000.00000" pt_clust_6="13000.00000" pt_clust_7="13000.00000" pt_clust_8="13000.00000" pt_clust_9="26.15705"></scales>
<clustering>
<clus scale="   26.157">  2  9  1 -1</clus>
<clus scale="   74.065">  5  6 -1 -1</clus>
<clus scale="   89.778">  7  8 -1 -1</clus>
<clus scale="  104.589">  2  5  1 -1</clus>
<clus scale="   26.157">  2  5  1 -1</clus>
</clustering>
</event>
<event>
 9    2  0.1723348E-004  0.1021809E+03  0.7546771E-02  0.1283812E+00
          2   -1    0    0  502    0 -0.00000000000E+00  0.00000000000E+00  0.93276955084E+02  0.93276955084E+02  0.00000000000E+00 0. -1.
         21   -1    0    0  501  502  0.00000000000E+00 -0.00000000000E+00 -0.18935846163E+03  0.18935846163E+03  0.00000000000E+00 0. -1.
         24    2    1    2    0    0  0.10980475984E+02 -0.34676451394E+02 -0.11448422467E+02  0.89092788662E+02  0.80519758323E+02 0.  0.
         23    2    1    2    0    0 -0.55855991236E+02  0.60851255798E+00 -0.80114298127E+02  0.13701957300E+03  0.96103072668E+02 0.  0.
        -11    1    3    3    0    0  0.11875775939E+02  0.24675359939E+02 -0.11584791038E+02  0.29734068435E+02  0.00000000000E+00 0.  1.
         12    1    3    3    0    0 -0.89529995576E+00 -0.59351811334E+02  0.13636857088E+00  0.59358720227E+02  0.00000000000E+00 0. -1.
        -11    1    4    4    0    0  0.13027142737E+02 -0.16319854146E+02 -0.59641585516E+02  0.63191477353E+02  0.00000000000E+00 0. -1.
         11    1    4    4    0    0 -0.68883133972E+02  0.16928366704E+02 -0.20472712611E+02  0.73828095647E+02  0.00000000000E+00 0.  1.
          1    1    1    2  501    0  0.44875515252E+02  0.34067938836E+02 -0.45187859496E+01  0.56523055050E+02  0.00000000000E+00 0. -1.
<scales pt_clust_5="13000.00000" pt_clust_6="13000.00000" pt_clust_7="13000.00000" pt_clust_8="13000.00000" pt_clust_9="56.34216"></scales>
<clustering>
<clus scale="   56.342">  2  9  1 -1</clus>
<clus scale="   80.520">  5  6 -1 -1</clus>
<clus scale="   87.684">  1  5  2 -1</clus>
<clus scale="   96.103">  7  8 -1 -1</clus>
<clus scale="   56.342">  2  5  1 -1</clus>
</clustering>
</event>
<event>
 9    2  0.1723348E-004  0.1544850E+03  0.7546771E-02  0.1203420E+00
         21   -1    0    0  501  502  0.00000000000E+00  0.00000000000E+00  0.14770062819E+03  0.14770062819E+03  0.00000000000E+00 0. -1.
          2   -1    0    0  502    0 -0.00000000000E+00 -0.00000000000E+00 -0.31047117468E+03  0.31047117468E+03  0.00000000000E+00 0. -1.
         24    2    1    2    0    0 -0.80826065860E+02  0.66548403074E+02 -0.20991748643E+03  0.24824905865E+03  0.81244699124E+02 0.  0.
         23    2    1    2    0    0  0.67322133562E+02 -0.50044503904E+02 -0.13899756740E+02  0.14525873529E+03  0.11777170671E+03 0.  0.
        -11    1    3    3    0    0 -0.58822338898E+02 -0.32787777347E+01 -0.10321224377E+03  0.11884269099E+03  0.00000000000E+00 0.  1.
         12    1    3    3    0    0 -0.22003726962E+02  0.69827180809E+02 -0.10670524266E+03  0.12940636766E+03  0.00000000000E+00 0. -1.
        -13    1    4    4    0    0  0.49924096807E+02 -0.88881009539E+02 -0.74106369279E+01  0.10221138312E+03  0.00000000000E+00 0.  1.
         13    1    4    4    0    0  0.17398036755E+02  0.38836505635E+02 -0.64891198124E+01  0.43047352170E+02  0.00000000000E+00 0. -1.
          1    1    1    2  501    0  0.13503932297E+02 -0.16503899170E+02  0.61046696685E+02  0.64664008934E+02  0.00000000000E+00 0. -1.
<scales pt_clust_5="13000.00000" pt_clust_6="13000.00000" pt_clust_7="13000.00000" pt_clust_8="13000.00000" pt_clust_9="21.32451"></scales>
<clustering>
<clus scale="   21.325">  1  9  2 -1</clus>
<clus scale="   81.245">  5  6 -1 -1</clus>
<clus scale="  117.772">  7  8 -1 -1</clus>
<clus scale="  128.826">  2  5  1 -1</clus>
<clus scale="   21.325">  1  5  2 -1</clus>
</clustering>
</event>
<event>
 9    2  0.1723348E-004  0.1049150E+03  0.7546771E-02  0.1280914E+00
          4   -1    0    0  502    0 -0.00000000000E+00  0.00000000000E+00  0.12994472234E+03  0.12994472234E+03  0.00000000000E+00 0. -1.
         21   -1    0    0  501  502  0.00000000000E+00 -0.00000000000E+00 -0.12471555839E+03  0.12471555839E+03  0.00000000000E+00 0. -1.
         24    2    1    2    0    0 -0.12363858918E+02 -0.44735857111E+01  0.86217156547E+01  0.81792505693E+02  0.80267066910E+02 0.  0.
         23    2    1    2    0    0  0.54486033691E+02 -0.30082963329E+02 -0.76032427684E+00  0.11832090245E+03  0.10062576863E+03 0.  0.
        -13    1    3    3    0    0 -0.77994954678E+01 -0.33254140168E+02  0.30152093296E+02  0.45561153387E+02  0.00000000000E+00 0.  1.
         14    1    3    3    0    0 -0.45643634505E+01  0.28780554457E+02 -0.21530377642E+02  0.36231352306E+02  0.00000000000E+00 0. -1.
        -11    1    4    4    0    0 -0.23325128837E+02 -0.33045596456E+02 -0.62598495940E+00  0.40453243845E+02  0.00000000000E+00 0.  1.
         11    1    4    4    0    0  0.77811162528E+02  0.29626331279E+01 -0.13433931744E+00  0.77867658601E+02  0.00000000000E+00 0. -1.
          3    1    1    2  501    0 -0.42122174772E+02  0.34556549040E+02 -0.26322274271E+01  0.54546872599E+02  0.00000000000E+00 0. -1.
<scales pt_clust_5="13000.00000" pt_clust_6="13000.00000" pt_clust_7="13000.00000" pt_clust_8="13000.00000" pt_clust_9="54.48332"></scales>
<clustering>
<clus scale="   54.483">  2  9  1 -1</clus>
<clus scale="   80.267">  5  6 -1 -1</clus>
<clus scale="   85.583">  1  5  2 -1</clus>
<clus scale="  100.626">  7  8 -1 -1</clus>
<clus scale="   54.483">  2  5  1 -1</clus>
</clustering>
</event>
<event>
 9    2  0.1723348E-004  0.9453411E+02  0.7546771E-02  0.1302749E+00
          2   -1    0    0  502    0 -0.00000000000E+00  0.00000000000E+00  0.16877967670E+03  0.16877967670E+03  0.00000000000E+00 0. -1.
         21   -1    0    0  501  502  0.00000000000E+00 -0.00000000000E+00 -0.80536934233E+02  0.80536934233E+02  0.00000000000E+00 0. -1.
         24    2    1    2    0    0  0.11232715776E+01  0.89418769013E+01  0.74631140735E+02  0.10794199526E+03  0.77462560451E+02 0.  0.
         23    2    1    2    0    0  0.29792580187E+02  0.13459612414E+02 -0.28457552272E+01  0.99799849147E+02  0.94250477805E+02 0.  0.
        -13    1    3    3    0    0 -0.33727080198E+02 -0.20076315666E+01  0.59456022163E+02  0.68385415804E+02  0.00000000000E+00 0.  1.
         14    1    3    3    0    0  0.34850351776E+02  0.10949508468E+02  0.15175118572E+02  0.39556579456E+02  0.00000000000E+00 0. -1.
        -13    1    4    4    0    0 -0.22504196696E+02 -0.25546629844E+02  0.36289001733E+01  0.34237962582E+02  0.00000000000E+00 0.  1.
         13    1    4    4    0    0  0.52296776883E+02  0.39006242257E+02 -0.64746554006E+01  0.65561886565E+02  0.00000000000E+00 0. -1.
          1    1    1    2  501    0 -0.30915851765E+02 -0.22401489315E+02  0.16457356963E+02  0.41574766531E+02  0.00000000000E+00 0. -1.
<scales pt_clust_5="13000.00000" pt_clust_6="13000.00000" pt_clust_7="13000.00000" pt_clust_8="13000.00000" pt_clust_9="38.17876"></scales>
<clustering>
<clus scale="   38.179">  2  9  1 -1</clus>
<clus scale="   77.463">  5  6 -1 -1</clus>
<clus scale="   77.807">  1  5  2 -1</clus>
<clus scale="   94.250">  7  8 -1 -1</clus>
<clus scale="   38.179">  2  5  1 -1</clus>
</clustering>
</event>
<event>
 9    2  0.1723348E-004  0.2000136E+03  0.7546771E-02  0.1186087E+00
         21   -1    0    0  501  502  0.00000000000E+00  0.00000000000E+00  0.98103316275E+03  0.98103316275E+03  0.00000000000E+00 0. -1.
          4   -1    0    0  502    0 -0.00000000000E+00 -0.00000000000E+00 -0.17816085951E+03  0.17816085951E+03  0.00000000000E+00 0. -1.
         24    2    1    2    0    0  0.35133894570E+02  0.30412072865E+01 -0.58830380732E+02  0.10484817659E+03  0.79299980762E+02 0.  0.
         23    2    1    2    0    0  0.12526580180E+03 -0.87444161075E+02  0.39277267293E+01  0.17763049935E+03  0.90549239951E+02 0.  0.
        -13    1    3    3    0    0 -0.22036132333E+02  0.13401063147E+02 -0.63661901455E+01  0.26565165134E+02  0.00000000000E+00 0.  1.
         14    1    3    3    0    0  0.57170026902E+02 -0.10359855860E+02 -0.52464190586E+02  0.78283011461E+02  0.00000000000E+00 0. -1.
        -13    1    4    4    0    0  0.74081899284E+02 -0.78683473422E+02 -0.34037627194E+02  0.11330391368E+03  0.00000000000E+00 0. -1.
         13    1    4    4    0    0  0.51183902513E+02 -0.87606876527E+01  0.37965353924E+02  0.64326585664E+02  0.00000000000E+00 0.  1.
          3    1    1    2  501    0 -0.16039969637E+03  0.84402953788E+02  0.85777495724E+03  0.87671534632E+03  0.00000000000E+00 0. -1.
<scales pt_clust_5="13000.00000" pt_clust_6="13000.00000" pt_clust_7="13000.00000" pt_clust_8="13000.00000" pt_clust_9="178.34314"></scales>
<clustering>
<clus scale="   79.300">  5  6 -1 -1</clus>
<clus scale="   86.788">  2  5  1 -1</clus>
<clus scale="   90.549">  7  8 -1 -1</clus>
<clus scale="  178.343">  1  9  2 -1</clus>
<clus scale="  178.343">  1  5  2 -1</clus>
</clustering>
</event>
<event>
 9    2  0.1723348E-004  0.2442536E+03  0.7546771E-02  0.1132299E+00
          2   -1    0    0  502    0 -0.00000000000E+00  0.00000000000E+00  0.80710861358E+03  0.80710861358E+03  0.00000000000E+00 0. -1.
         21   -1    0    0  501  502  0.00000000000E+00 -0.00000000000E+00 -0.18816325688E+03  0.18816325688E+03  0.00000000000E+00 0. -1.
         24    2    1    2    0    0  0.17785111879E+02  0.14550958228E+03  0.80272880983E+02  0.18537772129E+03  0.80198599678E+02 0.  0.
         23    2    1    2    0    0  0.33074717306E+02 -0.33917250373E+03  0.48984816828E+03  0.60379741856E+03  0.92131267654E+02 0.  0.
        -11    1    3    3    0    0  0.29286923470E+02  0.74997809372E+02  0.80612546731E+02  0.11393321723E+03  0.00000000000E+00 0.  1.
         12    1    3    3    0    0 -0.11501811591E+02  0.70511772910E+02 -0.33966574770E+00  0.71444504068E+02  0.00000000000E+00 0. -1.
        -13    1    4    4    0    0 -0.24232155751E+02 -0.51330262742E+02  0.10992395484E+03  0.12371446599E+03  0.00000000000E+00 0.  1.
         13    1    4    4    0    0  0.57306873057E+02 -0.28784224099E+03  0.37992421343E+03  0.48008295257E+03  0.00000000000E+00 0. -1.
          1    1    1    2  501    0 -0.50859829185E+02  0.19366292145E+03  0.48824307442E+02  0.20609673061E+03  0.00000000000E+00 0. -1.
<scales pt_clust_5="13000.00000" pt_clust_6="13000.00000" pt_clust_7="13000.00000" pt_clust_8="13000.00000" pt_clust_9="226.21156"></scales>
<clustering>
<clus scale="   80.199">  5  6 -1 -1</clus>
<clus scale="   92.131">  7  8 -1 -1</clus>
<clus scale="  167.096">  1  5  2 -1</clus>
<clus scale="  226.212">  2  9  1 -1</clus>
<clus scale="  226.212">  2  5  1 -1</clus>
</clustering>
</event>
<event>
 9    2  0.1723348E-004  0.1170513E+03  0.7546771E-02  0.1251753E+00
         21   -1    0    0  501  502  0.00000000000E+00  0.00000000000E+00  0.36815565857E+03  0.36815565857E+03  0.00000000000E+00 0. -1.
         -3   -1    0    0    0  501 -0.00000000000E+00 -0.00000000000E+00 -0.72774079438E+02  0.72774079438E+02  0.00000000000E+00 0.  1.
         23    2    1    2    0    0 -0.11165700129E+02  0.60701470617E+02  0.31145717527E+02  0.11491050529E+03  0.91787946436E+02 0.  0.
         24    2    1    2    0    0  0.44814301635E+02 -0.10014170292E+03  0.21478267373E+03  0.25437163612E+03  0.80849551836E+02 0.  0.
        -13    1    4    4    0    0 -0.22248544802E+02 -0.14470348572E+02  0.31096903825E+02  0.40882834553E+02  0.00000000000E+00 0.  1.
         14    1    4    4    0    0  0.67062846437E+02 -0.85671354351E+02  0.18368576990E+03  0.21348880156E+03  0.00000000000E+00 0. -1.
        -11    1    3    3    0    0 -0.51212750957E+02  0.41492703222E+02  0.22610195014E+02  0.69682215807E+02  0.00000000000E+00 0.  1.
         11    1    3    3    0    0  0.40047050828E+02  0.19208767395E+02  0.85355225130E+01  0.45228289481E+02  0.00000000000E+00 0. -1.
         -4    1    1    2    0  502 -0.33648601506E+02  0.39440232306E+02  0.49453187877E+02  0.71647596602E+02  0.00000000000E+00 0.  1.
<scales pt_clust_5="13000.00000" pt_clust_6="13000.00000" pt_clust_7="13000.00000" pt_clust_8="13000.00000" pt_clust_9="51.84361"></scales>
<clustering>
<clus scale="   51.844">  1  9  2 -1</clus>
<clus scale="   80.850">  5  6 -1 -1</clus>
<clus scale="   91.788">  7  8 -1 -1</clus>
<clus scale="  108.686">  1  5  2 -1</clus>
<clus scale="   51.844">  1  5  2 -1</clus>
</clustering>
</event>
<event>
 9    2  0.1723348E-004  0.1310898E+03  0.7546771E-02  0.1228374E+00
         21   -1    0    0  501  502  0.00000000000E+00  0.00000000000E+00  0.28290985899E+03  0.28290985899E+03  0.00000000000E+00 0.  1.
          4   -1    0    0  502    0 -0.00000000000E+00 -0.00000000000E+00 -0.17030573275E+03  0.17030573275E+03  0.00000000000E+00 0. -1.
         24    2    1    2    0    0 -0.57681349222E+02  0.78502909316E+02 -0.11960623955E+03  0.17361949305E+03  0.79675786833E+02 0.  0.
         23    2    1    2    0    0  0.31589856115E+02 -0.74785087993E+02  0.21875229606E+03  0.25000373737E+03  0.89769556484E+02 0.  0.
        -11    1    3    3    0    0 -0.92870559258E+01  0.45264103459E+02 -0.71452883312E+01  0.46756214721E+02  0.00000000000E+00 0.  1.
         12    1    3    3    0    0 -0.48394293296E+02  0.33238805858E+02 -0.11246095122E+03  0.12686327833E+03  0.00000000000E+00 0. -1.
        -13    1    4    4    0    0 -0.23582569796E+02 -0.58721823222E+02  0.12327011335E+03  0.13856374333E+03  0.00000000000E+00 0.  1.
         13    1    4    4    0    0  0.55172425911E+02 -0.16063264772E+02  0.95482182711E+02  0.11143999404E+03  0.00000000000E+00 0. -1.
          3    1    1    2  501    0  0.26091493107E+02 -0.37178213228E+01  0.13458069737E+02  0.29592361329E+02  0.00000000000E+00 0. -1.
<scales pt_clust_5="13000.00000" pt_clust_6="13000.00000" pt_clust_7="13000.00000" pt_clust_8="13000.00000" pt_clust_9="26.35504"></scales>
<clustering>
<clus scale="   26.355">  1  9  2 -1</clus>
<clus scale="   79.676">  5  6 -1 -1</clus>
<clus scale="   89.770">  7  8 -1 -1</clus>
<clus scale="  124.395">  2  5  1 -1</clus>
<clus scale="   26.355">  1  5  2 -1</clus>
</clustering>
</event>
<event>
 9    2  0.1723348E-004  0.2208502E+03  0.7546771E-02  0.1144146E+00
         21   -1    0    0  501  502  0.00000000000E+00  0.00000000000E+00  0.99314174283E+03  0.99314174283E+03  0.00000000000E+00 0.  1.
         -3   -1    0    0    0  501 -0.00000000000E+00 -0.00000000000E+00 -0.12373316680E+03  0.12373316680E+03  0.00000000000E+00 0.  1.
         24    2    1    2    0    0 -0.80037129442E+02  0.12581430124E+03  0.48362544311E+02  0.17646235769E+03  0.81023746536E+02 0.  0.
         23    2    1    2    0    0 -0.14674646511E+03  0.38688798203E+02  0.30535376388E+03  0.35353046532E+03  0.93335527349E+02 0.  0.
        -11    1    3    3    0    0 -0.78729247235E+02  0.49729280747E+02  0.33263795768E+02  0.98882636710E+02  0.00000000000E+00 0.  1.
         12    1    3    3    0    0 -0.13078822069E+01  0.76085020497E+02  0.15098748543E+02  0.77579720980E+02  0.00000000000E+00 0. -1.
        -13    1    4    4    0    0 -0.11785180491E+03  0.58317479216E+02  0.28300819580E+03  0.31206347943E+03  0.00000000000E+00 0.  1.
         13    1    4    4    0    0 -0.28894660197E+02 -0.19628681013E+02  0.22345568084E+02  0.41466985895E+02  0.00000000000E+00 0. -1.
         -4    1    1    2    0  502  0.22678359455E+03 -0.16450309945E+03  0.51569226784E+03  0.58688208662E+03  0.00000000000E+00 0.  1.
<scales pt_clust_5="13000.00000" pt_clust_6="13000.00000" pt_clust_7="13000.00000" pt_clust_8="13000.00000" pt_clust_9="200.15826"></scales>
<clustering>
<clus scale="   81.024">  5  6 -1 -1</clus>
<clus scale="   93.336">  7  8 -1 -1</clus>
<clus scale="  169.706">  2  5  1 -1</clus>
<clus scale="  200.158">  1  9  2 -1</clus>
<clus scale="  200.158">  1  5  2 -1</clus>
</clustering>
</event>
<event>
 9    2  0.1723348E-004  0.1040400E+03  0.7546771E-02  0.1277946E+00
         21   -1    0    0  501  502  0.00000000000E+00  0.00000000000E+00  0.33285678145E+03  0.33285678145E+03  0.00000000000E+00 0. -1.
         -3   -1    0    0    0  501 -0.00000000000E+00 -0.00000000000E+00 -0.63054386671E+02  0.63054386671E+02  0.00000000000E+00 0.  1.
         23    2    1    2    0    0  0.43883401533E+02 -0.17687337151E+02  0.20045022004E+01  0.10426414437E+03  0.92889175611E+02 0.  0.
         24    2    1    2    0    0 -0.33289868036E+02  0.35499426857E+02  0.20306345693E+03  0.22367614286E+03  0.80173715901E+02 0.  0.
        -13    1    4    4    0    0 -0.23497630019E+02  0.36212099152E+02  0.35678984086E+02  0.56003969922E+02  0.00000000000E+00 0.  1.
         14    1    4    4    0    0 -0.97922380169E+01 -0.71267229575E+00  0.16738447284E+03  0.16767217293E+03  0.00000000000E+00 0. -1.
        -11    1    3    3    0    0  0.13527376187E+02 -0.54697415323E+02 -0.21755971714E+00  0.56345758330E+02  0.00000000000E+00 0.  1.
         11    1    3    3    0    0  0.30356025346E+02  0.37010078172E+02  0.22220619175E+01  0.47918386036E+02  0.00000000000E+00 0. -1.
         -4    1    1    2    0  502 -0.10593533497E+02 -0.17812089706E+02  0.64734435647E+02  0.67970880898E+02  0.00000000000E+00 0.  1.
<scales pt_clust_5="13000.00000" pt_clust_6="13000.00000" pt_clust_7="13000.00000" pt_clust_8="13000.00000" pt_clust_9="20.72422"></scales>
<clustering>
<clus scale="   20.724">  1  9  2 -1</clus>
<clus scale="   80.174">  5  6 -1 -1</clus>
<clus scale="   92.864">  1  5  2 -1</clus>
<clus scale="   92.889">  7  8 -1 -1</clus>
<clus scale="   20.724">  1  5  2 -1</clus>
</clustering>
</event>
<event>
 9    2  0.1723348E-004  0.9394278E+02  0.7546771E-02  0.1302777E+00
          2   -1    0    0  502    0 -0.00000000000E+00  0.00000000000E+00  0.51074975469E+03  0.51074975469E+03  0.00000000000E+00 0. -1.
         21   -1    0    0  501  502  0.00000000000E+00 -0.00000000000E+00 -0.34673523353E+02  0.34673523353E+02  0.00000000000E+00 0. -1.
         24    2    1    2    0    0  0.13821259016E+02 -0.21866704739E+02  0.33462481501E+03  0.34442160754E+03  0.77351774041E+02 0.  0.
         23    2    1    2    0    0  0.17105695126E+02 -0.13659865907E+02  0.84305318150E+02  0.12694567647E+03  0.92350535268E+02 0.  0.
        -13    1    3    3    0    0 -0.76373345130E+01  0.26872233287E+02  0.99986330726E+02  0.10381576052E+03  0.00000000000E+00 0.  1.
         14    1    3    3    0    0  0.21458593529E+02 -0.48738938026E+02  0.23463848428E+03  0.24060584702E+03  0.00000000000E+00 0. -1.
        -11    1    4    4    0    0 -0.16956181951E+02 -0.14418730218E+02 -0.11649202408E+02  0.25122018315E+02  0.00000000000E+00 0. -1.
         11    1    4    4    0    0  0.34061877077E+02  0.75886431096E+00  0.95954520558E+02  0.10182365816E+03  0.00000000000E+00 0.  1.
          1    1    1    2  501    0 -0.30926954142E+02  0.35526570646E+02  0.57146098180E+02  0.74055994029E+02  0.00000000000E+00 0. -1.
<scales pt_clust_5="13000.00000" pt_clust_6="13000.00000" pt_clust_7="13000.00000" pt_clust_8="13000.00000" pt_clust_9="47.10216"></scales>
<clustering>
<clus scale="   47.102">  2  9  1 -1</clus>
<clus scale="   77.352">  5  6 -1 -1</clus>
<clus scale="   79.246">  1  5  2 -1</clus>
<clus scale="   92.351">  7  8 -1 -1</clus>
<clus scale="   47.102">  2  5  1 -1</clus>
</clustering>
</event>
<event>
 9    2  0.1723348E-004  0.2407096E+03  0.7546771E-02  0.1151860E+00
         21   -1    0    0  501  502  0.00000000000E+00  0.00000000000E+00  0.52536307249E+02  0.52536307249E+02  0.00000000000E+00 0.  1.
          2   -1    0    0  502    0 -0.00000000000E+00 -0.00000000000E+00 -0.19534710273E+04  0.19534710273E+04  0.00000000000E+00 0. -1.
         24    2    1    2    0    0  0.72587225284E+02 -0.13927959000E+02 -0.37119270245E+03  0.38689536773E+03  0.80256525644E+02 0.  0.
         23    2    1    2    0    0  0.80157458527E+01 -0.21660921199E+03 -0.40837912995E+03  0.47146265105E+03  0.92302300401E+02 0.  0.
        -11    1    3    3    0    0  0.48973998493E+02 -0.46206920486E+02 -0.26503145698E+03  0.27345055351E+03  0.00000000000E+00 0.  1.
         12    1    3    3    0    0  0.23613226791E+02  0.32278961486E+02 -0.10616124547E+03  0.11344481422E+03  0.00000000000E+00 0. -1.
        -11    1    4    4    0    0 -0.23652853544E+02 -0.94573199768E+02 -0.25448198386E+03  0.27251537150E+03  0.00000000000E+00 0. -1.
         11    1    4    4    0    0  0.31668599397E+02 -0.12203601222E+03 -0.15389714609E+03  0.19894727955E+03  0.00000000000E+00 0.  1.
          1    1    1    2  501    0 -0.80602971136E+02  0.23053717099E+03 -0.11213628877E+04  0.11476493158E+04  0.00000000000E+00 0. -1.
<scales pt_clust_5="13000.00000" pt_clust_6="13000.00000" pt_clust_7="13000.00000" pt_clust_8="13000.00000" pt_clust_9="222.30940"></scales>
<clustering>
<clus scale="   80.257">  5  6 -1 -1</clus>
<clus scale="   92.302">  7  8 -1 -1</clus>
<clus scale="  109.105">  2  5  1 -1</clus>
<clus scale="  222.309">  1  9  2 -1</clus>
<clus scale="  222.309">  1  5  2 -1</clus>
</clustering>
</event>
<event>
 9    2  0.1723348E-004  0.1044815E+03  0.7546771E-02  0.1275438E+00
          2   -1    0    0  502    0 -0.00000000000E+00  0.00000000000E+00  0.90391141288E+03  0.90391141288E+03  0.00000000000E+00 0. -1.
         21   -1    0    0  501  502  0.00000000000E+00 -0.00000000000E+00 -0.25296313216E+02  0.25296313216E+02  0.00000000000E+00 0.  1.
         24    2    1    2    0    0 -0.41062870745E+02  0.26576656183E+02  0.59175803608E+03  0.59921216915E+03  0.80530568009E+02 0.  0.
         23    2    1    2    0    0  0.75390099795E+02  0.54256677316E-02  0.23134812419E+03  0.25952422886E+03  0.90261861391E+02 0.  0.
        -11    1    3    3    0    0 -0.15229469850E+02 -0.27653989318E+02  0.14244506160E+03  0.14590159509E+03  0.00000000000E+00 0.  1.
         12    1    3    3    0    0 -0.25833400895E+02  0.54230645501E+02  0.44931297449E+03  0.45331057406E+03  0.00000000000E+00 0. -1.
        -11    1    4    4    0    0  0.31137271799E+02  0.50850071192E+01  0.90710079930E+01  0.32827887207E+02  0.00000000000E+00 0.  1.
         11    1    4    4    0    0  0.44252827996E+02 -0.50795814515E+01  0.22227711619E+03  0.22669634165E+03  0.00000000000E+00 0. -1.
          1    1    1    2  501    0 -0.34327229049E+02 -0.26582081851E+02  0.55508939391E+02  0.70471328085E+02  0.00000000000E+00 0. -1.
<scales pt_clust_5="13000.00000" pt_clust_6="13000.00000" pt_clust_7="13000.00000" pt_clust_8="13000.00000" pt_clust_9="43.41619"></scales>
<clustering>
<clus scale="   43.416">  2  9  1 -1</clus>
<clus scale="   80.531">  5  6 -1 -1</clus>
<clus scale="   90.262">  7  8 -1 -1</clus>
<clus scale="   96.200">  1  5  2 -1</clus>
<clus scale="   43.416">  2  5  1 -1</clus>
</clustering>
</event>
<event>
 9    2  0.1723348E-004  0.9320831E+02  0.7546771E-02  0.1300618E+00
         21   -1    0    0  501  502  0.00000000000E+00  0.00000000000E+00  0.13166283457E+03  0.13166283457E+03  0.00000000000E+00 0.  1.
          2   -1    0    0  502    0 -0.00000000000E+00 -0.00000000000E+00 -0.15426021276E+03  0.15426021276E+03  0.00000000000E+00 0. -1.
         23    2    1    2    0    0  0.26901895843E+01  0.24651377113E+01 -0.40429283537E+02  0.99859192113E+02  0.91236052404E+02 0.  0.
         24    2    1    2    0    0 -0.21263979473E+02  0.66256255527E+02  0.34189874715E+02  0.11302141056E+03  0.82236509483E+02 0.  0.
        -13    1    4    4    0    0 -0.22871821647E+02  0.79422747794E+01  0.47384434840E+02  0.53211696263E+02  0.00000000000E+00 0.  1.
         14    1    4    4    0    0  0.16078421731E+01  0.58313980747E+02 -0.13194560125E+02  0.59809714294E+02  0.00000000000E+00 0. -1.
        -13    1    3    3    0    0 -0.32947044696E+01  0.46297935916E+02 -0.26658486333E+02  0.53525964178E+02  0.00000000000E+00 0. -1.
         13    1    3    3    0    0  0.59848940539E+01 -0.43832798204E+02 -0.13770797204E+02  0.46333227935E+02  0.00000000000E+00 0.  1.
          1    1    1    2  501    0  0.18573789889E+02 -0.68721393238E+02 -0.16357969369E+02  0.73042444656E+02  0.00000000000E+00 0. -1.
<scales pt_clust_5="13000.00000" pt_clust_6="13000.00000" pt_clust_7="13000.00000" pt_clust_8="13000.00000" pt_clust_9="71.18722"></scales>
<clustering>
<clus scale="   71.187">  1  9  2 -1</clus>
<clus scale="   82.237">  5  6 -1 -1</clus>
<clus scale="   84.419">  1  5  2 -1</clus>
<clus scale="   91.236">  7  8 -1 -1</clus>
<clus scale="   71.187">  1  5  2 -1</clus>
</clustering>
</event>
<event>
 9    2  0.1723348E-004  0.2110890E+03  0.7546771E-02  0.1141297E+00
          2   -1    0    0  502    0 -0.00000000000E+00  0.00000000000E+00  0.10506421406E+04  0.10506421406E+04  0.00000000000E+00 0. -1.
         21   -1    0    0  501  502  0.00000000000E+00 -0.00000000000E+00 -0.11406956336E+03  0.11406956336E+03  0.00000000000E+00 0. -1.
         24    2    1    2    0    0  0.15261213147E+03 -0.10306316392E+03  0.67862750996E+03  0.70820585898E+03  0.84307550057E+02 0.  0.
         23    2    1    2    0    0 -0.21288820164E+03  0.93366780445E+02  0.70766260188E+02  0.25962229992E+03  0.91417355849E+02 0.  0.
        -11    1    3    3    0    0  0.29312468755E+02 -0.67316429333E+02  0.27661003788E+03  0.28618846157E+03  0.00000000000E+00 0.  1.
         12    1    3    3    0    0  0.12329966271E+03 -0.35746734591E+02  0.40201747208E+03  0.42201739741E+03  0.00000000000E+00 0. -1.
        -11    1    4    4    0    0 -0.18373620622E+03  0.98182655547E+02  0.87171148480E+02  0.22582656277E+03  0.00000000000E+00 0. -1.
         11    1    4    4    0    0 -0.29151995414E+02 -0.48158751014E+01 -0.16404888293E+02  0.33795737150E+02  0.00000000000E+00 0.  1.
          1    1    1    2  501    0  0.60276070168E+02  0.96963834779E+01  0.18717880714E+03  0.19688354510E+03  0.00000000000E+00 0. -1.
<scales pt_clust_5="13000.00000" pt_clust_6="13000.00000" pt_clust_7="13000.00000" pt_clust_8="13000.00000" pt_clust_9="61.05103"></scales>
<clustering>
<clus scale="   61.051">  2  9  1 -1</clus>
<clus scale="   84.308">  5  6 -1 -1</clus>
<clus scale="   91.417">  7  8 -1 -1</clus>
<clus scale="  208.109">  1  5  2 -1</clus>
<clus scale="   61.051">  2  5  1 -1</clus>
</clustering>
</event>
<event>
 9    2  0.1723348E-004  0.1526480E+03  0.7546771E-02  0.1214621E+00
         21   -1    0    0  501  502  0.00000000000E+00  0.00000000000E+00  0.73525965729E+03  0.73525965729E+03  0.00000000000E+00 0. -1.
          4   -1    0    0  502    0 -0.00000000000E+00 -0.00000000000E+00 -0.66878951010E+02  0.66878951010E+02  0.00000000000E+00 0. -1.
         23    2    1    2    0    0  0.43194825487E+02  0.41052959723E+02  0.14689071695E+03  0.18060881929E+03  0.86553592810E+02 0.  0.
         24    2    1    2    0    0  0.63454064097E+02 -0.10991248229E+03  0.10653538906E+03  0.18759092259E+03  0.87939712898E+02 0.  0.
        -11    1    4    4    0    0 -0.22299678981E+02 -0.22800840326E+02  0.26675761556E+02  0.41578242590E+02  0.00000000000E+00 0.  1.
         12    1    4    4    0    0  0.85753743078E+02 -0.87111641964E+02  0.79859627502E+02  0.14601268001E+03  0.00000000000E+00 0. -1.
        -11    1    3    3    0    0  0.15852301548E+02 -0.26377577042E+02  0.30381459625E+02  0.43244712092E+02  0.00000000000E+00 0. -1.
         11    1    3    3    0    0  0.27342523939E+02  0.67430536765E+02  0.11650925732E+03  0.13736410719E+03  0.00000000000E+00 0.  1.
          3    1    1    2  501    0 -0.10664888958E+03  0.68859522568E+02  0.41495460027E+03  0.43393886641E+03  0.00000000000E+00 0. -1.
<scales pt_clust_5="13000.00000" pt_clust_6="13000.00000" pt_clust_7="13000.00000" pt_clust_8="13000.00000" pt_clust_9="124.77183"></scales>
<clustering>
<clus scale="   86.554">  7  8 -1 -1</clus>
<clus scale="   87.940">  5  6 -1 -1</clus>
<clus scale="  105.084">  2  7  1 -1</clus>
<clus scale="  124.772">  1  9  2 -1</clus>
<clus scale="  124.772">  1  5  2 -1</clus>
</clustering>
</event>
<event>
 9    2  0.1723348E-004  0.1327062E+03  0.7546771E-02  0.1228472E+00
         -1   -1    0    0    0  501 -0.00000000000E+00  0.00000000000E+00  0.12918180242E+03  0.12918180242E+03  0.00000000000E+00 0.  1.
         21   -1    0    0  501  502  0.00000000000E+00 -0.00000000000E+00 -0.25035665834E+03  0.25035665834E+03  0.00000000000E+00 0.  1.
         23    2    1    2    0    0  0.57722651359E+02  0.72810703374E+02  0.54462709450E+02  0.14192803260E+03  0.92434175020E+02 0.  0.
         24    2    1    2    0    0 -0.78992781042E+02 -0.67459256760E+02 -0.10782835772E+03  0.16634230739E+03  0.72472047844E+02 0.  0.
        -13    1    4    4    0    0 -0.79317564120E+02 -0.77366150182E+02 -0.79614155603E+02  0.13643757160E+03  0.00000000000E+00 0.  1.
         14    1    4    4    0    0  0.32478307811E+00  0.99068934216E+01 -0.28214202117E+02  0.29904735786E+02  0.00000000000E+00 0. -1.
        -11    1    3    3    0    0  0.28222638651E+02  0.90602869671E+02  0.49780782646E+02  0.10716120402E+03  0.00000000000E+00 0.  1.
         11    1    3    3    0    0  0.29500012708E+02 -0.17792166297E+02  0.46819268031E+01  0.34766828586E+02  0.00000000000E+00 0. -1.
         -2    1    1    2    0  502  0.21270129683E+02 -0.53514466142E+01 -0.67809207647E+02  0.71268120778E+02  0.00000000000E+00 0.  1.
<scales pt_clust_5="13000.00000" pt_clust_6="13000.00000" pt_clust_7="13000.00000" pt_clust_8="13000.00000" pt_clust_9="21.93300"></scales>
<clustering>
<clus scale="   21.933">  2  9  1 -1</clus>
<clus scale="   72.472">  5  6 -1 -1</clus>
<clus scale="   92.434">  7  8 -1 -1</clus>
<clus scale="  119.662">  2  5  1 -1</clus>
<clus scale="   21.933">  2  5  1 -1</clus>
</clustering>
</event>
<event>
 9    2  0.1723348E-004  0.1215712E+03  0.7546771E-02  0.1247390E+00
         21   -1    0    0  501  502  0.00000000000E+00  0.00000000000E+00  0.24213685140E+02  0.24213685140E+02  0.00000000000E+00 0.  1.
          2   -1    0    0  502    0 -0.00000000000E+00 -0.00000000000E+00 -0.12069616350E+04  0.12069616350E+04  0.00000000000E+00 0. -1.
         24    2    1    2    0    0 -0.64909928847E+02  0.12843703304E+02 -0.87810061588E+03  0.88420176737E+03  0.79836171132E+02 0.  0.
         23    2    1    2    0    0  0.84670555811E+02 -0.71149862184E+01 -0.29769648747E+03  0.32525685771E+03  0.99745169248E+02 0.  0.
        -11    1    3    3    0    0 -0.37144299062E+02 -0.61758178116E+01 -0.12997172042E+03  0.13531625101E+03  0.00000000000E+00 0.  1.
         12    1    3    3    0    0 -0.27765629786E+02  0.19019521116E+02 -0.74812889546E+03  0.74888551636E+03  0.00000000000E+00 0. -1.
        -11    1    4    4    0    0  0.62181214995E+02 -0.46149625215E+02 -0.12726580477E+03  0.14897273733E+03  0.00000000000E+00 0.  1.
         11    1    4    4    0    0  0.22489340816E+02  0.39034638997E+02 -0.17043068270E+03  0.17628412038E+03  0.00000000000E+00 0. -1.
          1    1    1    2  501    0 -0.19760626963E+02 -0.57287170859E+01 -0.69508465166E+01  0.21716695069E+02  0.00000000000E+00 0. -1.
<scales pt_clust_5="13000.00000" pt_clust_6="13000.00000" pt_clust_7="13000.00000" pt_clust_8="13000.00000" pt_clust_9="20.57427"></scales>
<clustering>
<clus scale="   20.574">  1  9  2 -1</clus>
<clus scale="   79.836">  5  6 -1 -1</clus>
<clus scale="   99.745">  7  8 -1 -1</clus>
<clus scale="  105.850">  2  5  1 -1</clus>
<clus scale="   20.574">  1  5  2 -1</clus>
</clustering>
</event>
<event>
 9    2  0.1723348E-004  0.1604456E+03  0.7546771E-02  0.1189765E+00
         -3   -1    0    0    0  501 -0.00000000000E+00  0.00000000000E+00  0.17409996518E+03  0.17409996518E+03  0.00000000000E+00 0.  1.
         21   -1    0    0  501  502  0.00000000000E+00 -0.00000000000E+00 -0.34204339416E+03  0.34204339416E+03  0.00000000000E+00 0.  1.
         23    2    1    2    0    0  0.72174253604E+02  0.11492469908E+03  0.90967636435E+02  0.18651326000E+03  0.89973751362E+02 0.  0.
         24    2    1    2    0    0 -0.10072426058E+03 -0.74586276584E+02 -0.22524240830E+03  0.26983152328E+03  0.79789843565E+02 0.  0.
        -13    1    4    4    0    0 -0.80843647795E+02 -0.10831514710E+02 -0.13123935839E+03  0.15452115160E+03  0.00000000000E+00 0.  1.
         14    1    4    4    0    0 -0.19880612786E+02 -0.63754761873E+02 -0.94003049900E+02  0.11531037168E+03  0.00000000000E+00 0. -1.
        -11    1    3    3    0    0  0.63887786731E+02  0.54981240113E+02  0.93579681361E+02  0.12594341119E+03  0.00000000000E+00 0.  1.
         11    1    3    3    0    0  0.82864668736E+01  0.59943458967E+02 -0.26120449259E+01  0.60569848810E+02  0.00000000000E+00 0. -1.
         -4    1    1    2    0  502  0.28550006977E+02 -0.40338422496E+02 -0.33668657116E+02  0.59798576069E+02  0.00000000000E+00 0.  1.
<scales pt_clust_5="13000.00000" pt_clust_6="13000.00000" pt_clust_7="13000.00000" pt_clust_8="13000.00000" pt_clust_9="49.41954"></scales>
<clustering>
<clus scale="   49.420">  2  9  1 -1</clus>
<clus scale="   79.790">  5  6 -1 -1</clus>
<clus scale="   89.974">  7  8 -1 -1</clus>
<clus scale="  154.964">  2  5  1 -1</clus>
<clus scale="   49.420">  2  5  1 -1</clus>
</clustering>
</event>
<event>
 9    2  0.1723348E-004  0.2767629E+03  0.7546771E-02  0.1114869E+00
         21   -1    0    0  501  502  0.00000000000E+00  0.00000000000E+00  0.28537745910E+03  0.28537745910E+03  0.00000000000E+00 0. -1.
          2   -1    0    0  502    0 -0.00000000000E+00 -0.00000000000E+00 -0.47888825492E+03  0.47888825492E+03  0.00000000000E+00 0. -1.
         24    2    1    2    0    0  0.62616115772E+02 -0.14885980783E+03 -0.54922491127E+02  0.18543997853E+03  0.72742595932E+02 0.  0.
         23    2    1    2    0    0 -0.10501271009E+03  0.32470994684E+03 -0.39328857795E+01  0.35332002727E+03  0.91407632181E+02 0.  0.
        -11    1    3    3    0    0  0.65757815255E+02 -0.13682827912E+03 -0.26082829815E+02  0.15403370490E+03  0.00000000000E+00 0.  1.
         12    1    3    3    0    0 -0.31416994830E+01 -0.12031528718E+02 -0.28839661313E+02  0.31406273634E+02  0.00000000000E+00 0. -1.
        -11    1    4    4    0    0 -0.29405369975E+00  0.74233234212E+02  0.29301486247E+02  0.79807497301E+02  0.00000000000E+00 0.  1.
         11    1    4    4    0    0 -0.10471865639E+03  0.25047671263E+03 -0.33234372027E+02  0.27351252996E+03  0.00000000000E+00 0. -1.
          1    1    1    2  501    0  0.42396594315E+02 -0.17585013900E+03 -0.13465541891E+03  0.22550570822E+03  0.00000000000E+00 0. -1.
<scales pt_clust_5="13000.00000" pt_clust_6="13000.00000" pt_clust_7="13000.00000" pt_clust_8="13000.00000" pt_clust_9="261.23244"></scales>
<clustering>
<clus scale="   72.743">  5  6 -1 -1</clus>
<clus scale="   91.408">  7  8 -1 -1</clus>
<clus scale="  177.120">  2  5  1 -1</clus>
<clus scale="  261.232">  1  9  2 -1</clus>
<clus scale="  261.232">  1  5  2 -1</clus>
</clustering>
</event>
<event>
 9    2  0.1723348E-004  0.2213800E+03  0.7546771E-02  0.1169181E+00
          2   -1    0    0  502    0 -0.00000000000E+00  0.00000000000E+00  0.30288640884E+03  0.30288640884E+03  0.00000000000E+00 0. -1.
         21   -1    0    0  501  502  0.00000000000E+00 -0.00000000000E+00 -0.22474657087E+03  0.22474657087E+03  0.00000000000E+00 0. -1.
         24    2    1    2    0    0 -0.37804758240E+02 -0.35298274672E+02  0.29396519550E+02  0.98246951609E+02  0.78186573006E+02 0.  0.
         23    2    1    2    0    0 -0.17495184935E+03 -0.32929496717E+02  0.50003544950E+02  0.20595373180E+03  0.90686734377E+02 0.  0.
        -13    1    3    3    0    0 -0.18839087617E+02 -0.44922048489E+02 -0.13344277440E+02  0.50507142100E+02  0.00000000000E+00 0.  1.
         14    1    3    3    0    0 -0.18965670623E+02  0.96237738170E+01  0.42740796991E+02  0.47739809510E+02  0.00000000000E+00 0. -1.
        -11    1    4    4    0    0 -0.61914162634E+02  0.29753865202E+02  0.41897637072E+01  0.68820128953E+02  0.00000000000E+00 0.  1.
         11    1    4    4    0    0 -0.11303768671E+03 -0.62683361919E+02  0.45813781243E+02  0.13713360285E+03  0.00000000000E+00 0. -1.
          1    1    1    2  501    0  0.21275660759E+03  0.68227771389E+02 -0.12602265297E+01  0.22343229630E+03  0.00000000000E+00 0. -1.
<scales pt_clust_5="13000.00000" pt_clust_6="13000.00000" pt_clust_7="13000.00000" pt_clust_8="13000.00000" pt_clust_9="201.95297"></scales>
<clustering>
<clus scale="   78.187">  5  6 -1 -1</clus>
<clus scale="   90.687">  7  8 -1 -1</clus>
<clus scale="   93.746">  1  5  2 -1</clus>
<clus scale="  201.953">  2  9  1 -1</clus>
<clus scale="  201.953">  2  5  1 -1</clus>
</clustering>
</event>
<event>
 9    2  0.1723348E-004  0.2214680E+03  0.7546771E-02  0.1133518E+00
         21   -1    0    0  501  502  0.00000000000E+00  0.00000000000E+00  0.12396717922E+03  0.12396717922E+03  0.00000000000E+00 0. -1.
          2   -1    0    0  502    0 -0.00000000000E+00 -0.00000000000E+00 -0.48697513486E+03  0.48697513486E+03  0.00000000000E+00 0. -1.
         24    2    1    2    0    0 -0.21586611147E+03 -0.44794001578E+02 -0.21958361321E+03  0.32133514838E+03  0.80216168796E+02 0.  0.
         23    2    1    2    0    0  0.17107681118E+03  0.62760263402E+02 -0.11546056053E+03  0.23383225124E+03  0.90223360052E+02 0.  0.
        -13    1    3    3    0    0 -0.46276319594E+02 -0.19513657385E+02 -0.10119117950E+03  0.11296873633E+03  0.00000000000E+00 0.  1.
         14    1    3    3    0    0 -0.16958979187E+03 -0.25280344193E+02 -0.11839243371E+03  0.20836641205E+03  0.00000000000E+00 0. -1.
        -13    1    4    4    0    0  0.13963698916E+03  0.72072725066E+02 -0.12374201240E+03  0.20001262978E+03  0.00000000000E+00 0. -1.
         13    1    4    4    0    0  0.31439822015E+02 -0.93124616642E+01  0.82814518699E+01  0.33819621459E+02  0.00000000000E+00 0.  1.
          1    1    1    2  501    0  0.44789300289E+02 -0.17966261824E+02 -0.27963781901E+02  0.55774914456E+02  0.00000000000E+00 0. -1.
<scales pt_clust_5="13000.00000" pt_clust_6="13000.00000" pt_clust_7="13000.00000" pt_clust_8="13000.00000" pt_clust_9="48.25835"></scales>
<clustering>
<clus scale="   48.258">  1  9  2 -1</clus>
<clus scale="   80.216">  5  6 -1 -1</clus>
<clus scale="   90.223">  7  8 -1 -1</clus>
<clus scale="  217.583">  2  5  1 -1</clus>
<clus scale="   48.258">  1  5  2 -1</clus>
</clustering>
</event>
<event>
 9    2  0.1723348E-004  0.1021675E+03  0.7546771E-02  0.1279007E+00
          2   -1    0    0  502    0 -0.00000000000E+00  0.00000000000E+00  0.13272274730E+03  0.13272274730E+03  0.00000000000E+00 0. -1.
         21   -1    0    0  501  502  0.00000000000E+00 -0.00000000000E+00 -0.16755709749E+03  0.16755709749E+03  0.00000000000E+00 0.  1.
         23    2    1    2    0    0  0.29804553657E+01  0.37281883015E+02 -0.21532258100E+02  0.99733323058E+02  0.89912600196E+02 0.  0.
         24    2    1    2    0    0  0.26502713227E+02 -0.65318451408E+02 -0.70986300279E+02  0.12995775299E+03  0.82952208115E+02 0.  0.
        -11    1    4    4    0    0  0.33278945965E+02 -0.61615073620E+01 -0.60748648756E+02  0.69540281443E+02  0.00000000000E+00 0.  1.
         12    1    4    4    0    0 -0.67762327371E+01 -0.59156944046E+02 -0.10237651523E+02  0.60417471543E+02  0.00000000000E+00 0. -1.
        -13    1    3    3    0    0 -0.27058831590E+02 -0.11211779016E+02  0.14067172727E+02  0.32492609995E+02  0.00000000000E+00 0.  1.
         13    1    3    3    0    0  0.30039286956E+02  0.48493662031E+02 -0.35599430827E+02  0.67240713063E+02  0.00000000000E+00 0. -1.
          1    1    1    2  501    0 -0.29483168593E+02  0.28036568393E+02  0.57684208188E+02  0.70588768737E+02  0.00000000000E+00 0. -1.
<scales pt_clust_5="13000.00000" pt_clust_6="13000.00000" pt_clust_7="13000.00000" pt_clust_8="13000.00000" pt_clust_9="40.68548"></scales>
<clustering>
<clus scale="   40.685">  2  9  1 -1</clus>
<clus scale="   82.952">  5  6 -1 -1</clus>
<clus scale="   89.913">  7  8 -1 -1</clus>
<clus scale="   96.099">  2  5  1 -1</clus>
<clus scale="   40.685">  2  5  1 -1</clus>
</clustering>
</event>
<event>
 9    2  0.1723348E-004  0.1337585E+03  0.7546771E-02  0.1224297E+00
          2   -1    0    0  502    0 -0.00000000000E+00  0.00000000000E+00  0.84015523614E+03  0.84015523614E+03  0.00000000000E+00 0. -1.
         21   -1    0    0  501  502  0.00000000000E+00 -0.00000000000E+00 -0.31886744237E+02  0.31886744237E+02  0.00000000000E+00 0. -1.
         24    2    1    2    0    0  0.45181442788E+02  0.11127802591E+03  0.50860676904E+03  0.52866802006E+03  0.79905369605E+02 0.  0.
         23    2    1    2    0    0 -0.37243021211E+02 -0.61797727367E+02  0.23414502862E+03  0.26088907864E+03  0.89628205331E+02 0.  0.
        -11    1    3    3    0    0 -0.84297190956E+01  0.67226905689E+02  0.16959307009E+03  0.18262619318E+03  0.00000000000E+00 0.  1.
         12    1    3    3    0    0  0.53611161884E+02  0.44051120224E+02  0.33901369895E+03  0.34604182688E+03  0.00000000000E+00 0. -1.
        -13    1    4    4    0    0  0.27707612656E+02 -0.17114524998E+02  0.10136823030E+03  0.10647129603E+03  0.00000000000E+00 0.  1.
         13    1    4    4    0    0 -0.64950633867E+02 -0.44683202368E+02  0.13277679832E+03  0.15441778261E+03  0.00000000000E+00 0. -1.
          1    1    1    2  501    0 -0.79384215766E+01 -0.49480298546E+02  0.65516694246E+02  0.82484881683E+02  0.00000000000E+00 0. -1.
<scales pt_clust_5="13000.00000" pt_clust_6="13000.00000" pt_clust_7="13000.00000" pt_clust_8="13000.00000" pt_clust_9="50.11306"></scales>
<clustering>
<clus scale="   50.113">  2  9  1 -1</clus>
<clus scale="   79.905">  5  6 -1 -1</clus>
<clus scale="   89.628">  7  8 -1 -1</clus>
<clus scale="  127.448">  1  5  2 -1</clus>
<clus scale="   50.113">  2  5  1 -1</clus>
</clustering>
</event>
<event>
 9    2  0.1723348E-004  0.3309142E+03  0.7546771E-02  0.1070733E+00
          2   -1    0    0  502    0 -0.00000000000E+00  0.00000000000E+00  0.95430935114E+03  0.95430935114E+03  0.00000000000E+00 0. -1.
         21   -1    0    0  501  502  0.00000000000E+00 -0.00000000000E+00 -0.11346190841E+03  0.11346190841E+03  0.00000000000E+00 0.  1.
         24    2    1    2    0    0 -0.16665918764E+03 -0.84489031631E+02  0.13809899261E+03  0.24567936111E+03  0.79833172448E+02 0.  0.
         23    2    1    2    0    0 -0.99519156073E+01 -0.88230640828E+02  0.76099074387E+02  0.14850967841E+03  0.91544354570E+02 0.  0.
        -11    1    3    3    0    0 -0.16389709112E+03 -0.90626854000E+02  0.11089222061E+03  0.21765240117E+03  0.00000000000E+00 0.  1.
         12    1    3    3    0    0 -0.27620965211E+01  0.61378223691E+01  0.27206772001E+02  0.28026959937E+02  0.00000000000E+00 0. -1.
        -11    1    4    4    0    0  0.10720409091E+02 -0.50702062627E+02 -0.95928333652E+01  0.52703403853E+02  0.00000000000E+00 0.  1.
         11    1    4    4    0    0 -0.20672324698E+02 -0.37528578201E+02  0.85691907752E+02  0.95806274556E+02  0.00000000000E+00 0. -1.
          1    1    1    2  501    0  0.17661110325E+03  0.17271967246E+03  0.62664937572E+03  0.67358222003E+03  0.00000000000E+00 0. -1.
<scales pt_clust_5="13000.00000" pt_clust_6="13000.00000" pt_clust_7="13000.00000" pt_clust_8="13000.00000" pt_clust_9="247.02961"></scales>
<clustering>
<clus scale="   79.833">  5  6 -1 -1</clus>
<clus scale="   91.544">  7  8 -1 -1</clus>
<clus scale="  126.065">  5  7 -1 -1</clus>
<clus scale="  247.030">  2  9  1 -1</clus>
<clus scale="  247.030">  2  5  1 -1</clus>
</clustering>
</event>
<event>
 9    2  0.1723348E-004  0.3088661E+03  0.7546771E-02  0.1098930E+00
         21   -1    0    0  501  502  0.00000000000E+00  0.00000000000E+00  0.22205716369E+03  0.22205716369E+03  0.00000000000E+00 0. -1.
          2   -1    0    0  502    0 -0.00000000000E+00 -0.00000000000E+00 -0.12384731918E+04  0.12384731918E+04  0.00000000000E+00 0. -1.
         24    2    1    2    0    0  0.14018804263E+03  0.10198746434E+03 -0.73605140624E+03  0.76060479597E+03  0.81815969380E+02 0.  0.
         23    2    1    2    0    0 -0.59205122007E+02 -0.35665074389E+03 -0.18560981787E+03  0.41639409346E+03  0.90708527657E+02 0.  0.
        -11    1    3    3    0    0  0.42264968716E+02  0.79186481247E+02 -0.30174797335E+03  0.31481528841E+03  0.00000000000E+00 0.  1.
         12    1    3    3    0    0  0.97923073912E+02  0.22800983093E+02 -0.43430343289E+03  0.44578950756E+03  0.00000000000E+00 0. -1.
        -13    1    4    4    0    0 -0.28362025617E+02 -0.10570865452E+03 -0.12900464436E+02  0.11020501858E+03  0.00000000000E+00 0.  1.
         13    1    4    4    0    0 -0.30843096390E+02 -0.25094208936E+03 -0.17270935343E+03  0.30618907487E+03  0.00000000000E+00 0. -1.
          1    1    1    2  501    0 -0.80982920621E+02  0.25466327955E+03 -0.94754804051E+02  0.28353146611E+03  0.00000000000E+00 0. -1.
<scales pt_clust_5="13000.00000" pt_clust_6="13000.00000" pt_clust_7="13000.00000" pt_clust_8="13000.00000" pt_clust_9="295.24610"></scales>
<clustering>
<clus scale="   81.816">  5  6 -1 -1</clus>
<clus scale="   90.709">  7  8 -1 -1</clus>
<clus scale="  191.698">  2  5  1 -1</clus>
<clus scale="  295.246">  1  9  2 -1</clus>
<clus scale="  295.246">  1  5  2 -1</clus>
</clustering>
</event>
<event>
 9    2  0.1723348E-004  0.1906726E+03  0.7546771E-02  0.1159702E+00
          2   -1    0    0  502    0 -0.00000000000E+00  0.00000000000E+00  0.20610549026E+03  0.20610549026E+03  0.00000000000E+00 0. -1.
         21   -1    0    0  501  502  0.00000000000E+00 -0.00000000000E+00 -0.39768479926E+03  0.39768479926E+03  0.00000000000E+00 0. -1.
         24    2    1    2    0    0  0.52135358029E+02  0.21434620679E+03  0.39152277048E+02  0.23628711282E+03  0.75075341935E+02 0.  0.
         23    2    1    2    0    0 -0.72858033970E+02 -0.82883559580E+02 -0.74838058229E+02  0.16252842478E+03  0.92934258155E+02 0.  0.
        -13    1    3    3    0    0  0.26823682225E+02  0.33043147197E+02  0.31710289450E+02  0.53074494457E+02  0.00000000000E+00 0.  1.
         14    1    3    3    0    0  0.25311675804E+02  0.18130305959E+03  0.74419875974E+01  0.18321261837E+03  0.00000000000E+00 0. -1.
        -11    1    4    4    0    0 -0.72907131125E+02 -0.39611977121E+02 -0.84246671340E+02  0.11824576158E+03  0.00000000000E+00 0.  1.
         11    1    4    4    0    0  0.49097155284E-01 -0.43271582459E+02  0.94086131110E+01  0.44282663196E+02  0.00000000000E+00 0. -1.
          1    1    1    2  501    0  0.20722675941E+02 -0.13146264721E+03 -0.15589352782E+03  0.20497475192E+03  0.00000000000E+00 0. -1.
<scales pt_clust_5="13000.00000" pt_clust_6="13000.00000" pt_clust_7="13000.00000" pt_clust_8="13000.00000" pt_clust_9="133.08590"></scales>
<clustering>
<clus scale="   75.075">  5  6 -1 -1</clus>
<clus scale="   92.934">  7  8 -1 -1</clus>
<clus scale="  133.086">  2  9  1 -1</clus>
<clus scale="  182.635">  1  5  2 -1</clus>
<clus scale="  133.086">  2  5  1 -1</clus>
</clustering>
</event>
<event>
 9    2  0.1723348E-004  0.1192535E+03  0.7546771E-02  0.1256909E+00
         -3   -1    0    0    0  501 -0.00000000000E+00  0.00000000000E+00  0.30126131235E+03  0.30126131235E+03  0.00000000000E+00 0.  1.
         21   -1    0    0  501  502  0.00000000000E+00 -0.00000000000E+00 -0.20581901178E+03  0.20581901178E+03  0.00000000000E+00 0.  1.
         23    2    1    2    0    0 -0.20840173675E+02  0.21947047019E+02  0.21598913826E+03  0.24598583015E+03  0.11376174699E+03 0.  0.
         24    2    1    2    0    0  0.11034204612E+03  0.25106127625E+01 -0.96769885932E+02  0.16531294185E+03  0.76041354541E+02 0.  0.
        -13    1    4    4    0    0  0.11740392651E+03 -0.11715666226E+02 -0.87816830502E+02  0.14708070748E+03  0.00000000000E+00 0.  1.
         14    1    4    4    0    0 -0.70618803846E+01  0.14226278988E+02 -0.89530554299E+01  0.18232234365E+02  0.00000000000E+00 0. -1.
        -13    1    3    3    0    0 -0.17615747837E+01  0.39159801788E+02  0.21676253612E+03  0.22027843809E+03  0.00000000000E+00 0.  1.
         13    1    3    3    0    0 -0.19078598891E+02 -0.17212754769E+02 -0.77339786140E+00  0.25707392062E+02  0.00000000000E+00 0. -1.
         -4    1    1    2    0  502 -0.89501872446E+02 -0.24457659781E+02 -0.23776951760E+02  0.95781552130E+02  0.00000000000E+00 0.  1.
<scales pt_clust_5="13000.00000" pt_clust_6="13000.00000" pt_clust_7="13000.00000" pt_clust_8="13000.00000" pt_clust_9="92.78342"></scales>
<clustering>
<clus scale="   76.041">  5  6 -1 -1</clus>
<clus scale="   92.783">  2  9  1 -1</clus>
<clus scale="   92.783">  2  5  1 -1</clus>
<clus scale="  113.762">  7  8 -1 -1</clus>
<clus scale="   92.783">  2  5  1 -1</clus>
</clustering>
</event>
<event>
 9    2  0.1723348E-004  0.1007867E+03  0.7546771E-02  0.1283131E+00
         21   -1    0    0  501  502  0.00000000000E+00  0.00000000000E+00  0.66965528171E+02  0.66965528171E+02  0.00000000000E+00 0. -1.
          2   -1    0    0  502    0 -0.00000000000E+00 -0.00000000000E+00 -0.36498284622E+03  0.36498284622E+03  0.00000000000E+00 0. -1.
         24    2    1    2    0    0 -0.71977053923E+01  0.47238757381E+02 -0.14936076239E+03  0.17645376046E+03  0.80894901423E+02 0.  0.
         23    2    1    2    0    0 -0.27238557398E+02 -0.36435377871E+02  0.15354259550E+01  0.10102713987E+03  0.90192292834E+02 0.  0.
        -13    1    3    3    0    0  0.33585652813E+02  0.29206672500E+01 -0.55045745944E+02  0.64548900212E+02  0.00000000000E+00 0.  1.
         14    1    3    3    0    0 -0.40783358206E+02  0.44318090131E+02 -0.94315016450E+02  0.11190486025E+03  0.00000000000E+00 0. -1.
        -11    1    4    4    0    0  0.26259653117E+02 -0.39496729231E+02  0.61942432822E+00  0.47433581862E+02  0.00000000000E+00 0. -1.
         11    1    4    4    0    0 -0.53498210515E+02  0.30613513594E+01  0.91600162676E+00  0.53593558003E+02  0.00000000000E+00 0.  1.
          1    1    1    2  501    0  0.34436262790E+02 -0.10803379510E+02 -0.15019198161E+03  0.15446747406E+03  0.00000000000E+00 0. -1.
<scales pt_clust_5="13000.00000" pt_clust_6="13000.00000" pt_clust_7="13000.00000" pt_clust_8="13000.00000" pt_clust_9="36.09114"></scales>
<clustering>
<clus scale="   36.091">  1  9  2 -1</clus>
<clus scale="   80.895">  5  6 -1 -1</clus>
<clus scale="   90.192">  7  8 -1 -1</clus>
<clus scale="   92.560">  2  5  1 -1</clus>
<clus scale="   36.091">  1  5  2 -1</clus>
</clustering>
</event>
<event>
 9    2  0.1723348E-004  0.2312083E+03  0.7546771E-02  0.1142307E+00
         -1   -1    0    0    0  501 -0.00000000000E+00  0.00000000000E+00  0.15344420964E+03  0.15344420964E+03  0.00000000000E+00 0.  1.
         21   -1    0    0  501  502  0.00000000000E+00 -0.00000000000E+00 -0.85477933558E+03  0.85477933558E+03  0.00000000000E+00 0.  1.
         24    2    1    2    0    0 -0.12235035409E+03 -0.49436732107E+02  0.48391594237E+01  0.15464678677E+03  0.80489822755E+02 0.  0.
         23    2    1    2    0    0 -0.41956815431E+02  0.20660343175E+03 -0.22493177296E+03  0.32132439991E+03  0.90607478256E+02 0.  0.
        -11    1    3    3    0    0 -0.51791211242E+02 -0.27549932541E+01  0.37453881087E+02  0.63974313268E+02  0.00000000000E+00 0.  1.
         12    1    3    3    0    0 -0.70559142849E+02 -0.46681738852E+02 -0.32614721663E+02  0.90672473503E+02  0.00000000000E+00 0. -1.
        -13    1    4    4    0    0 -0.20830141547E+02  0.19179951924E+03 -0.15725538399E+03  0.24889798346E+03  0.00000000000E+00 0.  1.
         13    1    4    4    0    0 -0.21126673885E+02  0.14803912511E+02 -0.67676388972E+02  0.72426416447E+02  0.00000000000E+00 0. -1.
         -2    1    1    2    0  502  0.16430716952E+03 -0.15716669964E+03 -0.48124251240E+03  0.53225235854E+03  0.00000000000E+00 0.  1.
<scales pt_clust_5="13000.00000" pt_clust_6="13000.00000" pt_clust_7="13000.00000" pt_clust_8="13000.00000" pt_clust_9="212.71477"></scales>
<clustering>
<clus scale="   80.490">  5  6 -1 -1</clus>
<clus scale="   90.607">  7  8 -1 -1</clus>
<clus scale="  154.571">  1  5  2 -1</clus>
<clus scale="  212.715">  2  9  1 -1</clus>
<clus scale="  212.715">  2  5  1 -1</clus>
</clustering>
</event>
<event>
 9    2  0.1723348E-004  0.1497586E+03  0.7546771E-02  0.1202744E+00
          2   -1    0    0  502    0 -0.00000000000E+00  0.00000000000E+00  0.15269617310E+04  0.15269617310E+04  0.00000000000E+00 0. -1.
         21   -1    0    0  501  502  0.00000000000E+00 -0.00000000000E+00 -0.79867578200E+02  0.79867578200E+02  0.00000000000E+00 0. -1.
         24    2    1    2    0    0 -0.11462879969E+03 -0.13001942293E+02  0.11581406718E+04  0.11665261035E+04  0.78641733302E+02 0.  0.
         23    2    1    2    0    0  0.14021881113E+03  0.20130437838E+02  0.34206642586E+03  0.38091760951E+03  0.89566935966E+02 0.  0.
        -11    1    3    3    0    0 -0.47612471218E+02 -0.17629311582E+02  0.21164560117E+03  0.21765017928E+03  0.00000000000E+00 0.  1.
         12    1    3    3    0    0 -0.67016328468E+02  0.46273692889E+01  0.94649507059E+03  0.94887592418E+03  0.00000000000E+00 0. -1.
        -11    1    4    4    0    0  0.84127972880E+02 -0.32910073849E+02  0.17921121587E+03  0.20069192479E+03  0.00000000000E+00 0.  1.
         11    1    4    4    0    0  0.56090838248E+02  0.53040511687E+02  0.16285520999E+03  0.18022568473E+03  0.00000000000E+00 0. -1.
          1    1    1    2  501    0 -0.25590011442E+02 -0.71284955446E+01 -0.53112944813E+02  0.59385596242E+02  0.00000000000E+00 0. -1.
<scales pt_clust_5="13000.00000" pt_clust_6="13000.00000" pt_clust_7="13000.00000" pt_clust_8="13000.00000" pt_clust_9="26.56434"></scales>
<clustering>
<clus scale="   26.564">  2  9  1 -1</clus>
<clus scale="   78.642">  5  6 -1 -1</clus>
<clus scale="   89.567">  7  8 -1 -1</clus>
<clus scale="  143.492">  1  5  2 -1</clus>
<clus scale="   26.564">  2  5  1 -1</clus>
</clustering>
</event>
<event>
 9    2  0.1723348E-004  0.3118205E+03  0.7546771E-02  0.1102946E+00
         -3   -1    0    0    0  501 -0.00000000000E+00  0.00000000000E+00  0.11154824782E+04  0.11154824782E+04  0.00000000000E+00 0.  1.
         21   -1    0    0  501  502  0.00000000000E+00 -0.00000000000E+00 -0.14610728730E+03  0.14610728730E+03  0.00000000000E+00 0.  1.
         24    2    1    2    0    0 -0.12303963789E+03  0.80104266578E+02  0.23452859142E+03  0.28842939215E+03  0.81439597560E+02 0.  0.
         23    2    1    2    0    0  0.18584376934E+03 -0.32506587572E+03  0.44209752832E+03  0.58631083211E+03  0.90024647414E+02 0.  0.
        -11    1    3    3    0    0 -0.98921547728E+02  0.28819340323E+02  0.19081734945E+03  0.21685775945E+03  0.00000000000E+00 0.  1.
         12    1    3    3    0    0 -0.24118090159E+02  0.51284926255E+02  0.43711241967E+02  0.71571632706E+02  0.00000000000E+00 0. -1.
        -11    1    4    4    0    0  0.13491827771E+03 -0.14534195553E+03  0.22780855837E+03  0.30203305277E+03  0.00000000000E+00 0. -1.
         11    1    4    4    0    0  0.50925491635E+02 -0.17972392019E+03  0.21428896995E+03  0.28427777934E+03  0.00000000000E+00 0.  1.
         -4    1    1    2    0  502 -0.62804131454E+02  0.24496160914E+03  0.29274907112E+03  0.38684954119E+03  0.00000000000E+00 0.  1.
<scales pt_clust_5="13000.00000" pt_clust_6="13000.00000" pt_clust_7="13000.00000" pt_clust_8="13000.00000" pt_clust_9="298.54245"></scales>
<clustering>
<clus scale="   81.440">  5  6 -1 -1</clus>
<clus scale="   90.025">  7  8 -1 -1</clus>
<clus scale="  167.892">  1  5  2 -1</clus>
<clus scale="  298.542">  2  9  1 -1</clus>
<clus scale="  298.542">  2  5  1 -1</clus>
</clustering>
</event>
<event>
 9    2  0.1723348E-004  0.3508246E+03  0.7546771E-02  0.1114190E+00
          2   -1    0    0  502    0 -0.00000000000E+00  0.00000000000E+00  0.22576212568E+04  0.22576212568E+04  0.00000000000E+00 0. -1.
         21   -1    0    0  501  502  0.00000000000E+00 -0.00000000000E+00 -0.82842282716E+02  0.82842282716E+02  0.00000000000E+00 0. -1.
         24    2    1    2    0    0  0.37866851755E+02 -0.57044057840E+01  0.51304099658E+03  0.52061212487E+03  0.79746358433E+02 0.  0.
         23    2    1    2    0    0 -0.12566335979E+02 -0.33276012812E+03  0.11841765716E+04  0.12339646908E+04  0.97506357021E+02 0.  0.
        -11    1    3    3    0    0  0.56652732667E+02 -0.17293894616E+01  0.22852593998E+03  0.23544984211E+03  0.00000000000E+00 0.  1.
         12    1    3    3    0    0 -0.18785880911E+02 -0.39750163223E+01  0.28451505660E+03  0.28516228276E+03  0.00000000000E+00 0. -1.
        -13    1    4    4    0    0  0.22931869866E+02 -0.29211559375E+03  0.99882854530E+03  0.10409206760E+04  0.00000000000E+00 0. -1.
         13    1    4    4    0    0 -0.35498205844E+02 -0.40644534370E+02  0.18534802632E+03  0.19304401481E+03  0.00000000000E+00 0.  1.
          1    1    1    2  501    0 -0.25300515777E+02  0.33846453390E+03  0.47756140589E+03  0.58588672387E+03  0.00000000000E+00 0. -1.
<scales pt_clust_5="13000.00000" pt_clust_6="13000.00000" pt_clust_7="13000.00000" pt_clust_8="13000.00000" pt_clust_9="337.00210"></scales>
<clustering>
<clus scale="   79.746">  5  6 -1 -1</clus>
<clus scale="   88.464">  1  5  2 -1</clus>
<clus scale="   97.506">  7  8 -1 -1</clus>
<clus scale="  337.002">  2  9  1 -1</clus>
<clus scale="  337.002">  2  5  1 -1</clus>
</clustering>
</event>
<event>
 9    2  0.1723348E-004  0.1934735E+03  0.7546771E-02  0.1185925E+00
          2   -1    0    0  502    0 -0.00000000000E+00  0.00000000000E+00  0.84856664820E+03  0.84856664820E+03  0.00000000000E+00 0. -1.
         21   -1    0    0  501  502  0.00000000000E+00 -0.00000000000E+00 -0.72908648645E+02  0.72908648645E+02  0.00000000000E+00 0. -1.
         23    2    1    2    0    0 -0.24344545072E+02  0.13068162370E+02  0.55329468072E+02  0.11100789901E+03  0.92184433947E+02 0.  0.
         24    2    1    2    0    0  0.96813042479E+02  0.14883427452E+03  0.37073907272E+03  0.41845097999E+03  0.78290204671E+02 0.  0.
        -11    1    4    4    0    0  0.22685960907E+02 -0.19317154752E+01  0.23587339576E+02  0.32783333193E+02  0.00000000000E+00 0.  1.
         12    1    4    4    0    0  0.74127081572E+02  0.15076598999E+03  0.34715173314E+03  0.38566764679E+03  0.00000000000E+00 0. -1.
        -13    1    3    3    0    0 -0.47900767783E+02 -0.83337066165E+01  0.17053466163E+01  0.48650204802E+02  0.00000000000E+00 0. -1.
         13    1    3    3    0    0  0.23556222711E+02  0.21401868986E+02  0.53624121456E+02  0.62357694204E+02  0.00000000000E+00 0.  1.
          1    1    1    2  501    0 -0.72468497407E+02 -0.16190243689E+03  0.34958945876E+03  0.39201641785E+03  0.00000000000E+00 0. -1.
<scales pt_clust_5="13000.00000" pt_clust_6="13000.00000" pt_clust_7="13000.00000" pt_clust_8="13000.00000" pt_clust_9="176.92559"></scales>
<clustering>
<clus scale="   78.290">  5  6 -1 -1</clus>
<clus scale="   92.184">  7  8 -1 -1</clus>
<clus scale="   96.236">  1  7  2 -1</clus>
<clus scale="  176.926">  2  9  1 -1</clus>
<clus scale="  176.926">  2  5  1 -1</clus>
</clustering>
</event>
<event>
 9    2  0.1723348E-004  0.9109618E+02  0.7546771E-02  0.1305039E+00
         -1   -1    0    0    0  501 -0.00000000000E+00  0.00000000000E+00  0.23370875897E+03  0.23370875897E+03  0.00000000000E+00 0.  1.
         21   -1    0    0  501  502  0.00000000000E+00 -0.00000000000E+00 -0.18826575375E+03  0.18826575375E+03  0.00000000000E+00 0.  1.
         23    2    1    2    0    0  0.18382120246E+01  0.25473754288E+02  0.18206108596E+03  0.20412086028E+03  0.88694957012E+02 0.  0.
         24    2    1    2    0    0 -0.25732595380E+02  0.47910459765E+01 -0.99758877170E+01  0.85471082799E+02  0.80750647505E+02 0.  0.
        -11    1    4    4    0    0 -0.38786656899E+02  0.34668180484E+02 -0.93818310646E+01  0.52861197920E+02  0.00000000000E+00 0.  1.
         12    1    4    4    0    0  0.13054061519E+02 -0.29877134507E+02 -0.59405665240E+00  0.32609884879E+02  0.00000000000E+00 0. -1.
        -11    1    3    3    0    0 -0.17881035074E+02  0.48062787169E+02  0.15660480100E+03  0.16478721620E+03  0.00000000000E+00 0.  1.
         11    1    3    3    0    0  0.19719247098E+02 -0.22589032881E+02  0.25456284951E+02  0.39333644074E+02  0.00000000000E+00 0. -1.
         -2    1    1    2    0  502  0.23894383355E+02 -0.30264800264E+02 -0.12664219302E+03  0.13238256964E+03  0.00000000000E+00 0.  1.
<scales pt_clust_5="13000.00000" pt_clust_6="13000.00000" pt_clust_7="13000.00000" pt_clust_8="13000.00000" pt_clust_9="38.56034"></scales>
<clustering>
<clus scale="   38.560">  2  9  1 -1</clus>
<clus scale="   80.751">  5  6 -1 -1</clus>
<clus scale="   83.381">  2  5  1 -1</clus>
<clus scale="   88.695">  7  8 -1 -1</clus>
<clus scale="   38.560">  2  5  1 -1</clus>
</clustering>
</event>
<event>
 9    2  0.1723348E-004  0.1076998E+03  0.7546771E-02  0.1270298E+00
         21   -1    0    0  501  502  0.00000000000E+00  0.00000000000E+00  0.20610654556E+03  0.20610654556E+03  0.00000000000E+00 0.  1.
         -1   -1    0    0    0  501 -0.00000000000E+00 -0.00000000000E+00 -0.13047789377E+03  0.13047789377E+03  0.00000000000E+00 0.  1.
         24    2    1    2    0    0 -0.23602928886E+02  0.49027678698E+02 -0.60735064010E+02  0.11516591523E+03  0.81324218416E+02 0.  0.
         23    2    1    2    0    0  0.67907564206E+02 -0.12015646249E+02  0.85647120159E+02  0.14457475838E+03  0.93864895126E+02 0.  0.
        -11    1    3    3    0    0 -0.36486533011E+02  0.62916136277E+02 -0.62824025237E+02  0.96107051989E+02  0.00000000000E+00 0.  1.
         12    1    3    3    0    0  0.12883604124E+02 -0.13888457579E+02  0.20889612269E+01  0.19058863245E+02  0.00000000000E+00 0. -1.
        -13    1    4    4    0    0 -0.83099910429E+01 -0.34335934431E+02  0.15367068842E+02  0.38524786167E+02  0.00000000000E+00 0. -1.
         13    1    4    4    0    0  0.76217555249E+02  0.22320288182E+02  0.70280051317E+02  0.10604997221E+03  0.00000000000E+00 0.  1.
         -2    1    1    2    0  502 -0.44304635320E+02 -0.37012032449E+02  0.50716595638E+02  0.76843765719E+02  0.00000000000E+00 0.  1.
<scales pt_clust_5="13000.00000" pt_clust_6="13000.00000" pt_clust_7="13000.00000" pt_clust_8="13000.00000" pt_clust_9="57.73033"></scales>
<clustering>
<clus scale="   57.730">  1  9  2 -1</clus>
<clus scale="   81.324">  5  6 -1 -1</clus>
<clus scale="   93.865">  7  8 -1 -1</clus>
<clus scale="   96.965">  2  5  1 -1</clus>
<clus scale="   57.730">  1  5  2 -1</clus>
</clustering>
</event>
<event>
 9    2  0.1723348E-004  0.1107678E+03  0.7546771E-02  0.1264564E+00
          2   -1    0    0  502    0 -0.00000000000E+00  0.00000000000E+00  0.16166595055E+04  0.16166595055E+04  0.00000000000E+00 0. -1.
         21   -1    0    0  501  502  0.00000000000E+00 -0.00000000000E+00 -0.26208373674E+02  0.26208373674E+02  0.00000000000E+00 0. -1.
         24    2    1    2    0    0  0.62388528089E+02 -0.34687247828E+02  0.13454658686E+04  0.13496169478E+04  0.78051063753E+02 0.  0.
         23    2    1    2    0    0 -0.84117934085E+01 -0.63244531033E+01  0.15675543615E+03  0.18198570822E+03  0.91846471136E+02 0.  0.
        -13    1    3    3    0    0  0.22268556962E+02  0.10645170276E+02  0.11295149444E+03  0.11561681701E+03  0.00000000000E+00 0.  1.
         14    1    3    3    0    0  0.40119971128E+02 -0.45332418104E+02  0.12325143742E+04  0.12340001308E+04  0.00000000000E+00 0. -1.
        -11    1    4    4    0    0 -0.40315924428E+02  0.21603167232E+02  0.10850997652E+03  0.11775604273E+03  0.00000000000E+00 0.  1.
         11    1    4    4    0    0  0.31904131019E+02 -0.27927620335E+02  0.48245459631E+02  0.64229665488E+02  0.00000000000E+00 0. -1.
          1    1    1    2  501    0 -0.53976734681E+02  0.41011700931E+02  0.88229827025E+02  0.11126522312E+03  0.00000000000E+00 0. -1.
<scales pt_clust_5="13000.00000" pt_clust_6="13000.00000" pt_clust_7="13000.00000" pt_clust_8="13000.00000" pt_clust_9="67.78973"></scales>
<clustering>
<clus scale="   67.790">  2  9  1 -1</clus>
<clus scale="   78.051">  5  6 -1 -1</clus>
<clus scale="   91.846">  7  8 -1 -1</clus>
<clus scale="   99.628">  1  5  2 -1</clus>
<clus scale="   67.790">  2  5  1 -1</clus>
</clustering>
</event>
<event>
 9    2  0.1723348E-004  0.1015170E+03  0.7546771E-02  0.1283391E+00
         21   -1    0    0  501  502  0.00000000000E+00  0.00000000000E+00  0.22811129250E+03  0.22811129250E+03  0.00000000000E+00 0. -1.
         -1   -1    0    0    0  501 -0.00000000000E+00 -0.00000000000E+00 -0.69910107177E+02  0.69910107177E+02  0.00000000000E+00 0.  1.
         23    2    1    2    0    0 -0.46240577145E+02 -0.16797355156E+02  0.25106437142E+02  0.10720244332E+03  0.91878662117E+02 0.  0.
         24    2    1    2    0    0  0.36013662726E+02 -0.19897720914E+02  0.12204686054E+03  0.15115569619E+03  0.79118298270E+02 0.  0.
        -11    1    4    4    0    0  0.14394014905E+02 -0.20454245876E+02 -0.21373066825E+01  0.25102428554E+02  0.00000000000E+00 0.  1.
         12    1    4    4    0    0  0.21619647821E+02  0.55652496218E+00  0.12418416722E+03  0.12605326763E+03  0.00000000000E+00 0. -1.
        -13    1    3    3    0    0 -0.57087151783E+02  0.13618561900E+02  0.40622199118E+02  0.71376264880E+02  0.00000000000E+00 0. -1.
         13    1    3    3    0    0  0.10846574639E+02 -0.30415917057E+02 -0.15515761976E+02  0.35826178438E+02  0.00000000000E+00 0.  1.
         -2    1    1    2    0  502  0.10226914419E+02  0.36695076070E+02  0.11047887641E+02  0.39663260174E+02  0.00000000000E+00 0.  1.
<scales pt_clust_5="13000.00000" pt_clust_6="13000.00000" pt_clust_7="13000.00000" pt_clust_8="13000.00000" pt_clust_9="38.09357"></scales>
<clustering>
<clus scale="   38.094">  1  9  2 -1</clus>
<clus scale="   79.118">  5  6 -1 -1</clus>
<clus scale="   90.132">  1  5  2 -1</clus>
<clus scale="   91.879">  7  8 -1 -1</clus>
<clus scale="   38.094">  1  5  2 -1</clus>
</clustering>
</event>
<event>
 9    2  0.1723348E-004  0.1401236E+03  0.7546771E-02  0.1214922E+00
         21   -1    0    0  501  502  0.00000000000E+00  0.00000000000E+00  0.35087440185E+02  0.35087440185E+02  0.00000000000E+00 0.  1.
          2   -1    0    0  502    0 -0.00000000000E+00 -0.00000000000E+00 -0.83606595138E+03  0.83606595138E+03  0.00000000000E+00 0. -1.
         24    2    1    2    0    0 -0.79210355853E+02 -0.46172564595E+02 -0.50854645140E+03  0.52613648540E+03  0.98964245236E+02 0.  0.
         23    2    1    2    0    0  0.89814294998E+02  0.77563094913E+02 -0.24307970981E+03  0.28557396404E+03  0.91553822107E+02 0.  0.
        -11    1    3    3    0    0 -0.40251660410E+02  0.10207205043E+02 -0.63684720312E+02  0.76027145164E+02  0.00000000000E+00 0.  1.
         12    1    3    3    0    0 -0.38958695443E+02 -0.56379769638E+02 -0.44486173109E+03  0.45010934023E+03  0.00000000000E+00 0. -1.
        -11    1    4    4    0    0  0.48250803756E+02  0.64113748195E+01 -0.16509323762E+03  0.17211921130E+03  0.00000000000E+00 0. -1.
         11    1    4    4    0    0  0.41563491242E+02  0.71151720093E+02 -0.77986472181E+02  0.11345475274E+03  0.00000000000E+00 0.  1.
          1    1    1    2  501    0 -0.10603939145E+02 -0.31390530318E+02 -0.49352349981E+02  0.59442942118E+02  0.00000000000E+00 0. -1.
<scales pt_clust_5="13000.00000" pt_clust_6="13000.00000" pt_clust_7="13000.00000" pt_clust_8="13000.00000" pt_clust_9="33.13320"></scales>
<clustering>
<clus scale="   33.133">  1  9  2 -1</clus>
<clus scale="   91.554">  7  8 -1 -1</clus>
<clus scale="   98.964">  5  6 -1 -1</clus>
<clus scale="  134.992">  1  7  2 -1</clus>
<clus scale="   33.133">  1  5  2 -1</clus>
</clustering>
</event>
<event>
 9    2  0.1723348E-004  0.1183478E+03  0.7546771E-02  0.1249866E+00
         21   -1    0    0  501  502  0.00000000000E+00  0.00000000000E+00  0.21360257560E+03  0.21360257560E+03  0.00000000000E+00 0. -1.
          2   -1    0    0  502    0 -0.00000000000E+00 -0.00000000000E+00 -0.63891305237E+03  0.63891305237E+03  0.00000000000E+00 0. -1.
         24    2    1    2    0    0 -0.64724325110E-01 -0.62272938283E+02 -0.35683759103E+03  0.37105548406E+03  0.80443662597E+02 0.  0.
         23    2    1    2    0    0 -0.34234445658E+02  0.10169296520E+03 -0.25284478557E+03  0.28982672034E+03  0.92496409636E+02 0.  0.
        -13    1    3    3    0    0 -0.11496050473E+02 -0.48055078227E+02 -0.82880221060E+02  0.96491350716E+02  0.00000000000E+00 0.  1.
         14    1    3    3    0    0  0.11431326148E+02 -0.14217860055E+02 -0.27395736997E+03  0.27456413335E+03  0.00000000000E+00 0. -1.
        -13    1    4    4    0    0 -0.43447355907E+02  0.91844745960E+01 -0.51147068023E+02  0.67735145060E+02  0.00000000000E+00 0.  1.
         13    1    4    4    0    0  0.92129102496E+01  0.92508490603E+02 -0.20169771755E+03  0.22209157528E+03  0.00000000000E+00 0. -1.
          1    1    1    2  501    0  0.34299169983E+02 -0.39420026916E+02  0.18437189983E+03  0.19163342357E+03  0.00000000000E+00 0. -1.
<scales pt_clust_5="13000.00000" pt_clust_6="13000.00000" pt_clust_7="13000.00000" pt_clust_8="13000.00000" pt_clust_9="52.25296"></scales>
<clustering>
<clus scale="   52.253">  1  9  2 -1</clus>
<clus scale="   80.444">  5  6 -1 -1</clus>
<clus scale="   92.496">  7  8 -1 -1</clus>
<clus scale="  109.187">  2  5  1 -1</clus>
<clus scale="   52.253">  1  5  2 -1</clus>
</clustering>
</event>
<event>
 9    2  0.1723348E-004  0.1624885E+03  0.7546771E-02  0.1186200E+00
         21   -1    0    0  501  502  0.00000000000E+00  0.00000000000E+00  0.11052677236E+03  0.11052677236E+03  0.00000000000E+00 0.  1.
         -3   -1    0    0    0  501 -0.00000000000E+00 -0.00000000000E+00 -0.48506994557E+03  0.48506994557E+03  0.00000000000E+00 0.  1.
         23    2    1    2    0    0 -0.78072879073E+02  0.11309380392E+03 -0.31305581981E+03  0.35255547516E+03  0.86057154361E+02 0.  0.
         24    2    1    2    0    0  0.11428293397E+03 -0.87326026203E+02 -0.90850656193E+02  0.18977446142E+03  0.84107553927E+02 0.  0.
        -11    1    4    4    0    0  0.11391966283E+03 -0.10075606057E+03 -0.89003269256E+02  0.17621309617E+03  0.00000000000E+00 0.  1.
         12    1    4    4    0    0  0.36327113489E+00  0.13430034369E+02 -0.18473869376E+01  0.13561365254E+02  0.00000000000E+00 0. -1.
        -13    1    3    3    0    0 -0.35329129276E+02 -0.66495260495E-01 -0.36989007336E+02  0.51150156018E+02  0.00000000000E+00 0.  1.
         13    1    3    3    0    0 -0.42743749797E+02  0.11316029918E+03 -0.27606681248E+03  0.30140531914E+03  0.00000000000E+00 0. -1.
         -4    1    1    2    0  502 -0.36210054895E+02 -0.25767777719E+02  0.29363302795E+02  0.53266781348E+02  0.00000000000E+00 0.  1.
<scales pt_clust_5="13000.00000" pt_clust_6="13000.00000" pt_clust_7="13000.00000" pt_clust_8="13000.00000" pt_clust_9="44.44262"></scales>
<clustering>
<clus scale="   44.443">  1  9  2 -1</clus>
<clus scale="   84.108">  5  6 -1 -1</clus>
<clus scale="   86.057">  7  8 -1 -1</clus>
<clus scale="  161.464">  1  5  2 -1</clus>
<clus scale="   44.443">  1  5  2 -1</clus>
</clustering>
</event>
<event>
 9    2  0.1723348E-004  0.1019418E+03  0.7546771E-02  0.1285094E+00
         -1   -1    0    0    0  501 -0.00000000000E+00  0.00000000000E+00  0.38104064120E+03  0.38104064120E+03  0.00000000000E+00 0.  1.
         21   -1    0    0  501  502  0.00000000000E+00 -0.00000000000E+00 -0.76995030643E+02  0.76995030643E+02  0.00000000000E+00 0.  1.
         24    2    1    2    0    0  0.20819190467E+02  0.61380904913E+02  0.22648205290E+03  0.24711260699E+03  0.74628855483E+02 0.  0.
         23    2    1    2    0    0  0.34545964552E+02  0.16851206103E+02  0.44953316670E+02  0.10968576243E+03  0.92373042525E+02 0.  0.
        -13    1    3    3    0    0  0.28376261216E+02  0.56959933533E+02  0.22925928483E+03  0.23792743832E+03  0.00000000000E+00 0.  1.
         14    1    3    3    0    0 -0.75570707493E+01  0.44209713804E+01 -0.27772319302E+01  0.91851686675E+01  0.00000000000E+00 0. -1.
        -11    1    4    4    0    0  0.49016610454E+02 -0.25479863331E+02  0.26891942313E+02  0.61441257288E+02  0.00000000000E+00 0.  1.
         11    1    4    4    0    0 -0.14470645903E+02  0.42331069434E+02  0.18061374357E+02  0.48244505137E+02  0.00000000000E+00 0. -1.
         -2    1    1    2    0  502 -0.55365155018E+02 -0.78232111016E+02  0.32610240988E+02  0.10123730242E+03  0.00000000000E+00 0.  1.
<scales pt_clust_5="13000.00000" pt_clust_6="13000.00000" pt_clust_7="13000.00000" pt_clust_8="13000.00000" pt_clust_9="95.84135"></scales>
<clustering>
<clus scale="   74.629">  5  6 -1 -1</clus>
<clus scale="   92.373">  7  8 -1 -1</clus>
<clus scale="   95.841">  2  9  1 -1</clus>
<clus scale="   86.191">  1  5  2 -1</clus>
<clus scale="   95.841">  2  5  1 -1</clus>
</clustering>
</event>
<event>
 9    2  0.1723348E-004  0.1750279E+03  0.7546771E-02  0.1174483E+00
         21   -1    0    0  501  502  0.00000000000E+00  0.00000000000E+00  0.43800382428E+02  0.43800382428E+02  0.00000000000E+00 0.  1.
          2   -1    0    0  502    0 -0.00000000000E+00 -0.00000000000E+00 -0.89112140898E+03  0.89112140898E+03  0.00000000000E+00 0. -1.
         24    2    1    2    0    0 -0.26851042385E+02 -0.14557960069E+03 -0.49153023021E+03  0.51942237291E+03  0.79266863497E+02 0.  0.
         23    2    1    2    0    0 -0.44321773284E+01  0.15076096331E+03 -0.26052834365E+03  0.31509811748E+03  0.93076815260E+02 0.  0.
        -11    1    3    3    0    0  0.25713934611E+02 -0.46834074579E+02 -0.11867259997E+03  0.13014539161E+03  0.00000000000E+00 0.  1.
         12    1    3    3    0    0 -0.52564976996E+02 -0.98745526113E+02 -0.37285763025E+03  0.38927698130E+03  0.00000000000E+00 0. -1.
        -11    1    4    4    0    0 -0.39496947052E+02  0.88256280956E+02 -0.98999456100E+02  0.13838378613E+03  0.00000000000E+00 0.  1.
         11    1    4    4    0    0  0.35064769723E+02  0.62504682358E+02 -0.16152888755E+03  0.17671433136E+03  0.00000000000E+00 0. -1.
          1    1    1    2  501    0  0.31283219714E+02 -0.51813626218E+01 -0.95262452689E+02  0.10040130102E+03  0.00000000000E+00 0. -1.
<scales pt_clust_5="13000.00000" pt_clust_6="13000.00000" pt_clust_7="13000.00000" pt_clust_8="13000.00000" pt_clust_9="31.70942"></scales>
<clustering>
<clus scale="   31.709">  1  9  2 -1</clus>
<clus scale="   79.267">  5  6 -1 -1</clus>
<clus scale="   93.077">  7  8 -1 -1</clus>
<clus scale="  168.091">  2  5  1 -1</clus>
<clus scale="   31.709">  1  5  2 -1</clus>
</clustering>
</event>
<event>
 9    2  0.1723348E-004  0.1097828E+03  0.7546771E-02  0.1265267E+00
          2   -1    0    0  502    0 -0.00000000000E+00  0.00000000000E+00  0.41840300561E+03  0.41840300561E+03  0.00000000000E+00 0. -1.
         21   -1    0    0  501  502  0.00000000000E+00 -0.00000000000E+00 -0.41379789138E+02  0.41379789138E+02  0.00000000000E+00 0. -1.
         24    2    1    2    0    0 -0.23092401705E+02  0.64376376879E+02  0.28167178591E+03  0.30077116291E+03  0.80291472425E+02 0.  0.
         23    2    1    2    0    0  0.13385599224E+02 -0.41268624958E+02  0.84684054593E+02  0.13177226467E+03  0.91160665656E+02 0.  0.
        -13    1    3    3    0    0  0.10685766277E+02  0.49114269965E+02  0.71761471443E+02  0.87613388810E+02  0.00000000000E+00 0.  1.
         14    1    3    3    0    0 -0.33778167982E+02  0.15262106914E+02  0.20991031447E+03  0.21315777410E+03  0.00000000000E+00 0. -1.
        -13    1    4    4    0    0 -0.11142054016E+02  0.26228984621E+02  0.17575317012E+02  0.33481289850E+02  0.00000000000E+00 0. -1.
         13    1    4    4    0    0  0.24527653240E+02 -0.67497609579E+02  0.67108737581E+02  0.98290974825E+02  0.00000000000E+00 0.  1.
          1    1    1    2  501    0  0.97068024812E+01 -0.23107751922E+02  0.10667375967E+02  0.27239367160E+02  0.00000000000E+00 0. -1.
<scales pt_clust_5="13000.00000" pt_clust_6="13000.00000" pt_clust_7="13000.00000" pt_clust_8="13000.00000" pt_clust_9="25.06372"></scales>
<clustering>
<clus scale="   25.064">  2  9  1 -1</clus>
<clus scale="   80.291">  5  6 -1 -1</clus>
<clus scale="   91.161">  7  8 -1 -1</clus>
<clus scale="  100.939">  1  5  2 -1</clus>
<clus scale="   25.064">  2  5  1 -1</clus>
</clustering>
</event>
<event>
 9    2  0.1723348E-004  0.1018893E+03  0.7546771E-02  0.1288793E+00
          2   -1    0    0  502    0 -0.00000000000E+00  0.00000000000E+00  0.12966988443E+03  0.12966988443E+03  0.00000000000E+00 0. -1.
         21   -1    0    0  501  502  0.00000000000E+00 -0.00000000000E+00 -0.99628950938E+02  0.99628950938E+02  0.00000000000E+00 0.  1.
         23    2    1    2    0    0 -0.29278717458E+02 -0.13625496531E+02  0.44458445715E+02  0.10715185845E+03  0.91989509844E+02 0.  0.
         24    2    1    2    0    0  0.55766056206E+02  0.24764158857E+02 -0.25780397131E+01  0.91069299697E+02  0.67556305923E+02 0.  0.
        -11    1    4    4    0    0  0.39612489500E+02  0.26330077463E+02 -0.32098107788E+02  0.57382147286E+02  0.00000000000E+00 0.  1.
         12    1    4    4    0    0  0.16153566706E+02 -0.15659186063E+01  0.29520068075E+02  0.33687152411E+02  0.00000000000E+00 0. -1.
        -11    1    3    3    0    0 -0.50304548986E+02  0.20073387718E+02  0.11112341086E+02  0.55289896614E+02  0.00000000000E+00 0.  1.
         11    1    3    3    0    0  0.21025831528E+02 -0.33698884249E+02  0.33346104629E+02  0.51861961832E+02  0.00000000000E+00 0. -1.
          1    1    1    2  501    0 -0.26487338748E+02 -0.11138662326E+02 -0.11839472511E+02  0.31077677225E+02  0.00000000000E+00 0. -1.
<scales pt_clust_5="13000.00000" pt_clust_6="13000.00000" pt_clust_7="13000.00000" pt_clust_8="13000.00000" pt_clust_9="28.73411"></scales>
<clustering>
<clus scale="   28.734">  2  9  1 -1</clus>
<clus scale="   67.556">  5  6 -1 -1</clus>
<clus scale="   80.518">  2  5  1 -1</clus>
<clus scale="   91.990">  7  8 -1 -1</clus>
<clus scale="   28.734">  2  5  1 -1</clus>
</clustering>
</event>
<event>
 9    2  0.1723348E-004  0.1181990E+03  0.7546771E-02  0.1251104E+00
         21   -1    0    0  501  502  0.00000000000E+00  0.00000000000E+00  0.35978306511E+02  0.35978306511E+02  0.00000000000E+00 0.  1.
          2   -1    0    0  502    0 -0.00000000000E+00 -0.00000000000E+00 -0.70878848523E+03  0.70878848523E+03  0.00000000000E+00 0. -1.
         23    2    1    2    0    0  0.97393575997E+02  0.77479227323E+00 -0.30157087340E+03  0.32991571064E+03  0.91723909066E+02 0.  0.
         24    2    1    2    0    0 -0.42343197418E+02  0.35832348864E+02 -0.10867505277E+03  0.14409175314E+03  0.76650261804E+02 0.  0.
        -13    1    4    4    0    0 -0.44337258646E+01 -0.21559570951E+02 -0.10939390975E+02  0.24579326669E+02  0.00000000000E+00 0.  1.
         14    1    4    4    0    0 -0.37909471553E+02  0.57391919815E+02 -0.97735661796E+02  0.11951242647E+03  0.00000000000E+00 0. -1.
        -13    1    3    3    0    0  0.85988277835E+02  0.29762786241E+02 -0.15216036981E+03  0.17729237296E+03  0.00000000000E+00 0.  1.
         13    1    3    3    0    0  0.11405298162E+02 -0.28987993968E+02 -0.14941050359E+03  0.15262333768E+03  0.00000000000E+00 0. -1.
          1    1    1    2  501    0 -0.55050378579E+02 -0.36607141137E+02 -0.26256425255E+03  0.27075932797E+03  0.00000000000E+00 0. -1.
<scales pt_clust_5="13000.00000" pt_clust_6="13000.00000" pt_clust_7="13000.00000" pt_clust_8="13000.00000" pt_clust_9="66.11075"></scales>
<clustering>
<clus scale="   66.111">  1  9  2 -1</clus>
<clus scale="   76.650">  5  6 -1 -1</clus>
<clus scale="   91.724">  7  8 -1 -1</clus>
<clus scale="  106.925">  1  5  2 -1</clus>
<clus scale="   66.111">  1  5  2 -1</clus>
</clustering>
</event>
<event>
 9    2  0.1723348E-004  0.9247598E+02  0.7546771E-02  0.1297416E+00
          2   -1    0    0  502    0 -0.00000000000E+00  0.00000000000E+00  0.16941741915E+03  0.16941741915E+03  0.00000000000E+00 0. -1.
         21   -1    0    0  501  502  0.00000000000E+00 -0.00000000000E+00 -0.10146300991E+03  0.10146300991E+03  0.00000000000E+00 0. -1.
         24    2    1    2    0    0 -0.57786525898E+02 -0.78824197827E+01  0.80215821713E+02  0.12854684630E+03  0.81782018340E+02 0.  0.
         23    2    1    2    0    0  0.29698013576E+01  0.23132323669E+01 -0.23701755862E+02  0.86059515962E+02  0.82645606613E+02 0.  0.
        -11    1    3    3    0    0 -0.11552510877E+02  0.35270331767E+02  0.27058433212E+02  0.45930552124E+02  0.00000000000E+00 0.  1.
         12    1    3    3    0    0 -0.46234015021E+02 -0.43152751550E+02  0.53157388501E+02  0.82616294177E+02  0.00000000000E+00 0. -1.
        -11    1    4    4    0    0  0.23140049642E+01  0.39803928583E+02 -0.27404170184E+02  0.48380738865E+02  0.00000000000E+00 0.  1.
         11    1    4    4    0    0  0.65579639348E+00 -0.37490696216E+02  0.37024143215E+01  0.37678777097E+02  0.00000000000E+00 0. -1.
          1    1    1    2  501    0  0.54816724540E+02  0.55691874158E+01  0.11440343389E+02  0.56274066804E+02  0.00000000000E+00 0. -1.
<scales pt_clust_5="13000.00000" pt_clust_6="13000.00000" pt_clust_7="13000.00000" pt_clust_8="13000.00000" pt_clust_9="55.09890"></scales>
<clustering>
<clus scale="   55.099">  2  9  1 -1</clus>
<clus scale="   81.782">  5  6 -1 -1</clus>
<clus scale="   82.646">  7  8 -1 -1</clus>
<clus scale="   91.705">  1  5  2 -1</clus>
<clus scale="   55.099">  2  5  1 -1</clus>
</clustering>
</event>
<event>
 9    2  0.1723348E-004  0.1105439E+03  0.7546771E-02  0.1263598E+00
          2   -1    0    0  502    0 -0.00000000000E+00  0.00000000000E+00  0.29255547374E+03  0.29255547374E+03  0.00000000000E+00 0. -1.
         21   -1    0    0  501  502  0.00000000000E+00 -0.00000000000E+00 -0.86321935753E+02  0.86321935753E+02  0.00000000000E+00 0. -1.
         24    2    1    2    0    0 -0.27928734786E+02  0.63623014899E+02  0.15682502886E+03  0.18934164948E+03  0.80176482223E+02 0.  0.
         23    2    1    2    0    0  0.46713880248E+02 -0.20329336836E+02 -0.19726058784E+02  0.10582905340E+03  0.90637754854E+02 0.  0.
        -13    1    3    3    0    0 -0.48640243250E+02  0.66231839498E+02  0.10403320229E+03  0.13257238402E+03  0.00000000000E+00 0.  1.
         14    1    3    3    0    0  0.20711508464E+02 -0.26088245990E+01  0.52791826569E+02  0.56769265463E+02  0.00000000000E+00 0. -1.
        -13    1    4    4    0    0  0.27642010189E+02  0.35325796711E+02 -0.12433473336E+02  0.46546577744E+02  0.00000000000E+00 0. -1.
         13    1    4    4    0    0  0.19071870059E+02 -0.55655133547E+02 -0.72925854479E+01  0.59282475658E+02  0.00000000000E+00 0.  1.
          1    1    1    2  501    0 -0.18785145462E+02 -0.43293678064E+02  0.69134567920E+02  0.83706706612E+02  0.00000000000E+00 0. -1.
<scales pt_clust_5="13000.00000" pt_clust_6="13000.00000" pt_clust_7="13000.00000" pt_clust_8="13000.00000" pt_clust_9="47.19350"></scales>
<clustering>
<clus scale="   47.194">  2  9  1 -1</clus>
<clus scale="   80.176">  5  6 -1 -1</clus>
<clus scale="   90.638">  7  8 -1 -1</clus>
<clus scale="  102.142">  1  5  2 -1</clus>
<clus scale="   47.194">  2  5  1 -1</clus>
</clustering>
</event>
<event>
 9    2  0.1723348E-004  0.1987454E+03  0.7546771E-02  0.1175177E+00
         -1   -1    0    0    0  501 -0.00000000000E+00  0.00000000000E+00  0.71025027642E+03  0.71025027642E+03  0.00000000000E+00 0.  1.
         21   -1    0    0  501  502  0.00000000000E+00 -0.00000000000E+00 -0.18595518968E+03  0.18595518968E+03  0.00000000000E+00 0.  1.
         24    2    1    2    0    0  0.46619322623E+02 -0.64029907840E+02  0.43969762535E+03  0.45398924541E+03  0.80616641398E+02 0.  0.
         23    2    1    2    0    0  0.10081557498E+03  0.15960797839E+03  0.14599045457E+03  0.25609444278E+03  0.92912129835E+02 0.  0.
        -13    1    3    3    0    0  0.14160729734E+02 -0.74927759094E+02  0.25549815109E+03  0.26663458245E+03  0.00000000000E+00 0.  1.
         14    1    3    3    0    0  0.32458592889E+02  0.10897851255E+02  0.18419947426E+03  0.18735466296E+03  0.00000000000E+00 0. -1.
        -11    1    4    4    0    0  0.69346639226E+02  0.10817471218E+03  0.14770427254E+03  0.19577353461E+03  0.00000000000E+00 0.  1.
         11    1    4    4    0    0  0.31468935756E+02  0.51433266204E+02 -0.17138179639E+01  0.60320908167E+02  0.00000000000E+00 0. -1.
         -2    1    1    2    0  502 -0.14743489760E+03 -0.95578070549E+02 -0.61392993178E+02  0.18612177791E+03  0.00000000000E+00 0.  1.
<scales pt_clust_5="13000.00000" pt_clust_6="13000.00000" pt_clust_7="13000.00000" pt_clust_8="13000.00000" pt_clust_9="175.69031"></scales>
<clustering>
<clus scale="   80.617">  5  6 -1 -1</clus>
<clus scale="   92.912">  7  8 -1 -1</clus>
<clus scale="  113.014">  1  5  2 -1</clus>
<clus scale="  175.690">  2  9  1 -1</clus>
<clus scale="  175.690">  2  5  1 -1</clus>
</clustering>
</event>
<event>
 9    2  0.1723348E-004  0.1627265E+03  0.7546771E-02  0.1193352E+00
         -1   -1    0    0    0  501 -0.00000000000E+00  0.00000000000E+00  0.12018307234E+04  0.12018307234E+04  0.00000000000E+00 0.  1.
         21   -1    0    0  501  502  0.00000000000E+00 -0.00000000000E+00 -0.51408339478E+02  0.51408339478E+02  0.00000000000E+00 0.  1.
         24    2    1    2    0    0  0.30214518211E+02  0.10775295985E+03  0.18876658618E+03  0.23338881751E+03  0.79460044129E+02 0.  0.
         23    2    1    2    0    0 -0.11882066890E+03  0.41522988598E+02  0.33297077956E+03  0.36763922828E+03  0.91905126016E+02 0.  0.
        -13    1    3    3    0    0  0.92432967992E+01  0.92370601757E+02  0.18516543682E+03  0.20713282115E+03  0.00000000000E+00 0.  1.
         14    1    3    3    0    0  0.20971221411E+02  0.15382358096E+02  0.36011493577E+01  0.26255996359E+02  0.00000000000E+00 0. -1.
        -13    1    4    4    0    0 -0.83811998761E+02  0.63018029336E+02  0.17143804173E+03  0.20096448768E+03  0.00000000000E+00 0.  1.
         13    1    4    4    0    0 -0.35008670142E+02 -0.21495040739E+02  0.16153273783E+03  0.16667474060E+03  0.00000000000E+00 0. -1.
         -2    1    1    2    0  502  0.88606150693E+02 -0.14927594845E+03  0.62868501818E+03  0.65221101708E+03  0.00000000000E+00 0.  1.
<scales pt_clust_5="13000.00000" pt_clust_6="13000.00000" pt_clust_7="13000.00000" pt_clust_8="13000.00000" pt_clust_9="134.28838"></scales>
<clustering>
<clus scale="   79.460">  5  6 -1 -1</clus>
<clus scale="   91.905">  7  8 -1 -1</clus>
<clus scale="  137.250">  1  5  2 -1</clus>
<clus scale="  134.288">  2  9  1 -1</clus>
<clus scale="  134.288">  2  5  1 -1</clus>
</clustering>
</event>
<event>
 9    2  0.1723348E-004  0.9960783E+02  0.7546771E-02  0.1288437E+00
         -1   -1    0    0    0  501 -0.00000000000E+00  0.00000000000E+00  0.25946371724E+03  0.25946371724E+03  0.00000000000E+00 0.  1.
         21   -1    0    0  501  502  0.00000000000E+00 -0.00000000000E+00 -0.88184192452E+02  0.88184192452E+02  0.00000000000E+00 0. -1.
         24    2    1    2    0    0 -0.12710816513E+02 -0.35891512823E+02  0.13926435260E+03  0.16487665689E+03  0.79624032397E+02 0.  0.
         23    2    1    2    0    0 -0.10960941570E+02  0.18027472170E+02 -0.40807669003E+02  0.10414147295E+03  0.93461481617E+02 0.  0.
        -11    1    3    3    0    0 -0.26967132209E+02 -0.47085678328E+02  0.49982974794E+02  0.73773878117E+02  0.00000000000E+00 0.  1.
         12    1    3    3    0    0  0.14256315695E+02  0.11194165504E+02  0.89281377804E+02  0.91102778778E+02  0.00000000000E+00 0. -1.
        -13    1    4    4    0    0 -0.27891185211E+02  0.34737507141E+02 -0.59188035734E+02  0.74079931081E+02  0.00000000000E+00 0. -1.
         13    1    4    4    0    0  0.16930243641E+02 -0.16710034971E+02  0.18380366731E+02  0.30061541871E+02  0.00000000000E+00 0.  1.
         -2    1    1    2    0  502  0.23671758083E+02  0.17864040654E+02  0.72822841192E+02  0.78629779845E+02  0.00000000000E+00 0.  1.
<scales pt_clust_5="13000.00000" pt_clust_6="13000.00000" pt_clust_7="13000.00000" pt_clust_8="13000.00000" pt_clust_9="29.65598"></scales>
<clustering>
<clus scale="   29.656">  2  9  1 -1</clus>
<clus scale="   79.624">  5  6 -1 -1</clus>
<clus scale="   86.756">  1  5  2 -1</clus>
<clus scale="   93.461">  7  8 -1 -1</clus>
<clus scale="   29.656">  2  5  1 -1</clus>
</clustering>
</event>
<event>
 9    2  0.1723348E-004  0.4189283E+03  0.7546771E-02  0.1065498E+00
         21   -1    0    0  501  502  0.00000000000E+00  0.00000000000E+00  0.35440272199E+03  0.35440272199E+03  0.00000000000E+00 0. -1.
          2   -1    0    0  502    0 -0.00000000000E+00 -0.00000000000E+00 -0.77430619107E+03  0.77430619107E+03  0.00000000000E+00 0. -1.
         24    2    1    2    0    0 -0.15927313984E+03 -0.58652466126E+02 -0.81652796818E+01  0.18858118071E+03  0.81781080132E+02 0.  0.
         23    2    1    2    0    0 -0.26621442082E+02  0.42443152657E+03 -0.20906410311E+03  0.48249479877E+03  0.90788819309E+02 0.  0.
        -11    1    3    3    0    0 -0.16781765318E+03 -0.49084210069E+02 -0.11805260364E+02  0.17524665066E+03  0.00000000000E+00 0.  1.
         12    1    3    3    0    0  0.85445133376E+01 -0.95682560576E+01  0.36399806817E+01  0.13334530045E+02  0.00000000000E+00 0. -1.
        -13    1    4    4    0    0  0.13142921744E+02  0.52870485762E+02 -0.57598644380E+02  0.79281955646E+02  0.00000000000E+00 0.  1.
         13    1    4    4    0    0 -0.39764363825E+02  0.37156104080E+03 -0.15146545873E+03  0.40321284313E+03  0.00000000000E+00 0. -1.
          1    1    1    2  501    0  0.18589458192E+03 -0.36577906044E+03 -0.20267408628E+03  0.45763293358E+03  0.00000000000E+00 0. -1.
<scales pt_clust_5="13000.00000" pt_clust_6="13000.00000" pt_clust_7="13000.00000" pt_clust_8="13000.00000" pt_clust_9="408.97228"></scales>
<clustering>
<clus scale="   81.781">  5  6 -1 -1</clus>
<clus scale="   90.789">  7  8 -1 -1</clus>
<clus scale="  188.404">  2  5  1 -1</clus>
<clus scale="  408.972">  1  9  2 -1</clus>
<clus scale="  408.972">  1  5  2 -1</clus>
</clustering>
</event>
<event>
 9    2  0.1723348E-004  0.1211563E+03  0.7546771E-02  0.1244853E+00
         21   -1    0    0  501  502  0.00000000000E+00  0.00000000000E+00  0.35645135253E+03  0.35645135253E+03  0.00000000000E+00 0. -1.
         -1   -1    0    0    0  501 -0.00000000000E+00 -0.00000000000E+00 -0.65575246043E+02  0.65575246043E+02  0.00000000000E+00 0.  1.
         24    2    1    2    0    0 -0.31753515891E+02 -0.71255650515E+02  0.54431686410E+02  0.12515225243E+03  0.81330340600E+02 0.  0.
         23    2    1    2    0    0  0.71638041915E+02  0.47307603463E+02  0.13349087340E+03  0.18389772401E+03  0.92889941439E+02 0.  0.
        -13    1    3    3    0    0  0.22946591345E+01 -0.55789833377E+02 -0.37786702540E+01  0.55964714935E+02  0.00000000000E+00 0.  1.
         14    1    3    3    0    0 -0.34048175025E+02 -0.15465817138E+02  0.58210356664E+02  0.69187537500E+02  0.00000000000E+00 0. -1.
        -11    1    4    4    0    0  0.18573561922E+02  0.64268183229E+02  0.49963322120E+02  0.83496767215E+02  0.00000000000E+00 0.  1.
         11    1    4    4    0    0  0.53064479993E+02 -0.16960579766E+02  0.83527551277E+02  0.10040095679E+03  0.00000000000E+00 0. -1.
         -2    1    1    2    0  502 -0.39884526024E+02  0.23948047053E+02  0.10295354668E+03  0.11297662213E+03  0.00000000000E+00 0.  1.
<scales pt_clust_5="13000.00000" pt_clust_6="13000.00000" pt_clust_7="13000.00000" pt_clust_8="13000.00000" pt_clust_9="46.52187"></scales>
<clustering>
<clus scale="   46.522">  1  9  2 -1</clus>
<clus scale="   81.330">  5  6 -1 -1</clus>
<clus scale="   92.890">  7  8 -1 -1</clus>
<clus scale="  112.539">  2  5  1 -1</clus>
<clus scale="   46.522">  1  5  2 -1</clus>
</clustering>
</event>
<event>
 9    2  0.1723348E-004  0.9934469E+02  0.7546771E-02  0.1286561E+00
         -1   -1    0    0    0  501 -0.00000000000E+00  0.00000000000E+00  0.37449760136E+02  0.37449760136E+02  0.00000000000E+00 0.  1.
         21   -1    0    0  501  502  0.00000000000E+00 -0.00000000000E+00 -0.56440900390E+03  0.56440900390E+03  0.00000000000E+00 0. -1.
         23    2    1    2    0    0 -0.26925633518E+02 -0.29772397938E+02 -0.54664968561E+02  0.11317751755E+03  0.90606325787E+02 0.  0.
         24    2    1    2    0    0  0.44021574032E+02  0.18353812890E+02 -0.44328705363E+03  0.45312742573E+03  0.80909150317E+02 0.  0.
        -13    1    4    4    0    0  0.31778535397E+02  0.43951390031E+02 -0.17170807355E+03  0.18007015999E+03  0.00000000000E+00 0.  1.
         14    1    4    4    0    0  0.12243038636E+02 -0.25597577142E+02 -0.27157898008E+03  0.27305726574E+03  0.00000000000E+00 0. -1.
        -13    1    3    3    0    0  0.83962000936E+01 -0.55032063582E+02 -0.31380790755E+02  0.63904446062E+02  0.00000000000E+00 0. -1.
         13    1    3    3    0    0 -0.35321833611E+02  0.25259665644E+02 -0.23284177806E+02  0.49273071491E+02  0.00000000000E+00 0.  1.
         -2    1    1    2    0  502 -0.17095940515E+02  0.11418585048E+02 -0.29007221571E+02  0.35553820749E+02  0.00000000000E+00 0.  1.
<scales pt_clust_5="13000.00000" pt_clust_6="13000.00000" pt_clust_7="13000.00000" pt_clust_8="13000.00000" pt_clust_9="20.55859"></scales>
<clustering>
<clus scale="   20.559">  2  9  1 -1</clus>
<clus scale="   80.909">  5  6 -1 -1</clus>
<clus scale="   90.588">  2  5  1 -1</clus>
<clus scale="   90.606">  7  8 -1 -1</clus>
<clus scale="   20.559">  2  5  1 -1</clus>
</clustering>
</event>
<event>
 9    2  0.1723348E-004  0.1002095E+03  0.7546771E-02  0.1284870E+00
         21   -1    0    0  501  502  0.00000000000E+00  0.00000000000E+00  0.60082133517E+02  0.60082133517E+02  0.00000000000E+00 0.  1.
         -1   -1    0    0    0  501 -0.00000000000E+00 -0.00000000000E+00 -0.35385137260E+03  0.35385137260E+03  0.00000000000E+00 0.  1.
         23    2    1    2    0    0  0.13438555957E+02  0.11257889274E+01 -0.11516749003E+03  0.14743051466E+03  0.91051324570E+02 0.  0.
         24    2    1    2    0    0 -0.87947237569E+02 -0.19295557527E+02 -0.10686381274E+03  0.16148863229E+03  0.80942379178E+02 0.  0.
        -13    1    4    4    0    0 -0.50453892621E+02 -0.29405756508E+02 -0.12884149460E+02  0.59802132936E+02  0.00000000000E+00 0.  1.
         14    1    4    4    0    0 -0.37493344948E+02  0.10110198981E+02 -0.93979663285E+02  0.10168649935E+03  0.00000000000E+00 0. -1.
        -11    1    3    3    0    0  0.25110399109E+02 -0.40808747133E+02 -0.68708024517E+02  0.83765617165E+02  0.00000000000E+00 0.  1.
         11    1    3    3    0    0 -0.11671843151E+02  0.41934536061E+02 -0.46459465513E+02  0.63664897494E+02  0.00000000000E+00 0. -1.
         -2    1    1    2    0  502  0.74508681611E+02  0.18169768599E+02 -0.71737936304E+02  0.10501435917E+03  0.00000000000E+00 0.  1.
<scales pt_clust_5="13000.00000" pt_clust_6="13000.00000" pt_clust_7="13000.00000" pt_clust_8="13000.00000" pt_clust_9="76.69214"></scales>
<clustering>
<clus scale="   76.692">  1  9  2 -1</clus>
<clus scale="   80.942">  5  6 -1 -1</clus>
<clus scale="   91.051">  7  8 -1 -1</clus>
<clus scale="   91.122">  1  5  2 -1</clus>
<clus scale="   76.692">  1  5  2 -1</clus>
</clustering>
</event>
<event>
 9    2  0.1723348E-004  0.1496569E+03  0.7546771E-02  0.1202714E+00
         21   -1    0    0  501  502  0.00000000000E+00  0.00000000000E+00  0.30661789572E+02  0.30661789572E+02  0.00000000000E+00 0. -1.
          2   -1    0    0  502    0 -0.00000000000E+00 -0.00000000000E+00 -0.14894631399E+04  0.14894631399E+04  0.00000000000E+00 0. -1.
         24    2    1    2    0    0 -0.13542518198E+03 -0.36167212759E+01 -0.70759758574E+03  0.72507140622E+03  0.81738241829E+02 0.  0.
         23    2    1    2    0    0  0.74559591802E+02  0.78007174541E+02 -0.27524327311E+03  0.30948483703E+03  0.91530065794E+02 0.  0.
        -11    1    3    3    0    0 -0.13128450189E+03 -0.24862444646E+02 -0.55019639600E+03  0.56618886934E+03  0.00000000000E+00 0.  1.
         12    1    3    3    0    0 -0.41406800948E+01  0.21245723370E+02 -0.15740118974E+03  0.15888253688E+03  0.00000000000E+00 0. -1.
        -11    1    4    4    0    0  0.43230555148E+02  0.27315507196E+02 -0.22735755335E+03  0.23303749676E+03  0.00000000000E+00 0.  1.
         11    1    4    4    0    0  0.31329036653E+02  0.50691667346E+02 -0.47885719763E+02  0.76447340262E+02  0.00000000000E+00 0. -1.
          1    1    1    2  501    0  0.60865590179E+02 -0.74390453265E+02 -0.47596049146E+03  0.48556868622E+03  0.00000000000E+00 0. -1.
<scales pt_clust_5="13000.00000" pt_clust_6="13000.00000" pt_clust_7="13000.00000" pt_clust_8="13000.00000" pt_clust_9="96.11747"></scales>
<clustering>
<clus scale="   81.738">  5  6 -1 -1</clus>
<clus scale="   91.530">  7  8 -1 -1</clus>
<clus scale="   96.117">  1  9  2 -1</clus>
<clus scale="  143.877">  2  5  1 -1</clus>
<clus scale="   96.117">  1  5  2 -1</clus>
</clustering>
</event>
<event>
 9    2  0.1723348E-004  0.1391048E+03  0.7546771E-02  0.1217545E+00
         -3   -1    0    0    0  501 -0.00000000000E+00  0.00000000000E+00  0.12451825400E+04  0.12451825400E+04  0.00000000000E+00 0.  1.
         21   -1    0    0  501  502  0.00000000000E+00 -0.00000000000E+00 -0.25671116628E+02  0.25671116628E+02  0.00000000000E+00 0.  1.
         24    2    1    2    0    0 -0.10269527323E+03  0.17725140245E+02  0.81315145872E+03  0.82362190879E+03  0.79229123904E+02 0.  0.
         23    2    1    2    0    0  0.10585445592E+03  0.23999461853E+02  0.34055418093E+03  0.36924890341E+03  0.92663166950E+02 0.  0.
        -13    1    3    3    0    0 -0.77956857369E+02  0.13341052156E+02  0.31293108992E+03  0.32277100601E+03  0.00000000000E+00 0.  1.
         14    1    3    3    0    0 -0.24738415859E+02  0.43840880890E+01  0.50022036880E+03  0.50085090278E+03  0.00000000000E+00 0. -1.
        -11    1    4    4    0    0  0.92456184664E+02  0.53208879548E+02  0.29335701515E+03  0.31215007494E+03  0.00000000000E+00 0.  1.
         11    1    4    4    0    0  0.13398271257E+02 -0.29209417695E+02  0.47197165782E+02  0.57098828470E+02  0.00000000000E+00 0. -1.
         -4    1    1    2    0  502 -0.31591826927E+01 -0.41724602098E+02  0.65805783733E+02  0.77982844448E+02  0.00000000000E+00 0.  1.
<scales pt_clust_5="13000.00000" pt_clust_6="13000.00000" pt_clust_7="13000.00000" pt_clust_8="13000.00000" pt_clust_9="41.84403"></scales>
<clustering>
<clus scale="   41.844">  2  9  1 -1</clus>
<clus scale="   79.229">  5  6 -1 -1</clus>
<clus scale="   92.663">  7  8 -1 -1</clus>
<clus scale="  130.541">  1  5  2 -1</clus>
<clus scale="   41.844">  2  5  1 -1</clus>
</clustering>
</event>
<event>
 9    2  0.1723348E-004  0.1021379E+03  0.7546771E-02  0.1277274E+00
         21   -1    0    0  501  502  0.00000000000E+00  0.00000000000E+00  0.66033909289E+02  0.66033909289E+02  0.00000000000E+00 0.  1.
         -1   -1    0    0    0  501 -0.00000000000E+00 -0.00000000000E+00 -0.41226132657E+03  0.41226132657E+03  0.00000000000E+00 0.  1.
         23    2    1    2    0    0 -0.35926550992E+02 -0.46384492651E+02 -0.26745313343E+03  0.28618253210E+03  0.83228750267E+02 0.  0.
         24    2    1    2    0    0  0.19853996470E+02  0.59416355391E+02 -0.11313944939E+03  0.15199885257E+03  0.79866336516E+02 0.  0.
        -13    1    4    4    0    0  0.64068989452E+01  0.67124769229E+02 -0.11786898913E+03  0.13579352561E+03  0.00000000000E+00 0.  1.
         14    1    4    4    0    0  0.13447097524E+02 -0.77084138371E+01  0.47295397374E+01  0.16205326959E+02  0.00000000000E+00 0. -1.
        -13    1    3    3    0    0  0.10218088334E+02  0.19134424216E+02 -0.56908994574E+02  0.60902948884E+02  0.00000000000E+00 0. -1.
         13    1    3    3    0    0 -0.46144639327E+02 -0.65518916867E+02 -0.21054413886E+03  0.22527958321E+03  0.00000000000E+00 0.  1.
         -2    1    1    2    0  502  0.16072554523E+02 -0.13031862741E+02  0.34365165540E+02  0.40113851198E+02  0.00000000000E+00 0.  1.
<scales pt_clust_5="13000.00000" pt_clust_6="13000.00000" pt_clust_7="13000.00000" pt_clust_8="13000.00000" pt_clust_9="20.69194"></scales>
<clustering>
<clus scale="   20.692">  1  9  2 -1</clus>
<clus scale="   79.866">  5  6 -1 -1</clus>
<clus scale="   83.229">  7  8 -1 -1</clus>
<clus scale="   99.417">  1  5  2 -1</clus>
<clus scale="   20.692">  1  5  2 -1</clus>
</clustering>
</event>
<event>
 9    2  0.1723348E-004  0.2340016E+03  0.7546771E-02  0.1123855E+00
         21   -1    0    0  501  502  0.00000000000E+00  0.00000000000E+00  0.64654090377E+02  0.64654090377E+02  0.00000000000E+00 0. -1.
          2   -1    0    0  502    0 -0.00000000000E+00 -0.00000000000E+00 -0.54120665032E+03  0.54120665032E+03  0.00000000000E+00 0. -1.
         24    2    1    2    0    0 -0.56700757263E+01 -0.94807398603E+02 -0.11129549515E+03  0.16632270436E+03  0.79094640507E+02 0.  0.
         23    2    1    2    0    0  0.21154075563E+02 -0.43682940052E+02 -0.16841963603E+03  0.19836527354E+03  0.92886564051E+02 0.  0.
        -11    1    3    3    0    0  0.43346877347E+01 -0.30585220956E+02 -0.94170642232E+02  0.99107795440E+02  0.00000000000E+00 0.  1.
         12    1    3    3    0    0 -0.10004763461E+02 -0.64222177647E+02 -0.17124852914E+02  0.67214908919E+02  0.00000000000E+00 0. -1.
        -11    1    4    4    0    0  0.38778491375E+02 -0.65692213196E+02 -0.12963826340E+03  0.15041714531E+03  0.00000000000E+00 0. -1.
         11    1    4    4    0    0 -0.17624415811E+02  0.22009273143E+02 -0.38781372629E+02  0.47948128222E+02  0.00000000000E+00 0.  1.
          1    1    1    2  501    0 -0.15483999837E+02  0.13849033866E+03 -0.19683742877E+03  0.24117276280E+03  0.00000000000E+00 0. -1.
<scales pt_clust_5="13000.00000" pt_clust_6="13000.00000" pt_clust_7="13000.00000" pt_clust_8="13000.00000" pt_clust_9="139.35332"></scales>
<clustering>
<clus scale="   79.095">  5  6 -1 -1</clus>
<clus scale="   92.887">  7  8 -1 -1</clus>
<clus scale="  102.663">  5  7 -1 -1</clus>
<clus scale="  139.353">  1  9  2 -1</clus>
<clus scale="  139.353">  1  5  2 -1</clus>
</clustering>
</event>
<event>
 9    2  0.1723348E-004  0.9140835E+02  0.7546771E-02  0.1311918E+00
          2   -1    0    0  502    0 -0.00000000000E+00  0.00000000000E+00  0.58308460874E+03  0.58308460874E+03  0.00000000000E+00 0. -1.
         21   -1    0    0  501  502  0.00000000000E+00 -0.00000000000E+00 -0.28684804822E+02  0.28684804822E+02  0.00000000000E+00 0. -1.
         24    2    1    2    0    0 -0.15886093107E+02 -0.32343228697E+02  0.41346219327E+03  0.42285142411E+03  0.80956094352E+02 0.  0.
         23    2    1    2    0    0  0.47689157967E+02  0.48462473824E+02  0.10226521465E+03  0.13631742662E+03  0.59172624721E+02 0.  0.
        -13    1    3    3    0    0 -0.42422466668E+02  0.22156150214E+01  0.25472138851E+03  0.25823934711E+03  0.00000000000E+00 0.  1.
         14    1    3    3    0    0  0.26536373561E+02 -0.34558843718E+02  0.15874080475E+03  0.16461207700E+03  0.00000000000E+00 0. -1.
        -11    1    4    4    0    0  0.19818322496E+02  0.47168332469E+02  0.31088262079E+02  0.59867332775E+02  0.00000000000E+00 0. -1.
         11    1    4    4    0    0  0.27870835470E+02  0.12941413548E+01  0.71176952573E+02  0.76450093848E+02  0.00000000000E+00 0.  1.
          1    1    1    2  501    0 -0.31803064859E+02 -0.16119245127E+02  0.38672396003E+02  0.52600562835E+02  0.00000000000E+00 0. -1.
<scales pt_clust_5="13000.00000" pt_clust_6="13000.00000" pt_clust_7="13000.00000" pt_clust_8="13000.00000" pt_clust_9="35.65480"></scales>
<clustering>
<clus scale="   35.655">  2  9  1 -1</clus>
<clus scale="   59.173">  7  8 -1 -1</clus>
<clus scale="   72.822">  2  7  1 -1</clus>
<clus scale="   80.956">  5  6 -1 -1</clus>
<clus scale="   35.655">  2  5  1 -1</clus>
</clustering>
</event>
<event>
 9    2  0.1723348E-004  0.1147500E+03  0.7546771E-02  0.1254517E+00
         21   -1    0    0  501  502  0.00000000000E+00  0.00000000000E+00  0.49552890254E+02  0.49552890254E+02  0.00000000000E+00 0.  1.
          2   -1    0    0  502    0 -0.00000000000E+00 -0.00000000000E+00 -0.48771236019E+03  0.48771236019E+03  0.00000000000E+00 0. -1.
         24    2    1    2    0    0 -0.69190179529E+02  0.44749469156E+01 -0.29963061662E+03  0.31820928108E+03  0.81678234906E+02 0.  0.
         23    2    1    2    0    0  0.75705128815E+02 -0.44561550603E+02 -0.12352714878E+03  0.17576126416E+03  0.88972283174E+02 0.  0.
        -11    1    3    3    0    0  0.11727039252E+01 -0.26708457880E+02 -0.46503167957E+02  0.53640111735E+02  0.00000000000E+00 0.  1.
         12    1    3    3    0    0 -0.70362883454E+02  0.31183404796E+02 -0.25312744866E+03  0.26456916935E+03  0.00000000000E+00 0. -1.
        -11    1    4    4    0    0 -0.15302310004E+02 -0.18738053887E+02 -0.60640598918E+01  0.24940893675E+02  0.00000000000E+00 0. -1.
         11    1    4    4    0    0  0.91007438818E+02 -0.25823496716E+02 -0.11746308888E+03  0.15082037048E+03  0.00000000000E+00 0.  1.
          1    1    1    2  501    0 -0.65149492859E+01  0.40086603687E+02 -0.15001704537E+02  0.43294705201E+02  0.00000000000E+00 0. -1.
<scales pt_clust_5="13000.00000" pt_clust_6="13000.00000" pt_clust_7="13000.00000" pt_clust_8="13000.00000" pt_clust_9="40.61256"></scales>
<clustering>
<clus scale="   40.613">  1  9  2 -1</clus>
<clus scale="   81.678">  5  6 -1 -1</clus>
<clus scale="   88.972">  7  8 -1 -1</clus>
<clus scale="  109.192">  2  5  1 -1</clus>
<clus scale="   40.613">  1  5  2 -1</clus>
</clustering>
</event>
<event>
 9    2  0.1723348E-004  0.2616323E+03  0.7546771E-02  0.1137047E+00
         -3   -1    0    0    0  501 -0.00000000000E+00  0.00000000000E+00  0.22364056976E+03  0.22364056976E+03  0.00000000000E+00 0.  1.
         21   -1    0    0  501  502  0.00000000000E+00 -0.00000000000E+00 -0.46193845223E+03  0.46193845223E+03  0.00000000000E+00 0.  1.
         24    2    1    2    0    0 -0.24526158827E+02 -0.92162341615E+02 -0.11286129965E+02  0.12163995188E+03  0.74655686226E+02 0.  0.
         23    2    1    2    0    0  0.13865810609E+03 -0.16430264939E+03 -0.76969388661E+02  0.24564187573E+03  0.90521894270E+02 0.  0.
        -13    1    3    3    0    0 -0.27448117288E+02 -0.10417094728E+03 -0.51700423281E+01  0.10785042762E+03  0.00000000000E+00 0.  1.
         14    1    3    3    0    0  0.29219584613E+01  0.12008605669E+02 -0.61160876367E+01  0.13789524261E+02  0.00000000000E+00 0. -1.
        -11    1    4    4    0    0  0.12230128531E+03 -0.10014205283E+03 -0.84093827665E+02  0.17904694073E+03  0.00000000000E+00 0.  1.
         11    1    4    4    0    0  0.16356820780E+02 -0.64160596561E+02  0.71244390043E+01  0.66594935004E+02  0.00000000000E+00 0. -1.
         -4    1    1    2    0  502 -0.11413194726E+03  0.25646499101E+03 -0.15004236384E+03  0.31829719437E+03  0.00000000000E+00 0.  1.
<scales pt_clust_5="13000.00000" pt_clust_6="13000.00000" pt_clust_7="13000.00000" pt_clust_8="13000.00000" pt_clust_9="245.47365"></scales>
<clustering>
<clus scale="   74.656">  5  6 -1 -1</clus>
<clus scale="   90.522">  7  8 -1 -1</clus>
<clus scale="  121.115">  1  5  2 -1</clus>
<clus scale="  245.474">  2  9  1 -1</clus>
<clus scale="  245.474">  2  5  1 -1</clus>
</clustering>
</event>
<event>
 9    2  0.1723348E-004  0.3946727E+03  0.7546771E-02  0.1065276E+00
          2   -1    0    0  502    0 -0.00000000000E+00  0.00000000000E+00  0.30717114077E+03  0.30717114077E+03  0.00000000000E+00 0. -1.
         21   -1    0    0  501  502  0.00000000000E+00 -0.00000000000E+00 -0.87924114196E+03  0.87924114196E+03  0.00000000000E+00 0.  1.
         23    2    1    2    0    0 -0.70370515988E+02  0.19568984314E+03 -0.81812462591E+02  0.24101649724E+03  0.90272635252E+02 0.  0.
         24    2    1    2    0    0  0.17031922332E+03 -0.46029516683E+03 -0.42720639335E+03  0.65560074009E+03  0.80167009775E+02 0.  0.
        -11    1    4    4    0    0  0.16938935376E+03 -0.46321689262E+03 -0.42724519564E+03  0.65253436689E+03  0.00000000000E+00 0.  1.
         12    1    4    4    0    0  0.92986956376E+00  0.29217257892E+01  0.38802298854E-01  0.30663732015E+01  0.00000000000E+00 0. -1.
        -11    1    3    3    0    0 -0.74064648008E+01  0.12983563186E+03 -0.21655974933E+02  0.13183750708E+03  0.00000000000E+00 0.  1.
         11    1    3    3    0    0 -0.62964051187E+02  0.65854211284E+02 -0.60156487658E+02  0.10917899016E+03  0.00000000000E+00 0. -1.
          1    1    1    2  501    0 -0.99948707331E+02  0.26460532368E+03 -0.63051145258E+02  0.28979504540E+03  0.00000000000E+00 0. -1.
<scales pt_clust_5="13000.00000" pt_clust_6="13000.00000" pt_clust_7="13000.00000" pt_clust_8="13000.00000" pt_clust_9="386.44531"></scales>
<clustering>
<clus scale="   80.167">  5  6 -1 -1</clus>
<clus scale="   90.273">  7  8 -1 -1</clus>
<clus scale="  226.706">  1  7  2 -1</clus>
<clus scale="  386.445">  2  9  1 -1</clus>
<clus scale="  386.445">  2  5  1 -1</clus>
</clustering>
</event>
<event>
 9    2  0.1723348E-004  0.1220886E+03  0.7546771E-02  0.1253326E+00
          2   -1    0    0  502    0 -0.00000000000E+00  0.00000000000E+00  0.13522112219E+03  0.13522112219E+03  0.00000000000E+00 0. -1.
         21   -1    0    0  501  502  0.00000000000E+00 -0.00000000000E+00 -0.17687771870E+03  0.17687771870E+03  0.00000000000E+00 0.  1.
         24    2    1    2    0    0 -0.12720910595E+02 -0.45094758290E+02  0.18187663072E+02  0.94595412535E+02  0.80138269217E+02 0.  0.
         23    2    1    2    0    0  0.24384077193E+01 -0.55192018643E+02 -0.15797754458E+02  0.10748860160E+03  0.90841211318E+02 0.  0.
        -11    1    3    3    0    0 -0.21654777831E+02 -0.66338659495E+02  0.13488413814E+02  0.71075202804E+02  0.00000000000E+00 0.  1.
         12    1    3    3    0    0  0.89338672362E+01  0.21243901204E+02  0.46992492585E+01  0.23520209731E+02  0.00000000000E+00 0. -1.
        -11    1    4    4    0    0  0.25696655555E+02  0.12985843818E+02  0.10726418864E+02  0.30724685645E+02  0.00000000000E+00 0. -1.
         11    1    4    4    0    0 -0.23258247836E+02 -0.68177862461E+02 -0.26524173321E+02  0.76763915954E+02  0.00000000000E+00 0.  1.
          1    1    1    2  501    0  0.10282502875E+02  0.10028677693E+03 -0.44046505116E+02  0.11001482676E+03  0.00000000000E+00 0. -1.
<scales pt_clust_5="13000.00000" pt_clust_6="13000.00000" pt_clust_7="13000.00000" pt_clust_8="13000.00000" pt_clust_9="81.56903"></scales>
<clustering>
<clus scale="   80.138">  5  6 -1 -1</clus>
<clus scale="   90.841">  7  8 -1 -1</clus>
<clus scale="   92.830">  1  5  2 -1</clus>
<clus scale="   81.569">  2  9  1 -1</clus>
<clus scale="   81.569">  2  5  1 -1</clus>
</clustering>
</event>
<event>
 9    2  0.2666363E-004  0.2575540E+03  0.7546771E-02  0.1109130E+00
         21   -1    0    0  501  502  0.00000000000E+00  0.00000000000E+00  0.67497936584E+03  0.67497936584E+03  0.00000000000E+00 0.  1.
          2   -1    0    0  502    0 -0.00000000000E+00 -0.00000000000E+00 -0.39071128137E+03  0.39071128137E+03  0.00000000000E+00 0. -1.
         23    2    1    2    0    0  0.21447955366E+03 -0.11211417110E+03 -0.23027901964E+03  0.34625462981E+03  0.91064677462E+02 0.  0.
         24    2    1    2    0    0 -0.18992270422E+03  0.13134266584E+03  0.58947495345E+03  0.63827595042E+03  0.81203070647E+02 0.  0.
        -11    1    4    4    0    0 -0.17334014433E+03  0.10828784389E+03  0.56484078155E+03  0.60068142244E+03  0.00000000000E+00 0.  1.
         12    1    4    4    0    0 -0.16582559895E+02  0.23054821955E+02  0.24634171903E+02  0.37594527971E+02  0.00000000000E+00 0. -1.
        -11    1    3    3    0    0  0.29095549734E+02 -0.57642825208E+02 -0.46300946778E+02  0.79454540366E+02  0.00000000000E+00 0.  1.
         11    1    3    3    0    0  0.18538400392E+03 -0.54471345890E+02 -0.18397807286E+03  0.26680008944E+03  0.00000000000E+00 0. -1.
          1    1    1    2  501    0 -0.24556849435E+02 -0.19228494742E+02 -0.74927849345E+02  0.81160066977E+02  0.00000000000E+00 0. -1.
<scales pt_clust_5="13000.00000" pt_clust_6="13000.00000" pt_clust_7="13000.00000" pt_clust_8="13000.00000" pt_clust_9="31.18934"></scales>
<clustering>
<clus scale="   31.189">  1  9  2 -1</clus>
<clus scale="   81.203">  5  6 -1 -1</clus>
<clus scale="   91.065">  7  8 -1 -1</clus>
<clus scale="  254.235">  1  5  2 -1</clus>
<clus scale="   31.189">  1  5  2 -1</clus>
</clustering>
</event>
<event>
 9    2  0.1723348E-004  0.1205761E+03  0.7546771E-02  0.1251718E+00
          4   -1    0    0  502    0 -0.00000000000E+00  0.00000000000E+00  0.94288644355E+03  0.94288644355E+03  0.00000000000E+00 0. -1.
         21   -1    0    0  501  502  0.00000000000E+00 -0.00000000000E+00 -0.13070593670E+03  0.13070593670E+03  0.00000000000E+00 0. -1.
         24    2    1    2    0    0 -0.24818175523E+02 -0.56067526078E+02  0.85891664200E+03  0.86723925702E+03  0.10298845415E+03 0.  0.
         23    2    1    2    0    0  0.84614492785E+02  0.50879086430E+02  0.73183705627E+01  0.12557930909E+03  0.77254841264E+02 0.  0.
        -13    1    3    3    0    0 -0.15550792156E+02 -0.79545720298E+02  0.42945816663E+03  0.43703966141E+03  0.00000000000E+00 0.  1.
         14    1    3    3    0    0 -0.92673833676E+01  0.23478194220E+02  0.42945847537E+03  0.43019959561E+03  0.00000000000E+00 0. -1.
        -11    1    4    4    0    0  0.53604473725E+02  0.10694279919E+02 -0.30210274964E+02  0.62453726388E+02  0.00000000000E+00 0.  1.
         11    1    4    4    0    0  0.31010019060E+02  0.40184806510E+02  0.37528645527E+02  0.63125582702E+02  0.00000000000E+00 0. -1.
          3    1    1    2  501    0 -0.59796317262E+02  0.51884396478E+01 -0.54054505714E+02  0.80773814149E+02  0.00000000000E+00 0. -1.
<scales pt_clust_5="13000.00000" pt_clust_6="13000.00000" pt_clust_7="13000.00000" pt_clust_8="13000.00000" pt_clust_9="60.02099"></scales>
<clustering>
<clus scale="   60.021">  2  9  1 -1</clus>
<clus scale="   77.255">  7  8 -1 -1</clus>
<clus scale="   99.500">  2  7  1 -1</clus>
<clus scale="  102.988">  5  6 -1 -1</clus>
<clus scale="   60.021">  2  5  1 -1</clus>
</clustering>
</event>
<event>
 9    2  0.1723348E-004  0.1056422E+03  0.7546771E-02  0.1271040E+00
          2   -1    0    0  502    0 -0.00000000000E+00  0.00000000000E+00  0.30270163244E+03  0.30270163244E+03  0.00000000000E+00 0. -1.
         21   -1    0    0  501  502  0.00000000000E+00 -0.00000000000E+00 -0.39041172096E+03  0.39041172096E+03  0.00000000000E+00 0. -1.
         24    2    1    2    0    0 -0.49507831326E+02  0.96906551560E+01  0.22108742779E+03  0.24165542951E+03  0.83503064156E+02 0.  0.
         23    2    1    2    0    0  0.10152696374E+03 -0.81403574654E+01  0.32217225765E+01  0.13512835052E+03  0.88742897352E+02 0.  0.
        -13    1    3    3    0    0  0.13466461760E+02  0.28055638514E+02  0.86623674463E+02  0.92044149310E+02  0.00000000000E+00 0.  1.
         14    1    3    3    0    0 -0.62974293086E+02 -0.18364983358E+02  0.13446375333E+03  0.14961128020E+03  0.00000000000E+00 0. -1.
        -13    1    4    4    0    0  0.63561332429E+02  0.38061537336E+02 -0.71714398649E+01  0.74432205088E+02  0.00000000000E+00 0.  1.
         13    1    4    4    0    0  0.37965631312E+02 -0.46201894801E+02  0.10393162441E+02  0.60696145427E+02  0.00000000000E+00 0. -1.
          1    1    1    2  501    0 -0.52019132416E+02 -0.15502976906E+01 -0.31201923889E+03  0.31632957338E+03  0.00000000000E+00 0. -1.
<scales pt_clust_5="13000.00000" pt_clust_6="13000.00000" pt_clust_7="13000.00000" pt_clust_8="13000.00000" pt_clust_9="52.04223"></scales>
<clustering>
<clus scale="   52.042">  2  9  1 -1</clus>
<clus scale="   83.503">  5  6 -1 -1</clus>
<clus scale="   88.743">  7  8 -1 -1</clus>
<clus scale="  101.280">  1  5  2 -1</clus>
<clus scale="   52.042">  2  5  1 -1</clus>
</clustering>
</event>
<event>
 9    2  0.1723348E-004  0.1270822E+03  0.7546771E-02  0.1235488E+00
         21   -1    0    0  501  502  0.00000000000E+00  0.00000000000E+00  0.27342101591E+03  0.27342101591E+03  0.00000000000E+00 0. -1.
          2   -1    0    0  502    0 -0.00000000000E+00 -0.00000000000E+00 -0.21682867289E+03  0.21682867289E+03  0.00000000000E+00 0. -1.
         24    2    1    2    0    0 -0.52520451083E+02  0.67761506849E+02 -0.68993873393E+02  0.13514746933E+03  0.78451668619E+02 0.  0.
         23    2    1    2    0    0  0.86040334768E+02 -0.42309077351E+02 -0.73494268899E+02  0.15162138891E+03  0.91622272300E+02 0.  0.
        -11    1    3    3    0    0  0.18696595717E+02  0.86446246042E+01 -0.16112768571E+01  0.20661278737E+02  0.00000000000E+00 0.  1.
         12    1    3    3    0    0 -0.71217046800E+02  0.59116882245E+02 -0.67382596536E+02  0.11448619060E+03  0.00000000000E+00 0. -1.
        -11    1    4    4    0    0  0.92494377110E+02 -0.22871633227E+02 -0.85383171204E+02  0.12793985825E+03  0.00000000000E+00 0. -1.
         11    1    4    4    0    0 -0.64540423420E+01 -0.19437444124E+02  0.11888902305E+02  0.23681530665E+02  0.00000000000E+00 0.  1.
          1    1    1    2  501    0 -0.33519883685E+02 -0.25452429498E+02  0.19908048532E+03  0.20348083056E+03  0.00000000000E+00 0. -1.
<scales pt_clust_5="13000.00000" pt_clust_6="13000.00000" pt_clust_7="13000.00000" pt_clust_8="13000.00000" pt_clust_9="42.08811"></scales>
<clustering>
<clus scale="   42.088">  1  9  2 -1</clus>
<clus scale="   78.452">  5  6 -1 -1</clus>
<clus scale="   91.622">  7  8 -1 -1</clus>
<clus scale="  117.940">  2  5  1 -1</clus>
<clus scale="   42.088">  1  5  2 -1</clus>
</clustering>
</event>
<event>
 9    2  0.1723348E-004  0.1614205E+03  0.7546771E-02  0.1188314E+00
         21   -1    0    0  501  502  0.00000000000E+00  0.00000000000E+00  0.76632525824E+02  0.76632525824E+02  0.00000000000E+00 0.  1.
         -3   -1    0    0    0  501 -0.00000000000E+00 -0.00000000000E+00 -0.70116065664E+03  0.70116065664E+03  0.00000000000E+00 0.  1.
         24    2    1    2    0    0 -0.18379746415E+02 -0.11249334099E+03 -0.12457670153E+03  0.18685252317E+03  0.80012149104E+02 0.  0.
         23    2    1    2    0    0 -0.76306390423E+02  0.15612148042E+03 -0.22927257170E+03  0.30087872970E+03  0.88122165097E+02 0.  0.
        -11    1    3    3    0    0  0.12903722155E+02 -0.10636685972E+03 -0.91285311354E+02  0.14076016113E+03  0.00000000000E+00 0.  1.
         12    1    3    3    0    0 -0.31283468570E+02 -0.61264812731E+01 -0.33291390178E+02  0.46092362041E+02  0.00000000000E+00 0. -1.
        -13    1    4    4    0    0 -0.87927797528E+02  0.11261228627E+03 -0.20454386056E+03  0.24950153404E+03  0.00000000000E+00 0.  1.
         13    1    4    4    0    0  0.11621407106E+02  0.43509194151E+02 -0.24728711148E+02  0.51377195659E+02  0.00000000000E+00 0. -1.
         -4    1    1    2    0  502  0.94686136838E+02 -0.43628139434E+02 -0.27067885759E+03  0.29006192960E+03  0.00000000000E+00 0.  1.
<scales pt_clust_5="13000.00000" pt_clust_6="13000.00000" pt_clust_7="13000.00000" pt_clust_8="13000.00000" pt_clust_9="104.25397"></scales>
<clustering>
<clus scale="   80.012">  5  6 -1 -1</clus>
<clus scale="   88.122">  7  8 -1 -1</clus>
<clus scale="  104.254">  1  9  2 -1</clus>
<clus scale="  157.140">  2  5  1 -1</clus>
<clus scale="  104.254">  1  5  2 -1</clus>
</clustering>
</event>
<event>
 9    2  0.1723348E-004  0.1214274E+03  0.7546771E-02  0.1244282E+00
         21   -1    0    0  501  502  0.00000000000E+00  0.00000000000E+00  0.36504856250E+03  0.36504856250E+03  0.00000000000E+00 0.  1.
         -3   -1    0    0    0  501 -0.00000000000E+00 -0.00000000000E+00 -0.75591542889E+02  0.75591542889E+02  0.00000000000E+00 0.  1.
         24    2    1    2    0    0 -0.82104647079E+02  0.21052898209E+02  0.10662886478E+02  0.11707053377E+03  0.80046331179E+02 0.  0.
         23    2    1    2    0    0  0.56748606115E+02 -0.12059631242E+02  0.27603728533E+03  0.29652501811E+03  0.91458539630E+02 0.  0.
        -13    1    3    3    0    0 -0.77111333061E+02 -0.11100338756E+02  0.24563795477E+02  0.81686934421E+02  0.00000000000E+00 0.  1.
         14    1    3    3    0    0 -0.49933140184E+01  0.32153236965E+02 -0.13900908998E+02  0.35383599353E+02  0.00000000000E+00 0. -1.
        -13    1    4    4    0    0 -0.21762167756E+02 -0.19254996173E+02  0.63374054525E+02  0.69718129708E+02  0.00000000000E+00 0. -1.
         13    1    4    4    0    0  0.78510773870E+02  0.71953649311E+01  0.21266323081E+03  0.22680688841E+03  0.00000000000E+00 0.  1.
         -4    1    1    2    0  502  0.25356040964E+02 -0.89932669671E+01  0.27568477956E+01  0.27044553498E+02  0.00000000000E+00 0.  1.
<scales pt_clust_5="13000.00000" pt_clust_6="13000.00000" pt_clust_7="13000.00000" pt_clust_8="13000.00000" pt_clust_9="26.90369"></scales>
<clustering>
<clus scale="   26.904">  1  9  2 -1</clus>
<clus scale="   80.046">  5  6 -1 -1</clus>
<clus scale="   91.459">  7  8 -1 -1</clus>
<clus scale="  113.081">  2  5  1 -1</clus>
<clus scale="   26.904">  1  5  2 -1</clus>
</clustering>
</event>
<event>
 9    2  0.1723348E-004  0.9857239E+02  0.7546771E-02  0.1289510E+00
          2   -1    0    0  502    0 -0.00000000000E+00  0.00000000000E+00  0.13331060202E+03  0.13331060202E+03  0.00000000000E+00 0. -1.
         21   -1    0    0  501  502  0.00000000000E+00 -0.00000000000E+00 -0.27523494166E+03  0.27523494166E+03  0.00000000000E+00 0.  1.
         23    2    1    2    0    0  0.35903455507E+02  0.11413918980E+02  0.68208950385E+02  0.12004281765E+03  0.91315286199E+02 0.  0.
         24    2    1    2    0    0 -0.41419330522E+02  0.32638758317E+02 -0.22277565568E+03  0.24234113308E+03  0.79494544044E+02 0.  0.
        -11    1    4    4    0    0 -0.47514750314E+02  0.50575147565E+02 -0.12711776795E+03  0.14482549492E+03  0.00000000000E+00 0.  1.
         12    1    4    4    0    0  0.60954197921E+01 -0.17936389248E+02 -0.95657887725E+02  0.97515638160E+02  0.00000000000E+00 0. -1.
        -13    1    3    3    0    0  0.20245884614E+02  0.43675021194E+02  0.69048478707E+02  0.84173010709E+02  0.00000000000E+00 0.  1.
         13    1    3    3    0    0  0.15657570893E+02 -0.32261102214E+02 -0.83952832175E+00  0.35869806943E+02  0.00000000000E+00 0. -1.
          1    1    1    2  501    0  0.55158750147E+01 -0.44052677297E+02  0.12642365663E+02  0.46161592951E+02  0.00000000000E+00 0. -1.
<scales pt_clust_5="13000.00000" pt_clust_6="13000.00000" pt_clust_7="13000.00000" pt_clust_8="13000.00000" pt_clust_9="44.39668"></scales>
<clustering>
<clus scale="   44.397">  2  9  1 -1</clus>
<clus scale="   79.495">  5  6 -1 -1</clus>
<clus scale="   87.735">  2  5  1 -1</clus>
<clus scale="   91.315">  7  8 -1 -1</clus>
<clus scale="   44.397">  2  5  1 -1</clus>
</clustering>
</event>
<event>
 9    2  0.1723348E-004  0.1268807E+03  0.7546771E-02  0.1247834E+00
         -1   -1    0    0    0  501 -0.00000000000E+00  0.00000000000E+00  0.15235736352E+03  0.15235736352E+03  0.00000000000E+00 0.  1.
         21   -1    0    0  501  502  0.00000000000E+00 -0.00000000000E+00 -0.20089011100E+03  0.20089011100E+03  0.00000000000E+00 0.  1.
         23    2    1    2    0    0  0.18415967596E+02 -0.21018625244E+02  0.37523598900E+02  0.99621495783E+02  0.87951642839E+02 0.  0.
         24    2    1    2    0    0  0.84918006890E+02  0.22339203493E+02  0.32618374540E+00  0.11893523770E+03  0.80220798197E+02 0.  0.
        -13    1    4    4    0    0 -0.83190373548E+01  0.24063220974E+02  0.30486197900E+01  0.25642524618E+02  0.00000000000E+00 0.  1.
         14    1    4    4    0    0  0.93237044244E+02 -0.17240174807E+01 -0.27224360446E+01  0.93292713079E+02  0.00000000000E+00 0. -1.
        -11    1    3    3    0    0 -0.47952151214E+01  0.21928253782E+02  0.44949078494E+02  0.50242034786E+02  0.00000000000E+00 0.  1.
         11    1    3    3    0    0  0.23211182717E+02 -0.42946879026E+02 -0.74254795941E+01  0.49379460997E+02  0.00000000000E+00 0. -1.
         -2    1    1    2    0  502 -0.10333397449E+03 -0.13205782492E+01 -0.86382530129E+02  0.13469074104E+03  0.00000000000E+00 0.  1.
<scales pt_clust_5="13000.00000" pt_clust_6="13000.00000" pt_clust_7="13000.00000" pt_clust_8="13000.00000" pt_clust_9="98.30230"></scales>
<clustering>
<clus scale="   80.221">  5  6 -1 -1</clus>
<clus scale="   87.952">  7  8 -1 -1</clus>
<clus scale="   92.284">  1  7  2 -1</clus>
<clus scale="   98.302">  2  9  1 -1</clus>
<clus scale="   98.302">  2  5  1 -1</clus>
</clustering>
</event>
<event>
 9    2  0.1723348E-004  0.9054477E+02  0.7546771E-02  0.1307160E+00
         21   -1    0    0  501  502  0.00000000000E+00  0.00000000000E+00  0.64715943228E+02  0.64715943228E+02  0.00000000000E+00 0. -1.
          2   -1    0    0  502    0 -0.00000000000E+00 -0.00000000000E+00 -0.44219244673E+03  0.44219244673E+03  0.00000000000E+00 0. -1.
         23    2    1    2    0    0 -0.93934121890E+01 -0.45306901516E+01 -0.32825022539E+03  0.34042779002E+03  0.89633176892E+02 0.  0.
         24    2    1    2    0    0 -0.41401528795E+01  0.53739908927E+02 -0.21501021598E+01  0.97048107996E+02  0.80675855427E+02 0.  0.
        -11    1    4    4    0    0  0.69640335449E+01 -0.19949010481E+02 -0.72858239591E+01  0.22350481273E+02  0.00000000000E+00 0.  1.
         12    1    4    4    0    0 -0.11104186424E+02  0.73688919408E+02  0.51357217993E+01  0.74697626723E+02  0.00000000000E+00 0. -1.
        -11    1    3    3    0    0 -0.43226312041E+02 -0.24338022904E+02 -0.15280297368E+03  0.16065367153E+03  0.00000000000E+00 0. -1.
         11    1    3    3    0    0  0.33832899852E+02  0.19807332753E+02 -0.17544725171E+03  0.17977411849E+03  0.00000000000E+00 0.  1.
          1    1    1    2  501    0  0.13533565069E+02 -0.49209218775E+02 -0.47076175954E+02  0.69432491950E+02  0.00000000000E+00 0. -1.
<scales pt_clust_5="13000.00000" pt_clust_6="13000.00000" pt_clust_7="13000.00000" pt_clust_8="13000.00000" pt_clust_9="51.03631"></scales>
<clustering>
<clus scale="   51.036">  1  9  2 -1</clus>
<clus scale="   80.676">  5  6 -1 -1</clus>
<clus scale="   81.687">  1  5  2 -1</clus>
<clus scale="   89.633">  7  8 -1 -1</clus>
<clus scale="   51.036">  1  5  2 -1</clus>
</clustering>
</event>
<event>
 9    2  0.1723348E-004  0.2506286E+03  0.7546771E-02  0.1113555E+00
         21   -1    0    0  501  502  0.00000000000E+00  0.00000000000E+00  0.21637286290E+03  0.21637286290E+03  0.00000000000E+00 0. -1.
          2   -1    0    0  502    0 -0.00000000000E+00 -0.00000000000E+00 -0.70447137342E+03  0.70447137342E+03  0.00000000000E+00 0. -1.
         24    2    1    2    0    0 -0.13239433076E+03 -0.20920937213E+03 -0.48795054731E+03  0.55301150179E+03  0.80182069606E+02 0.  0.
         23    2    1    2    0    0  0.10681732382E+03  0.12006904312E+03  0.11654899816E+03  0.21877448305E+03  0.91935247207E+02 0.  0.
        -11    1    3    3    0    0 -0.11994476321E+03 -0.11944838598E+03 -0.33118588857E+03  0.37193918309E+03  0.00000000000E+00 0.  1.
         12    1    3    3    0    0 -0.12449567552E+02 -0.89760986151E+02 -0.15676465875E+03  0.18107231870E+03  0.00000000000E+00 0. -1.
        -13    1    4    4    0    0 -0.13610741215E+02  0.33410624818E+02  0.30630419051E+02  0.47325941073E+02  0.00000000000E+00 0.  1.
         13    1    4    4    0    0  0.12042806504E+03  0.86658418298E+02  0.85918579111E+02  0.17144854198E+03  0.00000000000E+00 0. -1.
          1    1    1    2  501    0  0.25577006940E+02  0.89140329010E+02 -0.11669696137E+03  0.14905825148E+03  0.00000000000E+00 0. -1.
<scales pt_clust_5="13000.00000" pt_clust_6="13000.00000" pt_clust_7="13000.00000" pt_clust_8="13000.00000" pt_clust_9="92.73721"></scales>
<clustering>
<clus scale="   80.182">  5  6 -1 -1</clus>
<clus scale="   91.935">  7  8 -1 -1</clus>
<clus scale="   92.737">  1  9  2 -1</clus>
<clus scale="  246.560">  2  5  1 -1</clus>
<clus scale="   92.737">  1  5  2 -1</clus>
</clustering>
</event>
<event>
 9    2  0.1723348E-004  0.2152895E+03  0.7546771E-02  0.1138367E+00
         21   -1    0    0  501  502  0.00000000000E+00  0.00000000000E+00  0.65504529614E+03  0.65504529614E+03  0.00000000000E+00 0. -1.
          2   -1    0    0  502    0 -0.00000000000E+00 -0.00000000000E+00 -0.31383679028E+03  0.31383679028E+03  0.00000000000E+00 0. -1.
         23    2    1    2    0    0  0.76091122377E+02 -0.14845469520E+03  0.73242404472E+01  0.19038956088E+03  0.91465211772E+02 0.  0.
         24    2    1    2    0    0 -0.11425493058E+03  0.32150561153E+03  0.44723098579E+03  0.56813431932E+03  0.79630413352E+02 0.  0.
        -11    1    4    4    0    0  0.53236217263E-01  0.87948774015E+02  0.85659085041E+02  0.12276998222E+03  0.00000000000E+00 0.  1.
         12    1    4    4    0    0 -0.11430816680E+03  0.23355683752E+03  0.36157190075E+03  0.44536433710E+03  0.00000000000E+00 0. -1.
        -13    1    3    3    0    0  0.26442117496E+02 -0.55374537568E+01  0.26549009744E+02  0.37877419265E+02  0.00000000000E+00 0.  1.
         13    1    3    3    0    0  0.49649004881E+02 -0.14291724144E+03 -0.19224769297E+02  0.15251214162E+03  0.00000000000E+00 0. -1.
          1    1    1    2  501    0  0.38163808204E+02 -0.17305091634E+03 -0.11334672037E+03  0.21035820621E+03  0.00000000000E+00 0. -1.
<scales pt_clust_5="13000.00000" pt_clust_6="13000.00000" pt_clust_7="13000.00000" pt_clust_8="13000.00000" pt_clust_9="177.20928"></scales>
<clustering>
<clus scale="   79.630">  5  6 -1 -1</clus>
<clus scale="   91.465">  7  8 -1 -1</clus>
<clus scale="  177.209">  1  9  2 -1</clus>
<clus scale="  210.534">  1  5  2 -1</clus>
<clus scale="  177.209">  1  5  2 -1</clus>
</clustering>
</event>
<event>
 9    2  0.1723348E-004  0.1220634E+03  0.7546771E-02  0.1242561E+00
         -3   -1    0    0    0  501 -0.00000000000E+00  0.00000000000E+00  0.82852598203E+02  0.82852598203E+02  0.00000000000E+00 0.  1.
         21   -1    0    0  501  502  0.00000000000E+00 -0.00000000000E+00 -0.44461995599E+03  0.44461995599E+03  0.00000000000E+00 0. -1.
         23    2    1    2    0    0  0.51069575409E+02 -0.66585747651E+02  0.19904116129E+02  0.12526546133E+03  0.90848767967E+02 0.  0.
         24    2    1    2    0    0 -0.47110214711E+02  0.46632148734E+02 -0.33965640253E+03  0.35552638089E+03  0.81477641726E+02 0.  0.
        -11    1    4    4    0    0 -0.23481228934E+02 -0.74685930551E+01 -0.24000283885E+02  0.34397116464E+02  0.00000000000E+00 0.  1.
         12    1    4    4    0    0 -0.23628985777E+02  0.54100741789E+02 -0.31565611865E+03  0.32112926442E+03  0.00000000000E+00 0. -1.
        -11    1    3    3    0    0  0.48470513926E+02  0.52318088995E+01 -0.54584946656E+01  0.49056678532E+02  0.00000000000E+00 0. -1.
         11    1    3    3    0    0  0.25990614828E+01 -0.71817556551E+02  0.25362610794E+02  0.76208782800E+02  0.00000000000E+00 0.  1.
         -4    1    1    2    0  502 -0.39593606974E+01  0.19953598917E+02 -0.42015071386E+02  0.46680711974E+02  0.00000000000E+00 0.  1.
<scales pt_clust_5="13000.00000" pt_clust_6="13000.00000" pt_clust_7="13000.00000" pt_clust_8="13000.00000" pt_clust_9="20.34263"></scales>
<clustering>
<clus scale="   20.343">  2  9  1 -1</clus>
<clus scale="   81.478">  5  6 -1 -1</clus>
<clus scale="   90.849">  7  8 -1 -1</clus>
<clus scale="  115.259">  2  5  1 -1</clus>
<clus scale="   20.343">  2  5  1 -1</clus>
</clustering>
</event>
<event>
 9    2  0.1723348E-004  0.2892301E+03  0.7546771E-02  0.1091518E+00
          2   -1    0    0  502    0 -0.00000000000E+00  0.00000000000E+00  0.16181969680E+04  0.16181969680E+04  0.00000000000E+00 0. -1.
         21   -1    0    0  501  502  0.00000000000E+00 -0.00000000000E+00 -0.13035838499E+03  0.13035838499E+03  0.00000000000E+00 0.  1.
         24    2    1    2    0    0 -0.20747640866E+03  0.17689813492E+03  0.13334643608E+04  0.13632682466E+04  0.77676896472E+02 0.  0.
         23    2    1    2    0    0  0.19232931533E+03 -0.19387494156E+03  0.18751498508E+03  0.34508814418E+03  0.96674190553E+02 0.  0.
        -13    1    3    3    0    0 -0.11680492303E+03  0.49442188489E+02  0.62547364384E+03  0.63820466873E+03  0.00000000000E+00 0.  1.
         14    1    3    3    0    0 -0.90671485628E+02  0.12745594643E+03  0.70799071698E+03  0.72506357784E+03  0.00000000000E+00 0. -1.
        -13    1    4    4    0    0  0.14685110438E+03 -0.16925798046E+03  0.18930688261E+03  0.29334383683E+03  0.00000000000E+00 0.  1.
         13    1    4    4    0    0  0.45478210960E+02 -0.24616961098E+02 -0.17918975226E+01  0.51744307344E+02  0.00000000000E+00 0. -1.
          1    1    1    2  501    0  0.15147093325E+02  0.16976806639E+02 -0.33140762901E+02  0.40198962244E+02  0.00000000000E+00 0. -1.
<scales pt_clust_5="13000.00000" pt_clust_6="13000.00000" pt_clust_7="13000.00000" pt_clust_8="13000.00000" pt_clust_9="22.75184"></scales>
<clustering>
<clus scale="   22.752">  2  9  1 -1</clus>
<clus scale="   77.677">  5  6 -1 -1</clus>
<clus scale="   96.674">  7  8 -1 -1</clus>
<clus scale="  283.446">  1  5  2 -1</clus>
<clus scale="   22.752">  2  5  1 -1</clus>
</clustering>
</event>
<event>
 9    2  0.1723348E-004  0.9901911E+02  0.7546771E-02  0.1289225E+00
         21   -1    0    0  501  502  0.00000000000E+00  0.00000000000E+00  0.13798284213E+02  0.13798284213E+02  0.00000000000E+00 0. -1.
          2   -1    0    0  502    0 -0.00000000000E+00 -0.00000000000E+00 -0.88228161247E+03  0.88228161247E+03  0.00000000000E+00 0. -1.
         24    2    1    2    0    0 -0.24215005348E+02 -0.15972012171E+02 -0.32951916467E+03  0.34020396820E+03  0.79463126277E+02 0.  0.
         23    2    1    2    0    0  0.47899188294E+02  0.22473668974E+00 -0.36339230697E+03  0.37801532565E+03  0.92451256942E+02 0.  0.
        -11    1    3    3    0    0 -0.92218201402E+01  0.32511605925E+02 -0.13743793092E+03  0.14153173263E+03  0.00000000000E+00 0.  1.
         12    1    3    3    0    0 -0.14993185208E+02 -0.48483618097E+02 -0.19208123375E+03  0.19867223557E+03  0.00000000000E+00 0. -1.
        -13    1    4    4    0    0  0.74647230575E+02  0.96094903535E+01 -0.27989547388E+03  0.28983793340E+03  0.00000000000E+00 0. -1.
         13    1    4    4    0    0 -0.26748042281E+02 -0.93847536638E+01 -0.83496833088E+02  0.88177392244E+02  0.00000000000E+00 0.  1.
          1    1    1    2  501    0 -0.23684182945E+02  0.15747275482E+02 -0.17557185661E+03  0.17786060283E+03  0.00000000000E+00 0. -1.
<scales pt_clust_5="13000.00000" pt_clust_6="13000.00000" pt_clust_7="13000.00000" pt_clust_8="13000.00000" pt_clust_9="28.44148"></scales>
<clustering>
<clus scale="   28.441">  1  9  2 -1</clus>
<clus scale="   79.463">  5  6 -1 -1</clus>
<clus scale="   87.017">  2  5  1 -1</clus>
<clus scale="   92.451">  7  8 -1 -1</clus>
<clus scale="   28.441">  1  5  2 -1</clus>
</clustering>
</event>
<event>
 9    2  0.1723348E-004  0.1624412E+03  0.7546771E-02  0.1212146E+00
          2   -1    0    0  502    0 -0.00000000000E+00  0.00000000000E+00  0.18998332474E+03  0.18998332474E+03  0.00000000000E+00 0. -1.
         21   -1    0    0  501  502  0.00000000000E+00 -0.00000000000E+00 -0.51176026028E+03  0.51176026028E+03  0.00000000000E+00 0. -1.
         24    2    1    2    0    0  0.17589218378E+02  0.36192661267E+02  0.12234056298E+03  0.15301642134E+03  0.82628823762E+02 0.  0.
         23    2    1    2    0    0  0.12111469333E+03 -0.54308762424E+02 -0.33302312749E+03  0.37009646218E+03  0.91917230478E+02 0.  0.
        -13    1    3    3    0    0 -0.99647477929E+01 -0.21200740991E+02  0.13817694874E+02  0.27197358489E+02  0.00000000000E+00 0.  1.
         14    1    3    3    0    0  0.27553966171E+02  0.57393402257E+02  0.10852286811E+03  0.12581906285E+03  0.00000000000E+00 0. -1.
        -11    1    4    4    0    0  0.97759911872E+02 -0.78557601336E+02 -0.28575391577E+03  0.31206345104E+03  0.00000000000E+00 0.  1.
         11    1    4    4    0    0  0.23354781454E+02  0.24248838911E+02 -0.47269211721E+02  0.58033011140E+02  0.00000000000E+00 0. -1.
          1    1    1    2  501    0 -0.13870391170E+03  0.18116101158E+02 -0.11109437104E+03  0.17863070150E+03  0.00000000000E+00 0. -1.
<scales pt_clust_5="13000.00000" pt_clust_6="13000.00000" pt_clust_7="13000.00000" pt_clust_8="13000.00000" pt_clust_9="133.93420"></scales>
<clustering>
<clus scale="   82.629">  5  6 -1 -1</clus>
<clus scale="   91.907">  1  5  2 -1</clus>
<clus scale="   91.917">  7  8 -1 -1</clus>
<clus scale="  133.934">  2  9  1 -1</clus>
<clus scale="  133.934">  2  5  1 -1</clus>
</clustering>
</event>
<event>
 9    2  0.1723348E-004  0.1825981E+03  0.7546771E-02  0.1169658E+00
         21   -1    0    0  501  502  0.00000000000E+00  0.00000000000E+00  0.42518900937E+03  0.42518900937E+03  0.00000000000E+00 0. -1.
          2   -1    0    0  502    0 -0.00000000000E+00 -0.00000000000E+00 -0.14342933139E+03  0.14342933139E+03  0.00000000000E+00 0. -1.
         24    2    1    2    0    0  0.86652494340E+02 -0.11992085788E+03  0.17501232946E+02  0.16932740713E+03  0.80472422121E+02 0.  0.
         23    2    1    2    0    0 -0.15152418443E+03  0.45795166519E+02  0.21392612390E+03  0.28867313739E+03  0.11185266211E+03 0.  0.
        -11    1    3    3    0    0  0.20836546443E+01 -0.55039663211E+02 -0.16412076115E+02  0.57472274929E+02  0.00000000000E+00 0.  1.
         12    1    3    3    0    0  0.84568839696E+02 -0.64881194669E+02  0.33913309061E+02  0.11185513221E+03  0.00000000000E+00 0. -1.
        -11    1    4    4    0    0 -0.30747432652E+02  0.44432559868E+02  0.15218935856E+02  0.56136200439E+02  0.00000000000E+00 0.  1.
         11    1    4    4    0    0 -0.12077675177E+03  0.13626066503E+01  0.19870718804E+03  0.23253693695E+03  0.00000000000E+00 0. -1.
          1    1    1    2  501    0  0.64871690085E+02  0.74125691362E+02  0.50332321138E+02  0.11061779624E+03  0.00000000000E+00 0. -1.
<scales pt_clust_5="13000.00000" pt_clust_6="13000.00000" pt_clust_7="13000.00000" pt_clust_8="13000.00000" pt_clust_9="98.50362"></scales>
<clustering>
<clus scale="   80.472">  5  6 -1 -1</clus>
<clus scale="   98.504">  1  9  2 -1</clus>
<clus scale="  111.853">  7  8 -1 -1</clus>
<clus scale="  165.248">  2  5  1 -1</clus>
<clus scale="   98.504">  1  5  2 -1</clus>
</clustering>
</event>
<event>
 9    2  0.1723348E-004  0.2108028E+03  0.7546771E-02  0.1141650E+00
          2   -1    0    0  502    0 -0.00000000000E+00  0.00000000000E+00  0.19198308882E+03  0.19198308882E+03  0.00000000000E+00 0. -1.
         21   -1    0    0  501  502  0.00000000000E+00 -0.00000000000E+00 -0.59392138333E+03  0.59392138333E+03  0.00000000000E+00 0. -1.
         23    2    1    2    0    0  0.17539588469E+03 -0.68379252518E+02  0.75645514130E+02  0.22468085352E+03  0.96539129823E+02 0.  0.
         24    2    1    2    0    0 -0.18103563319E+03  0.34511652136E+02 -0.48481335951E+03  0.52613676177E+03  0.88379544644E+02 0.  0.
        -13    1    4    4    0    0 -0.15949270103E+02  0.27925154613E+02 -0.38148982528E+02  0.49895273773E+02  0.00000000000E+00 0.  1.
         14    1    4    4    0    0 -0.16508636309E+03  0.65864975230E+01 -0.44666437698E+03  0.47624148800E+03  0.00000000000E+00 0. -1.
        -11    1    3    3    0    0  0.14496321461E+03 -0.93134042735E+02  0.60102615281E+02  0.18248454146E+03  0.00000000000E+00 0. -1.
         11    1    3    3    0    0  0.30432670080E+02  0.24754790216E+02  0.15542898849E+02  0.42196312061E+02  0.00000000000E+00 0.  1.
          1    1    1    2  501    0  0.56397485016E+01  0.33867600382E+02  0.72295508634E+01  0.35086856862E+02  0.00000000000E+00 0. -1.
<scales pt_clust_5="13000.00000" pt_clust_6="13000.00000" pt_clust_7="13000.00000" pt_clust_8="13000.00000" pt_clust_9="34.33398"></scales>
<clustering>
<clus scale="   34.334">  2  9  1 -1</clus>
<clus scale="   88.380">  5  6 -1 -1</clus>
<clus scale="   96.539">  7  8 -1 -1</clus>
<clus scale="  207.193">  2  5  1 -1</clus>
<clus scale="   34.334">  2  5  1 -1</clus>
</clustering>
</event>
<event>
 9    2  0.1723348E-004  0.1197054E+03  0.7546771E-02  0.1252955E+00
         21   -1    0    0  501  502  0.00000000000E+00  0.00000000000E+00  0.42869655062E+03  0.42869655062E+03  0.00000000000E+00 0.  1.
          2   -1    0    0  502    0 -0.00000000000E+00 -0.00000000000E+00 -0.11692278064E+03  0.11692278064E+03  0.00000000000E+00 0. -1.
         23    2    1    2    0    0 -0.30804453592E+02 -0.23403434909E+02 -0.55141274594E+02  0.11350820933E+03  0.91361470517E+02 0.  0.
         24    2    1    2    0    0 -0.76532280715E+02 -0.62221892103E+00  0.23818901038E+03  0.26279249197E+03  0.80425816891E+02 0.  0.
        -11    1    4    4    0    0 -0.71729585600E+02  0.17679278259E+02  0.23104342633E+03  0.24256701173E+03  0.00000000000E+00 0.  1.
         12    1    4    4    0    0 -0.48026951155E+01 -0.18301497180E+02  0.71455840452E+01  0.20225480235E+02  0.00000000000E+00 0. -1.
        -11    1    3    3    0    0 -0.40049504589E+01  0.21856088381E+02 -0.56687355685E+02  0.60886653070E+02  0.00000000000E+00 0. -1.
         11    1    3    3    0    0 -0.26799503133E+02 -0.45259523289E+02  0.15460810912E+01  0.52621556261E+02  0.00000000000E+00 0.  1.
          1    1    1    2  501    0  0.10733673431E+03  0.24025653830E+02  0.12872603419E+03  0.16931862996E+03  0.00000000000E+00 0. -1.
<scales pt_clust_5="13000.00000" pt_clust_6="13000.00000" pt_clust_7="13000.00000" pt_clust_8="13000.00000" pt_clust_9="88.66270"></scales>
<clustering>
<clus scale="   80.426">  5  6 -1 -1</clus>
<clus scale="   91.361">  7  8 -1 -1</clus>
<clus scale="   99.215">  2  7  1 -1</clus>
<clus scale="   88.663">  1  9  2 -1</clus>
<clus scale="   88.663">  1  5  2 -1</clus>
</clustering>
</event>
<event>
 9    2  0.1723348E-004  0.1450443E+03  0.7546771E-02  0.1208687E+00
         21   -1    0    0  501  502  0.00000000000E+00  0.00000000000E+00  0.31384790722E+03  0.31384790722E+03  0.00000000000E+00 0. -1.
          2   -1    0    0  502    0 -0.00000000000E+00 -0.00000000000E+00 -0.14341117929E+03  0.14341117929E+03  0.00000000000E+00 0. -1.
         23    2    1    2    0    0  0.11311244781E+03  0.32509543651E+02 -0.63430848435E+02  0.16338426689E+03  0.93912990884E+02 0.  0.
         24    2    1    2    0    0 -0.68930207031E+02 -0.39169927714E+02  0.21737346095E+03  0.24624618370E+03  0.84263306257E+02 0.  0.
        -13    1    4    4    0    0 -0.40199082706E+02  0.75636888622E+01  0.29248455369E+02  0.50285661784E+02  0.00000000000E+00 0.  1.
         14    1    4    4    0    0 -0.28731124325E+02 -0.46733616576E+02  0.18812500558E+03  0.19596052191E+03  0.00000000000E+00 0. -1.
        -13    1    3    3    0    0  0.59188133341E+02  0.64754526674E+02 -0.37888826632E+02  0.95561221407E+02  0.00000000000E+00 0. -1.
         13    1    3    3    0    0  0.53924314471E+02 -0.32244983023E+02 -0.25542021803E+02  0.67823045487E+02  0.00000000000E+00 0.  1.
          1    1    1    2  501    0 -0.44182240781E+02  0.66603840633E+01  0.16494115417E+02  0.47628635921E+02  0.00000000000E+00 0. -1.
<scales pt_clust_5="13000.00000" pt_clust_6="13000.00000" pt_clust_7="13000.00000" pt_clust_8="13000.00000" pt_clust_9="44.68146"></scales>
<clustering>
<clus scale="   44.681">  1  9  2 -1</clus>
<clus scale="   84.263">  5  6 -1 -1</clus>
<clus scale="   93.913">  7  8 -1 -1</clus>
<clus scale="  138.991">  1  5  2 -1</clus>
<clus scale="   44.681">  1  5  2 -1</clus>
</clustering>
</event>
<event>
 9    2  0.1723348E-004  0.1057155E+03  0.7546771E-02  0.1272358E+00
          2   -1    0    0  502    0 -0.00000000000E+00  0.00000000000E+00  0.35134844313E+03  0.35134844313E+03  0.00000000000E+00 0. -1.
         21   -1    0    0  501  502  0.00000000000E+00 -0.00000000000E+00 -0.61844012277E+02  0.61844012277E+02  0.00000000000E+00 0. -1.
         23    2    1    2    0    0 -0.65280452310E+02 -0.34438256909E+02  0.23314056954E+03  0.25971422130E+03  0.87460966093E+02 0.  0.
         24    2    1    2    0    0  0.90526206926E+01  0.33564431011E+02  0.27451375317E+02  0.90246402985E+02  0.78627694067E+02 0.  0.
        -13    1    4    4    0    0 -0.20200488714E+02  0.40277665542E+01 -0.18920265254E+02  0.27968894954E+02  0.00000000000E+00 0.  1.
         14    1    4    4    0    0  0.29253109406E+02  0.29536664457E+02  0.46371640571E+02  0.62277508030E+02  0.00000000000E+00 0. -1.
        -11    1    3    3    0    0 -0.41358386087E+02  0.31098888629E+01  0.19988839826E+03  0.20414592640E+03  0.00000000000E+00 0.  1.
         11    1    3    3    0    0 -0.23922066223E+02 -0.37548145772E+02  0.33252171276E+02  0.55568294898E+02  0.00000000000E+00 0. -1.
          1    1    1    2  501    0  0.56227831617E+02  0.87382589747E+00  0.28912485996E+02  0.63231831118E+02  0.00000000000E+00 0. -1.
<scales pt_clust_5="13000.00000" pt_clust_6="13000.00000" pt_clust_7="13000.00000" pt_clust_8="13000.00000" pt_clust_9="56.23462"></scales>
<clustering>
<clus scale="   56.235">  2  9  1 -1</clus>
<clus scale="   78.628">  5  6 -1 -1</clus>
<clus scale="   87.461">  7  8 -1 -1</clus>
<clus scale="   98.533">  2  5  1 -1</clus>
<clus scale="   56.235">  2  5  1 -1</clus>
</clustering>
</event>
<event>
 9    2  0.1723348E-004  0.1358867E+03  0.7546771E-02  0.1219726E+00
          2   -1    0    0  502    0 -0.00000000000E+00  0.00000000000E+00  0.10329087750E+04  0.10329087750E+04  0.00000000000E+00 0. -1.
         21   -1    0    0  501  502  0.00000000000E+00 -0.00000000000E+00 -0.46237179674E+02  0.46237179674E+02  0.00000000000E+00 0. -1.
         24    2    1    2    0    0  0.27367442031E+02  0.99033894942E+02  0.71869342669E+03  0.73041738368E+03  0.80203638272E+02 0.  0.
         23    2    1    2    0    0 -0.17347878637E+02 -0.11954158717E+03  0.28472621399E+03  0.32041860604E+03  0.83713357393E+02 0.  0.
        -13    1    3    3    0    0 -0.23693108719E+02  0.65222412886E+01  0.12468353192E+03  0.12708220239E+03  0.00000000000E+00 0.  1.
         14    1    3    3    0    0  0.51060550750E+02  0.92511653654E+02  0.59400989477E+03  0.60333518129E+03  0.00000000000E+00 0. -1.
        -13    1    4    4    0    0 -0.44783460880E+02 -0.46472963160E+02  0.16831193115E+03  0.18026147908E+03  0.00000000000E+00 0. -1.
         13    1    4    4    0    0  0.27435582242E+02 -0.73068624006E+02  0.11641428284E+03  0.14015712695E+03  0.00000000000E+00 0.  1.
          1    1    1    2  501    0 -0.10019563393E+02  0.20507692224E+02 -0.16748045370E+02  0.28309964936E+02  0.00000000000E+00 0. -1.
<scales pt_clust_5="13000.00000" pt_clust_6="13000.00000" pt_clust_7="13000.00000" pt_clust_8="13000.00000" pt_clust_9="22.82448"></scales>
<clustering>
<clus scale="   22.824">  2  9  1 -1</clus>
<clus scale="   80.204">  5  6 -1 -1</clus>
<clus scale="   83.713">  7  8 -1 -1</clus>
<clus scale="  133.753">  1  5  2 -1</clus>
<clus scale="   22.824">  2  5  1 -1</clus>
</clustering>
</event>
<event>
 9    2  0.1723348E-004  0.1889057E+03  0.7546771E-02  0.1195724E+00
          2   -1    0    0  502    0 -0.00000000000E+00  0.00000000000E+00  0.10955562566E+04  0.10955562566E+04  0.00000000000E+00 0. -1.
         21   -1    0    0  501  502  0.00000000000E+00 -0.00000000000E+00 -0.45254142819E+02  0.45254142819E+02  0.00000000000E+00 0. -1.
         24    2    1    2    0    0  0.74947314151E+00 -0.33416642284E+02  0.28236756308E+03  0.29439411428E+03  0.76283813173E+02 0.  0.
         23    2    1    2    0    0  0.16002784123E+03  0.49088072000E+02  0.45967103318E+03  0.49839137976E+03  0.95278328539E+02 0.  0.
        -11    1    3    3    0    0  0.21422388892E+02 -0.51493459233E+02  0.18425652659E+03  0.19251224034E+03  0.00000000000E+00 0.  1.
         12    1    3    3    0    0 -0.20672915751E+02  0.18076816950E+02  0.98111036486E+02  0.10188187394E+03  0.00000000000E+00 0. -1.
        -13    1    4    4    0    0  0.32387202371E+02 -0.25352956337E+02  0.64497111422E+02  0.76495625066E+02  0.00000000000E+00 0.  1.
         13    1    4    4    0    0  0.12764063886E+03  0.74441028337E+02  0.39517392176E+03  0.42189575470E+03  0.00000000000E+00 0. -1.
          1    1    1    2  501    0 -0.16077731438E+03 -0.15671429716E+02  0.30826351749E+03  0.34802490535E+03  0.00000000000E+00 0. -1.
<scales pt_clust_5="13000.00000" pt_clust_6="13000.00000" pt_clust_7="13000.00000" pt_clust_8="13000.00000" pt_clust_9="163.11776"></scales>
<clustering>
<clus scale="   76.284">  5  6 -1 -1</clus>
<clus scale="   83.285">  1  5  2 -1</clus>
<clus scale="   95.278">  7  8 -1 -1</clus>
<clus scale="  163.118">  2  9  1 -1</clus>
<clus scale="  163.118">  2  5  1 -1</clus>
</clustering>
</event>
<event>
 9    2  0.1723348E-004  0.1275201E+03  0.7546771E-02  0.1232208E+00
          2   -1    0    0  502    0 -0.00000000000E+00  0.00000000000E+00  0.67974985653E+03  0.67974985653E+03  0.00000000000E+00 0. -1.
         21   -1    0    0  501  502  0.00000000000E+00 -0.00000000000E+00 -0.55337488212E+02  0.55337488212E+02  0.00000000000E+00 0.  1.
         24    2    1    2    0    0  0.25499297641E+02  0.94056427333E+02  0.51538124744E+03  0.53133174105E+03  0.84845525097E+02 0.  0.
         23    2    1    2    0    0 -0.33526966634E+02 -0.68096324955E+02  0.12595235417E+03  0.17174469116E+03  0.88719087331E+02 0.  0.
        -11    1    3    3    0    0 -0.19114432416E+02  0.65968733593E+02  0.19733532759E+03  0.20894608600E+03  0.00000000000E+00 0.  1.
         12    1    3    3    0    0  0.44613730057E+02  0.28087693740E+02  0.31804591985E+03  0.32238565505E+03  0.00000000000E+00 0. -1.
        -11    1    4    4    0    0 -0.20223031063E+02 -0.89375349898E+02  0.10036988039E+03  0.13590819344E+03  0.00000000000E+00 0.  1.
         11    1    4    4    0    0 -0.13303935572E+02  0.21279024942E+02  0.25582473780E+02  0.35836497721E+02  0.00000000000E+00 0. -1.
          1    1    1    2  501    0  0.80276689930E+01 -0.25960102377E+02 -0.16921233294E+02  0.32010912531E+02  0.00000000000E+00 0. -1.
<scales pt_clust_5="13000.00000" pt_clust_6="13000.00000" pt_clust_7="13000.00000" pt_clust_8="13000.00000" pt_clust_9="27.17297"></scales>
<clustering>
<clus scale="   27.173">  2  9  1 -1</clus>
<clus scale="   84.846">  5  6 -1 -1</clus>
<clus scale="   88.719">  7  8 -1 -1</clus>
<clus scale="  124.856">  1  5  2 -1</clus>
<clus scale="   27.173">  2  5  1 -1</clus>
</clustering>
</event>
<event>
 9    2  0.1723348E-004  0.1017416E+03  0.7546771E-02  0.1282237E+00
          2   -1    0    0  502    0 -0.00000000000E+00  0.00000000000E+00  0.66955475800E+03  0.66955475800E+03  0.00000000000E+00 0. -1.
         21   -1    0    0  501  502  0.00000000000E+00 -0.00000000000E+00 -0.21783423119E+02  0.21783423119E+02  0.00000000000E+00 0.  1.
         24    2    1    2    0    0 -0.39486019503E+02  0.95503665679E+01  0.23798660089E+03  0.25409565331E+03  0.79225144930E+02 0.  0.
         23    2    1    2    0    0  0.51914242214E+02  0.31618782159E+02  0.28392865885E+03  0.30424210985E+03  0.90845705249E+02 0.  0.
        -11    1    3    3    0    0  0.52173375757E+01  0.21001694313E+02  0.14869485716E+02  0.26256301737E+02  0.00000000000E+00 0.  1.
         12    1    3    3    0    0 -0.44703357079E+02 -0.11451327745E+02  0.22311711517E+03  0.22783935157E+03  0.00000000000E+00 0. -1.
        -11    1    4    4    0    0 -0.26213198300E+02  0.11333131490E+02  0.77350558669E+02  0.82454111850E+02  0.00000000000E+00 0.  1.
         11    1    4    4    0    0  0.78127440514E+02  0.20285650669E+02  0.20657810018E+03  0.22178799800E+03  0.00000000000E+00 0. -1.
          1    1    1    2  501    0 -0.12428222711E+02 -0.41169148727E+02  0.12585607515E+03  0.13300041796E+03  0.00000000000E+00 0. -1.
<scales pt_clust_5="13000.00000" pt_clust_6="13000.00000" pt_clust_7="13000.00000" pt_clust_8="13000.00000" pt_clust_9="43.00420"></scales>
<clustering>
<clus scale="   43.004">  2  9  1 -1</clus>
<clus scale="   79.225">  5  6 -1 -1</clus>
<clus scale="   90.846">  7  8 -1 -1</clus>
<clus scale="   91.515">  1  5  2 -1</clus>
<clus scale="   43.004">  2  5  1 -1</clus>
</clustering>
</event>
<event>
 9    2  0.1795423E-004  0.1173164E+03  0.7546771E-02  0.1250838E+00
         21   -1    0    0  501  502  0.00000000000E+00  0.00000000000E+00  0.76489487572E+02  0.76489487572E+02  0.00000000000E+00 0. -1.
         -1   -1    0    0    0  501 -0.00000000000E+00 -0.00000000000E+00 -0.65026483803E+03  0.65026483803E+03  0.00000000000E+00 0.  1.
         23    2    1    2    0    0  0.57356361326E+02 -0.50139999593E+02 -0.57577026179E+03  0.58782724904E+03  0.90695692358E+02 0.  0.
         24    2    1    2    0    0 -0.63223049684E+02  0.18678254660E+02 -0.97557449081E+01  0.10483400763E+03  0.80925665822E+02 0.  0.
        -11    1    4    4    0    0 -0.38258245344E+02 -0.90068868777E+01 -0.40556568663E+02  0.56477009568E+02  0.00000000000E+00 0.  1.
         12    1    4    4    0    0 -0.24964804340E+02  0.27685141538E+02  0.30800823755E+02  0.48356998063E+02  0.00000000000E+00 0. -1.
        -13    1    3    3    0    0  0.83010223559E+01 -0.64763001546E+02 -0.37453029089E+03  0.38017902642E+03  0.00000000000E+00 0. -1.
         13    1    3    3    0    0  0.49055338970E+02  0.14623001953E+02 -0.20123997090E+03  0.20764822262E+03  0.00000000000E+00 0.  1.
         -2    1    1    2    0  502  0.58666883581E+01  0.31461744933E+02  0.11750656244E+02  0.34093068924E+02  0.00000000000E+00 0.  1.
<scales pt_clust_5="13000.00000" pt_clust_6="13000.00000" pt_clust_7="13000.00000" pt_clust_8="13000.00000" pt_clust_9="32.00405"></scales>
<clustering>
<clus scale="   32.004">  1  9  2 -1</clus>
<clus scale="   80.926">  5  6 -1 -1</clus>
<clus scale="   90.696">  7  8 -1 -1</clus>
<clus scale="  109.938">  1  5  2 -1</clus>
<clus scale="   32.004">  1  5  2 -1</clus>
</clustering>
</event>
<event>
 9    2  0.1723348E-004  0.1019509E+03  0.7546771E-02  0.1281698E+00
          2   -1    0    0  502    0 -0.00000000000E+00  0.00000000000E+00  0.12662918299E+04  0.12662918299E+04  0.00000000000E+00 0. -1.
         21   -1    0    0  501  502  0.00000000000E+00 -0.00000000000E+00 -0.21098643339E+02  0.21098643339E+02  0.00000000000E+00 0.  1.
         24    2    1    2    0    0 -0.16216832893E+02 -0.43584254588E+02  0.10443630972E+04  0.10484849681E+04  0.80398236644E+02 0.  0.
         23    2    1    2    0    0  0.25135619495E+02  0.25457386196E+02  0.19404236050E+03  0.21759350445E+03  0.91731224968E+02 0.  0.
        -13    1    3    3    0    0  0.12844422062E+02 -0.33834407600E+02  0.18125305410E+03  0.18483077649E+03  0.00000000000E+00 0.  1.
         14    1    3    3    0    0 -0.29061254955E+02 -0.97498469874E+01  0.86311004314E+03  0.86365419158E+03  0.00000000000E+00 0. -1.
        -13    1    4    4    0    0 -0.33323074960E+02  0.15074689918E+02  0.98887471857E+02  0.10543436675E+03  0.00000000000E+00 0.  1.
         13    1    4    4    0    0  0.58458694454E+02  0.10382696279E+02  0.95154888639E+02  0.11215913771E+03  0.00000000000E+00 0. -1.
          1    1    1    2  501    0 -0.89187866021E+01  0.18126868391E+02  0.67877288183E+01  0.21312000719E+02  0.00000000000E+00 0. -1.
<scales pt_clust_5="13000.00000" pt_clust_6="13000.00000" pt_clust_7="13000.00000" pt_clust_8="13000.00000" pt_clust_9="20.20218"></scales>
<clustering>
<clus scale="   20.202">  2  9  1 -1</clus>
<clus scale="   80.398">  5  6 -1 -1</clus>
<clus scale="   91.731">  7  8 -1 -1</clus>
<clus scale="   91.887">  1  5  2 -1</clus>
<clus scale="   20.202">  2  5  1 -1</clus>
</clustering>
</event>
<event>
 9    2  0.1723348E-004  0.2663327E+03  0.7546771E-02  0.1123644E+00
         21   -1    0    0  501  502  0.00000000000E+00  0.00000000000E+00  0.16601707342E+03  0.16601707342E+03  0.00000000000E+00 0. -1.
          2   -1    0    0  502    0 -0.00000000000E+00 -0.00000000000E+00 -0.77746006057E+03  0.77746006057E+03  0.00000000000E+00 0. -1.
         23    2    1    2    0    0 -0.88562471051E+02 -0.96960982020E+02 -0.10568943978E+03  0.19137256156E+03  0.90600531597E+02 0.  0.
         24    2    1    2    0    0  0.30192657212E+03 -0.65816046246E+01 -0.34665053496E+03  0.46651907659E+03  0.79186381181E+02 0.  0.
        -11    1    4    4    0    0  0.17591967492E+03  0.33838797924E+02 -0.18347479240E+03  0.25642892917E+03  0.00000000000E+00 0.  1.
         12    1    4    4    0    0  0.12600689721E+03 -0.40420402548E+02 -0.16317574256E+03  0.21009014742E+03  0.00000000000E+00 0. -1.
        -11    1    3    3    0    0 -0.64433122916E+02 -0.55845183188E+02 -0.11807396428E+02  0.86079767799E+02  0.00000000000E+00 0.  1.
         11    1    3    3    0    0 -0.24129348135E+02 -0.41115798832E+02 -0.93882043350E+02  0.10529279376E+03  0.00000000000E+00 0. -1.
          1    1    1    2  501    0 -0.21336410107E+03  0.10354258664E+03 -0.15910301242E+03  0.28558549584E+03  0.00000000000E+00 0. -1.
<scales pt_clust_5="13000.00000" pt_clust_6="13000.00000" pt_clust_7="13000.00000" pt_clust_8="13000.00000" pt_clust_9="254.28845"></scales>
<clustering>
<clus scale="   79.186">  5  6 -1 -1</clus>
<clus scale="   90.601">  7  8 -1 -1</clus>
<clus scale="  159.541">  2  7  1 -1</clus>
<clus scale="  254.288">  1  9  2 -1</clus>
<clus scale="  254.288">  1  5  2 -1</clus>
</clustering>
</event>
<event>
 9    2  0.1723348E-004  0.9449398E+02  0.7546771E-02  0.1300172E+00
         21   -1    0    0  501  502  0.00000000000E+00  0.00000000000E+00  0.41578128929E+02  0.41578128929E+02  0.00000000000E+00 0. -1.
          2   -1    0    0  502    0 -0.00000000000E+00 -0.00000000000E+00 -0.33262069751E+03  0.33262069751E+03  0.00000000000E+00 0. -1.
         23    2    1    2    0    0 -0.31089149526E+02 -0.15052521592E+01 -0.13357513554E+03  0.16607452980E+03  0.93646311261E+02 0.  0.
         24    2    1    2    0    0 -0.12227166470E+02 -0.12574966093E+02 -0.65193026618E+02  0.10522083771E+03  0.80707252444E+02 0.  0.
        -13    1    4    4    0    0  0.22594768008E+02  0.22337862972E+02 -0.16020545975E+02  0.35583163952E+02  0.00000000000E+00 0.  1.
         14    1    4    4    0    0 -0.34821934479E+02 -0.34912829065E+02 -0.49172480643E+02  0.69637673760E+02  0.00000000000E+00 0. -1.
        -11    1    3    3    0    0  0.33426332061E+02  0.20368820866E+01 -0.37298214412E+02  0.50126094621E+02  0.00000000000E+00 0.  1.
         11    1    3    3    0    0 -0.64515481587E+02 -0.35421342458E+01 -0.96276921128E+02  0.11594843518E+03  0.00000000000E+00 0. -1.
          1    1    1    2  501    0  0.43316315996E+02  0.14080218252E+02 -0.92274406427E+02  0.10290345893E+03  0.00000000000E+00 0. -1.
<scales pt_clust_5="13000.00000" pt_clust_6="13000.00000" pt_clust_7="13000.00000" pt_clust_8="13000.00000" pt_clust_9="45.54731"></scales>
<clustering>
<clus scale="   45.547">  1  9  2 -1</clus>
<clus scale="   80.707">  5  6 -1 -1</clus>
<clus scale="   81.689">  1  5  2 -1</clus>
<clus scale="   93.646">  7  8 -1 -1</clus>
<clus scale="   45.547">  1  5  2 -1</clus>
</clustering>
</event>
<event>
 9    2  0.1723348E-004  0.1147461E+03  0.7546771E-02  0.1255819E+00
         21   -1    0    0  501  502  0.00000000000E+00  0.00000000000E+00  0.20168977552E+03  0.20168977552E+03  0.00000000000E+00 0.  1.
          2   -1    0    0  502    0 -0.00000000000E+00 -0.00000000000E+00 -0.51860721315E+03  0.51860721315E+03  0.00000000000E+00 0. -1.
         23    2    1    2    0    0 -0.72077788951E+02  0.97372947061E+00 -0.47437037332E+03  0.48824916939E+03  0.90353995586E+02 0.  0.
         24    2    1    2    0    0  0.51110702446E+02  0.50451612456E+02  0.68465181144E+02  0.12715260982E+03  0.79515005188E+02 0.  0.
        -11    1    4    4    0    0  0.38948067403E+02  0.62420722623E+02  0.20701181068E+02  0.76431913915E+02  0.00000000000E+00 0.  1.
         12    1    4    4    0    0  0.12162635043E+02 -0.11969110167E+02  0.47764000076E+02  0.50720695901E+02  0.00000000000E+00 0. -1.
        -11    1    3    3    0    0 -0.21105269139E+01 -0.22717527981E+02 -0.29529226002E+02  0.37316425200E+02  0.00000000000E+00 0.  1.
         11    1    3    3    0    0 -0.69967262037E+02  0.23691257452E+02 -0.44484114732E+03  0.45093274419E+03  0.00000000000E+00 0. -1.
          1    1    1    2  501    0  0.20967086505E+02 -0.51425341926E+02  0.88987754543E+02  0.10489520946E+03  0.00000000000E+00 0. -1.
<scales pt_clust_5="13000.00000" pt_clust_6="13000.00000" pt_clust_7="13000.00000" pt_clust_8="13000.00000" pt_clust_9="55.53543"></scales>
<clustering>
<clus scale="   55.535">  1  9  2 -1</clus>
<clus scale="   79.515">  5  6 -1 -1</clus>
<clus scale="   90.354">  7  8 -1 -1</clus>
<clus scale="  106.421">  1  5  2 -1</clus>
<clus scale="   55.535">  1  5  2 -1</clus>
</clustering>
</event>
<event>
 9    2  0.1723348E-004  0.1317059E+03  0.7546771E-02  0.1230007E+00
         -3   -1    0    0    0  501 -0.00000000000E+00  0.00000000000E+00  0.46226703682E+02  0.46226703682E+02  0.00000000000E+00 0.  1.
         21   -1    0    0  501  502  0.00000000000E+00 -0.00000000000E+00 -0.43271102080E+03  0.43271102080E+03  0.00000000000E+00 0.  1.
         23    2    1    2    0    0 -0.14274530479E+02 -0.73676927008E+02 -0.19443469671E+03  0.23041963294E+03  0.98266495633E+02 0.  0.
         24    2    1    2    0    0  0.31661808478E+02  0.94509597820E+02 -0.17437987833E+03  0.21613696441E+03  0.79826757555E+02 0.  0.
        -11    1    4    4    0    0  0.35277548919E+02  0.51351095364E+02 -0.37838963190E+02  0.72891889728E+02  0.00000000000E+00 0.  1.
         12    1    4    4    0    0 -0.36157404414E+01  0.43158502456E+02 -0.13654091514E+03  0.14324507468E+03  0.00000000000E+00 0. -1.
        -13    1    3    3    0    0 -0.48445934848E+02 -0.15129544122E+02 -0.11681827439E+03  0.12736726793E+03  0.00000000000E+00 0.  1.
         13    1    3    3    0    0  0.34171404369E+02 -0.58547382887E+02 -0.77616422319E+02  0.10305236500E+03  0.00000000000E+00 0. -1.
         -4    1    1    2    0  502 -0.17387277999E+02 -0.20832670811E+02 -0.17669742072E+02  0.32381127131E+02  0.00000000000E+00 0.  1.
<scales pt_clust_5="13000.00000" pt_clust_6="13000.00000" pt_clust_7="13000.00000" pt_clust_8="13000.00000" pt_clust_9="27.13519"></scales>
<clustering>
<clus scale="   27.135">  2  9  1 -1</clus>
<clus scale="   79.827">  5  6 -1 -1</clus>
<clus scale="   98.266">  7  8 -1 -1</clus>
<clus scale="  118.585">  2  5  1 -1</clus>
<clus scale="   27.135">  2  5  1 -1</clus>
</clustering>
</event>
<event>
 9    2  0.1723348E-004  0.1104771E+03  0.7546771E-02  0.1264317E+00
         21   -1    0    0  501  502  0.00000000000E+00  0.00000000000E+00  0.38112044825E+03  0.38112044825E+03  0.00000000000E+00 0.  1.
          2   -1    0    0  502    0 -0.00000000000E+00 -0.00000000000E+00 -0.51302201907E+02  0.51302201907E+02  0.00000000000E+00 0. -1.
         24    2    1    2    0    0  0.37050426879E+02 -0.25357477482E+02  0.40719101357E+02  0.11955530258E+03  0.10305187705E+03 0.  0.
         23    2    1    2    0    0 -0.15846573710E+02  0.21671133299E+02  0.21429776768E+03  0.23503137537E+03  0.92711715854E+02 0.  0.
        -11    1    3    3    0    0  0.57116333262E+01  0.39718234262E+02  0.16290448521E+02  0.43307500519E+02  0.00000000000E+00 0.  1.
         12    1    3    3    0    0  0.31338793552E+02 -0.65075711744E+02  0.24428652835E+02  0.76247802065E+02  0.00000000000E+00 0. -1.
        -11    1    4    4    0    0 -0.26473203840E+02  0.50827019964E+02  0.88288119295E+02  0.10525686908E+03  0.00000000000E+00 0.  1.
         11    1    4    4    0    0  0.10626630130E+02 -0.29155886666E+02  0.12600964839E+03  0.12977450629E+03  0.00000000000E+00 0. -1.
          1    1    1    2  501    0 -0.21203853169E+02  0.36863441834E+01  0.74801377305E+02  0.77835972206E+02  0.00000000000E+00 0. -1.
<scales pt_clust_5="13000.00000" pt_clust_6="13000.00000" pt_clust_7="13000.00000" pt_clust_8="13000.00000" pt_clust_9="21.52191"></scales>
<clustering>
<clus scale="   21.522">  1  9  2 -1</clus>
<clus scale="   92.712">  7  8 -1 -1</clus>
<clus scale="  100.901">  1  7  2 -1</clus>
<clus scale="  103.052">  5  6 -1 -1</clus>
<clus scale="   21.522">  1  5  2 -1</clus>
</clustering>
</event>
<event>
 9    2  0.1723348E-004  0.3122469E+03  0.7546771E-02  0.1095029E+00
         21   -1    0    0  501  502  0.00000000000E+00  0.00000000000E+00  0.20230569574E+03  0.20230569574E+03  0.00000000000E+00 0.  1.
          2   -1    0    0  502    0 -0.00000000000E+00 -0.00000000000E+00 -0.88835961504E+03  0.88835961504E+03  0.00000000000E+00 0. -1.
         24    2    1    2    0    0  0.15222837394E+03 -0.11251611348E+03 -0.13108968209E+03  0.24368353222E+03  0.79773463600E+02 0.  0.
         23    2    1    2    0    0  0.97401631931E+01  0.33955460769E+03 -0.24174480139E+03  0.42759329535E+03  0.94885588181E+02 0.  0.
        -11    1    3    3    0    0  0.24529653842E+02  0.11760298021E+02 -0.18704430984E+02  0.33013092336E+02  0.00000000000E+00 0.  1.
         12    1    3    3    0    0  0.12769872010E+03 -0.12427641150E+03 -0.11238525111E+03  0.21067043988E+03  0.00000000000E+00 0. -1.
        -13    1    4    4    0    0  0.30794609434E+02  0.22998116903E+03 -0.20640603447E+03  0.31055288945E+03  0.00000000000E+00 0. -1.
         13    1    4    4    0    0 -0.21054446241E+02  0.10957343866E+03 -0.35338766925E+02  0.11704040590E+03  0.00000000000E+00 0.  1.
          1    1    1    2  501    0 -0.16196853714E+03 -0.22703849421E+03 -0.31321943581E+03  0.41938848321E+03  0.00000000000E+00 0. -1.
<scales pt_clust_5="13000.00000" pt_clust_6="13000.00000" pt_clust_7="13000.00000" pt_clust_8="13000.00000" pt_clust_9="297.48101"></scales>
<clustering>
<clus scale="   79.773">  5  6 -1 -1</clus>
<clus scale="   94.886">  7  8 -1 -1</clus>
<clus scale="  205.420">  2  5  1 -1</clus>
<clus scale="  297.481">  1  9  2 -1</clus>
<clus scale="  297.481">  1  5  2 -1</clus>
</clustering>
</event>
<event>
 9    2  0.1723348E-004  0.1416645E+03  0.7546771E-02  0.1211152E+00
         21   -1    0    0  501  502  0.00000000000E+00  0.00000000000E+00  0.43096744775E+02  0.43096744775E+02  0.00000000000E+00 0.  1.
          2   -1    0    0  502    0 -0.00000000000E+00 -0.00000000000E+00 -0.17594195613E+04  0.17594195613E+04  0.00000000000E+00 0. -1.
         24    2    1    2    0    0 -0.41744468804E+02  0.10802929595E+03 -0.13962592109E+04  0.14038892173E+04  0.89175226779E+02 0.  0.
         23    2    1    2    0    0  0.10034275544E+03 -0.42911319638E+02 -0.24747273065E+03  0.28485738642E+03  0.89391992153E+02 0.  0.
        -11    1    3    3    0    0  0.22425516600E+01  0.21164619983E+02 -0.53113815040E+02  0.57219293294E+02  0.00000000000E+00 0.  1.
         12    1    3    3    0    0 -0.43987020464E+02  0.86864675969E+02 -0.13431453959E+04  0.13466699241E+04  0.00000000000E+00 0. -1.
        -13    1    4    4    0    0  0.61717882720E+02 -0.42660921420E+02 -0.23097692653E+03  0.24285673113E+03  0.00000000000E+00 0. -1.
         13    1    4    4    0    0  0.38624872716E+02 -0.25039821751E+00 -0.16495804121E+02  0.42000655295E+02  0.00000000000E+00 0.  1.
          1    1    1    2  501    0 -0.58598286631E+02 -0.65117976314E+02 -0.72590874962E+02  0.11376970231E+03  0.00000000000E+00 0. -1.
<scales pt_clust_5="13000.00000" pt_clust_6="13000.00000" pt_clust_7="13000.00000" pt_clust_8="13000.00000" pt_clust_9="87.60200"></scales>
<clustering>
<clus scale="   87.602">  1  9  2 -1</clus>
<clus scale="   89.175">  5  6 -1 -1</clus>
<clus scale="   89.392">  7  8 -1 -1</clus>
<clus scale="  141.528">  2  5  1 -1</clus>
<clus scale="   87.602">  1  5  2 -1</clus>
</clustering>
</event>
<event>
 9    2  0.1723348E-004  0.9806215E+02  0.7546771E-02  0.1286499E+00
         21   -1    0    0  501  502  0.00000000000E+00  0.00000000000E+00  0.71992956830E+02  0.71992956830E+02  0.00000000000E+00 0.  1.
         -3   -1    0    0    0  501 -0.00000000000E+00 -0.00000000000E+00 -0.36575331613E+03  0.36575331613E+03  0.00000000000E+00 0.  1.
         23    2    1    2    0    0 -0.32636973315E+02  0.39494648936E+02 -0.25526173111E+03  0.27457222952E+03  0.87214439920E+02 0.  0.
         24    2    1    2    0    0  0.41015973635E+02  0.51512867451E+00 -0.66206763634E+02  0.11379053688E+03  0.82960082462E+02 0.  0.
        -11    1    4    4    0    0  0.19496355274E+02  0.38518643569E+02 -0.52596753360E+02  0.68045662869E+02  0.00000000000E+00 0.  1.
         12    1    4    4    0    0  0.21519618362E+02 -0.38003514894E+02 -0.13610010275E+02  0.45744874012E+02  0.00000000000E+00 0. -1.
        -11    1    3    3    0    0  0.13650839802E+02 -0.20940929852E+02 -0.60359771849E+02  0.65331233174E+02  0.00000000000E+00 0. -1.
         11    1    3    3    0    0 -0.46287813117E+02  0.60435578788E+02 -0.19490195926E+03  0.20924099634E+03  0.00000000000E+00 0.  1.
         -4    1    1    2    0  502 -0.83790003201E+01 -0.40009777610E+02  0.27708135443E+02  0.49383506564E+02  0.00000000000E+00 0.  1.
<scales pt_clust_5="13000.00000" pt_clust_6="13000.00000" pt_clust_7="13000.00000" pt_clust_8="13000.00000" pt_clust_9="40.87774"></scales>
<clustering>
<clus scale="   40.878">  1  9  2 -1</clus>
<clus scale="   82.960">  5  6 -1 -1</clus>
<clus scale="   87.214">  7  8 -1 -1</clus>
<clus scale="   94.298">  1  5  2 -1</clus>
<clus scale="   40.878">  1  5  2 -1</clus>
</clustering>
</event>
<event>
 9    2  0.1723348E-004  0.2683193E+03  0.7546771E-02  0.1102245E+00
         21   -1    0    0  501  502  0.00000000000E+00  0.00000000000E+00  0.61227426966E+02  0.61227426966E+02  0.00000000000E+00 0.  1.
          2   -1    0    0  502    0 -0.00000000000E+00 -0.00000000000E+00 -0.10880079269E+04  0.10880079269E+04  0.00000000000E+00 0. -1.
         24    2    1    2    0    0 -0.49619080888E+02  0.94514216939E+02 -0.13241954208E+03  0.18805889538E+03  0.80226071908E+02 0.  0.
         23    2    1    2    0    0 -0.56897488734E+02  0.75453399105E+02 -0.20396285532E+03  0.24222979142E+03  0.90243480881E+02 0.  0.
        -13    1    3    3    0    0 -0.61392326944E+02  0.10217753900E+03 -0.12201115300E+03  0.17057546348E+03  0.00000000000E+00 0.  1.
         14    1    3    3    0    0  0.11773246057E+02 -0.76633220623E+01 -0.10408389084E+02  0.17483431902E+02  0.00000000000E+00 0. -1.
        -11    1    4    4    0    0  0.14889644936E+02  0.45294477467E+02 -0.46667676595E+02  0.66717038709E+02  0.00000000000E+00 0. -1.
         11    1    4    4    0    0 -0.71787133670E+02  0.30158921638E+02 -0.15729517873E+03  0.17551275271E+03  0.00000000000E+00 0.  1.
          1    1    1    2  501    0  0.10651656962E+03 -0.16996761604E+03 -0.69039810252E+03  0.71894666706E+03  0.00000000000E+00 0. -1.
<scales pt_clust_5="13000.00000" pt_clust_6="13000.00000" pt_clust_7="13000.00000" pt_clust_8="13000.00000" pt_clust_9="200.58617"></scales>
<clustering>
<clus scale="   80.226">  5  6 -1 -1</clus>
<clus scale="   90.243">  7  8 -1 -1</clus>
<clus scale="   99.051">  5  7 -1 -1</clus>
<clus scale="  200.586">  1  9  2 -1</clus>
<clus scale="  200.586">  1  5  2 -1</clus>
</clustering>
</event>
<event>
 9    2  0.1723348E-004  0.2890966E+03  0.7546771E-02  0.1107997E+00
         -3   -1    0    0    0  501 -0.00000000000E+00  0.00000000000E+00  0.30541163757E+03  0.30541163757E+03  0.00000000000E+00 0.  1.
         21   -1    0    0  501  502  0.00000000000E+00 -0.00000000000E+00 -0.59967064105E+03  0.59967064105E+03  0.00000000000E+00 0.  1.
         23    2    1    2    0    0 -0.62645176372E+02  0.14854639287E+03 -0.10435808082E+03  0.21244499223E+03  0.90839510857E+02 0.  0.
         24    2    1    2    0    0  0.17547600966E+03  0.18794098858E+03 -0.20306216679E+03  0.33749256495E+03  0.80952718667E+02 0.  0.
        -13    1    4    4    0    0  0.18102660064E+03  0.19022451205E+03 -0.19343962005E+03  0.32615162384E+03  0.00000000000E+00 0.  1.
         14    1    4    4    0    0 -0.55505909837E+01 -0.22835234642E+01 -0.96225467348E+01  0.11340941114E+02  0.00000000000E+00 0. -1.
        -13    1    3    3    0    0 -0.81959733777E+02  0.13719682097E+03 -0.77936754111E+02  0.17780467734E+03  0.00000000000E+00 0.  1.
         13    1    3    3    0    0  0.19314557405E+02  0.11349571906E+02 -0.26421326712E+02  0.34640314887E+02  0.00000000000E+00 0. -1.
         -4    1    1    2    0  502 -0.11283083328E+03 -0.33648738146E+03  0.13161244129E+02  0.35514472144E+03  0.00000000000E+00 0.  1.
<scales pt_clust_5="13000.00000" pt_clust_6="13000.00000" pt_clust_7="13000.00000" pt_clust_8="13000.00000" pt_clust_9="277.53126"></scales>
<clustering>
<clus scale="   80.953">  5  6 -1 -1</clus>
<clus scale="   90.840">  7  8 -1 -1</clus>
<clus scale="  185.047">  1  7  2 -1</clus>
<clus scale="  277.531">  2  9  1 -1</clus>
<clus scale="  277.531">  2  5  1 -1</clus>
</clustering>
</event>
<event>
 9    2  0.1723348E-004  0.2066230E+03  0.7546771E-02  0.1179481E+00
         21   -1    0    0  501  502  0.00000000000E+00  0.00000000000E+00  0.34166130263E+03  0.34166130263E+03  0.00000000000E+00 0.  1.
          2   -1    0    0  502    0 -0.00000000000E+00 -0.00000000000E+00 -0.19939437957E+03  0.19939437957E+03  0.00000000000E+00 0. -1.
         23    2    1    2    0    0  0.21072054046E+02  0.52074473668E+01  0.10684558760E+03  0.14051403341E+03  0.88640087008E+02 0.  0.
         24    2    1    2    0    0  0.17708336756E+03 -0.29098307750E+02 -0.70528847021E+01  0.19648184457E+03  0.79687774993E+02 0.  0.
        -11    1    4    4    0    0  0.49863861148E+02 -0.44157370579E+02  0.96097970778E+01  0.67295068355E+02  0.00000000000E+00 0.  1.
         12    1    4    4    0    0  0.12721950641E+03  0.15059062830E+02 -0.16662681780E+02  0.12918677622E+03  0.00000000000E+00 0. -1.
        -11    1    3    3    0    0  0.45077799145E+02  0.31265288265E+02  0.54694203752E+02  0.77466006416E+02  0.00000000000E+00 0.  1.
         11    1    3    3    0    0 -0.24005745099E+02 -0.26057840898E+02  0.52151383847E+02  0.63048026989E+02  0.00000000000E+00 0. -1.
          1    1    1    2  501    0 -0.19815542161E+03  0.23890860383E+02  0.42474220169E+02  0.20405980423E+03  0.00000000000E+00 0. -1.
<scales pt_clust_5="13000.00000" pt_clust_6="13000.00000" pt_clust_7="13000.00000" pt_clust_8="13000.00000" pt_clust_9="190.63822"></scales>
<clustering>
<clus scale="   79.688">  5  6 -1 -1</clus>
<clus scale="   88.640">  7  8 -1 -1</clus>
<clus scale="   91.259">  2  7  1 -1</clus>
<clus scale="  190.638">  1  9  2 -1</clus>
<clus scale="  190.638">  1  5  2 -1</clus>
</clustering>
</event>
<event>
 9    2  0.1723348E-004  0.2302324E+03  0.7546771E-02  0.1149324E+00
          2   -1    0    0  502    0 -0.00000000000E+00  0.00000000000E+00  0.10444875686E+04  0.10444875686E+04  0.00000000000E+00 0. -1.
         21   -1    0    0  501  502  0.00000000000E+00 -0.00000000000E+00 -0.11859565283E+03  0.11859565283E+03  0.00000000000E+00 0.  1.
         24    2    1    2    0    0 -0.27429719244E+02  0.10156038764E+03  0.48783276558E+03  0.50548077905E+03  0.80393463542E+02 0.  0.
         23    2    1    2    0    0 -0.16406027367E+03 -0.15584659194E+03  0.95472824370E+02  0.26139441620E+03  0.89487691958E+02 0.  0.
        -13    1    3    3    0    0 -0.29639609570E+02  0.10574791012E+03  0.33434558067E+03  0.35192057948E+03  0.00000000000E+00 0.  1.
         14    1    3    3    0    0  0.22098903260E+01 -0.41875224754E+01  0.15348718491E+03  0.15356019957E+03  0.00000000000E+00 0. -1.
        -11    1    4    4    0    0 -0.38249133629E+02 -0.94795396710E+01  0.48984328317E+02  0.62867498092E+02  0.00000000000E+00 0. -1.
         11    1    4    4    0    0 -0.12581114004E+03 -0.14636705227E+03  0.46488496053E+02  0.19852691811E+03  0.00000000000E+00 0.  1.
          1    1    1    2  501    0  0.19148999292E+03  0.54286204298E+02  0.34258632584E+03  0.39620802619E+03  0.00000000000E+00 0. -1.
<scales pt_clust_5="13000.00000" pt_clust_6="13000.00000" pt_clust_7="13000.00000" pt_clust_8="13000.00000" pt_clust_9="212.12955"></scales>
<clustering>
<clus scale="   80.393">  5  6 -1 -1</clus>
<clus scale="   89.488">  7  8 -1 -1</clus>
<clus scale="  132.401">  1  5  2 -1</clus>
<clus scale="  212.130">  2  9  1 -1</clus>
<clus scale="  212.130">  2  5  1 -1</clus>
</clustering>
</event>
<event>
 9    2  0.1723348E-004  0.1516302E+03  0.7546771E-02  0.1203670E+00
         21   -1    0    0  501  502  0.00000000000E+00  0.00000000000E+00  0.10735996620E+03  0.10735996620E+03  0.00000000000E+00 0.  1.
          2   -1    0    0  502    0 -0.00000000000E+00 -0.00000000000E+00 -0.45354082987E+03  0.45354082987E+03  0.00000000000E+00 0. -1.
         23    2    1    2    0    0  0.96842234125E+02 -0.45916468002E+02 -0.35852181043E+03  0.38854928849E+03  0.10462275416E+03 0.  0.
         24    2    1    2    0    0 -0.10303708305E+03  0.69333994577E+02  0.74027317114E+01  0.14763020762E+03  0.79473482856E+02 0.  0.
        -11    1    4    4    0    0 -0.40472171383E+02  0.12368333746E+02  0.38765618179E+02  0.57391162115E+02  0.00000000000E+00 0.  1.
         12    1    4    4    0    0 -0.62564911663E+02  0.56965660831E+02 -0.31362886467E+02  0.90239045501E+02  0.00000000000E+00 0. -1.
        -13    1    3    3    0    0  0.16669575928E+02 -0.30390333934E+02 -0.19375055968E+02  0.39709444116E+02  0.00000000000E+00 0.  1.
         13    1    3    3    0    0  0.80172658197E+02 -0.15526134068E+02 -0.33914675446E+03  0.34883984437E+03  0.00000000000E+00 0. -1.
          1    1    1    2  501    0  0.61948489210E+01 -0.23417526575E+02  0.49382150506E+01  0.24721299964E+02  0.00000000000E+00 0. -1.
<scales pt_clust_5="13000.00000" pt_clust_6="13000.00000" pt_clust_7="13000.00000" pt_clust_8="13000.00000" pt_clust_9="24.22306"></scales>
<clustering>
<clus scale="   24.223">  1  9  2 -1</clus>
<clus scale="   79.473">  5  6 -1 -1</clus>
<clus scale="  104.623">  7  8 -1 -1</clus>
<clus scale="  135.506">  1  5  2 -1</clus>
<clus scale="   24.223">  1  5  2 -1</clus>
</clustering>
</event>
<event>
 9    2  0.1723348E-004  0.9062621E+02  0.7546771E-02  0.1307472E+00
         21   -1    0    0  501  502  0.00000000000E+00  0.00000000000E+00  0.24067863982E+03  0.24067863982E+03  0.00000000000E+00 0.  1.
         -1   -1    0    0    0  501 -0.00000000000E+00 -0.00000000000E+00 -0.61748208556E+02  0.61748208556E+02  0.00000000000E+00 0.  1.
         23    2    1    2    0    0  0.26589006644E+00 -0.50235524092E+01  0.21193558767E+01  0.89925723422E+02  0.89759886850E+02 0.  0.
         24    2    1    2    0    0 -0.10760587435E+02  0.31809721570E+02  0.11284289145E+03  0.14236150642E+03  0.80035190587E+02 0.  0.
        -11    1    4    4    0    0  0.10481471706E+02  0.43987902663E+02  0.26061408795E+02  0.52191894564E+02  0.00000000000E+00 0.  1.
         12    1    4    4    0    0 -0.21242059141E+02 -0.12178181092E+02  0.86781482655E+02  0.90169611860E+02  0.00000000000E+00 0. -1.
        -13    1    3    3    0    0  0.36406082095E+02 -0.17549700042E+02  0.22841855987E+02  0.46423541118E+02  0.00000000000E+00 0. -1.
         13    1    3    3    0    0 -0.36140192028E+02  0.12526147633E+02 -0.20722500110E+02  0.43502182304E+02  0.00000000000E+00 0.  1.
         -2    1    1    2    0  502  0.10494697369E+02 -0.26786169161E+02  0.63968183934E+02  0.70139618526E+02  0.00000000000E+00 0.  1.
<scales pt_clust_5="13000.00000" pt_clust_6="13000.00000" pt_clust_7="13000.00000" pt_clust_8="13000.00000" pt_clust_9="28.76869"></scales>
<clustering>
<clus scale="   28.769">  1  9  2 -1</clus>
<clus scale="   80.035">  5  6 -1 -1</clus>
<clus scale="   81.006">  1  5  2 -1</clus>
<clus scale="   89.760">  7  8 -1 -1</clus>
<clus scale="   28.769">  1  5  2 -1</clus>
</clustering>
</event>
<event>
 9    2  0.1723348E-004  0.1346675E+03  0.7546771E-02  0.1222936E+00
         21   -1    0    0  501  502  0.00000000000E+00  0.00000000000E+00  0.16989257900E+03  0.16989257900E+03  0.00000000000E+00 0.  1.
          2   -1    0    0  502    0 -0.00000000000E+00 -0.00000000000E+00 -0.30155281049E+03  0.30155281049E+03  0.00000000000E+00 0. -1.
         24    2    1    2    0    0 -0.35106173988E+02  0.89379814508E+02 -0.21716013762E+03  0.25089315361E+03  0.81041066540E+02 0.  0.
         23    2    1    2    0    0  0.44269668591E+02 -0.10940387509E+03  0.18333049743E+02  0.14986758950E+03  0.90527245784E+02 0.  0.
        -11    1    3    3    0    0  0.97593854065E+01  0.26323588724E+02 -0.13554052762E+03  0.13841752618E+03  0.00000000000E+00 0.  1.
         12    1    3    3    0    0 -0.44865559394E+02  0.63056225783E+02 -0.81619609999E+02  0.11247562743E+03  0.00000000000E+00 0. -1.
        -13    1    4    4    0    0  0.59822886778E+02 -0.77976309772E+02  0.42711491751E+02  0.10716041338E+03  0.00000000000E+00 0.  1.
         13    1    4    4    0    0 -0.15553218188E+02 -0.31427565316E+02 -0.24378442008E+02  0.42707176123E+02  0.00000000000E+00 0. -1.
          1    1    1    2  501    0 -0.91634946031E+01  0.20024060580E+02  0.67166856393E+02  0.70684646375E+02  0.00000000000E+00 0. -1.
<scales pt_clust_5="13000.00000" pt_clust_6="13000.00000" pt_clust_7="13000.00000" pt_clust_8="13000.00000" pt_clust_9="22.02119"></scales>
<clustering>
<clus scale="   22.021">  1  9  2 -1</clus>
<clus scale="   81.041">  5  6 -1 -1</clus>
<clus scale="   90.527">  7  8 -1 -1</clus>
<clus scale="  128.483">  2  5  1 -1</clus>
<clus scale="   22.021">  1  5  2 -1</clus>
</clustering>
</event>
<event>
 9    2  0.1723348E-004  0.2333034E+03  0.7546771E-02  0.1125254E+00
         21   -1    0    0  501  502  0.00000000000E+00  0.00000000000E+00  0.32032528059E+03  0.32032528059E+03  0.00000000000E+00 0. -1.
          2   -1    0    0  502    0 -0.00000000000E+00 -0.00000000000E+00 -0.35999174249E+03  0.35999174249E+03  0.00000000000E+00 0. -1.
         23    2    1    2    0    0 -0.26623535368E+03  0.15774136729E+02 -0.13728635252E+01  0.28163705146E+03  0.90484568088E+02 0.  0.
         24    2    1    2    0    0  0.15385554580E+03 -0.26102374802E+02  0.11509821086E+03  0.20824641139E+03  0.75934885066E+02 0.  0.
        -11    1    4    4    0    0  0.66299088046E+02 -0.47018852824E+02  0.38002460432E+02  0.89724737924E+02  0.00000000000E+00 0.  1.
         12    1    4    4    0    0  0.87556457756E+02  0.20916478022E+02  0.77095750423E+02  0.11852167346E+03  0.00000000000E+00 0. -1.
        -13    1    3    3    0    0 -0.16787420453E+03 -0.28301482340E+02 -0.22738647471E+02  0.17175496656E+03  0.00000000000E+00 0. -1.
         13    1    3    3    0    0 -0.98361149152E+02  0.44075619069E+02  0.21365783945E+02  0.10988208490E+03  0.00000000000E+00 0.  1.
          1    1    1    2  501    0  0.11237980788E+03  0.10328238072E+02 -0.15339180923E+03  0.19043356023E+03  0.00000000000E+00 0. -1.
<scales pt_clust_5="13000.00000" pt_clust_6="13000.00000" pt_clust_7="13000.00000" pt_clust_8="13000.00000" pt_clust_9="112.85347"></scales>
<clustering>
<clus scale="   75.935">  5  6 -1 -1</clus>
<clus scale="   90.485">  7  8 -1 -1</clus>
<clus scale="  112.853">  1  9  2 -1</clus>
<clus scale="  228.055">  1  5  2 -1</clus>
<clus scale="  112.853">  1  5  2 -1</clus>
</clustering>
</event>
<event>
 9    2  0.1723348E-004  0.9278506E+02  0.7546771E-02  0.1307336E+00
         -1   -1    0    0    0  501 -0.00000000000E+00  0.00000000000E+00  0.63094680207E+02  0.63094680207E+02  0.00000000000E+00 0.  1.
         21   -1    0    0  501  502  0.00000000000E+00 -0.00000000000E+00 -0.35139685703E+03  0.35139685703E+03  0.00000000000E+00 0.  1.
         24    2    1    2    0    0 -0.13588761471E+02 -0.32202719795E+01  0.13816715175E+02  0.77252612755E+02  0.74713050863E+02 0.  0.
         23    2    1    2    0    0 -0.12382546828E+02  0.17225963049E+02 -0.29061458527E+03  0.30556847595E+03  0.92006494600E+02 0.  0.
        -11    1    3    3    0    0 -0.11967704198E+02  0.35376851917E+02  0.57151060130E+01  0.37781080345E+02  0.00000000000E+00 0.  1.
         12    1    3    3    0    0 -0.16210572729E+01 -0.38597123896E+02  0.81016091619E+01  0.39471532409E+02  0.00000000000E+00 0. -1.
        -13    1    4    4    0    0  0.19214131572E+02 -0.28668896552E+02 -0.70265895534E+02  0.78283999366E+02  0.00000000000E+00 0. -1.
         13    1    4    4    0    0 -0.31596678400E+02  0.45894859600E+02 -0.22034868974E+03  0.22728447658E+03  0.00000000000E+00 0.  1.
         -2    1    1    2    0  502  0.25971308299E+02 -0.14005691069E+02 -0.11504306719E+02  0.31670448531E+02  0.00000000000E+00 0.  1.
<scales pt_clust_5="13000.00000" pt_clust_6="13000.00000" pt_clust_7="13000.00000" pt_clust_8="13000.00000" pt_clust_9="29.50710"></scales>
<clustering>
<clus scale="   29.507">  2  9  1 -1</clus>
<clus scale="   74.713">  5  6 -1 -1</clus>
<clus scale="   75.670">  1  5  2 -1</clus>
<clus scale="   92.006">  7  8 -1 -1</clus>
<clus scale="   29.507">  2  5  1 -1</clus>
</clustering>
</event>
<event>
 9    2  0.1723348E-004  0.1510175E+03  0.7546771E-02  0.1200858E+00
          2   -1    0    0  502    0 -0.00000000000E+00  0.00000000000E+00  0.11373121280E+04  0.11373121280E+04  0.00000000000E+00 0. -1.
         21   -1    0    0  501  502  0.00000000000E+00 -0.00000000000E+00 -0.58774380146E+02  0.58774380146E+02  0.00000000000E+00 0.  1.
         24    2    1    2    0    0 -0.70262949594E+02  0.10253748430E+03  0.96581011898E+03  0.97716090943E+03  0.81261548260E+02 0.  0.
         23    2    1    2    0    0  0.65706760751E+02 -0.80825837225E+02  0.13099387895E+03  0.19018868228E+03  0.90344585744E+02 0.  0.
        -13    1    3    3    0    0 -0.66690840015E+02  0.37415706936E+02  0.37189350547E+03  0.37967404794E+03  0.00000000000E+00 0.  1.
         14    1    3    3    0    0 -0.35721095792E+01  0.65121777367E+02  0.59391661351E+03  0.59748686149E+03  0.00000000000E+00 0. -1.
        -11    1    4    4    0    0  0.10522125418E+02 -0.74481551782E+02  0.44513571961E+02  0.87405233070E+02  0.00000000000E+00 0.  1.
         11    1    4    4    0    0  0.55184635333E+02 -0.63442854426E+01  0.86480306987E+02  0.10278344921E+03  0.00000000000E+00 0. -1.
          1    1    1    2  501    0  0.45561888427E+01 -0.21711647078E+02 -0.18266250062E+02  0.28736916448E+02  0.00000000000E+00 0. -1.
<scales pt_clust_5="13000.00000" pt_clust_6="13000.00000" pt_clust_7="13000.00000" pt_clust_8="13000.00000" pt_clust_9="22.18455"></scales>
<clustering>
<clus scale="   22.185">  2  9  1 -1</clus>
<clus scale="   81.262">  5  6 -1 -1</clus>
<clus scale="   90.345">  7  8 -1 -1</clus>
<clus scale="  145.765">  1  5  2 -1</clus>
<clus scale="   22.185">  2  5  1 -1</clus>
</clustering>
</event>
<event>
 9    2  0.1723348E-004  0.1420130E+03  0.7546771E-02  0.1226233E+00
          2   -1    0    0  502    0 -0.00000000000E+00  0.00000000000E+00  0.10630572905E+04  0.10630572905E+04  0.00000000000E+00 0. -1.
         21   -1    0    0  501  502  0.00000000000E+00 -0.00000000000E+00 -0.36254678364E+02  0.36254678364E+02  0.00000000000E+00 0. -1.
         23    2    1    2    0    0 -0.43389106653E+02  0.22166364390E+02  0.15505651118E+03  0.18575456503E+03  0.89934834661E+02 0.  0.
         24    2    1    2    0    0 -0.68667963663E+02  0.70205133976E+02  0.35877508393E+03  0.38042651462E+03  0.79754135377E+02 0.  0.
        -11    1    4    4    0    0 -0.37108413919E+02  0.13568335457E+01  0.48733862572E+02  0.61268790930E+02  0.00000000000E+00 0.  1.
         12    1    4    4    0    0 -0.31559549744E+02  0.68848300431E+02  0.31004122135E+03  0.31915772369E+03  0.00000000000E+00 0. -1.
        -13    1    3    3    0    0  0.20129273881E+02 -0.47731867038E+01  0.84791547275E+02  0.87278734338E+02  0.00000000000E+00 0.  1.
         13    1    3    3    0    0 -0.63518380534E+02  0.26939551094E+02  0.70264963902E+02  0.98475830694E+02  0.00000000000E+00 0. -1.
          1    1    1    2  501    0  0.11205707032E+03 -0.92371498366E+02  0.51297101707E+03  0.53313088925E+03  0.00000000000E+00 0. -1.
<scales pt_clust_5="13000.00000" pt_clust_6="13000.00000" pt_clust_7="13000.00000" pt_clust_8="13000.00000" pt_clust_9="117.50314"></scales>
<clustering>
<clus scale="   79.754">  5  6 -1 -1</clus>
<clus scale="   89.935">  7  8 -1 -1</clus>
<clus scale="  102.285">  1  7  2 -1</clus>
<clus scale="  117.503">  2  9  1 -1</clus>
<clus scale="  117.503">  2  5  1 -1</clus>
</clustering>
</event>
<event>
 9    2  0.1723348E-004  0.1475696E+03  0.7546771E-02  0.1221282E+00
         21   -1    0    0  501  502  0.00000000000E+00  0.00000000000E+00  0.22225914566E+03  0.22225914566E+03  0.00000000000E+00 0. -1.
          2   -1    0    0  502    0 -0.00000000000E+00 -0.00000000000E+00 -0.16726348953E+03  0.16726348953E+03  0.00000000000E+00 0. -1.
         23    2    1    2    0    0 -0.33529073172E+02 -0.18715716002E+02 -0.28591913115E+02  0.10504631566E+03  0.93502696032E+02 0.  0.
         24    2    1    2    0    0  0.13635320898E+03 -0.19682884677E+02  0.61753081329E+02  0.17256563951E+03  0.83581357584E+02 0.  0.
        -11    1    4    4    0    0  0.79588428924E+01  0.20064792675E+02 -0.54962503223E+01  0.22274376600E+02  0.00000000000E+00 0.  1.
         12    1    4    4    0    0  0.12839436609E+03 -0.39747677353E+02  0.67249331651E+02  0.15029126291E+03  0.00000000000E+00 0. -1.
        -13    1    3    3    0    0  0.28972731494E+01 -0.33955959724E+02 -0.49708206327E+02  0.60268625078E+02  0.00000000000E+00 0.  1.
         13    1    3    3    0    0 -0.36426346322E+02  0.15240243721E+02  0.21116293212E+02  0.44777690584E+02  0.00000000000E+00 0. -1.
          1    1    1    2  501    0 -0.10282413581E+03  0.38398600680E+02  0.21834487915E+02  0.11191068002E+03  0.00000000000E+00 0. -1.
<scales pt_clust_5="13000.00000" pt_clust_6="13000.00000" pt_clust_7="13000.00000" pt_clust_8="13000.00000" pt_clust_9="121.61806"></scales>
<clustering>
<clus scale="   83.581">  5  6 -1 -1</clus>
<clus scale="   93.503">  7  8 -1 -1</clus>
<clus scale="  101.080">  2  7  1 -1</clus>
<clus scale="  121.618">  1  9  2 -1</clus>
<clus scale="  121.618">  1  5  2 -1</clus>
</clustering>
</event>
<event>
 9    2  0.1723348E-004  0.1239835E+03  0.7546771E-02  0.1239749E+00
          2   -1    0    0  502    0 -0.00000000000E+00  0.00000000000E+00  0.10246035134E+03  0.10246035134E+03  0.00000000000E+00 0. -1.
         21   -1    0    0  501  502  0.00000000000E+00 -0.00000000000E+00 -0.24930147279E+03  0.24930147279E+03  0.00000000000E+00 0.  1.
         23    2    1    2    0    0 -0.10796164096E+01 -0.82173382377E+02  0.26003268504E+01  0.12271721848E+03  0.91099526175E+02 0.  0.
         24    2    1    2    0    0 -0.35137832789E+02  0.85013960948E+02 -0.68066991196E+02  0.13992909195E+03  0.80529464392E+02 0.  0.
        -11    1    4    4    0    0  0.25512358542E+02  0.35862977350E+02 -0.20917177648E+02  0.48729476741E+02  0.00000000000E+00 0.  1.
         12    1    4    4    0    0 -0.60650191331E+02  0.49150983598E+02 -0.47149813549E+02  0.91199615212E+02  0.00000000000E+00 0. -1.
        -13    1    3    3    0    0  0.40950829308E+02 -0.59910881754E+02  0.13762445025E+02  0.73862636472E+02  0.00000000000E+00 0. -1.
         13    1    3    3    0    0 -0.42030445717E+02 -0.22262500623E+02 -0.11162118175E+02  0.48854582009E+02  0.00000000000E+00 0.  1.
          1    1    1    2  501    0  0.36217449199E+02 -0.28405785708E+01 -0.81374457102E+02  0.89115513698E+02  0.00000000000E+00 0. -1.
<scales pt_clust_5="13000.00000" pt_clust_6="13000.00000" pt_clust_7="13000.00000" pt_clust_8="13000.00000" pt_clust_9="36.32867"></scales>
<clustering>
<clus scale="   36.329">  2  9  1 -1</clus>
<clus scale="   80.529">  5  6 -1 -1</clus>
<clus scale="   91.100">  7  8 -1 -1</clus>
<clus scale="  116.438">  2  5  1 -1</clus>
<clus scale="   36.329">  2  5  1 -1</clus>
</clustering>
</event>
<event>
 9    2  0.1723348E-004  0.2295434E+03  0.7546771E-02  0.1127507E+00
          2   -1    0    0  502    0 -0.00000000000E+00  0.00000000000E+00  0.10197079479E+04  0.10197079479E+04  0.00000000000E+00 0. -1.
         21   -1    0    0  501  502  0.00000000000E+00 -0.00000000000E+00 -0.82422593344E+02  0.82422593344E+02  0.00000000000E+00 0.  1.
         23    2    1    2    0    0  0.20604079819E+03 -0.69514256056E+02  0.54072365952E+03  0.58967274191E+03  0.89704092816E+02 0.  0.
         24    2    1    2    0    0 -0.19985585029E+03  0.45774842716E+02  0.42256914376E+03  0.47670586626E+03  0.81523644103E+02 0.  0.
        -13    1    4    4    0    0 -0.10014009657E+03 -0.18054834782E+02  0.21128123275E+03  0.23450751654E+03  0.00000000000E+00 0.  1.
         14    1    4    4    0    0 -0.99715753714E+02  0.63829677498E+02  0.21128791101E+03  0.24219834972E+03  0.00000000000E+00 0. -1.
        -13    1    3    3    0    0  0.91974696853E+02 -0.21388497688E+02  0.12986643230E+03  0.16056806324E+03  0.00000000000E+00 0. -1.
         13    1    3    3    0    0  0.11406610134E+03 -0.48125758369E+02  0.41085722723E+03  0.42910467867E+03  0.00000000000E+00 0.  1.
          1    1    1    2  501    0 -0.61849479031E+01  0.23739413341E+02 -0.26007448753E+02  0.35751933052E+02  0.00000000000E+00 0. -1.
<scales pt_clust_5="13000.00000" pt_clust_6="13000.00000" pt_clust_7="13000.00000" pt_clust_8="13000.00000" pt_clust_9="24.53188"></scales>
<clustering>
<clus scale="   24.532">  2  9  1 -1</clus>
<clus scale="   81.524">  5  6 -1 -1</clus>
<clus scale="   89.704">  7  8 -1 -1</clus>
<clus scale="  226.472">  2  5  1 -1</clus>
<clus scale="   24.532">  2  5  1 -1</clus>
</clustering>
</event>
<event>
 9    2  0.1723348E-004  0.9765310E+02  0.7546771E-02  0.1291284E+00
         21   -1    0    0  501  502  0.00000000000E+00  0.00000000000E+00  0.23735007442E+03  0.23735007442E+03  0.00000000000E+00 0.  1.
         -3   -1    0    0    0  501 -0.00000000000E+00 -0.00000000000E+00 -0.27535651279E+03  0.27535651279E+03  0.00000000000E+00 0.  1.
         23    2    1    2    0    0 -0.71935861876E+01 -0.31774122874E+02 -0.21890395065E+03  0.23936641330E+03  0.91192091972E+02 0.  0.
         24    2    1    2    0    0  0.78382921969E+02  0.32802887070E+02  0.55694831448E+02  0.12930999940E+03  0.79995311350E+02 0.  0.
        -11    1    4    4    0    0  0.40816693895E+02  0.43733756211E+02 -0.17032549182E+01  0.59846010812E+02  0.00000000000E+00 0.  1.
         12    1    4    4    0    0  0.37566228074E+02 -0.10930869141E+02  0.57398086366E+02  0.69463988587E+02  0.00000000000E+00 0. -1.
        -11    1    3    3    0    0  0.13469553365E+02 -0.57130924870E+02 -0.99114808369E+02  0.11519165196E+03  0.00000000000E+00 0.  1.
         11    1    3    3    0    0 -0.20663139553E+02  0.25356801996E+02 -0.11978914228E+03  0.12417476133E+03  0.00000000000E+00 0. -1.
         -4    1    1    2    0  502 -0.71189335782E+02 -0.10287641960E+01  0.12520268083E+03  0.14403017452E+03  0.00000000000E+00 0.  1.
<scales pt_clust_5="13000.00000" pt_clust_6="13000.00000" pt_clust_7="13000.00000" pt_clust_8="13000.00000" pt_clust_9="71.19677"></scales>
<clustering>
<clus scale="   71.197">  1  9  2 -1</clus>
<clus scale="   79.995">  5  6 -1 -1</clus>
<clus scale="   87.289">  1  5  2 -1</clus>
<clus scale="   91.192">  7  8 -1 -1</clus>
<clus scale="   71.197">  1  5  2 -1</clus>
</clustering>
</event>
<event>
 9    2  0.1723348E-004  0.1099741E+03  0.7546771E-02  0.1272008E+00
          2   -1    0    0  502    0 -0.00000000000E+00  0.00000000000E+00  0.16562026914E+03  0.16562026914E+03  0.00000000000E+00 0. -1.
         21   -1    0    0  501  502  0.00000000000E+00 -0.00000000000E+00 -0.22235093823E+03  0.22235093823E+03  0.00000000000E+00 0. -1.
         24    2    1    2    0    0  0.37966187506E+02 -0.19494419697E+02  0.30563721770E+02  0.93265030051E+02  0.77089305023E+02 0.  0.
         23    2    1    2    0    0  0.54882994678E+02  0.20397959684E+01 -0.14800524713E+03  0.18240549793E+03  0.91377834419E+02 0.  0.
        -11    1    3    3    0    0  0.20589149288E+02 -0.34022161405E+02 -0.14903884689E+02  0.42468180016E+02  0.00000000000E+00 0.  1.
         12    1    3    3    0    0  0.17377038218E+02  0.14527741708E+02  0.45467606459E+02  0.50796850035E+02  0.00000000000E+00 0. -1.
        -11    1    4    4    0    0  0.22568857741E+02  0.33852315039E+02 -0.17578509831E+02  0.44320836873E+02  0.00000000000E+00 0.  1.
         11    1    4    4    0    0  0.32314136937E+02 -0.31812519070E+02 -0.13042673730E+03  0.13808466105E+03  0.00000000000E+00 0. -1.
          1    1    1    2  501    0 -0.92849182184E+02  0.17454623729E+02  0.60710856276E+02  0.11230067939E+03  0.00000000000E+00 0. -1.
<scales pt_clust_5="13000.00000" pt_clust_6="13000.00000" pt_clust_7="13000.00000" pt_clust_8="13000.00000" pt_clust_9="61.19154"></scales>
<clustering>
<clus scale="   77.089">  5  6 -1 -1</clus>
<clus scale="   88.115">  1  5  2 -1</clus>
<clus scale="   61.192">  2  9  1 -1</clus>
<clus scale="   91.378">  7  8 -1 -1</clus>
<clus scale="   61.192">  2  5  1 -1</clus>
</clustering>
</event>
<event>
 9    2  0.1723348E-004  0.1221690E+03  0.7546771E-02  0.1246275E+00
          2   -1    0    0  502    0 -0.00000000000E+00  0.00000000000E+00  0.12402909451E+04  0.12402909451E+04  0.00000000000E+00 0. -1.
         21   -1    0    0  501  502  0.00000000000E+00 -0.00000000000E+00 -0.79556014987E+02  0.79556014987E+02  0.00000000000E+00 0. -1.
         24    2    1    2    0    0 -0.32393966151E+02  0.62827123425E+02  0.10653859073E+04  0.10705453806E+04  0.77612267155E+02 0.  0.
         23    2    1    2    0    0  0.54373836782E+02 -0.86848528382E+02  0.13656556080E+03  0.19677591333E+03  0.97833668351E+02 0.  0.
        -11    1    3    3    0    0  0.12617924424E+02  0.30236766361E+02  0.15300495772E+03  0.15647361165E+03  0.00000000000E+00 0.  1.
         12    1    3    3    0    0 -0.45011890575E+02  0.32590357064E+02  0.91238094957E+03  0.91407176896E+03  0.00000000000E+00 0. -1.
        -13    1    4    4    0    0  0.28104577791E+02 -0.17332388138E+02  0.11463183407E+03  0.11929265004E+03  0.00000000000E+00 0.  1.
         13    1    4    4    0    0  0.26269258990E+02 -0.69516140245E+02  0.21933726730E+02  0.77483263294E+02  0.00000000000E+00 0. -1.
          1    1    1    2  501    0 -0.21979870631E+02  0.24021404957E+02 -0.41216537934E+02  0.52525666186E+02  0.00000000000E+00 0. -1.
<scales pt_clust_5="13000.00000" pt_clust_6="13000.00000" pt_clust_7="13000.00000" pt_clust_8="13000.00000" pt_clust_9="32.55983"></scales>
<clustering>
<clus scale="   32.560">  2  9  1 -1</clus>
<clus scale="   77.612">  5  6 -1 -1</clus>
<clus scale="   97.834">  7  8 -1 -1</clus>
<clus scale="  106.665">  1  5  2 -1</clus>
<clus scale="   32.560">  2  5  1 -1</clus>
</clustering>
</event>
<event>
 9    2  0.1723348E-004  0.8795027E+02  0.7546771E-02  0.1309136E+00
          4   -1    0    0  502    0 -0.00000000000E+00  0.00000000000E+00  0.74069065402E+02  0.74069065402E+02  0.00000000000E+00 0. -1.
         21   -1    0    0  501  502  0.00000000000E+00 -0.00000000000E+00 -0.17324298545E+03  0.17324298545E+03  0.00000000000E+00 0.  1.
         23    2    1    2    0    0  0.24272498139E+02 -0.30940409955E+02 -0.81106958312E+01  0.89115110143E+02  0.79556623451E+02 0.  0.
         24    2    1    2    0    0  0.11008930477E+02  0.27631049625E+02 -0.86215818518E+02  0.12243063795E+03  0.81678775049E+02 0.  0.
        -11    1    4    4    0    0  0.43811728666E+02  0.31377743089E+02 -0.54752299716E+02  0.76823464216E+02  0.00000000000E+00 0.  1.
         12    1    4    4    0    0 -0.32802798189E+02 -0.37466934639E+01 -0.31463518802E+02  0.45607173738E+02  0.00000000000E+00 0. -1.
        -11    1    3    3    0    0  0.10361915926E+01 -0.53330366035E+02 -0.16389943195E+02  0.55801719260E+02  0.00000000000E+00 0. -1.
         11    1    3    3    0    0  0.23236306547E+02  0.22389956080E+02  0.82792473633E+01  0.33313390883E+02  0.00000000000E+00 0.  1.
          3    1    1    2  501    0 -0.35281428616E+02  0.33093603293E+01 -0.48474057038E+01  0.35766302759E+02  0.00000000000E+00 0. -1.
<scales pt_clust_5="13000.00000" pt_clust_6="13000.00000" pt_clust_7="13000.00000" pt_clust_8="13000.00000" pt_clust_9="35.43631"></scales>
<clustering>
<clus scale="   35.436">  2  9  1 -1</clus>
<clus scale="   79.557">  7  8 -1 -1</clus>
<clus scale="   81.679">  5  6 -1 -1</clus>
<clus scale="   85.983">  1  7  2 -1</clus>
<clus scale="   35.436">  2  5  1 -1</clus>
</clustering>
</event>
<event>
 9    2  0.1723348E-004  0.1470605E+03  0.7546771E-02  0.1207203E+00
         -1   -1    0    0    0  501 -0.00000000000E+00  0.00000000000E+00  0.78607071513E+02  0.78607071513E+02  0.00000000000E+00 0.  1.
         21   -1    0    0  501  502  0.00000000000E+00 -0.00000000000E+00 -0.69456174225E+03  0.69456174225E+03  0.00000000000E+00 0.  1.
         23    2    1    2    0    0 -0.82891562597E+02  0.29447732105E+02 -0.15967752398E+03  0.20423271032E+03  0.92064695864E+02 0.  0.
         24    2    1    2    0    0  0.17924571146E+03 -0.29398063039E+02 -0.42366961179E+03  0.46721405172E+03  0.76156148666E+02 0.  0.
        -11    1    4    4    0    0  0.12977875080E+03  0.98028944599E+01 -0.24023105557E+03  0.27322075499E+03  0.00000000000E+00 0.  1.
         12    1    4    4    0    0  0.49466960667E+02 -0.39200957499E+02 -0.18343855622E+03  0.19399329673E+03  0.00000000000E+00 0. -1.
        -13    1    3    3    0    0 -0.93965119801E+02 -0.98360111308E+00 -0.10708425588E+03  0.14246911619E+03  0.00000000000E+00 0.  1.
         13    1    3    3    0    0  0.11073557204E+02  0.30431333218E+02 -0.52593268100E+02  0.61763594131E+02  0.00000000000E+00 0. -1.
         -2    1    1    2    0  502 -0.96354148865E+02 -0.49669065826E-01 -0.32607534964E+02  0.10172205172E+03  0.00000000000E+00 0.  1.
<scales pt_clust_5="13000.00000" pt_clust_6="13000.00000" pt_clust_7="13000.00000" pt_clust_8="13000.00000" pt_clust_9="96.35421"></scales>
<clustering>
<clus scale="   76.156">  5  6 -1 -1</clus>
<clus scale="   92.065">  7  8 -1 -1</clus>
<clus scale="   96.354">  2  9  1 -1</clus>
<clus scale="  137.661">  2  5  1 -1</clus>
<clus scale="   96.354">  2  5  1 -1</clus>
</clustering>
</event>
<event>
 9    2  0.1723348E-004  0.1138769E+03  0.7546771E-02  0.1257169E+00
         -1   -1    0    0    0  501 -0.00000000000E+00  0.00000000000E+00  0.17379130765E+03  0.17379130765E+03  0.00000000000E+00 0.  1.
         21   -1    0    0  501  502  0.00000000000E+00 -0.00000000000E+00 -0.15807949579E+03  0.15807949579E+03  0.00000000000E+00 0.  1.
         23    2    1    2    0    0 -0.67149625891E+02  0.73253367523E+01  0.50805376402E+02  0.12421663225E+03  0.91026658952E+02 0.  0.
         24    2    1    2    0    0  0.69076289238E+02  0.19071042444E+02  0.49571850112E+02  0.11894840302E+03  0.80969845396E+02 0.  0.
        -13    1    4    4    0    0  0.56847427410E+02  0.38802870507E+02  0.61983886335E+02  0.92624483415E+02  0.00000000000E+00 0.  1.
         14    1    4    4    0    0  0.12228861828E+02 -0.19731828063E+02 -0.12412036223E+02  0.26323919608E+02  0.00000000000E+00 0. -1.
        -13    1    3    3    0    0 -0.38765922017E+02 -0.13738753396E+02  0.72060956864E+02  0.82971872094E+02  0.00000000000E+00 0.  1.
         13    1    3    3    0    0 -0.28383703873E+02  0.21064090148E+02 -0.21255580462E+02  0.41244760153E+02  0.00000000000E+00 0. -1.
         -2    1    1    2    0  502 -0.19266633473E+01 -0.26396379196E+02 -0.84665414659E+02  0.88705768164E+02  0.00000000000E+00 0.  1.
<scales pt_clust_5="13000.00000" pt_clust_6="13000.00000" pt_clust_7="13000.00000" pt_clust_8="13000.00000" pt_clust_9="26.46660"></scales>
<clustering>
<clus scale="   26.467">  2  9  1 -1</clus>
<clus scale="   80.970">  5  6 -1 -1</clus>
<clus scale="   91.027">  7  8 -1 -1</clus>
<clus scale="  106.010">  2  5  1 -1</clus>
<clus scale="   26.467">  2  5  1 -1</clus>
</clustering>
</event>
<event>
 9    2  0.1723348E-004  0.1358653E+03  0.7546771E-02  0.1220968E+00
         21   -1    0    0  501  502  0.00000000000E+00  0.00000000000E+00  0.50034671143E+03  0.50034671143E+03  0.00000000000E+00 0.  1.
         -3   -1    0    0    0  501 -0.00000000000E+00 -0.00000000000E+00 -0.10075894129E+03  0.10075894129E+03  0.00000000000E+00 0.  1.
         23    2    1    2    0    0 -0.14656166670E+02 -0.86306918851E+02  0.65831612649E+01  0.12814473930E+03  0.93349069273E+02 0.  0.
         24    2    1    2    0    0  0.45332839013E+01  0.15869434181E+03  0.33210480372E+03  0.37782312899E+03  0.85160268691E+02 0.  0.
        -11    1    4    4    0    0  0.34762885213E+02  0.95868136776E+02  0.13809870388E+03  0.17166947851E+03  0.00000000000E+00 0.  1.
         12    1    4    4    0    0 -0.30229601311E+02  0.62826205033E+02  0.19400609984E+03  0.20615365048E+03  0.00000000000E+00 0. -1.
        -11    1    3    3    0    0  0.20808015522E+02 -0.68609809186E+02  0.34599718872E+02  0.79607914007E+02  0.00000000000E+00 0. -1.
         11    1    3    3    0    0 -0.35464182192E+02 -0.17697109665E+02 -0.28016557607E+02  0.48536825289E+02  0.00000000000E+00 0.  1.
         -4    1    1    2    0  502  0.10122882768E+02 -0.72387422958E+02  0.60899805157E+02  0.95137784430E+02  0.00000000000E+00 0.  1.
<scales pt_clust_5="13000.00000" pt_clust_6="13000.00000" pt_clust_7="13000.00000" pt_clust_8="13000.00000" pt_clust_9="73.09184"></scales>
<clustering>
<clus scale="   73.092">  1  9  2 -1</clus>
<clus scale="   85.160">  5  6 -1 -1</clus>
<clus scale="   93.349">  7  8 -1 -1</clus>
<clus scale="  130.375">  1  5  2 -1</clus>
<clus scale="   73.092">  1  5  2 -1</clus>
</clustering>
</event>
<event>
 9    2  0.1723348E-004  0.1035261E+03  0.7546771E-02  0.1289527E+00
         21   -1    0    0  501  502  0.00000000000E+00  0.00000000000E+00  0.25812498714E+03  0.25812498714E+03  0.00000000000E+00 0.  1.
         -3   -1    0    0    0  501 -0.00000000000E+00 -0.00000000000E+00 -0.19038069021E+03  0.19038069021E+03  0.00000000000E+00 0.  1.
         24    2    1    2    0    0  0.16484543211E+02 -0.24834524884E+02 -0.15716050642E+03  0.17462730484E+03  0.70048390591E+02 0.  0.
         23    2    1    2    0    0 -0.26082464800E+02 -0.57831074193E+00  0.91204146022E+02  0.13744597868E+03  0.99461406544E+02 0.  0.
        -11    1    3    3    0    0 -0.15938402287E+02 -0.36432352217E+02 -0.64477698807E+02  0.75754356964E+02  0.00000000000E+00 0.  1.
         12    1    3    3    0    0  0.32422945498E+02  0.11597827333E+02 -0.92682807614E+02  0.98872947872E+02  0.00000000000E+00 0. -1.
        -13    1    4    4    0    0 -0.48204315477E+02 -0.33893070393E+02  0.72127119539E+02  0.93138164166E+02  0.00000000000E+00 0.  1.
         13    1    4    4    0    0  0.22121850678E+02  0.33314759651E+02  0.19077026483E+02  0.44307814519E+02  0.00000000000E+00 0. -1.
         -4    1    1    2    0  502  0.95979215893E+01  0.25412835626E+02  0.13370065733E+03  0.13643239382E+03  0.00000000000E+00 0.  1.
<scales pt_clust_5="13000.00000" pt_clust_6="13000.00000" pt_clust_7="13000.00000" pt_clust_8="13000.00000" pt_clust_9="27.16491"></scales>
<clustering>
<clus scale="   27.165">  1  9  2 -1</clus>
<clus scale="   70.048">  5  6 -1 -1</clus>
<clus scale="   75.709">  2  5  1 -1</clus>
<clus scale="   99.461">  7  8 -1 -1</clus>
<clus scale="   27.165">  1  5  2 -1</clus>
</clustering>
</event>
<event>
 9    2  0.1723348E-004  0.9392244E+02  0.7546771E-02  0.1297102E+00
          2   -1    0    0  502    0 -0.00000000000E+00  0.00000000000E+00  0.64466944546E+02  0.64466944546E+02  0.00000000000E+00 0. -1.
         21   -1    0    0  501  502  0.00000000000E+00 -0.00000000000E+00 -0.49587799471E+03  0.49587799471E+03  0.00000000000E+00 0. -1.
         23    2    1    2    0    0 -0.16250620983E+02 -0.13482314849E+01 -0.11700625279E+02  0.94121090850E+02  0.91956373898E+02 0.  0.
         24    2    1    2    0    0 -0.13630923591E+02  0.79518910513E+02 -0.21771768370E+03  0.24758115070E+03  0.85944035174E+02 0.  0.
        -11    1    4    4    0    0 -0.27225267329E+02 -0.23829919060E+01 -0.99073527024E+02  0.10277381762E+03  0.00000000000E+00 0.  1.
         12    1    4    4    0    0  0.13594343738E+02  0.81901902419E+02 -0.11864415667E+03  0.14480733308E+03  0.00000000000E+00 0. -1.
        -13    1    3    3    0    0 -0.24193484547E+02 -0.42310952914E+02  0.53782745514E+01  0.49035367524E+02  0.00000000000E+00 0.  1.
         13    1    3    3    0    0  0.79428635633E+01  0.40962721429E+02 -0.17078899830E+02  0.45085723327E+02  0.00000000000E+00 0. -1.
          1    1    1    2  501    0  0.29881544575E+02 -0.78170679028E+02 -0.20199274119E+03  0.21864269771E+03  0.00000000000E+00 0. -1.
<scales pt_clust_5="13000.00000" pt_clust_6="13000.00000" pt_clust_7="13000.00000" pt_clust_8="13000.00000" pt_clust_9="83.68729"></scales>
<clustering>
<clus scale="   83.687">  2  9  1 -1</clus>
<clus scale="   85.944">  5  6 -1 -1</clus>
<clus scale="   88.044">  2  5  1 -1</clus>
<clus scale="   91.956">  7  8 -1 -1</clus>
<clus scale="   83.687">  2  5  1 -1</clus>
</clustering>
</event>
<event>
 9    2  0.1723348E-004  0.1269520E+03  0.7546771E-02  0.1235000E+00
         -1   -1    0    0    0  501 -0.00000000000E+00  0.00000000000E+00  0.77603226764E+02  0.77603226764E+02  0.00000000000E+00 0.  1.
         21   -1    0    0  501  502  0.00000000000E+00 -0.00000000000E+00 -0.56122974430E+03  0.56122974430E+03  0.00000000000E+00 0. -1.
         24    2    1    2    0    0 -0.66159288320E+02  0.49476403425E+02 -0.60683088246E+00  0.11542352041E+03  0.80605551251E+02 0.  0.
         23    2    1    2    0    0  0.10958976939E+03 -0.63280957713E+02 -0.37424750082E+03  0.40547658494E+03  0.91299900886E+02 0.  0.
        -11    1    3    3    0    0 -0.46088214096E+02  0.67506393210E+02  0.16621775925E+02  0.83411749998E+02  0.00000000000E+00 0.  1.
         12    1    3    3    0    0 -0.20071074224E+02 -0.18029989785E+02 -0.17228606807E+02  0.32011770408E+02  0.00000000000E+00 0. -1.
        -13    1    4    4    0    0  0.45803708512E+02  0.36919572995E+01 -0.22690649935E+03  0.23151278520E+03  0.00000000000E+00 0.  1.
         13    1    4    4    0    0  0.63786060877E+02 -0.66972915013E+02 -0.14734100147E+03  0.17396379975E+03  0.00000000000E+00 0. -1.
         -2    1    1    2    0  502 -0.43430481070E+02  0.13804554288E+02 -0.10877218583E+03  0.11793286571E+03  0.00000000000E+00 0.  1.
<scales pt_clust_5="13000.00000" pt_clust_6="13000.00000" pt_clust_7="13000.00000" pt_clust_8="13000.00000" pt_clust_9="45.57162"></scales>
<clustering>
<clus scale="   45.572">  2  9  1 -1</clus>
<clus scale="   80.606">  5  6 -1 -1</clus>
<clus scale="   91.300">  7  8 -1 -1</clus>
<clus scale="  119.492">  1  5  2 -1</clus>
<clus scale="   45.572">  2  5  1 -1</clus>
</clustering>
</event>
<event>
 9    2  0.1723348E-004  0.9185919E+02  0.7546771E-02  0.1304820E+00
          2   -1    0    0  502    0 -0.00000000000E+00  0.00000000000E+00  0.31883604780E+03  0.31883604780E+03  0.00000000000E+00 0. -1.
         21   -1    0    0  501  502  0.00000000000E+00 -0.00000000000E+00 -0.48453419072E+02  0.48453419072E+02  0.00000000000E+00 0.  1.
         24    2    1    2    0    0  0.10476574571E+01 -0.91186596457E+01  0.18329631526E+03  0.20057670077E+03  0.80927289368E+02 0.  0.
         23    2    1    2    0    0 -0.24073160264E+02  0.19682661774E+01  0.10152706458E+03  0.13860872371E+03  0.91220843715E+02 0.  0.
        -11    1    3    3    0    0 -0.37826073459E+02 -0.12719214981E+02  0.67944377864E+02  0.78797390480E+02  0.00000000000E+00 0.  1.
         12    1    3    3    0    0  0.38873730916E+02  0.36005553356E+01  0.11535193739E+03  0.12177931029E+03  0.00000000000E+00 0. -1.
        -11    1    4    4    0    0 -0.31196608555E+02  0.35985196401E+02  0.90293271515E+02  0.10208348361E+03  0.00000000000E+00 0.  1.
         11    1    4    4    0    0  0.71234482903E+01 -0.34016930223E+02  0.11233793067E+02  0.36525240095E+02  0.00000000000E+00 0. -1.
          1    1    1    2  501    0  0.23025502807E+02  0.71503934683E+01 -0.14440751113E+02  0.28104042396E+02  0.00000000000E+00 0. -1.
<scales pt_clust_5="13000.00000" pt_clust_6="13000.00000" pt_clust_7="13000.00000" pt_clust_8="13000.00000" pt_clust_9="24.11020"></scales>
<clustering>
<clus scale="   24.110">  2  9  1 -1</clus>
<clus scale="   80.927">  5  6 -1 -1</clus>
<clus scale="   81.646">  1  5  2 -1</clus>
<clus scale="   91.221">  7  8 -1 -1</clus>
<clus scale="   24.110">  2  5  1 -1</clus>
</clustering>
</event>
<event>
 9    2  0.1723348E-004  0.2482666E+03  0.7546771E-02  0.1114405E+00
         21   -1    0    0  501  502  0.00000000000E+00  0.00000000000E+00  0.80119741648E+03  0.80119741648E+03  0.00000000000E+00 0. -1.
          2   -1    0    0  502    0 -0.00000000000E+00 -0.00000000000E+00 -0.12496227682E+03  0.12496227682E+03  0.00000000000E+00 0. -1.
         24    2    1    2    0    0  0.43528007221E+02  0.70646824506E+02 -0.64005438518E+02  0.12969381521E+03  0.76407645682E+02 0.  0.
         23    2    1    2    0    0  0.86096762750E+01  0.19617369823E+02  0.70495772952E+02  0.11865759624E+03  0.93010770440E+02 0.  0.
        -13    1    3    3    0    0  0.29535835535E+02  0.74247500205E-01  0.50558542066E+01  0.29965526112E+02  0.00000000000E+00 0.  1.
         14    1    3    3    0    0  0.13992171686E+02  0.70572577006E+02 -0.69061292724E+02  0.99728289098E+02  0.00000000000E+00 0. -1.
        -13    1    4    4    0    0 -0.11957492771E+02  0.46215882047E+02  0.70370419960E+02  0.85034612906E+02  0.00000000000E+00 0. -1.
         13    1    4    4    0    0  0.20567169046E+02 -0.26598512224E+02  0.12535299185E+00  0.33622983337E+02  0.00000000000E+00 0.  1.
          1    1    1    2  501    0 -0.52137683496E+02 -0.90264194329E+02  0.66974480522E+03  0.67780828185E+03  0.00000000000E+00 0. -1.
<scales pt_clust_5="13000.00000" pt_clust_6="13000.00000" pt_clust_7="13000.00000" pt_clust_8="13000.00000" pt_clust_9="104.23993"></scales>
<clustering>
<clus scale="   76.408">  5  6 -1 -1</clus>
<clus scale="   93.011">  7  8 -1 -1</clus>
<clus scale="   94.711">  5  7 -1 -1</clus>
<clus scale="  104.240">  1  9  2 -1</clus>
<clus scale="  104.240">  1  5  2 -1</clus>
</clustering>
</event>
<event>
 9    2  0.1723348E-004  0.1689879E+03  0.7546771E-02  0.1204556E+00
         21   -1    0    0  501  502  0.00000000000E+00  0.00000000000E+00  0.87020333432E+02  0.87020333432E+02  0.00000000000E+00 0.  1.
         -1   -1    0    0    0  501 -0.00000000000E+00 -0.00000000000E+00 -0.69083479126E+03  0.69083479126E+03  0.00000000000E+00 0.  1.
         24    2    1    2    0    0  0.12781644616E+02 -0.51529887040E+02 -0.30077967847E+02  0.10063952640E+03  0.80030809230E+02 0.  0.
         23    2    1    2    0    0  0.75000964269E+02 -0.74036875838E+02 -0.47471813778E+03  0.49479456761E+03  0.91420731677E+02 0.  0.
        -11    1    3    3    0    0  0.44742115257E+02 -0.20845116183E+02 -0.26914461178E+02  0.56220672060E+02  0.00000000000E+00 0.  1.
         12    1    3    3    0    0 -0.31960470641E+02 -0.30684770856E+02 -0.31635066689E+01  0.44418854336E+02  0.00000000000E+00 0. -1.
        -13    1    4    4    0    0  0.56308083357E+01 -0.68694604321E+02 -0.26603565024E+03  0.27481925308E+03  0.00000000000E+00 0.  1.
         13    1    4    4    0    0  0.69370155934E+02 -0.53422715173E+01 -0.20868248754E+03  0.21997531454E+03  0.00000000000E+00 0. -1.
         -2    1    1    2    0  502 -0.87782608885E+02  0.12556676288E+03 -0.99018352207E+02  0.18242103069E+03  0.00000000000E+00 0.  1.
<scales pt_clust_5="13000.00000" pt_clust_6="13000.00000" pt_clust_7="13000.00000" pt_clust_8="13000.00000" pt_clust_9="142.12378"></scales>
<clustering>
<clus scale="   80.031">  5  6 -1 -1</clus>
<clus scale="   91.421">  7  8 -1 -1</clus>
<clus scale="   96.040">  2  5  1 -1</clus>
<clus scale="  142.124">  1  9  2 -1</clus>
<clus scale="  142.124">  1  5  2 -1</clus>
</clustering>
</event>
<event>
 9    2  0.1723348E-004  0.1343552E+03  0.7546771E-02  0.1225845E+00
          2   -1    0    0  502    0 -0.00000000000E+00  0.00000000000E+00  0.58504639111E+03  0.58504639111E+03  0.00000000000E+00 0. -1.
         21   -1    0    0  501  502  0.00000000000E+00 -0.00000000000E+00 -0.27719575956E+03  0.27719575956E+03  0.00000000000E+00 0.  1.
         24    2    1    2    0    0 -0.42682934243E+02 -0.78424516133E+02  0.50915872262E+03  0.52323280115E+03  0.80979761478E+02 0.  0.
         23    2    1    2    0    0  0.56173413363E+01  0.15453870836E+03 -0.16526108978E+03  0.24699514009E+03  0.98901994568E+02 0.  0.
        -13    1    3    3    0    0  0.20547396598E+02 -0.16907057342E+01  0.10672005634E+03  0.10869325839E+03  0.00000000000E+00 0.  1.
         14    1    3    3    0    0 -0.63230330841E+02 -0.76733810399E+02  0.40243866628E+03  0.41453954276E+03  0.00000000000E+00 0. -1.
        -11    1    4    4    0    0 -0.30090444072E+02  0.71441322855E+02 -0.27611162675E+02  0.82290180095E+02  0.00000000000E+00 0. -1.
         11    1    4    4    0    0  0.35707785408E+02  0.83097385502E+02 -0.13764992710E+03  0.16470495999E+03  0.00000000000E+00 0.  1.
          1    1    1    2  501    0  0.37065592906E+02 -0.76114192224E+02 -0.36047001294E+02  0.92014209434E+02  0.00000000000E+00 0. -1.
<scales pt_clust_5="13000.00000" pt_clust_6="13000.00000" pt_clust_7="13000.00000" pt_clust_8="13000.00000" pt_clust_9="84.65949"></scales>
<clustering>
<clus scale="   80.980">  5  6 -1 -1</clus>
<clus scale="   84.659">  2  9  1 -1</clus>
<clus scale="   98.902">  7  8 -1 -1</clus>
<clus scale="  121.768">  1  5  2 -1</clus>
<clus scale="   84.659">  2  5  1 -1</clus>
</clustering>
</event>
<event>
 9    2  0.1723348E-004  0.3918915E+03  0.7546771E-02  0.1046624E+00
          2   -1    0    0  502    0 -0.00000000000E+00  0.00000000000E+00  0.13546247855E+04  0.13546247855E+04  0.00000000000E+00 0. -1.
         21   -1    0    0  501  502  0.00000000000E+00 -0.00000000000E+00 -0.13652614584E+03  0.13652614584E+03  0.00000000000E+00 0. -1.
         24    2    1    2    0    0  0.41507865949E+02 -0.10323832826E+03  0.39946130533E+03  0.42303981633E+03  0.83739455352E+02 0.  0.
         23    2    1    2    0    0  0.18671340344E+03 -0.14247481312E+03  0.64065811434E+03  0.68845798600E+03  0.91491046624E+02 0.  0.
        -11    1    3    3    0    0  0.27686707521E+02 -0.93897084464E+02  0.19789278058E+03  0.22078217511E+03  0.00000000000E+00 0.  1.
         12    1    3    3    0    0  0.13821158428E+02 -0.93412437910E+01  0.20156852476E+03  0.20225764121E+03  0.00000000000E+00 0. -1.
        -11    1    4    4    0    0  0.57521766592E+02 -0.40657345027E+02  0.93216754471E+02  0.11683807877E+03  0.00000000000E+00 0.  1.
         11    1    4    4    0    0  0.12919163685E+03 -0.10181746809E+03  0.54744135987E+03  0.57161990723E+03  0.00000000000E+00 0. -1.
          1    1    1    2  501    0 -0.22822126939E+03  0.24571314137E+03  0.17797922003E+03  0.37965312906E+03  0.00000000000E+00 0. -1.
<scales pt_clust_5="13000.00000" pt_clust_6="13000.00000" pt_clust_7="13000.00000" pt_clust_8="13000.00000" pt_clust_9="335.35041"></scales>
<clustering>
<clus scale="   83.739">  5  6 -1 -1</clus>
<clus scale="   91.491">  7  8 -1 -1</clus>
<clus scale="  111.443">  5  7 -1 -1</clus>
<clus scale="  335.350">  2  9  1 -1</clus>
<clus scale="  335.350">  2  5  1 -1</clus>
</clustering>
</event>
<event>
 9    2  0.1723348E-004  0.1109499E+03  0.7546771E-02  0.1264798E+00
         21   -1    0    0  501  502  0.00000000000E+00  0.00000000000E+00  0.91693917592E+02  0.91693917592E+02  0.00000000000E+00 0.  1.
          2   -1    0    0  502    0 -0.00000000000E+00 -0.00000000000E+00 -0.29314197946E+03  0.29314197946E+03  0.00000000000E+00 0. -1.
         24    2    1    2    0    0  0.56938373573E+02  0.30136144674E+02 -0.18852318365E+03  0.21390425123E+03  0.77870869501E+02 0.  0.
         23    2    1    2    0    0 -0.59377433647E+02  0.14900237738E+02 -0.40093030967E+02  0.11827869454E+03  0.92923095829E+02 0.  0.
        -11    1    3    3    0    0  0.48705025358E+02  0.55662843830E+02 -0.13107275680E+03  0.15050116031E+03  0.00000000000E+00 0.  1.
         12    1    3    3    0    0  0.82333482149E+01 -0.25526699156E+02 -0.57450426849E+02  0.63403090917E+02  0.00000000000E+00 0. -1.
        -13    1    4    4    0    0 -0.33175028570E+02  0.43216632013E+02  0.96484770906E+01  0.55329494063E+02  0.00000000000E+00 0.  1.
         13    1    4    4    0    0 -0.26202405077E+02 -0.28316394275E+02 -0.49741508057E+02  0.62949200475E+02  0.00000000000E+00 0. -1.
          1    1    1    2  501    0  0.24390600738E+01 -0.45036382412E+02  0.27168152755E+02  0.52652951284E+02  0.00000000000E+00 0. -1.
<scales pt_clust_5="13000.00000" pt_clust_6="13000.00000" pt_clust_7="13000.00000" pt_clust_8="13000.00000" pt_clust_9="45.10238"></scales>
<clustering>
<clus scale="   45.102">  1  9  2 -1</clus>
<clus scale="   77.871">  5  6 -1 -1</clus>
<clus scale="   92.923">  7  8 -1 -1</clus>
<clus scale="   98.687">  2  5  1 -1</clus>
<clus scale="   45.102">  1  5  2 -1</clus>
</clustering>
</event>
<event>
 9    2  0.1723348E-004  0.9482526E+02  0.7546771E-02  0.1299049E+00
         21   -1    0    0  501  502  0.00000000000E+00  0.00000000000E+00  0.10858264970E+03  0.10858264970E+03  0.00000000000E+00 0. -1.
          2   -1    0    0  502    0 -0.00000000000E+00 -0.00000000000E+00 -0.26353943982E+03  0.26353943982E+03  0.00000000000E+00 0. -1.
         24    2    1    2    0    0 -0.35714515764E+01  0.25008274041E+02 -0.16503417587E+03  0.18482226151E+03  0.79276857326E+02 0.  0.
         23    2    1    2    0    0  0.26956215077E+02  0.43980806966E+01  0.68446368949E+02  0.11788427454E+03  0.92009869670E+02 0.  0.
        -11    1    3    3    0    0  0.16349460466E+02 -0.20887272195E+02 -0.26347878881E+02  0.37387079570E+02  0.00000000000E+00 0.  1.
         12    1    3    3    0    0 -0.19920912042E+02  0.45895546236E+02 -0.13868629699E+03  0.14743518194E+03  0.00000000000E+00 0. -1.
        -13    1    4    4    0    0 -0.78696336733E+01 -0.18646078332E+02  0.73114987224E+02  0.75864410155E+02  0.00000000000E+00 0. -1.
         13    1    4    4    0    0  0.34825848751E+02  0.23044159028E+02 -0.46686182748E+01  0.42019864387E+02  0.00000000000E+00 0.  1.
          1    1    1    2  501    0 -0.23384763501E+02 -0.29406354737E+02 -0.58368983195E+02  0.69415553460E+02  0.00000000000E+00 0. -1.
<scales pt_clust_5="13000.00000" pt_clust_6="13000.00000" pt_clust_7="13000.00000" pt_clust_8="13000.00000" pt_clust_9="37.57103"></scales>
<clustering>
<clus scale="   37.571">  1  9  2 -1</clus>
<clus scale="   79.277">  5  6 -1 -1</clus>
<clus scale="   82.528">  2  5  1 -1</clus>
<clus scale="   92.010">  7  8 -1 -1</clus>
<clus scale="   37.571">  1  5  2 -1</clus>
</clustering>
</event>
<event>
 9    2  0.1723348E-004  0.9886768E+02  0.7546771E-02  0.1289731E+00
         -1   -1    0    0    0  501 -0.00000000000E+00  0.00000000000E+00  0.51560720384E+03  0.51560720384E+03  0.00000000000E+00 0.  1.
         21   -1    0    0  501  502  0.00000000000E+00 -0.00000000000E+00 -0.37358073349E+02  0.37358073349E+02  0.00000000000E+00 0. -1.
         23    2    1    2    0    0 -0.19988930492E+02 -0.46865864230E+02  0.17456709047E+03  0.20508201433E+03  0.94810320923E+02 0.  0.
         24    2    1    2    0    0 -0.10113001298E+02  0.27006388214E+01  0.70309808572E+02  0.10846878576E+03  0.81929494432E+02 0.  0.
        -11    1    4    4    0    0 -0.39281945820E+02 -0.18684528965E+02  0.52420051008E+02  0.68117873115E+02  0.00000000000E+00 0.  1.
         12    1    4    4    0    0  0.29168944522E+02  0.21385167786E+02  0.17889757564E+02  0.40350912647E+02  0.00000000000E+00 0. -1.
        -11    1    3    3    0    0  0.11967466953E+02  0.25556223653E+02  0.52284645246E+02  0.59414013172E+02  0.00000000000E+00 0.  1.
         11    1    3    3    0    0 -0.31956397446E+02 -0.72422087883E+02  0.12228244523E+03  0.14566800116E+03  0.00000000000E+00 0. -1.
         -2    1    1    2    0  502  0.30101931790E+02  0.44165225409E+02  0.23337223144E+03  0.23941447709E+03  0.00000000000E+00 0.  1.
<scales pt_clust_5="13000.00000" pt_clust_6="13000.00000" pt_clust_7="13000.00000" pt_clust_8="13000.00000" pt_clust_9="53.44807"></scales>
<clustering>
<clus scale="   53.448">  2  9  1 -1</clus>
<clus scale="   81.929">  5  6 -1 -1</clus>
<clus scale="   86.593">  2  5  1 -1</clus>
<clus scale="   94.810">  7  8 -1 -1</clus>
<clus scale="   53.448">  2  5  1 -1</clus>
</clustering>
</event>
<event>
 9    2  0.1723348E-004  0.6461624E+03  0.7546771E-02  0.9814007E-01
          2   -1    0    0  502    0 -0.00000000000E+00  0.00000000000E+00  0.15567657361E+04  0.15567657361E+04  0.00000000000E+00 0. -1.
         21   -1    0    0  501  502  0.00000000000E+00 -0.00000000000E+00 -0.28765569729E+03  0.28765569729E+03  0.00000000000E+00 0. -1.
         24    2    1    2    0    0  0.36808331379E+03 -0.19858048339E+03  0.82832990247E+03  0.93151208902E+03  0.81638289985E+02 0.  0.
         23    2    1    2    0    0  0.12628291318E+03 -0.12290728090E+03  0.18458913927E+03  0.26995819855E+03  0.88038087036E+02 0.  0.
        -13    1    3    3    0    0  0.26107906332E+02 -0.34688924237E+02  0.53832204772E+02  0.69158155761E+02  0.00000000000E+00 0.  1.
         14    1    3    3    0    0  0.34197540746E+03 -0.16389155916E+03  0.77449769769E+03  0.86235393326E+03  0.00000000000E+00 0. -1.
        -13    1    4    4    0    0 -0.36270020630E+01 -0.34985604226E+02  0.60354220403E+02  0.69855419027E+02  0.00000000000E+00 0.  1.
         13    1    4    4    0    0  0.12990991524E+03 -0.87921676675E+02  0.12423491887E+03  0.20010277953E+03  0.00000000000E+00 0. -1.
          1    1    1    2  501    0 -0.49436622697E+03  0.32148776429E+03  0.25619099712E+03  0.64295114586E+03  0.00000000000E+00 0. -1.
<scales pt_clust_5="13000.00000" pt_clust_6="13000.00000" pt_clust_7="13000.00000" pt_clust_8="13000.00000" pt_clust_9="589.70531"></scales>
<clustering>
<clus scale="   81.638">  5  6 -1 -1</clus>
<clus scale="   88.038">  7  8 -1 -1</clus>
<clus scale="  146.137">  5  7 -1 -1</clus>
<clus scale="  589.705">  2  9  1 -1</clus>
<clus scale="  589.705">  2  5  1 -1</clus>
</clustering>
</event>
<event>
 9    2  0.1723348E-004  0.1214071E+03  0.7546771E-02  0.1243506E+00
         21   -1    0    0  501  502  0.00000000000E+00  0.00000000000E+00  0.97708917997E+02  0.97708917997E+02  0.00000000000E+00 0. -1.
         -1   -1    0    0    0  501 -0.00000000000E+00 -0.00000000000E+00 -0.42690513058E+03  0.42690513058E+03  0.00000000000E+00 0.  1.
         24    2    1    2    0    0  0.11827214897E+02 -0.95982789694E+02 -0.31641559300E+03  0.34049035651E+03  0.80388285538E+02 0.  0.
         23    2    1    2    0    0  0.31106841138E+02  0.40704824733E+02 -0.37844541820E+02  0.10977863994E+03  0.89412650782E+02 0.  0.
        -11    1    3    3    0    0  0.27160029824E+02 -0.32748479205E+01 -0.11536533325E+03  0.11856454768E+03  0.00000000000E+00 0.  1.
         12    1    3    3    0    0 -0.15332814928E+02 -0.92707941774E+02 -0.20105025975E+03  0.22192580883E+03  0.00000000000E+00 0. -1.
        -11    1    4    4    0    0  0.18750798277E+02 -0.11685885771E+02  0.20681094519E+02  0.30263179489E+02  0.00000000000E+00 0. -1.
         11    1    4    4    0    0  0.12356042861E+02  0.52390710504E+02 -0.58525636339E+02  0.79515460454E+02  0.00000000000E+00 0.  1.
         -2    1    1    2    0  502 -0.42934056035E+02  0.55277964961E+02  0.25063922237E+02  0.74345052127E+02  0.00000000000E+00 0.  1.
<scales pt_clust_5="13000.00000" pt_clust_6="13000.00000" pt_clust_7="13000.00000" pt_clust_8="13000.00000" pt_clust_9="69.99276"></scales>
<clustering>
<clus scale="   69.993">  1  9  2 -1</clus>
<clus scale="   80.388">  5  6 -1 -1</clus>
<clus scale="   89.413">  7  8 -1 -1</clus>
<clus scale="  114.923">  2  5  1 -1</clus>
<clus scale="   69.993">  1  5  2 -1</clus>
</clustering>
</event>
<event>
 9    2  0.1723348E-004  0.1019558E+03  0.7546771E-02  0.1280494E+00
          2   -1    0    0  502    0 -0.00000000000E+00  0.00000000000E+00  0.46982349278E+03  0.46982349278E+03  0.00000000000E+00 0. -1.
         21   -1    0    0  501  502  0.00000000000E+00 -0.00000000000E+00 -0.59659739113E+02  0.59659739113E+02  0.00000000000E+00 0. -1.
         23    2    1    2    0    0  0.29838571412E+02 -0.57454098833E+02  0.23501078155E+03  0.25991779483E+03  0.90199106475E+02 0.  0.
         24    2    1    2    0    0  0.60113627617E+02  0.31251617321E+02  0.12363895762E+03  0.16264648721E+03  0.81098558255E+02 0.  0.
        -13    1    4    4    0    0 -0.19620835694E+02  0.62973388766E+01  0.14487082330E+02  0.25189466543E+02  0.00000000000E+00 0.  1.
         14    1    4    4    0    0  0.79734463312E+02  0.24954278445E+02  0.10915187529E+03  0.13745702067E+03  0.00000000000E+00 0. -1.
        -11    1    3    3    0    0 -0.13162385053E+01 -0.73955532263E+02  0.17968712435E+03  0.19431576337E+03  0.00000000000E+00 0.  1.
         11    1    3    3    0    0  0.31154809917E+02  0.16501433430E+02  0.55323657201E+02  0.65602031465E+02  0.00000000000E+00 0. -1.
          1    1    1    2  501    0 -0.89952199029E+02  0.26202481512E+02  0.51514014504E+02  0.10691894985E+03  0.00000000000E+00 0. -1.
<scales pt_clust_5="13000.00000" pt_clust_6="13000.00000" pt_clust_7="13000.00000" pt_clust_8="13000.00000" pt_clust_9="93.69081"></scales>
<clustering>
<clus scale="   81.099">  5  6 -1 -1</clus>
<clus scale="   90.199">  7  8 -1 -1</clus>
<clus scale="   93.691">  2  9  1 -1</clus>
<clus scale="   94.000">  2  5  1 -1</clus>
<clus scale="   93.691">  2  5  1 -1</clus>
</clustering>
</event>
<event>
 9    2  0.1723348E-004  0.1017393E+03  0.7546771E-02  0.1280864E+00
         -1   -1    0    0    0  501 -0.00000000000E+00  0.00000000000E+00  0.21921612463E+03  0.21921612463E+03  0.00000000000E+00 0.  1.
         21   -1    0    0  501  502  0.00000000000E+00 -0.00000000000E+00 -0.26490937741E+03  0.26490937741E+03  0.00000000000E+00 0.  1.
         23    2    1    2    0    0 -0.29690173820E+02 -0.30717154218E+02  0.17164845657E+03  0.19934904957E+03  0.91933676838E+02 0.  0.
         24    2    1    2    0    0 -0.25589535332E+01  0.66499335230E+02 -0.64573821959E+02  0.12459406234E+03  0.83217738849E+02 0.  0.
        -13    1    4    4    0    0  0.87819903257E+01 -0.18645897505E+02 -0.11051188209E+02  0.23386355181E+02  0.00000000000E+00 0.  1.
         14    1    4    4    0    0 -0.11340943859E+02  0.85145232734E+02 -0.53522633751E+02  0.10120770716E+03  0.00000000000E+00 0. -1.
        -11    1    3    3    0    0 -0.47589585122E+02 -0.52107318776E+02  0.99391838853E+02  0.12189618088E+03  0.00000000000E+00 0.  1.
         11    1    3    3    0    0  0.17899411302E+02  0.21390164558E+02  0.72256617715E+02  0.77452868690E+02  0.00000000000E+00 0. -1.
         -2    1    1    2    0  502  0.32249127353E+02 -0.35782181012E+02 -0.15276788738E+03  0.16018239013E+03  0.00000000000E+00 0.  1.
<scales pt_clust_5="13000.00000" pt_clust_6="13000.00000" pt_clust_7="13000.00000" pt_clust_8="13000.00000" pt_clust_9="48.17023"></scales>
<clustering>
<clus scale="   48.170">  2  9  1 -1</clus>
<clus scale="   83.218">  5  6 -1 -1</clus>
<clus scale="   91.934">  7  8 -1 -1</clus>
<clus scale="   93.938">  2  5  1 -1</clus>
<clus scale="   48.170">  2  5  1 -1</clus>
</clustering>
</event>
<event>
 9    2  0.1723348E-004  0.1088059E+03  0.7546771E-02  0.1268597E+00
          2   -1    0    0  502    0 -0.00000000000E+00  0.00000000000E+00  0.40129458758E+03  0.40129458758E+03  0.00000000000E+00 0. -1.
         21   -1    0    0  501  502  0.00000000000E+00 -0.00000000000E+00 -0.51090425956E+02  0.51090425956E+02  0.00000000000E+00 0.  1.
         23    2    1    2    0    0 -0.30186878558E+02  0.39030142075E+02  0.20061556362E+03  0.22587152748E+03  0.91305766148E+02 0.  0.
         24    2    1    2    0    0  0.55472172550E+02 -0.66067586054E+02  0.61637121356E+02  0.13108900433E+03  0.77091533074E+02 0.  0.
        -11    1    4    4    0    0  0.36770347281E+02 -0.10166922657E+02 -0.88899559703E+01  0.39172133879E+02  0.00000000000E+00 0.  1.
         12    1    4    4    0    0  0.18701825269E+02 -0.55900663397E+02  0.70527077326E+02  0.91916870447E+02  0.00000000000E+00 0. -1.
        -13    1    3    3    0    0  0.55468440093E+01 -0.27404702429E+02  0.45904951205E+02  0.53749881292E+02  0.00000000000E+00 0.  1.
         13    1    3    3    0    0 -0.35733722567E+02  0.66434844504E+02  0.15471061241E+03  0.17212164618E+03  0.00000000000E+00 0. -1.
          1    1    1    2  501    0 -0.25285293992E+02  0.27037443979E+02  0.87951476655E+02  0.95424481738E+02  0.00000000000E+00 0. -1.
<scales pt_clust_5="13000.00000" pt_clust_6="13000.00000" pt_clust_7="13000.00000" pt_clust_8="13000.00000" pt_clust_9="37.01852"></scales>
<clustering>
<clus scale="   37.019">  2  9  1 -1</clus>
<clus scale="   77.092">  5  6 -1 -1</clus>
<clus scale="   91.306">  7  8 -1 -1</clus>
<clus scale="   97.186">  2  5  1 -1</clus>
<clus scale="   37.019">  2  5  1 -1</clus>
</clustering>
</event>
<event>
 9    2  0.1723348E-004  0.1362761E+03  0.7546771E-02  0.1240717E+00
         21   -1    0    0  501  502  0.00000000000E+00  0.00000000000E+00  0.31813240289E+02  0.31813240289E+02  0.00000000000E+00 0.  1.
         -3   -1    0    0    0  501 -0.00000000000E+00 -0.00000000000E+00 -0.83904615788E+03  0.83904615788E+03  0.00000000000E+00 0.  1.
         24    2    1    2    0    0 -0.27828377234E+02 -0.11837764369E+02 -0.18321577048E+03  0.20238655868E+03  0.80484466422E+02 0.  0.
         23    2    1    2    0    0 -0.29554379690E+02  0.95745601520E+02 -0.39587692625E+03  0.41871041978E+03  0.92515908500E+02 0.  0.
        -11    1    3    3    0    0 -0.43696685155E+02  0.61799349331E+01 -0.16859649325E+03  0.17427670362E+03  0.00000000000E+00 0.  1.
         12    1    3    3    0    0  0.15868307921E+02 -0.18017699303E+02 -0.14619277233E+02  0.28109855056E+02  0.00000000000E+00 0. -1.
        -11    1    4    4    0    0 -0.39648180839E+02  0.23952185514E+02 -0.63984582622E+02  0.78991849250E+02  0.00000000000E+00 0. -1.
         11    1    4    4    0    0  0.10093801149E+02  0.71793416006E+02 -0.33189234362E+03  0.33971857053E+03  0.00000000000E+00 0.  1.
         -4    1    1    2    0  502  0.57382756924E+02 -0.83907837150E+02 -0.22814022086E+03  0.24976241972E+03  0.00000000000E+00 0.  1.
<scales pt_clust_5="13000.00000" pt_clust_6="13000.00000" pt_clust_7="13000.00000" pt_clust_8="13000.00000" pt_clust_9="100.05990"></scales>
<clustering>
<clus scale="   80.484">  5  6 -1 -1</clus>
<clus scale="   85.979">  2  5  1 -1</clus>
<clus scale="   92.516">  7  8 -1 -1</clus>
<clus scale="  100.060">  1  9  2 -1</clus>
<clus scale="  100.060">  1  5  2 -1</clus>
</clustering>
</event>
<event>
 9    2  0.1723348E-004  0.1280130E+03  0.7546771E-02  0.1233754E+00
          4   -1    0    0  502    0 -0.00000000000E+00  0.00000000000E+00  0.78840169699E+02  0.78840169699E+02  0.00000000000E+00 0. -1.
         21   -1    0    0  501  502  0.00000000000E+00 -0.00000000000E+00 -0.29132034090E+03  0.29132034090E+03  0.00000000000E+00 0. -1.
         24    2    1    2    0    0  0.66565868569E+02 -0.34559690184E+02 -0.10342199808E+03  0.15030472547E+03  0.79183418507E+02 0.  0.
         23    2    1    2    0    0 -0.10351612100E+03  0.29461132274E+02 -0.11494304192E+03  0.18209405678E+03  0.91448329716E+02 0.  0.
        -11    1    3    3    0    0 -0.11183746087E+02 -0.20881840716E+02 -0.51327581946E+01  0.24237835195E+02  0.00000000000E+00 0.  1.
         12    1    3    3    0    0  0.77749614656E+02 -0.13677849467E+02 -0.98289239888E+02  0.12606689027E+03  0.00000000000E+00 0. -1.
        -11    1    4    4    0    0 -0.57438719159E+00 -0.20300849310E+02 -0.49114595460E+00  0.20314911462E+02  0.00000000000E+00 0.  1.
         11    1    4    4    0    0 -0.10294173381E+03  0.49761981583E+02 -0.11445189597E+03  0.16177914532E+03  0.00000000000E+00 0. -1.
          3    1    1    2  501    0  0.36950252428E+02  0.50985579100E+01  0.58848688017E+01  0.37761728351E+02  0.00000000000E+00 0. -1.
<scales pt_clust_5="13000.00000" pt_clust_6="13000.00000" pt_clust_7="13000.00000" pt_clust_8="13000.00000" pt_clust_9="37.30037"></scales>
<clustering>
<clus scale="   37.300">  2  9  1 -1</clus>
<clus scale="   79.183">  5  6 -1 -1</clus>
<clus scale="   91.448">  7  8 -1 -1</clus>
<clus scale="  119.560">  1  5  2 -1</clus>
<clus scale="   37.300">  2  5  1 -1</clus>
</clustering>
</event>
<event>
 9    2  0.1723348E-004  0.1926831E+03  0.7546771E-02  0.1157056E+00
         21   -1    0    0  501  502  0.00000000000E+00  0.00000000000E+00  0.41193792505E+02  0.41193792505E+02  0.00000000000E+00 0. -1.
          2   -1    0    0  502    0 -0.00000000000E+00 -0.00000000000E+00 -0.16843963100E+04  0.16843963100E+04  0.00000000000E+00 0. -1.
         24    2    1    2    0    0  0.29917457791E+01  0.21184305674E+03 -0.98696474188E+03  0.10127255036E+04  0.81407080208E+02 0.  0.
         23    2    1    2    0    0  0.60553167420E+02 -0.10771712041E+03 -0.31410272533E+03  0.34963387437E+03  0.91179273578E+02 0.  0.
        -11    1    3    3    0    0 -0.24018518730E+02  0.10389957681E+03 -0.62538293434E+03  0.63440982486E+03  0.00000000000E+00 0.  1.
         12    1    3    3    0    0  0.27010264509E+02  0.10794347993E+03 -0.36158180753E+03  0.37831567875E+03  0.00000000000E+00 0. -1.
        -11    1    4    4    0    0  0.84816528736E+02 -0.81568038364E+02 -0.24874786260E+03  0.27517755646E+03  0.00000000000E+00 0. -1.
         11    1    4    4    0    0 -0.24263361315E+02 -0.26149082047E+02 -0.65354862733E+02  0.74456317913E+02  0.00000000000E+00 0.  1.
          1    1    1    2  501    0 -0.63544913200E+02 -0.10412593633E+03 -0.34213505028E+03  0.36323072453E+03  0.00000000000E+00 0. -1.
<scales pt_clust_5="13000.00000" pt_clust_6="13000.00000" pt_clust_7="13000.00000" pt_clust_8="13000.00000" pt_clust_9="121.98429"></scales>
<clustering>
<clus scale="   81.407">  5  6 -1 -1</clus>
<clus scale="   91.179">  7  8 -1 -1</clus>
<clus scale="  121.984">  1  9  2 -1</clus>
<clus scale="  188.256">  2  5  1 -1</clus>
<clus scale="  121.984">  1  5  2 -1</clus>
</clustering>
</event>
<event>
 9    2  0.1723348E-004  0.1219250E+03  0.7546771E-02  0.1243825E+00
         21   -1    0    0  501  502  0.00000000000E+00  0.00000000000E+00  0.65850360549E+02  0.65850360549E+02  0.00000000000E+00 0.  1.
          2   -1    0    0  502    0 -0.00000000000E+00 -0.00000000000E+00 -0.51186493768E+03  0.51186493768E+03  0.00000000000E+00 0. -1.
         23    2    1    2    0    0  0.67563712233E+02  0.36906764067E+02 -0.35300968494E+03  0.37277360107E+03  0.91746147350E+02 0.  0.
         24    2    1    2    0    0 -0.56975244974E+02 -0.86981773078E+02 -0.58153644023E+02  0.14302052416E+03  0.79126586108E+02 0.  0.
        -13    1    4    4    0    0 -0.53709532103E+02 -0.52837434968E+02  0.18817638222E+00  0.75342841618E+02  0.00000000000E+00 0.  1.
         14    1    4    4    0    0 -0.32657128713E+01 -0.34144338110E+02 -0.58341820406E+02  0.67677682538E+02  0.00000000000E+00 0. -1.
        -13    1    3    3    0    0 -0.15207494715E+02  0.32317787593E+02 -0.13134971746E+03  0.13611926964E+03  0.00000000000E+00 0.  1.
         13    1    3    3    0    0  0.82771206947E+02  0.45889764737E+01 -0.22165996748E+03  0.23665433144E+03  0.00000000000E+00 0. -1.
          1    1    1    2  501    0 -0.10588467258E+02  0.50075009011E+02 -0.34851248167E+02  0.61921172995E+02  0.00000000000E+00 0. -1.
<scales pt_clust_5="13000.00000" pt_clust_6="13000.00000" pt_clust_7="13000.00000" pt_clust_8="13000.00000" pt_clust_9="51.18224"></scales>
<clustering>
<clus scale="   51.182">  1  9  2 -1</clus>
<clus scale="   79.127">  5  6 -1 -1</clus>
<clus scale="   91.746">  7  8 -1 -1</clus>
<clus scale="  112.736">  1  5  2 -1</clus>
<clus scale="   51.182">  1  5  2 -1</clus>
</clustering>
</event>
<event>
 9    2  0.1723348E-004  0.9946896E+02  0.7546771E-02  0.1287664E+00
         21   -1    0    0  501  502  0.00000000000E+00  0.00000000000E+00  0.14628401432E+03  0.14628401432E+03  0.00000000000E+00 0.  1.
          2   -1    0    0  502    0 -0.00000000000E+00 -0.00000000000E+00 -0.29150576752E+03  0.29150576752E+03  0.00000000000E+00 0. -1.
         23    2    1    2    0    0  0.27262113046E+02 -0.18644006327E+02 -0.23282079898E+03  0.25255446286E+03  0.92127143095E+02 0.  0.
         24    2    1    2    0    0 -0.56507378459E+02  0.29692593098E+02  0.11572845611E+02  0.10303227810E+03  0.80043648530E+02 0.  0.
        -13    1    4    4    0    0 -0.69817648792E+02  0.89183142442E+01 -0.89345819920E+01  0.70949751002E+02  0.00000000000E+00 0.  1.
         14    1    4    4    0    0  0.13310270333E+02  0.20774278854E+02  0.20507427603E+02  0.32082527100E+02  0.00000000000E+00 0. -1.
        -13    1    3    3    0    0 -0.16136318426E+02 -0.44269327479E+02 -0.12319701014E+03  0.13190017982E+03  0.00000000000E+00 0. -1.
         13    1    3    3    0    0  0.43398431472E+02  0.25625321152E+02 -0.10962378883E+03  0.12065428304E+03  0.00000000000E+00 0.  1.
          1    1    1    2  501    0  0.29245265413E+02 -0.11048586771E+02  0.76026200164E+02  0.82203040881E+02  0.00000000000E+00 0. -1.
<scales pt_clust_5="13000.00000" pt_clust_6="13000.00000" pt_clust_7="13000.00000" pt_clust_8="13000.00000" pt_clust_9="31.26271"></scales>
<clustering>
<clus scale="   31.263">  1  9  2 -1</clus>
<clus scale="   80.044">  5  6 -1 -1</clus>
<clus scale="   88.395">  1  5  2 -1</clus>
<clus scale="   92.127">  7  8 -1 -1</clus>
<clus scale="   31.263">  1  5  2 -1</clus>
</clustering>
</event>
<event>
 9    2  0.1723348E-004  0.1851154E+03  0.7546771E-02  0.1164477E+00
          2   -1    0    0  502    0 -0.00000000000E+00  0.00000000000E+00  0.75935166270E+03  0.75935166270E+03  0.00000000000E+00 0. -1.
         21   -1    0    0  501  502  0.00000000000E+00 -0.00000000000E+00 -0.76083018849E+02  0.76083018849E+02  0.00000000000E+00 0.  1.
         23    2    1    2    0    0 -0.96919613182E+02  0.12487394314E+03  0.54997076516E+03  0.57989265558E+03  0.93918775397E+02 0.  0.
         24    2    1    2    0    0  0.84740618315E+02 -0.14124979045E+03  0.14342628860E+03  0.23275867726E+03  0.80455117188E+02 0.  0.
        -13    1    4    4    0    0  0.89142768887E+02 -0.74111804688E+02  0.86858716363E+02  0.14485658234E+03  0.00000000000E+00 0.  1.
         14    1    4    4    0    0 -0.44021505723E+01 -0.67137985759E+02  0.56567572241E+02  0.87902094916E+02  0.00000000000E+00 0. -1.
        -11    1    3    3    0    0 -0.54321142545E+01  0.66057002567E+02  0.12814944884E+03  0.14427514232E+03  0.00000000000E+00 0.  1.
         11    1    3    3    0    0 -0.91487498928E+02  0.58816940572E+02  0.42182131632E+03  0.43561751326E+03  0.00000000000E+00 0. -1.
          1    1    1    2  501    0  0.12178994867E+02  0.16375847309E+02 -0.10128409914E+02  0.22783348710E+02  0.00000000000E+00 0. -1.
<scales pt_clust_5="13000.00000" pt_clust_6="13000.00000" pt_clust_7="13000.00000" pt_clust_8="13000.00000" pt_clust_9="20.40824"></scales>
<clustering>
<clus scale="   20.408">  2  9  1 -1</clus>
<clus scale="   80.455">  5  6 -1 -1</clus>
<clus scale="   93.919">  7  8 -1 -1</clus>
<clus scale="  178.662">  2  5  1 -1</clus>
<clus scale="   20.408">  2  5  1 -1</clus>
</clustering>
</event>
<event>
 9    2  0.1723348E-004  0.1078836E+03  0.7546771E-02  0.1269373E+00
         21   -1    0    0  501  502  0.00000000000E+00  0.00000000000E+00  0.15307092289E+03  0.15307092289E+03  0.00000000000E+00 0. -1.
          4   -1    0    0  502    0 -0.00000000000E+00 -0.00000000000E+00 -0.20151715770E+03  0.20151715770E+03  0.00000000000E+00 0. -1.
         23    2    1    2    0    0 -0.47579861865E+02  0.38471099858E+02 -0.15294273494E+03  0.18862571680E+03  0.91892938174E+02 0.  0.
         24    2    1    2    0    0  0.37669315145E+02 -0.12594079408E+02  0.44865122495E+02  0.10020720945E+03  0.80318226263E+02 0.  0.
        -13    1    4    4    0    0  0.32297785901E+01 -0.42758227802E+02  0.28951558863E+02  0.51738672916E+02  0.00000000000E+00 0.  1.
         14    1    4    4    0    0  0.34439536555E+02  0.30164148394E+02  0.15913563633E+02  0.48468536536E+02  0.00000000000E+00 0. -1.
        -11    1    3    3    0    0 -0.33530958887E+02  0.75166462691E+00 -0.33428440605E+01  0.33705560520E+02  0.00000000000E+00 0.  1.
         11    1    3    3    0    0 -0.14048902978E+02  0.37719435231E+02 -0.14959989088E+03  0.15492015628E+03  0.00000000000E+00 0. -1.
          3    1    1    2  501    0  0.99105467195E+01 -0.25877020450E+02  0.59631377637E+02  0.65755154342E+02  0.00000000000E+00 0. -1.
<scales pt_clust_5="13000.00000" pt_clust_6="13000.00000" pt_clust_7="13000.00000" pt_clust_8="13000.00000" pt_clust_9="27.70991"></scales>
<clustering>
<clus scale="   27.710">  1  9  2 -1</clus>
<clus scale="   80.318">  5  6 -1 -1</clus>
<clus scale="   91.893">  7  8 -1 -1</clus>
<clus scale="   98.212">  1  5  2 -1</clus>
<clus scale="   27.710">  1  5  2 -1</clus>
</clustering>
</event>
<event>
 9    2  0.1723348E-004  0.8962688E+02  0.7546771E-02  0.1308277E+00
          2   -1    0    0  502    0 -0.00000000000E+00  0.00000000000E+00  0.29762540318E+03  0.29762540318E+03  0.00000000000E+00 0. -1.
         21   -1    0    0  501  502  0.00000000000E+00 -0.00000000000E+00 -0.10312409884E+03  0.10312409884E+03  0.00000000000E+00 0.  1.
         23    2    1    2    0    0 -0.22859594049E+02 -0.76823476137E+01  0.20589319069E+03  0.22548865726E+03  0.88721750880E+02 0.  0.
         24    2    1    2    0    0 -0.49866121763E+02  0.14439370425E+02  0.14541288706E+02  0.97754608451E+02  0.81543785037E+02 0.  0.
        -11    1    4    4    0    0 -0.30920245331E+02  0.48566420209E+02  0.69780042912E+01  0.57995269524E+02  0.00000000000E+00 0.  1.
         12    1    4    4    0    0 -0.18945876432E+02 -0.34127049784E+02  0.75632844153E+01  0.39759338927E+02  0.00000000000E+00 0. -1.
        -13    1    3    3    0    0  0.19697249273E+02  0.23679674695E+02  0.35085383637E+02  0.46687179906E+02  0.00000000000E+00 0.  1.
         13    1    3    3    0    0 -0.42556843322E+02 -0.31362022309E+02  0.17080780705E+03  0.17880147736E+03  0.00000000000E+00 0. -1.
          1    1    1    2  501    0  0.72725715812E+02 -0.67570228117E+01 -0.25933175052E+02  0.77506236303E+02  0.00000000000E+00 0. -1.
<scales pt_clust_5="13000.00000" pt_clust_6="13000.00000" pt_clust_7="13000.00000" pt_clust_8="13000.00000" pt_clust_9="73.03894"></scales>
<clustering>
<clus scale="   73.039">  2  9  1 -1</clus>
<clus scale="   81.544">  5  6 -1 -1</clus>
<clus scale="   82.528">  2  5  1 -1</clus>
<clus scale="   88.722">  7  8 -1 -1</clus>
<clus scale="   73.039">  2  5  1 -1</clus>
</clustering>
</event>
<event>
 9    2  0.1723348E-004  0.1184617E+03  0.7546771E-02  0.1257661E+00
         21   -1    0    0  501  502  0.00000000000E+00  0.00000000000E+00  0.28314379860E+03  0.28314379860E+03  0.00000000000E+00 0.  1.
         -3   -1    0    0    0  501 -0.00000000000E+00 -0.00000000000E+00 -0.12156229899E+03  0.12156229899E+03  0.00000000000E+00 0.  1.
         24    2    1    2    0    0 -0.24024752999E+02 -0.31440169526E+02 -0.27370194715E+02  0.93678959070E+02  0.80380014912E+02 0.  0.
         23    2    1    2    0    0  0.40474173551E+02  0.47630275987E+02  0.47686268631E+01  0.12540358042E+03  0.10861176854E+03 0.  0.
        -11    1    3    3    0    0 -0.20412568422E+02 -0.10125488534E+00 -0.50560628496E+02  0.54525776987E+02  0.00000000000E+00 0.  1.
         12    1    3    3    0    0 -0.36121845769E+01 -0.31338914640E+02  0.23190433782E+02  0.39153182083E+02  0.00000000000E+00 0. -1.
        -11    1    4    4    0    0  0.30595960531E+02  0.79106540188E+02 -0.16149231815E+02  0.86340924187E+02  0.00000000000E+00 0.  1.
         11    1    4    4    0    0  0.98782130196E+01 -0.31476264201E+02  0.20917858678E+02  0.39062656235E+02  0.00000000000E+00 0. -1.
         -4    1    1    2    0  502 -0.16449420552E+02 -0.16190106461E+02  0.18418306746E+03  0.18562355810E+03  0.00000000000E+00 0.  1.
<scales pt_clust_5="13000.00000" pt_clust_6="13000.00000" pt_clust_7="13000.00000" pt_clust_8="13000.00000" pt_clust_9="23.08036"></scales>
<clustering>
<clus scale="   23.080">  1  9  2 -1</clus>
<clus scale="   80.380">  5  6 -1 -1</clus>
<clus scale="   93.261">  2  5  1 -1</clus>
<clus scale="  108.612">  7  8 -1 -1</clus>
<clus scale="   23.080">  1  5  2 -1</clus>
</clustering>
</event>
<event>
 9    2  0.1723348E-004  0.1188219E+03  0.7546771E-02  0.1247438E+00
         21   -1    0    0  501  502  0.00000000000E+00  0.00000000000E+00  0.39365913372E+03  0.39365913372E+03  0.00000000000E+00 0. -1.
          2   -1    0    0  502    0 -0.00000000000E+00 -0.00000000000E+00 -0.83943889120E+02  0.83943889120E+02  0.00000000000E+00 0. -1.
         23    2    1    2    0    0 -0.31955670794E+01 -0.83892959561E+02 -0.16349541883E+02  0.12271201561E+03  0.87992561860E+02 0.  0.
         24    2    1    2    0    0 -0.24852456512E+02  0.60697793474E+02  0.23977830890E+03  0.26124238967E+03  0.80324853026E+02 0.  0.
        -13    1    4    4    0    0 -0.99380480926E+01  0.68970432812E+02  0.10909176695E+03  0.12944766903E+03  0.00000000000E+00 0.  1.
         14    1    4    4    0    0 -0.14914408420E+02 -0.82726393389E+01  0.13068654195E+03  0.13179472063E+03  0.00000000000E+00 0. -1.
        -13    1    3    3    0    0  0.40723446631E+02 -0.27651616142E+02  0.11577738056E+01  0.49237703246E+02  0.00000000000E+00 0.  1.
         13    1    3    3    0    0 -0.43919013710E+02 -0.56241343419E+02 -0.17507315689E+02  0.73474312365E+02  0.00000000000E+00 0. -1.
          1    1    1    2  501    0  0.28048023592E+02  0.23195166087E+02  0.86286477590E+02  0.93648617567E+02  0.00000000000E+00 0. -1.
<scales pt_clust_5="13000.00000" pt_clust_6="13000.00000" pt_clust_7="13000.00000" pt_clust_8="13000.00000" pt_clust_9="36.39653"></scales>
<clustering>
<clus scale="   36.397">  1  9  2 -1</clus>
<clus scale="   80.325">  5  6 -1 -1</clus>
<clus scale="   87.993">  7  8 -1 -1</clus>
<clus scale="  113.261">  1  5  2 -1</clus>
<clus scale="   36.397">  1  5  2 -1</clus>
</clustering>
</event>
<event>
 9    2  0.1723348E-004  0.9659175E+02  0.7546771E-02  0.1294831E+00
         21   -1    0    0  501  502  0.00000000000E+00  0.00000000000E+00  0.15468377475E+03  0.15468377475E+03  0.00000000000E+00 0. -1.
          2   -1    0    0  502    0 -0.00000000000E+00 -0.00000000000E+00 -0.26297952378E+03  0.26297952378E+03  0.00000000000E+00 0. -1.
         23    2    1    2    0    0 -0.32245287335E+02  0.85900725506E+01 -0.21378880982E+03  0.23538173173E+03  0.92657199004E+02 0.  0.
         24    2    1    2    0    0 -0.67593935542E+01 -0.18196560807E+02  0.15415392188E+02  0.83652787388E+02  0.79895871577E+02 0.  0.
        -11    1    4    4    0    0 -0.15867439150E+02  0.18604594359E+02  0.33640326729E+02  0.41588197111E+02  0.00000000000E+00 0.  1.
         12    1    4    4    0    0  0.91080455955E+01 -0.36801155166E+02 -0.18224934541E+02  0.42064590277E+02  0.00000000000E+00 0. -1.
        -11    1    3    3    0    0 -0.16409237723E+01 -0.40543140468E+02 -0.90529439046E+02  0.99206946349E+02  0.00000000000E+00 0.  1.
         11    1    3    3    0    0 -0.30604363563E+02  0.49133213019E+02 -0.12325937077E+03  0.13617478538E+03  0.00000000000E+00 0. -1.
          1    1    1    2  501    0  0.39004680889E+02  0.96064882560E+01  0.90077668599E+02  0.98628779411E+02  0.00000000000E+00 0. -1.
<scales pt_clust_5="13000.00000" pt_clust_6="13000.00000" pt_clust_7="13000.00000" pt_clust_8="13000.00000" pt_clust_9="40.17026"></scales>
<clustering>
<clus scale="   40.170">  1  9  2 -1</clus>
<clus scale="   79.896">  5  6 -1 -1</clus>
<clus scale="   84.427">  1  5  2 -1</clus>
<clus scale="   92.657">  7  8 -1 -1</clus>
<clus scale="   40.170">  1  5  2 -1</clus>
</clustering>
</event>
<event>
 9    2  0.1723348E-004  0.3651804E+03  0.7546771E-02  0.1056794E+00
          2   -1    0    0  502    0 -0.00000000000E+00  0.00000000000E+00  0.57069818918E+03  0.57069818918E+03  0.00000000000E+00 0. -1.
         21   -1    0    0  501  502  0.00000000000E+00 -0.00000000000E+00 -0.52410799671E+03  0.52410799671E+03  0.00000000000E+00 0.  1.
         23    2    1    2    0    0  0.20633403793E+03 -0.28392582251E+03  0.38806280512E+03  0.53101131191E+03  0.90513340218E+02 0.  0.
         24    2    1    2    0    0 -0.16764661593E+03  0.33178769451E+03 -0.25562064466E+03  0.45816326971E+03  0.79894966524E+02 0.  0.
        -11    1    4    4    0    0 -0.11911248485E+03  0.20240043737E+03 -0.20256053676E+03  0.31013624772E+03  0.00000000000E+00 0.  1.
         12    1    4    4    0    0 -0.48534131074E+02  0.12938725715E+03 -0.53060107895E+02  0.14802702199E+03  0.00000000000E+00 0. -1.
        -11    1    3    3    0    0  0.60746932088E+02 -0.33295658330E+02  0.48491771023E+02  0.84559106421E+02  0.00000000000E+00 0.  1.
         11    1    3    3    0    0  0.14558710584E+03 -0.25063016418E+03  0.33957103409E+03  0.44645220548E+03  0.00000000000E+00 0. -1.
          1    1    1    2  501    0 -0.38687422003E+02 -0.47861871998E+02 -0.85851967995E+02  0.10563160427E+03  0.00000000000E+00 0. -1.
<scales pt_clust_5="13000.00000" pt_clust_6="13000.00000" pt_clust_7="13000.00000" pt_clust_8="13000.00000" pt_clust_9="61.54247"></scales>
<clustering>
<clus scale="   61.542">  2  9  1 -1</clus>
<clus scale="   79.895">  5  6 -1 -1</clus>
<clus scale="   90.513">  7  8 -1 -1</clus>
<clus scale="  362.694">  2  5  1 -1</clus>
<clus scale="   61.542">  2  5  1 -1</clus>
</clustering>
</event>
<event>
 9    2  0.1723348E-004  0.3774729E+03  0.7546771E-02  0.1052118E+00
         21   -1    0    0  501  502  0.00000000000E+00  0.00000000000E+00  0.14495617679E+03  0.14495617679E+03  0.00000000000E+00 0. -1.
          2   -1    0    0  502    0 -0.00000000000E+00 -0.00000000000E+00 -0.20210859421E+04  0.20210859421E+04  0.00000000000E+00 0. -1.
         24    2    1    2    0    0 -0.27250586225E+03  0.25979991931E+03 -0.14850368846E+04  0.15342257745E+04  0.82211528923E+02 0.  0.
         23    2    1    2    0    0  0.26369329145E+03 -0.17972990029E+03 -0.12741531203E+03  0.35610865575E+03  0.93497186829E+02 0.  0.
        -13    1    3    3    0    0 -0.14383350183E+03  0.98053240457E+02 -0.56251091023E+03  0.58883022879E+03  0.00000000000E+00 0.  1.
         14    1    3    3    0    0 -0.12867236041E+03  0.16174667886E+03 -0.92252597440E+03  0.94539554573E+03  0.00000000000E+00 0. -1.
        -11    1    4    4    0    0  0.12536272397E+03 -0.32109192421E+02 -0.37587529999E+02  0.13475769072E+03  0.00000000000E+00 0.  1.
         11    1    4    4    0    0  0.13833056749E+03 -0.14762070787E+03 -0.89827782031E+02  0.22135096503E+03  0.00000000000E+00 0. -1.
          1    1    1    2  501    0  0.88125707936E+01 -0.80070019021E+02 -0.26367756862E+03  0.27570768858E+03  0.00000000000E+00 0. -1.
<scales pt_clust_5="13000.00000" pt_clust_6="13000.00000" pt_clust_7="13000.00000" pt_clust_8="13000.00000" pt_clust_9="80.55356"></scales>
<clustering>
<clus scale="   80.554">  1  9  2 -1</clus>
<clus scale="   82.212">  5  6 -1 -1</clus>
<clus scale="   93.497">  7  8 -1 -1</clus>
<clus scale="  374.837">  2  5  1 -1</clus>
<clus scale="   80.554">  1  5  2 -1</clus>
</clustering>
</event>
<event>
 9    2  0.1723348E-004  0.1434280E+03  0.7546771E-02  0.1210388E+00
         21   -1    0    0  501  502  0.00000000000E+00  0.00000000000E+00  0.14168968246E+03  0.14168968246E+03  0.00000000000E+00 0. -1.
         -1   -1    0    0    0  501 -0.00000000000E+00 -0.00000000000E+00 -0.19156030267E+03  0.19156030267E+03  0.00000000000E+00 0.  1.
         23    2    1    2    0    0 -0.98408049662E+01 -0.12559528387E+03 -0.52025290754E+02  0.16239495500E+03  0.88286316947E+02 0.  0.
         24    2    1    2    0    0 -0.11336800252E+02  0.95668271338E+02  0.24754768743E+02  0.12778669511E+03  0.80222812787E+02 0.  0.
        -13    1    4    4    0    0  0.33030680716E+02  0.59494181964E+02  0.15603663461E+02  0.69814453156E+02  0.00000000000E+00 0.  1.
         14    1    4    4    0    0 -0.44367480968E+02  0.36174089374E+02  0.91511052824E+01  0.57972241956E+02  0.00000000000E+00 0. -1.
        -13    1    3    3    0    0  0.28863711884E+02 -0.23236668714E+02  0.75224167597E+01  0.37810625366E+02  0.00000000000E+00 0. -1.
         13    1    3    3    0    0 -0.38704516850E+02 -0.10235861516E+03 -0.59547707514E+02  0.12458432964E+03  0.00000000000E+00 0.  1.
         -2    1    1    2    0  502  0.21177605218E+02  0.29927012533E+02 -0.22600098204E+02  0.43068335012E+02  0.00000000000E+00 0.  1.
<scales pt_clust_5="13000.00000" pt_clust_6="13000.00000" pt_clust_7="13000.00000" pt_clust_8="13000.00000" pt_clust_9="36.66222"></scales>
<clustering>
<clus scale="   36.662">  1  9  2 -1</clus>
<clus scale="   80.223">  5  6 -1 -1</clus>
<clus scale="   88.286">  7  8 -1 -1</clus>
<clus scale="  138.610">  1  5  2 -1</clus>
<clus scale="   36.662">  1  5  2 -1</clus>
</clustering>
</event>
<event>
 9    2  0.1723348E-004  0.1900761E+03  0.7546771E-02  0.1193403E+00
         21   -1    0    0  501  502  0.00000000000E+00  0.00000000000E+00  0.12919839572E+03  0.12919839572E+03  0.00000000000E+00 0.  1.
          2   -1    0    0  502    0 -0.00000000000E+00 -0.00000000000E+00 -0.51125967025E+03  0.51125967025E+03  0.00000000000E+00 0. -1.
         24    2    1    2    0    0 -0.33028889733E+02 -0.17423050846E+02 -0.22824549955E+03  0.24391849207E+03  0.77496789947E+02 0.  0.
         23    2    1    2    0    0 -0.13318917690E+03  0.14155778780E+02 -0.18806211864E+02  0.18237444398E+03  0.12233977807E+03 0.  0.
        -13    1    3    3    0    0  0.20479114534E+02  0.46797769999E+01 -0.25338662829E+02  0.32914165321E+02  0.00000000000E+00 0.  1.
         14    1    3    3    0    0 -0.53508004267E+02 -0.22102827845E+02 -0.20290683672E+03  0.21100432675E+03  0.00000000000E+00 0. -1.
        -13    1    4    4    0    0 -0.11905790440E+03 -0.12816187558E+02  0.31275372523E+02  0.12376262840E+03  0.00000000000E+00 0.  1.
         13    1    4    4    0    0 -0.14131272498E+02  0.26971966338E+02 -0.50081584387E+02  0.58611815577E+02  0.00000000000E+00 0. -1.
          1    1    1    2  501    0  0.16621806663E+03  0.32672720651E+01 -0.13500956311E+03  0.21416512992E+03  0.00000000000E+00 0. -1.
<scales pt_clust_5="13000.00000" pt_clust_6="13000.00000" pt_clust_7="13000.00000" pt_clust_8="13000.00000" pt_clust_9="145.47141"></scales>
<clustering>
<clus scale="   77.497">  5  6 -1 -1</clus>
<clus scale="   86.025">  2  5  1 -1</clus>
<clus scale="  122.340">  7  8 -1 -1</clus>
<clus scale="  145.471">  1  9  2 -1</clus>
<clus scale="  145.471">  1  5  2 -1</clus>
</clustering>
</event>
<event>
 9    2  0.1723348E-004  0.9690869E+02  0.7546771E-02  0.1297297E+00
         21   -1    0    0  501  502  0.00000000000E+00  0.00000000000E+00  0.68453257078E+02  0.68453257078E+02  0.00000000000E+00 0.  1.
          4   -1    0    0  502    0 -0.00000000000E+00 -0.00000000000E+00 -0.57172854423E+03  0.57172854423E+03  0.00000000000E+00 0. -1.
         24    2    1    2    0    0  0.86928657421E+00 -0.47280844746E+00 -0.50667308945E+03  0.51292843067E+03  0.79855971694E+02 0.  0.
         23    2    1    2    0    0  0.61709423345E+01 -0.22167097940E+02 -0.98685673405E+01  0.10008488249E+03  0.96902705440E+02 0.  0.
        -11    1    3    3    0    0 -0.36849966648E+02 -0.13062937076E+02 -0.21078027225E+03  0.21437556656E+03  0.00000000000E+00 0.  1.
         12    1    3    3    0    0  0.37719253222E+02  0.12590128629E+02 -0.29589281720E+03  0.29855286411E+03  0.00000000000E+00 0. -1.
        -11    1    4    4    0    0  0.10660378740E+02 -0.49231088819E+02 -0.36222414628E+02  0.62043590343E+02  0.00000000000E+00 0.  1.
         11    1    4    4    0    0 -0.44894364059E+01  0.27063990878E+02  0.26353847287E+02  0.38041292148E+02  0.00000000000E+00 0. -1.
          3    1    1    2  501    0 -0.70402289087E+01  0.22639906388E+02  0.13266369640E+02  0.27168488139E+02  0.00000000000E+00 0. -1.
<scales pt_clust_5="13000.00000" pt_clust_6="13000.00000" pt_clust_7="13000.00000" pt_clust_8="13000.00000" pt_clust_9="23.70928"></scales>
<clustering>
<clus scale="   23.709">  1  9  2 -1</clus>
<clus scale="   79.856">  5  6 -1 -1</clus>
<clus scale="   79.863">  2  5  1 -1</clus>
<clus scale="   96.903">  7  8 -1 -1</clus>
<clus scale="   23.709">  1  5  2 -1</clus>
</clustering>
</event>
<event>
 9    2  0.1723348E-004  0.1669994E+03  0.7546771E-02  0.1203418E+00
          2   -1    0    0  502    0 -0.00000000000E+00  0.00000000000E+00  0.10004540619E+04  0.10004540619E+04  0.00000000000E+00 0. -1.
         21   -1    0    0  501  502  0.00000000000E+00 -0.00000000000E+00 -0.44751643118E+02  0.44751643118E+02  0.00000000000E+00 0.  1.
         23    2    1    2    0    0  0.21881070132E+02 -0.38174987626E+02  0.30618046069E+03  0.32271870897E+03  0.92004237388E+02 0.  0.
         24    2    1    2    0    0 -0.11741865045E+03  0.12256143017E+03  0.36683213291E+03  0.41238695058E+03  0.81784715155E+02 0.  0.
        -11    1    4    4    0    0 -0.70328087211E+02  0.11120413498E+03  0.20614487475E+03  0.24455696447E+03  0.00000000000E+00 0.  1.
         12    1    4    4    0    0 -0.47090563242E+02  0.11357295189E+02  0.16068725816E+03  0.16782998610E+03  0.00000000000E+00 0. -1.
        -13    1    3    3    0    0  0.56875647663E+01 -0.67055098246E+02  0.23025683886E+03  0.23988944628E+03  0.00000000000E+00 0.  1.
         13    1    3    3    0    0  0.16193505365E+02  0.28880110621E+02  0.75923621832E+02  0.82829262689E+02  0.00000000000E+00 0. -1.
          1    1    1    2  501    0  0.95537580322E+02 -0.84386442546E+02  0.28268982515E+03  0.31010004545E+03  0.00000000000E+00 0. -1.
<scales pt_clust_5="13000.00000" pt_clust_6="13000.00000" pt_clust_7="13000.00000" pt_clust_8="13000.00000" pt_clust_9="145.60239"></scales>
<clustering>
<clus scale="   81.785">  5  6 -1 -1</clus>
<clus scale="   92.004">  7  8 -1 -1</clus>
<clus scale="  101.985">  1  7  2 -1</clus>
<clus scale="  145.602">  2  9  1 -1</clus>
<clus scale="  145.602">  2  5  1 -1</clus>
</clustering>
</event>
<event>
 9    2  0.1723348E-004  0.1027624E+03  0.7546771E-02  0.1281290E+00
         21   -1    0    0  501  502  0.00000000000E+00  0.00000000000E+00  0.32863833608E+03  0.32863833608E+03  0.00000000000E+00 0. -1.
          2   -1    0    0  502    0 -0.00000000000E+00 -0.00000000000E+00 -0.10685884395E+03  0.10685884395E+03  0.00000000000E+00 0. -1.
         24    2    1    2    0    0  0.31730535780E+02 -0.74311817989E+01  0.10560334644E+03  0.13577540881E+03  0.78872336683E+02 0.  0.
         23    2    1    2    0    0 -0.27184147017E+02  0.72678840639E+02  0.17435109124E+03  0.21218748693E+03  0.92757936958E+02 0.  0.
        -11    1    3    3    0    0 -0.33691671293E+01 -0.20441836097E+02  0.94479140737E+02  0.96723978333E+02  0.00000000000E+00 0.  1.
         12    1    3    3    0    0  0.35099702910E+02  0.13010654298E+02  0.11124205703E+02  0.39051430475E+02  0.00000000000E+00 0. -1.
        -13    1    4    4    0    0 -0.24416297257E+02  0.94351634488E+02  0.15447999348E+03  0.18265392109E+03  0.00000000000E+00 0.  1.
         13    1    4    4    0    0 -0.27678497606E+01 -0.21672793849E+02  0.19871097760E+02  0.29533565848E+02  0.00000000000E+00 0. -1.
          1    1    1    2  501    0 -0.45463887629E+01 -0.65247658840E+02 -0.58174945552E+02  0.87534284283E+02  0.00000000000E+00 0. -1.
<scales pt_clust_5="13000.00000" pt_clust_6="13000.00000" pt_clust_7="13000.00000" pt_clust_8="13000.00000" pt_clust_9="65.40589"></scales>
<clustering>
<clus scale="   65.406">  1  9  2 -1</clus>
<clus scale="   78.872">  5  6 -1 -1</clus>
<clus scale="   90.426">  2  5  1 -1</clus>
<clus scale="   92.758">  7  8 -1 -1</clus>
<clus scale="   65.406">  1  5  2 -1</clus>
</clustering>
</event>
<event>
 9    2  0.1723348E-004  0.1141839E+03  0.7546771E-02  0.1257549E+00
         21   -1    0    0  501  502  0.00000000000E+00  0.00000000000E+00  0.10928188867E+03  0.10928188867E+03  0.00000000000E+00 0.  1.
          2   -1    0    0  502    0 -0.00000000000E+00 -0.00000000000E+00 -0.23500771204E+03  0.23500771204E+03  0.00000000000E+00 0. -1.
         24    2    1    2    0    0 -0.19306928064E+02  0.67697220904E+02 -0.13075519107E+03  0.16925784091E+03  0.81213456567E+02 0.  0.
         23    2    1    2    0    0 -0.16323005749E+02 -0.50061709453E+02  0.47072753232E+02  0.11716856153E+03  0.93488033697E+02 0.  0.
        -13    1    3    3    0    0 -0.21976781023E+02  0.79170523755E+02 -0.13386955485E+03  0.15707325824E+03  0.00000000000E+00 0.  1.
         14    1    3    3    0    0  0.26698529596E+01 -0.11473302851E+02  0.31143637830E+01  0.12184582673E+02  0.00000000000E+00 0. -1.
        -11    1    4    4    0    0 -0.33552298338E+02 -0.20442444763E+02  0.66897007027E+02  0.77581311028E+02  0.00000000000E+00 0.  1.
         11    1    4    4    0    0  0.17229292590E+02 -0.29619264690E+02 -0.19824253795E+02  0.39587250504E+02  0.00000000000E+00 0. -1.
          1    1    1    2  501    0  0.35629933812E+02 -0.17635511451E+02 -0.42043385530E+02  0.57863198274E+02  0.00000000000E+00 0. -1.
<scales pt_clust_5="13000.00000" pt_clust_6="13000.00000" pt_clust_7="13000.00000" pt_clust_8="13000.00000" pt_clust_9="39.75557"></scales>
<clustering>
<clus scale="   39.756">  1  9  2 -1</clus>
<clus scale="   81.213">  5  6 -1 -1</clus>
<clus scale="   93.488">  7  8 -1 -1</clus>
<clus scale="  104.372">  2  5  1 -1</clus>
<clus scale="   39.756">  1  5  2 -1</clus>
</clustering>
</event>
<event>
 9    2  0.1723348E-004  0.1610063E+03  0.7546771E-02  0.1191720E+00
         21   -1    0    0  501  502  0.00000000000E+00  0.00000000000E+00  0.20279217092E+02  0.20279217092E+02  0.00000000000E+00 0. -1.
          2   -1    0    0  502    0 -0.00000000000E+00 -0.00000000000E+00 -0.21700865016E+04  0.21700865016E+04  0.00000000000E+00 0. -1.
         24    2    1    2    0    0 -0.58066664541E+02 -0.12858799859E+03 -0.13160180395E+04  0.13259236427E+04  0.79141740590E+02 0.  0.
         23    2    1    2    0    0  0.64961995495E+02  0.56161227911E+02 -0.34300062620E+03  0.36829023324E+03  0.10302486083E+03 0.  0.
        -13    1    3    3    0    0  0.10944903884E+00 -0.66635038412E+02 -0.35840373843E+03  0.36454558020E+03  0.00000000000E+00 0.  1.
         14    1    3    3    0    0 -0.58176113580E+02 -0.61952960177E+02 -0.95761430106E+03  0.96137806250E+03  0.00000000000E+00 0. -1.
        -11    1    4    4    0    0  0.88970818271E+02  0.32493906550E+02 -0.29345403947E+03  0.30836169306E+03  0.00000000000E+00 0. -1.
         11    1    4    4    0    0 -0.24008822776E+02  0.23667321361E+02 -0.49546586731E+02  0.59928540181E+02  0.00000000000E+00 0.  1.
          1    1    1    2  501    0 -0.68953309543E+01  0.72426770678E+02 -0.49078861883E+03  0.49615184276E+03  0.00000000000E+00 0. -1.
<scales pt_clust_5="13000.00000" pt_clust_6="13000.00000" pt_clust_7="13000.00000" pt_clust_8="13000.00000" pt_clust_9="72.75430"></scales>
<clustering>
<clus scale="   72.754">  1  9  2 -1</clus>
<clus scale="   79.142">  5  6 -1 -1</clus>
<clus scale="  103.025">  7  8 -1 -1</clus>
<clus scale="  146.875">  2  5  1 -1</clus>
<clus scale="   72.754">  1  5  2 -1</clus>
</clustering>
</event>
<event>
 9    2  0.1723348E-004  0.2154919E+03  0.7546771E-02  0.1137930E+00
          4   -1    0    0  502    0 -0.00000000000E+00  0.00000000000E+00  0.12763629188E+03  0.12763629188E+03  0.00000000000E+00 0. -1.
         21   -1    0    0  501  502  0.00000000000E+00 -0.00000000000E+00 -0.62311248988E+03  0.62311248988E+03  0.00000000000E+00 0. -1.
         24    2    1    2    0    0 -0.18235319035E+03  0.35413716871E+02 -0.13757278997E+03  0.24487867496E+03  0.80823731258E+02 0.  0.
         23    2    1    2    0    0  0.19474097372E+03 -0.11322756534E+03 -0.35138098748E+03  0.42680687792E+03  0.89168291888E+02 0.  0.
        -11    1    3    3    0    0 -0.13958257051E+02  0.22640693502E+02 -0.45050097820E+02  0.52315822232E+02  0.00000000000E+00 0.  1.
         12    1    3    3    0    0 -0.16839493330E+03  0.12773023369E+02 -0.92522692150E+02  0.19256285272E+03  0.00000000000E+00 0. -1.
        -11    1    4    4    0    0  0.60820292781E+02 -0.85437083952E+02 -0.16778543778E+03  0.19786499554E+03  0.00000000000E+00 0.  1.
         11    1    4    4    0    0  0.13392068094E+03 -0.27790481391E+02 -0.18359554970E+03  0.22894188239E+03  0.00000000000E+00 0. -1.
          3    1    1    2  501    0 -0.12387783368E+02  0.77813848471E+02 -0.65224205437E+01  0.79063228877E+02  0.00000000000E+00 0. -1.
<scales pt_clust_5="13000.00000" pt_clust_6="13000.00000" pt_clust_7="13000.00000" pt_clust_8="13000.00000" pt_clust_9="78.79377"></scales>
<clustering>
<clus scale="   78.794">  2  9  1 -1</clus>
<clus scale="   80.824">  5  6 -1 -1</clus>
<clus scale="   89.168">  7  8 -1 -1</clus>
<clus scale="  212.175">  1  5  2 -1</clus>
<clus scale="   78.794">  2  5  1 -1</clus>
</clustering>
</event>
<event>
 9    2  0.1723348E-004  0.1669036E+03  0.7546771E-02  0.1181159E+00
         21   -1    0    0  501  502  0.00000000000E+00  0.00000000000E+00  0.30367325448E+02  0.30367325448E+02  0.00000000000E+00 0.  1.
          2   -1    0    0  502    0 -0.00000000000E+00 -0.00000000000E+00 -0.12174101678E+04  0.12174101678E+04  0.00000000000E+00 0. -1.
         23    2    1    2    0    0  0.13346332610E+03 -0.68710444939E+02 -0.63941598770E+03  0.66184992344E+03  0.81602274261E+02 0.  0.
         24    2    1    2    0    0 -0.13960768829E+03  0.30372399072E+02 -0.48644869895E+03  0.51346843870E+03  0.81269376612E+02 0.  0.
        -13    1    4    4    0    0 -0.70734109494E+02 -0.22914752066E+02 -0.27288868171E+03  0.28283675983E+03  0.00000000000E+00 0.  1.
         14    1    4    4    0    0 -0.68873578799E+02  0.53287151138E+02 -0.21356001725E+03  0.23063167887E+03  0.00000000000E+00 0. -1.
        -13    1    3    3    0    0  0.11651134096E+03 -0.84045507794E+02 -0.59241213575E+03  0.60958238043E+03  0.00000000000E+00 0. -1.
         13    1    3    3    0    0  0.16951985142E+02  0.15335062855E+02 -0.47003851956E+02  0.52267543005E+02  0.00000000000E+00 0.  1.
          1    1    1    2  501    0  0.61443621941E+01  0.38338045867E+02 -0.61178155745E+02  0.72459131157E+02  0.00000000000E+00 0. -1.
<scales pt_clust_5="13000.00000" pt_clust_6="13000.00000" pt_clust_7="13000.00000" pt_clust_8="13000.00000" pt_clust_9="38.82730"></scales>
<clustering>
<clus scale="   38.827">  1  9  2 -1</clus>
<clus scale="   81.269">  5  6 -1 -1</clus>
<clus scale="   81.602">  7  8 -1 -1</clus>
<clus scale="  166.741">  1  5  2 -1</clus>
<clus scale="   38.827">  1  5  2 -1</clus>
</clustering>
</event>
<event>
 9    2  0.1723348E-004  0.1689394E+03  0.7546771E-02  0.1179726E+00
         21   -1    0    0  501  502  0.00000000000E+00  0.00000000000E+00  0.34130242366E+03  0.34130242366E+03  0.00000000000E+00 0.  1.
          2   -1    0    0  502    0 -0.00000000000E+00 -0.00000000000E+00 -0.12411500250E+03  0.12411500250E+03  0.00000000000E+00 0. -1.
         24    2    1    2    0    0  0.29159084117E+02 -0.14846816193E+03  0.14438716604E+02  0.17063561447E+03  0.77556360769E+02 0.  0.
         23    2    1    2    0    0 -0.37375386561E+01  0.14068824551E+03  0.10733586914E+03  0.19573439255E+03  0.83569204879E+02 0.  0.
        -11    1    3    3    0    0  0.37849845996E+02 -0.26130903281E+02 -0.57067436041E+01  0.46346541088E+02  0.00000000000E+00 0.  1.
         12    1    3    3    0    0 -0.86907618795E+01 -0.12233725865E+03  0.20145460208E+02  0.12428907338E+03  0.00000000000E+00 0. -1.
        -11    1    4    4    0    0 -0.12236727111E+02  0.42629571799E+02  0.83369140622E+02  0.94432152841E+02  0.00000000000E+00 0.  1.
         11    1    4    4    0    0  0.84991884553E+01  0.98058673713E+02  0.23966728514E+02  0.10130223971E+03  0.00000000000E+00 0. -1.
          1    1    1    2  501    0 -0.25421545461E+02  0.77799164182E+01  0.95412835429E+02  0.99047419137E+02  0.00000000000E+00 0. -1.
<scales pt_clust_5="13000.00000" pt_clust_6="13000.00000" pt_clust_7="13000.00000" pt_clust_8="13000.00000" pt_clust_9="26.58537"></scales>
<clustering>
<clus scale="   26.585">  1  9  2 -1</clus>
<clus scale="   77.556">  5  6 -1 -1</clus>
<clus scale="   83.569">  7  8 -1 -1</clus>
<clus scale="  166.047">  2  5  1 -1</clus>
<clus scale="   26.585">  1  5  2 -1</clus>
</clustering>
</event>
<event>
 9    2  0.1723348E-004  0.9534713E+02  0.7546771E-02  0.1302481E+00
          2   -1    0    0  502    0 -0.00000000000E+00  0.00000000000E+00  0.11135809206E+04  0.11135809206E+04  0.00000000000E+00 0. -1.
         21   -1    0    0  501  502  0.00000000000E+00 -0.00000000000E+00 -0.15709930849E+02  0.15709930849E+02  0.00000000000E+00 0. -1.
         24    2    1    2    0    0  0.12192751786E+02 -0.16315087606E+02  0.75894538581E+03  0.76273554536E+03  0.73161248175E+02 0.  0.
         23    2    1    2    0    0  0.12404061669E+02  0.35543131946E+02  0.30195045540E+03  0.31816230526E+03  0.92930081206E+02 0.  0.
        -13    1    3    3    0    0 -0.22779849650E+02 -0.22463226308E+02  0.18929075526E+03  0.19197527995E+03  0.00000000000E+00 0.  1.
         14    1    3    3    0    0  0.34972601437E+02  0.61481387017E+01  0.56965463056E+03  0.57076026541E+03  0.00000000000E+00 0. -1.
        -11    1    4    4    0    0 -0.39428675232E+02  0.26809467983E+02  0.14697350472E+03  0.15451400938E+03  0.00000000000E+00 0.  1.
         11    1    4    4    0    0  0.51832736901E+02  0.87336639634E+01  0.15497695068E+03  0.16364829588E+03  0.00000000000E+00 0. -1.
          1    1    1    2  501    0 -0.24596813456E+02 -0.19228044340E+02  0.36975148582E+02  0.48393000878E+02  0.00000000000E+00 0. -1.
<scales pt_clust_5="13000.00000" pt_clust_6="13000.00000" pt_clust_7="13000.00000" pt_clust_8="13000.00000" pt_clust_9="31.22052"></scales>
<clustering>
<clus scale="   31.221">  2  9  1 -1</clus>
<clus scale="   73.161">  5  6 -1 -1</clus>
<clus scale="   76.208">  1  5  2 -1</clus>
<clus scale="   92.930">  7  8 -1 -1</clus>
<clus scale="   31.221">  2  5  1 -1</clus>
</clustering>
</event>
<event>
 9    2  0.1723348E-004  0.1113838E+03  0.7546771E-02  0.1264784E+00
         21   -1    0    0  501  502  0.00000000000E+00  0.00000000000E+00  0.18364968486E+03  0.18364968486E+03  0.00000000000E+00 0. -1.
         -3   -1    0    0    0  501 -0.00000000000E+00 -0.00000000000E+00 -0.17075210334E+03  0.17075210334E+03  0.00000000000E+00 0.  1.
         23    2    1    2    0    0 -0.10258859812E+02  0.59878928024E+02 -0.12708749948E+03  0.16942108311E+03  0.94135756494E+02 0.  0.
         24    2    1    2    0    0 -0.14305451516E+02 -0.54580991578E+02  0.11382469990E+03  0.14870620908E+03  0.77289997588E+02 0.  0.
        -13    1    4    4    0    0 -0.34596929216E+02 -0.99516333414E+00  0.64065438621E+02  0.72817019212E+02  0.00000000000E+00 0.  1.
         14    1    4    4    0    0  0.20291477700E+02 -0.53585828244E+02  0.49759261275E+02  0.75889189866E+02  0.00000000000E+00 0. -1.
        -13    1    3    3    0    0  0.17098343225E+02  0.71051910543E+02 -0.11746529424E+03  0.13834313385E+03  0.00000000000E+00 0.  1.
         13    1    3    3    0    0 -0.27357203037E+02 -0.11172982518E+02 -0.96222052448E+01  0.31077949259E+02  0.00000000000E+00 0. -1.
         -4    1    1    2    0  502  0.24564311328E+02 -0.52979364465E+01  0.26160381102E+02  0.36274496013E+02  0.00000000000E+00 0.  1.
<scales pt_clust_5="13000.00000" pt_clust_6="13000.00000" pt_clust_7="13000.00000" pt_clust_8="13000.00000" pt_clust_9="25.12914"></scales>
<clustering>
<clus scale="   25.129">  1  9  2 -1</clus>
<clus scale="   77.290">  5  6 -1 -1</clus>
<clus scale="   94.136">  7  8 -1 -1</clus>
<clus scale="   97.563">  1  5  2 -1</clus>
<clus scale="   25.129">  1  5  2 -1</clus>
</clustering>
</event>
<event>
 9    2  0.1723348E-004  0.1814455E+03  0.7546771E-02  0.1168116E+00
         21   -1    0    0  501  502  0.00000000000E+00  0.00000000000E+00  0.91076220399E+02  0.91076220399E+02  0.00000000000E+00 0.  1.
          2   -1    0    0  502    0 -0.00000000000E+00 -0.00000000000E+00 -0.65615715342E+03  0.65615715342E+03  0.00000000000E+00 0. -1.
         24    2    1    2    0    0  0.15025327625E+03  0.24547271940E+02 -0.40226289795E+03  0.43738412999E+03  0.79440685516E+02 0.  0.
         23    2    1    2    0    0 -0.16482014564E+03  0.98339035965E+01 -0.18607992388E+03  0.26585635365E+03  0.93762874507E+02 0.  0.
        -11    1    3    3    0    0  0.15173746693E+03  0.39054369804E+02 -0.35814538329E+03  0.39091894075E+03  0.00000000000E+00 0.  1.
         12    1    3    3    0    0 -0.14841906822E+01 -0.14507097864E+02 -0.44117514663E+02  0.46465189233E+02  0.00000000000E+00 0. -1.
        -13    1    4    4    0    0 -0.14304395277E+03  0.40922654247E+02 -0.12690032013E+03  0.19555031911E+03  0.00000000000E+00 0.  1.
         13    1    4    4    0    0 -0.21776192876E+02 -0.31088750651E+02 -0.59179603753E+02  0.70306034546E+02  0.00000000000E+00 0. -1.
          1    1    1    2  501    0  0.14566869397E+02 -0.34381175536E+02  0.23261888810E+02  0.43992890179E+02  0.00000000000E+00 0. -1.
<scales pt_clust_5="13000.00000" pt_clust_6="13000.00000" pt_clust_7="13000.00000" pt_clust_8="13000.00000" pt_clust_9="37.33978"></scales>
<clustering>
<clus scale="   37.340">  1  9  2 -1</clus>
<clus scale="   79.441">  5  6 -1 -1</clus>
<clus scale="   93.763">  7  8 -1 -1</clus>
<clus scale="  174.476">  2  5  1 -1</clus>
<clus scale="   37.340">  1  5  2 -1</clus>
</clustering>
</event>
<event>
 9    2  0.1723348E-004  0.1266982E+03  0.7546771E-02  0.1251090E+00
         21   -1    0    0  501  502  0.00000000000E+00  0.00000000000E+00  0.73104818352E+03  0.73104818352E+03  0.00000000000E+00 0.  1.
         -3   -1    0    0    0  501 -0.00000000000E+00 -0.00000000000E+00 -0.77514464938E+02  0.77514464938E+02  0.00000000000E+00 0.  1.
         24    2    1    2    0    0 -0.84969632444E+01  0.32209444066E+02 -0.28171232990E+02  0.91298111018E+02  0.80200249600E+02 0.  0.
         23    2    1    2    0    0 -0.32737695701E+02  0.55471287931E+02  0.23813321897E+03  0.26323360256E+03  0.91845952748E+02 0.  0.
        -11    1    3    3    0    0  0.35212370541E+02  0.19831657837E+02 -0.63785236947E+01  0.40913216156E+02  0.00000000000E+00 0.  1.
         12    1    3    3    0    0 -0.43709333785E+02  0.12377786229E+02 -0.21792709295E+02  0.50384894863E+02  0.00000000000E+00 0. -1.
        -13    1    4    4    0    0 -0.26825562608E+02  0.80582543887E+02  0.19895642015E+03  0.21632571347E+03  0.00000000000E+00 0.  1.
         13    1    4    4    0    0 -0.59121330935E+01 -0.25111255957E+02  0.39176798815E+02  0.46907889090E+02  0.00000000000E+00 0. -1.
         -4    1    1    2    0  502  0.41234658945E+02 -0.87680731997E+02  0.44357173261E+03  0.45403093488E+03  0.00000000000E+00 0.  1.
<scales pt_clust_5="13000.00000" pt_clust_6="13000.00000" pt_clust_7="13000.00000" pt_clust_8="13000.00000" pt_clust_9="87.27402"></scales>
<clustering>
<clus scale="   80.200">  5  6 -1 -1</clus>
<clus scale="   86.843">  2  5  1 -1</clus>
<clus scale="   87.274">  1  9  2 -1</clus>
<clus scale="   91.846">  7  8 -1 -1</clus>
<clus scale="   87.274">  1  5  2 -1</clus>
</clustering>
</event>
<event>
 9    2  0.1723348E-004  0.1150195E+03  0.7546771E-02  0.1255881E+00
         -1   -1    0    0    0  501 -0.00000000000E+00  0.00000000000E+00  0.48185856673E+03  0.48185856673E+03  0.00000000000E+00 0.  1.
         21   -1    0    0  501  502  0.00000000000E+00 -0.00000000000E+00 -0.18812209777E+03  0.18812209777E+03  0.00000000000E+00 0. -1.
         24    2    1    2    0    0 -0.35228260809E+02 -0.58653226928E+02  0.43485833029E+03  0.44727306508E+03  0.79184568763E+02 0.  0.
         23    2    1    2    0    0  0.37648384839E+02  0.94048266774E+02 -0.10617949395E+03  0.17291166701E+03  0.91443328299E+02 0.  0.
        -11    1    3    3    0    0 -0.59892358917E+02 -0.33940791001E+02  0.31490482787E+03  0.32234162400E+03  0.00000000000E+00 0.  1.
         12    1    3    3    0    0  0.24664098109E+02 -0.24712435927E+02  0.11995350243E+03  0.12493144108E+03  0.00000000000E+00 0. -1.
        -13    1    4    4    0    0  0.13090013281E+02  0.75913610629E+02 -0.17323727106E+02  0.78957813086E+02  0.00000000000E+00 0.  1.
         13    1    4    4    0    0  0.24558371558E+02  0.18134656145E+02 -0.88855766840E+02  0.93953853927E+02  0.00000000000E+00 0. -1.
         -2    1    1    2    0  502 -0.24201240301E+01 -0.35395039846E+02 -0.34942367380E+02  0.49795932406E+02  0.00000000000E+00 0.  1.
<scales pt_clust_5="13000.00000" pt_clust_6="13000.00000" pt_clust_7="13000.00000" pt_clust_8="13000.00000" pt_clust_9="35.47768"></scales>
<clustering>
<clus scale="   35.478">  2  9  1 -1</clus>
<clus scale="   79.185">  5  6 -1 -1</clus>
<clus scale="   91.443">  7  8 -1 -1</clus>
<clus scale="  105.536">  1  5  2 -1</clus>
<clus scale="   35.478">  2  5  1 -1</clus>
</clustering>
</event>
<event>
 9    2  0.1723348E-004  0.1500667E+03  0.7546771E-02  0.1219081E+00
         21   -1    0    0  501  502  0.00000000000E+00  0.00000000000E+00  0.37727570374E+03  0.37727570374E+03  0.00000000000E+00 0.  1.
          4   -1    0    0  502    0 -0.00000000000E+00 -0.00000000000E+00 -0.10921435386E+03  0.10921435386E+03  0.00000000000E+00 0. -1.
         23    2    1    2    0    0  0.34618118710E+02  0.27170647020E+02  0.13255744671E+02  0.10153197159E+03  0.90533796375E+02 0.  0.
         24    2    1    2    0    0 -0.13103147550E+03  0.34637814474E+02  0.20717960511E+03  0.26092560170E+03  0.82399970186E+02 0.  0.
        -13    1    4    4    0    0 -0.69524594328E+02 -0.93744225562E+01  0.15167185475E+03  0.16711044413E+03  0.00000000000E+00 0.  1.
         14    1    4    4    0    0 -0.61506881171E+02  0.44012237031E+02  0.55507750363E+02  0.93815157571E+02  0.00000000000E+00 0. -1.
        -11    1    3    3    0    0  0.24521506600E+02  0.54402323021E+02 -0.14444862059E+02  0.61396832784E+02  0.00000000000E+00 0.  1.
         11    1    3    3    0    0  0.10096612110E+02 -0.27231676001E+02  0.27700606730E+02  0.40135138808E+02  0.00000000000E+00 0. -1.
          3    1    1    2  501    0  0.96413356788E+02 -0.61808461495E+02  0.47626000097E+02  0.12403248431E+03  0.00000000000E+00 0. -1.
<scales pt_clust_5="13000.00000" pt_clust_6="13000.00000" pt_clust_7="13000.00000" pt_clust_8="13000.00000" pt_clust_9="125.42034"></scales>
<clustering>
<clus scale="   82.400">  5  6 -1 -1</clus>
<clus scale="   90.534">  7  8 -1 -1</clus>
<clus scale="  100.663">  2  7  1 -1</clus>
<clus scale="  125.420">  1  9  2 -1</clus>
<clus scale="  125.420">  1  5  2 -1</clus>
</clustering>
</event>
<event>
 9    2  0.1723348E-004  0.9232074E+02  0.7546771E-02  0.1303146E+00
          2   -1    0    0  502    0 -0.00000000000E+00  0.00000000000E+00  0.48285771216E+03  0.48285771216E+03  0.00000000000E+00 0. -1.
         21   -1    0    0  501  502  0.00000000000E+00 -0.00000000000E+00 -0.74363181791E+02  0.74363181791E+02  0.00000000000E+00 0. -1.
         24    2    1    2    0    0  0.15343032677E+02 -0.95976815801E+01  0.26713605426E+03  0.27969502416E+03  0.80870952194E+02 0.  0.
         23    2    1    2    0    0 -0.30462121207E+02 -0.11295667751E+02 -0.32721453435E+02  0.10154592561E+03  0.90472916142E+02 0.  0.
        -11    1    3    3    0    0  0.18011962380E+02  0.31345116788E+02  0.17708232438E+03  0.18073487970E+03  0.00000000000E+00 0.  1.
         12    1    3    3    0    0 -0.26689297036E+01 -0.40942798368E+02  0.90053729885E+02  0.98960144453E+02  0.00000000000E+00 0. -1.
        -13    1    4    4    0    0 -0.14302098789E+02  0.34972696555E+02  0.70418203941E+01  0.38434707864E+02  0.00000000000E+00 0.  1.
         13    1    4    4    0    0 -0.16160022418E+02 -0.46268364306E+02 -0.39763273829E+02  0.63111217749E+02  0.00000000000E+00 0. -1.
          1    1    1    2  501    0  0.15119088531E+02  0.20893349331E+02  0.17407992955E+03  0.17597994419E+03  0.00000000000E+00 0. -1.
<scales pt_clust_5="13000.00000" pt_clust_6="13000.00000" pt_clust_7="13000.00000" pt_clust_8="13000.00000" pt_clust_9="25.78991"></scales>
<clustering>
<clus scale="   25.790">  2  9  1 -1</clus>
<clus scale="   80.871">  5  6 -1 -1</clus>
<clus scale="   82.933">  1  5  2 -1</clus>
<clus scale="   90.473">  7  8 -1 -1</clus>
<clus scale="   25.790">  2  5  1 -1</clus>
</clustering>
</event>
<event>
 9    2  0.2388827E-004  0.1305942E+03  0.7546771E-02  0.1228780E+00
          2   -1    0    0  502    0 -0.00000000000E+00  0.00000000000E+00  0.86602217831E+03  0.86602217831E+03  0.00000000000E+00 0. -1.
         21   -1    0    0  501  502  0.00000000000E+00 -0.00000000000E+00 -0.36761245589E+03  0.36761245589E+03  0.00000000000E+00 0.  1.
         24    2    1    2    0    0 -0.43496269476E+02  0.84445787633E+02  0.82865231405E+03  0.83795732061E+03  0.80528237787E+02 0.  0.
         23    2    1    2    0    0  0.94626672683E+02 -0.81707091200E+02 -0.29770381767E+03  0.33500944399E+03  0.89294504713E+02 0.  0.
        -13    1    3    3    0    0 -0.36454449944E+02  0.61799230501E+02  0.28862828162E+03  0.29741277169E+03  0.00000000000E+00 0.  1.
         14    1    3    3    0    0 -0.70418195318E+01  0.22646557131E+02  0.54002403243E+03  0.54054454892E+03  0.00000000000E+00 0. -1.
        -11    1    4    4    0    0 -0.12176976890E+02 -0.24167744165E+02 -0.94959703416E+02  0.98740588904E+02  0.00000000000E+00 0. -1.
         11    1    4    4    0    0  0.10680364957E+03 -0.57539347035E+02 -0.20274411425E+03  0.23626885509E+03  0.00000000000E+00 0.  1.
          1    1    1    2  501    0 -0.51130403207E+02 -0.27386964325E+01 -0.32538773956E+02  0.60667869592E+02  0.00000000000E+00 0. -1.
<scales pt_clust_5="13000.00000" pt_clust_6="13000.00000" pt_clust_7="13000.00000" pt_clust_8="13000.00000" pt_clust_9="51.20370"></scales>
<clustering>
<clus scale="   51.204">  2  9  1 -1</clus>
<clus scale="   80.528">  5  6 -1 -1</clus>
<clus scale="   89.295">  7  8 -1 -1</clus>
<clus scale="  124.764">  1  5  2 -1</clus>
<clus scale="   51.204">  2  5  1 -1</clus>
</clustering>
</event>
<event>
 9    2  0.1723348E-004  0.1843715E+03  0.7546771E-02  0.1164706E+00
          2   -1    0    0  502    0 -0.00000000000E+00  0.00000000000E+00  0.98847382996E+03  0.98847382996E+03  0.00000000000E+00 0. -1.
         21   -1    0    0  501  502  0.00000000000E+00 -0.00000000000E+00 -0.15603021427E+03  0.15603021427E+03  0.00000000000E+00 0. -1.
         24    2    1    2    0    0 -0.63695877878E+02  0.14424020871E+03  0.83769270742E+03  0.85633962178E+03  0.82012639865E+02 0.  0.
         23    2    1    2    0    0  0.12557763902E+03 -0.14400946861E+03  0.34492627008E+02  0.21461981142E+03  0.91451909037E+02 0.  0.
        -11    1    3    3    0    0 -0.22494776498E+02  0.41126066185E+01  0.46976546447E+02  0.52246764675E+02  0.00000000000E+00 0.  1.
         12    1    3    3    0    0 -0.41201101379E+02  0.14012760210E+03  0.79071616097E+03  0.80409285710E+03  0.00000000000E+00 0. -1.
        -11    1    4    4    0    0  0.36233281536E+02 -0.10352291943E+03 -0.27048768683E+01  0.10971400046E+03  0.00000000000E+00 0.  1.
         11    1    4    4    0    0  0.89344357486E+02 -0.40486549175E+02  0.37197503876E+02  0.10490581096E+03  0.00000000000E+00 0. -1.
          1    1    1    2  501    0 -0.61881761145E+02 -0.23074010794E+00 -0.39741718734E+02  0.73544611028E+02  0.00000000000E+00 0. -1.
<scales pt_clust_5="13000.00000" pt_clust_6="13000.00000" pt_clust_7="13000.00000" pt_clust_8="13000.00000" pt_clust_9="61.88219"></scales>
<clustering>
<clus scale="   61.882">  2  9  1 -1</clus>
<clus scale="   82.013">  5  6 -1 -1</clus>
<clus scale="   91.452">  7  8 -1 -1</clus>
<clus scale="  179.876">  1  5  2 -1</clus>
<clus scale="   61.882">  2  5  1 -1</clus>
</clustering>
</event>
<event>
 9    2  0.1723348E-004  0.1127576E+03  0.7546771E-02  0.1261220E+00
          2   -1    0    0  502    0 -0.00000000000E+00  0.00000000000E+00  0.18766661363E+03  0.18766661363E+03  0.00000000000E+00 0. -1.
         21   -1    0    0  501  502  0.00000000000E+00 -0.00000000000E+00 -0.10237609090E+03  0.10237609090E+03  0.00000000000E+00 0.  1.
         23    2    1    2    0    0  0.48667258501E+02  0.33378651768E+02  0.40100830314E+02  0.11637039441E+03  0.91931255076E+02 0.  0.
         24    2    1    2    0    0 -0.80731532619E+02  0.11343982202E+02  0.37339609815E+02  0.11808584180E+03  0.76835885370E+02 0.  0.
        -13    1    4    4    0    0 -0.92350433394E+02  0.16841495905E+02  0.43926513970E+02  0.10364254513E+03  0.00000000000E+00 0.  1.
         14    1    4    4    0    0  0.11618900775E+02 -0.54975137029E+01 -0.65869041548E+01  0.14443296663E+02  0.00000000000E+00 0. -1.
        -11    1    3    3    0    0  0.21447629023E+01 -0.30132355580E+02  0.72653550866E+01  0.31069989463E+02  0.00000000000E+00 0. -1.
         11    1    3    3    0    0  0.46522495599E+02  0.63511007347E+02  0.32835475227E+02  0.85300404949E+02  0.00000000000E+00 0.  1.
          1    1    1    2  501    0  0.32064274118E+02 -0.44722633970E+02  0.78500826028E+01  0.55586468324E+02  0.00000000000E+00 0. -1.
<scales pt_clust_5="13000.00000" pt_clust_6="13000.00000" pt_clust_7="13000.00000" pt_clust_8="13000.00000" pt_clust_9="55.02937"></scales>
<clustering>
<clus scale="   55.029">  2  9  1 -1</clus>
<clus scale="   76.836">  5  6 -1 -1</clus>
<clus scale="   91.931">  7  8 -1 -1</clus>
<clus scale="  100.830">  2  5  1 -1</clus>
<clus scale="   55.029">  2  5  1 -1</clus>
</clustering>
</event>
<event>
 9    2  0.1723348E-004  0.1162321E+03  0.7546771E-02  0.1253554E+00
         21   -1    0    0  501  502  0.00000000000E+00  0.00000000000E+00  0.55430126708E+02  0.55430126708E+02  0.00000000000E+00 0.  1.
          2   -1    0    0  502    0 -0.00000000000E+00 -0.00000000000E+00 -0.72721089370E+03  0.72721089370E+03  0.00000000000E+00 0. -1.
         23    2    1    2    0    0  0.77423944272E+02  0.49499762929E+01 -0.49883204543E+03  0.51280442164E+03  0.90088822211E+02 0.  0.
         24    2    1    2    0    0 -0.44073795057E+02 -0.25152886926E+02 -0.47309302261E+00  0.93008341726E+02  0.77943317110E+02 0.  0.
        -13    1    4    4    0    0 -0.25139600138E+02  0.27074050011E+02 -0.49451803480E+01  0.37275440813E+02  0.00000000000E+00 0.  1.
         14    1    4    4    0    0 -0.18934194919E+02 -0.52226936938E+02  0.44720873254E+01  0.55732900913E+02  0.00000000000E+00 0. -1.
        -13    1    3    3    0    0  0.47954295631E+02  0.45920244291E+02 -0.32898514455E+03  0.33561809939E+03  0.00000000000E+00 0.  1.
         13    1    3    3    0    0  0.29469648641E+02 -0.40970267998E+02 -0.16984690088E+03  0.17718632225E+03  0.00000000000E+00 0. -1.
          1    1    1    2  501    0 -0.33350149215E+02  0.20202910634E+02 -0.17247562854E+03  0.17682825705E+03  0.00000000000E+00 0. -1.
<scales pt_clust_5="13000.00000" pt_clust_6="13000.00000" pt_clust_7="13000.00000" pt_clust_8="13000.00000" pt_clust_9="38.99220"></scales>
<clustering>
<clus scale="   38.992">  1  9  2 -1</clus>
<clus scale="   77.943">  5  6 -1 -1</clus>
<clus scale="   90.089">  7  8 -1 -1</clus>
<clus scale="  107.094">  1  5  2 -1</clus>
<clus scale="   38.992">  1  5  2 -1</clus>
</clustering>
</event>
<event>
 9    2  0.1723348E-004  0.2528524E+03  0.7546771E-02  0.1112290E+00
         21   -1    0    0  501  502  0.00000000000E+00  0.00000000000E+00  0.24965078959E+03  0.24965078959E+03  0.00000000000E+00 0. -1.
          2   -1    0    0  502    0 -0.00000000000E+00 -0.00000000000E+00 -0.10630432330E+04  0.10630432330E+04  0.00000000000E+00 0. -1.
         23    2    1    2    0    0  0.12048610262E+03 -0.21158901591E+03 -0.57591738434E+03  0.63231002127E+03  0.94065492317E+02 0.  0.
         24    2    1    2    0    0  0.92325050160E+02  0.24197240720E+03  0.92657381761E+02  0.28643074811E+03  0.79891315757E+02 0.  0.
        -13    1    4    4    0    0  0.41547801003E+02  0.28058127333E+02  0.27186071769E+02  0.57031226322E+02  0.00000000000E+00 0.  1.
         14    1    4    4    0    0  0.50777249157E+02  0.21391427987E+03  0.65471309992E+02  0.22939952179E+03  0.00000000000E+00 0. -1.
        -13    1    3    3    0    0  0.13133203177E+01 -0.57283584287E+02 -0.21019000864E+03  0.21785998616E+03  0.00000000000E+00 0.  1.
         13    1    3    3    0    0  0.11917278230E+03 -0.15430543162E+03 -0.36572737570E+03  0.41445003511E+03  0.00000000000E+00 0. -1.
          1    1    1    2  501    0 -0.21281115278E+03 -0.30383391293E+02 -0.33013244081E+03  0.39395325318E+03  0.00000000000E+00 0. -1.
<scales pt_clust_5="13000.00000" pt_clust_6="13000.00000" pt_clust_7="13000.00000" pt_clust_8="13000.00000" pt_clust_9="214.96926"></scales>
<clustering>
<clus scale="   79.891">  5  6 -1 -1</clus>
<clus scale="   94.065">  7  8 -1 -1</clus>
<clus scale="  214.969">  1  9  2 -1</clus>
<clus scale="  247.929">  1  5  2 -1</clus>
<clus scale="  214.969">  1  5  2 -1</clus>
</clustering>
</event>
<event>
 9    2  0.1723348E-004  0.1034972E+03  0.7546771E-02  0.1284193E+00
         21   -1    0    0  501  502  0.00000000000E+00  0.00000000000E+00  0.20776426757E+03  0.20776426757E+03  0.00000000000E+00 0.  1.
         -1   -1    0    0    0  501 -0.00000000000E+00 -0.00000000000E+00 -0.22175891602E+03  0.22175891602E+03  0.00000000000E+00 0.  1.
         24    2    1    2    0    0  0.17741206179E+02 -0.43093642568E+02 -0.19173899634E+03  0.20966691142E+03  0.70884120941E+02 0.  0.
         23    2    1    2    0    0  0.37425720401E+01  0.16059987968E+02  0.12749801835E+03  0.15888853611E+03  0.93369653336E+02 0.  0.
        -11    1    3    3    0    0 -0.48230405709E+01 -0.51327771717E+02 -0.78546803381E+02  0.93954255844E+02  0.00000000000E+00 0.  1.
         12    1    3    3    0    0  0.22564246750E+02  0.82341291491E+01 -0.11319219296E+03  0.11571265558E+03  0.00000000000E+00 0. -1.
        -13    1    4    4    0    0  0.39201767630E+02 -0.49185900388E+01  0.21096314975E+02  0.44788677350E+02  0.00000000000E+00 0.  1.
         13    1    4    4    0    0 -0.35459195590E+02  0.20978578007E+02  0.10640170338E+03  0.11409985876E+03  0.00000000000E+00 0. -1.
         -2    1    1    2    0  502 -0.21483778219E+02  0.27033654600E+02  0.50246329541E+02  0.60967736057E+02  0.00000000000E+00 0.  1.
<scales pt_clust_5="13000.00000" pt_clust_6="13000.00000" pt_clust_7="13000.00000" pt_clust_8="13000.00000" pt_clust_9="34.53073"></scales>
<clustering>
<clus scale="   34.531">  1  9  2 -1</clus>
<clus scale="   70.884">  5  6 -1 -1</clus>
<clus scale="   83.776">  2  5  1 -1</clus>
<clus scale="   93.370">  7  8 -1 -1</clus>
<clus scale="   34.531">  1  5  2 -1</clus>
</clustering>
</event>
<event>
 9    2  0.1723348E-004  0.9301482E+02  0.7546771E-02  0.1302275E+00
         21   -1    0    0  501  502  0.00000000000E+00  0.00000000000E+00  0.44030737992E+03  0.44030737992E+03  0.00000000000E+00 0.  1.
          4   -1    0    0  502    0 -0.00000000000E+00 -0.00000000000E+00 -0.48643572292E+02  0.48643572292E+02  0.00000000000E+00 0. -1.
         23    2    1    2    0    0  0.44527849997E+02 -0.36063345722E+02  0.46231748334E+02  0.98449448753E+02  0.65357670367E+02 0.  0.
         24    2    1    2    0    0 -0.56419803939E+02 -0.39563318226E+02  0.17633740893E+03  0.20488412375E+03  0.78320954737E+02 0.  0.
        -13    1    4    4    0    0 -0.25069652296E+02 -0.17886745147E+02  0.16080323085E+03  0.16372569184E+03  0.00000000000E+00 0.  1.
         14    1    4    4    0    0 -0.31350151643E+02 -0.21676573079E+02  0.15534178085E+02  0.41158431910E+02  0.00000000000E+00 0. -1.
        -13    1    3    3    0    0 -0.94365573924E+01 -0.27962104343E+02  0.47223225890E+01  0.29886923986E+02  0.00000000000E+00 0.  1.
         13    1    3    3    0    0  0.53964407390E+02 -0.81012413788E+01  0.41509425745E+02  0.68562524768E+02  0.00000000000E+00 0. -1.
          3    1    1    2  501    0  0.11891953942E+02  0.75626663948E+02  0.16909465037E+03  0.18561737971E+03  0.00000000000E+00 0. -1.
<scales pt_clust_5="13000.00000" pt_clust_6="13000.00000" pt_clust_7="13000.00000" pt_clust_8="13000.00000" pt_clust_9="76.55593"></scales>
<clustering>
<clus scale="   65.358">  7  8 -1 -1</clus>
<clus scale="   76.556">  1  9  2 -1</clus>
<clus scale="   78.321">  5  6 -1 -1</clus>
<clus scale="   82.397">  2  7  1 -1</clus>
<clus scale="   76.556">  1  5  2 -1</clus>
</clustering>
</event>
<event>
 9    2  0.1723348E-004  0.8727130E+02  0.7546771E-02  0.1311517E+00
          2   -1    0    0  502    0 -0.00000000000E+00  0.00000000000E+00  0.13206608003E+04  0.13206608003E+04  0.00000000000E+00 0. -1.
         21   -1    0    0  501  502  0.00000000000E+00 -0.00000000000E+00 -0.95427780669E+01  0.95427780669E+01  0.00000000000E+00 0.  1.
         24    2    1    2    0    0  0.18596081059E+02 -0.22105203403E+02  0.87282670750E+03  0.87684678066E+03  0.78736022149E+02 0.  0.
         23    2    1    2    0    0 -0.38574591472E+02  0.77618553675E+01  0.35990967220E+03  0.37120721221E+03  0.81924213434E+02 0.  0.
        -13    1    3    3    0    0 -0.21239732474E+02 -0.24984292246E+02  0.18665417106E+03  0.18951285093E+03  0.00000000000E+00 0.  1.
         14    1    3    3    0    0  0.39835813533E+02  0.28790888431E+01  0.68617253644E+03  0.68733392973E+03  0.00000000000E+00 0. -1.
        -11    1    4    4    0    0 -0.34550458557E+02  0.42993838955E+02  0.20497674970E+03  0.21226792573E+03  0.00000000000E+00 0. -1.
         11    1    4    4    0    0 -0.40241329153E+01 -0.35231983587E+02  0.15493292250E+03  0.15893928648E+03  0.00000000000E+00 0.  1.
          1    1    1    2  501    0  0.19978510413E+02  0.14343348036E+02  0.78381642557E+02  0.82149585520E+02  0.00000000000E+00 0. -1.
<scales pt_clust_5="13000.00000" pt_clust_6="13000.00000" pt_clust_7="13000.00000" pt_clust_8="13000.00000" pt_clust_9="24.59416"></scales>
<clustering>
<clus scale="   24.594">  2  9  1 -1</clus>
<clus scale="   78.736">  5  6 -1 -1</clus>
<clus scale="   81.924">  7  8 -1 -1</clus>
<clus scale="   84.286">  1  5  2 -1</clus>
<clus scale="   24.594">  2  5  1 -1</clus>
</clustering>
</event>
<event>
 9    2  0.1723348E-004  0.1050938E+03  0.7546771E-02  0.1273526E+00
          2   -1    0    0  502    0 -0.00000000000E+00  0.00000000000E+00  0.34323494170E+03  0.34323494170E+03  0.00000000000E+00 0. -1.
         21   -1    0    0  501  502  0.00000000000E+00 -0.00000000000E+00 -0.84143476350E+02  0.84143476350E+02  0.00000000000E+00 0. -1.
         23    2    1    2    0    0  0.29246039077E+02  0.38989220587E+02  0.15955450636E+03  0.18920213093E+03  0.89243014976E+02 0.  0.
         24    2    1    2    0    0 -0.63423503871E+02 -0.58916244418E+02 -0.12743481761E+02  0.11912973004E+03  0.80844489938E+02 0.  0.
        -13    1    4    4    0    0 -0.17595069454E+02  0.19291404856E+02 -0.11356891121E+02  0.28473211030E+02  0.00000000000E+00 0.  1.
         14    1    4    4    0    0 -0.45828434418E+02 -0.78207649275E+02 -0.13865906391E+01  0.90656519014E+02  0.00000000000E+00 0. -1.
        -13    1    3    3    0    0  0.15538611567E+02 -0.13939716238E+02  0.11979198521E+03  0.12159721978E+03  0.00000000000E+00 0.  1.
         13    1    3    3    0    0  0.13707427510E+02  0.52928936825E+02  0.39762521157E+02  0.67604911147E+02  0.00000000000E+00 0. -1.
          1    1    1    2  501    0  0.34177464794E+02  0.19927023831E+02  0.11228044074E+03  0.11904655708E+03  0.00000000000E+00 0. -1.
<scales pt_clust_5="13000.00000" pt_clust_6="13000.00000" pt_clust_7="13000.00000" pt_clust_8="13000.00000" pt_clust_9="39.56244"></scales>
<clustering>
<clus scale="   39.562">  2  9  1 -1</clus>
<clus scale="   80.844">  5  6 -1 -1</clus>
<clus scale="   89.243">  7  8 -1 -1</clus>
<clus scale="   98.062">  2  5  1 -1</clus>
<clus scale="   39.562">  2  5  1 -1</clus>
</clustering>
</event>
<event>
 9    2  0.1723348E-004  0.1998353E+03  0.7546771E-02  0.1186815E+00
         -3   -1    0    0    0  501 -0.00000000000E+00  0.00000000000E+00  0.14130858196E+03  0.14130858196E+03  0.00000000000E+00 0.  1.
         21   -1    0    0  501  502  0.00000000000E+00 -0.00000000000E+00 -0.63055400149E+03  0.63055400149E+03  0.00000000000E+00 0. -1.
         24    2    1    2    0    0 -0.11423386402E+02  0.20989800279E+02 -0.31832220344E+03  0.32963680161E+03  0.82221227793E+02 0.  0.
         23    2    1    2    0    0  0.14292221076E+03  0.10462876763E+03 -0.16821358197E+03  0.26034860480E+03  0.90064696305E+02 0.  0.
        -11    1    3    3    0    0  0.21037536141E+02 -0.86462133453E+01 -0.28322221355E+02  0.36324690702E+02  0.00000000000E+00 0.  1.
         12    1    3    3    0    0 -0.32460922543E+02  0.29636013624E+02 -0.28999998208E+03  0.29331211090E+03  0.00000000000E+00 0. -1.
        -13    1    4    4    0    0  0.40855989308E+02 -0.53563752253E+01 -0.10211493524E+02  0.42452057875E+02  0.00000000000E+00 0.  1.
         13    1    4    4    0    0  0.10206622145E+03  0.10998514286E+03 -0.15800208844E+03  0.21789654693E+03  0.00000000000E+00 0. -1.
         -4    1    1    2    0  502 -0.13149882436E+03 -0.12561856791E+03 -0.27096341303E+01  0.18187717704E+03  0.00000000000E+00 0.  1.
<scales pt_clust_5="13000.00000" pt_clust_6="13000.00000" pt_clust_7="13000.00000" pt_clust_8="13000.00000" pt_clust_9="178.38876"></scales>
<clustering>
<clus scale="   82.221">  5  6 -1 -1</clus>
<clus scale="   85.624">  1  5  2 -1</clus>
<clus scale="   90.065">  7  8 -1 -1</clus>
<clus scale="  178.389">  2  9  1 -1</clus>
<clus scale="  178.389">  2  5  1 -1</clus>
</clustering>
</event>
<event>
 9    2  0.1723348E-004  0.1475971E+03  0.7546771E-02  0.1205374E+00
          2   -1    0    0  502    0 -0.00000000000E+00  0.00000000000E+00  0.55474145917E+03  0.55474145917E+03  0.00000000000E+00 0. -1.
         21   -1    0    0  501  502  0.00000000000E+00 -0.00000000000E+00 -0.96098510263E+02  0.96098510263E+02  0.00000000000E+00 0.  1.
         24    2    1    2    0    0 -0.91709175210E+02 -0.79462150839E+02  0.44645350607E+03  0.46945672354E+03  0.79649707866E+02 0.  0.
         23    2    1    2    0    0  0.84053517077E+02  0.39376695460E+02 -0.18263323598E+02  0.13046346763E+03  0.89842359275E+02 0.  0.
        -13    1    3    3    0    0 -0.10121875390E+03 -0.50844159282E+02  0.31996394401E+03  0.33942199419E+03  0.00000000000E+00 0.  1.
         14    1    3    3    0    0  0.95095786870E+01 -0.28617991556E+02  0.12648956205E+03  0.13003472935E+03  0.00000000000E+00 0. -1.
        -11    1    4    4    0    0  0.10509899460E+02  0.28541258299E+02 -0.42511330774E+02  0.52271164672E+02  0.00000000000E+00 0.  1.
         11    1    4    4    0    0  0.73543617617E+02  0.10835437160E+02  0.24248007176E+02  0.78192302963E+02  0.00000000000E+00 0. -1.
          1    1    1    2  501    0  0.76556581334E+01  0.40085455379E+02  0.30452766441E+02  0.50919778263E+02  0.00000000000E+00 0. -1.
<scales pt_clust_5="13000.00000" pt_clust_6="13000.00000" pt_clust_7="13000.00000" pt_clust_8="13000.00000" pt_clust_9="40.80996"></scales>
<clustering>
<clus scale="   40.810">  2  9  1 -1</clus>
<clus scale="   79.650">  5  6 -1 -1</clus>
<clus scale="   89.842">  7  8 -1 -1</clus>
<clus scale="  141.624">  1  5  2 -1</clus>
<clus scale="   40.810">  2  5  1 -1</clus>
</clustering>
</event>
<event>
 9    2  0.1723348E-004  0.9927467E+02  0.7546771E-02  0.1282676E+00
         21   -1    0    0  501  502  0.00000000000E+00  0.00000000000E+00  0.13819724182E+03  0.13819724182E+03  0.00000000000E+00 0. -1.
          4   -1    0    0  502    0 -0.00000000000E+00 -0.00000000000E+00 -0.18695374022E+03  0.18695374022E+03  0.00000000000E+00 0. -1.
         23    2    1    2    0    0  0.24476344795E+02 -0.25049104321E+02 -0.57011170992E+02  0.11234700699E+03  0.90249804874E+02 0.  0.
         24    2    1    2    0    0 -0.66374936632E+02 -0.36061130928E+02 -0.41518557701E+02  0.12354408874E+03  0.88506010255E+02 0.  0.
        -11    1    4    4    0    0 -0.29441638733E+02 -0.36418297204E+02  0.20689649415E+02  0.51197305158E+02  0.00000000000E+00 0.  1.
         12    1    4    4    0    0 -0.36933297899E+02  0.35716627620E+00 -0.62208207116E+02  0.72346783578E+02  0.00000000000E+00 0. -1.
        -13    1    3    3    0    0  0.51569595520E+02 -0.36966953992E+02 -0.23566394476E+02  0.67685698771E+02  0.00000000000E+00 0. -1.
         13    1    3    3    0    0 -0.27093250725E+02  0.11917849670E+02 -0.33444776516E+02  0.44661308218E+02  0.00000000000E+00 0.  1.
          3    1    1    2  501    0  0.41898591837E+02  0.61110235249E+02  0.49773230301E+02  0.89259886314E+02  0.00000000000E+00 0. -1.
<scales pt_clust_5="13000.00000" pt_clust_6="13000.00000" pt_clust_7="13000.00000" pt_clust_8="13000.00000" pt_clust_9="74.09422"></scales>
<clustering>
<clus scale="   74.094">  1  9  2 -1</clus>
<clus scale="   88.506">  5  6 -1 -1</clus>
<clus scale="   90.250">  7  8 -1 -1</clus>
<clus scale="   97.692">  1  5  2 -1</clus>
<clus scale="   74.094">  1  5  2 -1</clus>
</clustering>
</event>
<event>
 9    2  0.1723348E-004  0.1318058E+03  0.7546771E-02  0.1233874E+00
         21   -1    0    0  501  502  0.00000000000E+00  0.00000000000E+00  0.11723827087E+03  0.11723827087E+03  0.00000000000E+00 0.  1.
          2   -1    0    0  502    0 -0.00000000000E+00 -0.00000000000E+00 -0.28230111525E+03  0.28230111525E+03  0.00000000000E+00 0. -1.
         23    2    1    2    0    0  0.58278092216E+02 -0.42583851391E+02 -0.20187298075E+03  0.24240600767E+03  0.11312935855E+03 0.  0.
         24    2    1    2    0    0 -0.23599401930E+02  0.47840912467E+02  0.57652878182E+02  0.11633303362E+03  0.85812794341E+02 0.  0.
        -13    1    4    4    0    0 -0.16253167409E+02  0.20861080705E+02  0.77601920049E+02  0.81984194417E+02  0.00000000000E+00 0.  1.
         14    1    4    4    0    0 -0.73462345210E+01  0.26979831761E+02 -0.19949041866E+02  0.34348839207E+02  0.00000000000E+00 0. -1.
        -13    1    3    3    0    0  0.11666014276E+02 -0.75019298541E+02 -0.13297275841E+03  0.15312003632E+03  0.00000000000E+00 0.  1.
         13    1    3    3    0    0  0.46612077940E+02  0.32435447151E+02 -0.68900222342E+02  0.89285971354E+02  0.00000000000E+00 0. -1.
          1    1    1    2  501    0 -0.34678690286E+02 -0.52570610762E+01 -0.20842741812E+02  0.40800344819E+02  0.00000000000E+00 0. -1.
<scales pt_clust_5="13000.00000" pt_clust_6="13000.00000" pt_clust_7="13000.00000" pt_clust_8="13000.00000" pt_clust_9="35.07491"></scales>
<clustering>
<clus scale="   35.075">  1  9  2 -1</clus>
<clus scale="   85.813">  5  6 -1 -1</clus>
<clus scale="  109.263">  1  5  2 -1</clus>
<clus scale="  113.129">  7  8 -1 -1</clus>
<clus scale="   35.075">  1  5  2 -1</clus>
</clustering>
</event>
<event>
 9    2  0.1723348E-004  0.1140942E+03  0.7546771E-02  0.1258862E+00
          2   -1    0    0  502    0 -0.00000000000E+00  0.00000000000E+00  0.23156303637E+03  0.23156303637E+03  0.00000000000E+00 0. -1.
         21   -1    0    0  501  502  0.00000000000E+00 -0.00000000000E+00 -0.19505298406E+03  0.19505298406E+03  0.00000000000E+00 0. -1.
         24    2    1    2    0    0 -0.19382397693E+02  0.49244651667E+02  0.12895703184E+03  0.16075256319E+03  0.80067205837E+02 0.  0.
         23    2    1    2    0    0  0.69136136370E+02 -0.85033305678E+02  0.11143940736E+02  0.14550008644E+03  0.95055874693E+02 0.  0.
        -11    1    3    3    0    0 -0.49360339528E+02  0.42738024450E+02  0.86707702372E+02  0.10854127097E+03  0.00000000000E+00 0.  1.
         12    1    3    3    0    0  0.29977941835E+02  0.65066272169E+01  0.42249329473E+02  0.52211292221E+02  0.00000000000E+00 0. -1.
        -13    1    4    4    0    0  0.67114180218E+01 -0.49080658227E+02  0.44061687184E+02  0.66297710529E+02  0.00000000000E+00 0.  1.
         13    1    4    4    0    0  0.62424718348E+02 -0.35952647451E+02 -0.32917746448E+02  0.79202375916E+02  0.00000000000E+00 0. -1.
          1    1    1    2  501    0 -0.49753738677E+02  0.35788654010E+02 -0.10359092027E+03  0.12036337080E+03  0.00000000000E+00 0. -1.
<scales pt_clust_5="13000.00000" pt_clust_6="13000.00000" pt_clust_7="13000.00000" pt_clust_8="13000.00000" pt_clust_9="61.28835"></scales>
<clustering>
<clus scale="   61.288">  2  9  1 -1</clus>
<clus scale="   80.067">  5  6 -1 -1</clus>
<clus scale="   95.056">  7  8 -1 -1</clus>
<clus scale="  101.944">  1  5  2 -1</clus>
<clus scale="   61.288">  2  5  1 -1</clus>
</clustering>
</event>
<event>
 9    2  0.1723348E-004  0.9550306E+02  0.7546771E-02  0.1298112E+00
          2   -1    0    0  502    0 -0.00000000000E+00  0.00000000000E+00  0.48503304236E+03  0.48503304236E+03  0.00000000000E+00 0. -1.
         21   -1    0    0  501  502  0.00000000000E+00 -0.00000000000E+00 -0.50119407479E+02  0.50119407479E+02  0.00000000000E+00 0.  1.
         23    2    1    2    0    0 -0.76243047123E+01  0.12395036968E+02  0.23116164764E+03  0.25041335995E+03  0.95180757178E+02 0.  0.
         24    2    1    2    0    0 -0.12112868849E+02  0.15379801353E+02  0.62947211529E+01  0.84363518539E+02  0.81818823412E+02 0.  0.
        -11    1    4    4    0    0 -0.17076291707E+02  0.15203376102E+02 -0.35526853005E+02  0.42248072948E+02  0.00000000000E+00 0.  1.
         12    1    4    4    0    0  0.49634228587E+01  0.17642525108E+00  0.41821574158E+02  0.42115445592E+02  0.00000000000E+00 0. -1.
        -13    1    3    3    0    0 -0.22068226497E+02 -0.35106787740E+02  0.65954039975E+02  0.77906537307E+02  0.00000000000E+00 0.  1.
         13    1    3    3    0    0  0.14443921784E+02  0.47501824709E+02  0.16520760767E+03  0.17250682264E+03  0.00000000000E+00 0. -1.
          1    1    1    2  501    0  0.19737173561E+02 -0.27774838321E+02  0.19745726609E+03  0.20037557135E+03  0.00000000000E+00 0. -1.
<scales pt_clust_5="13000.00000" pt_clust_6="13000.00000" pt_clust_7="13000.00000" pt_clust_8="13000.00000" pt_clust_9="34.07343"></scales>
<clustering>
<clus scale="   34.073">  2  9  1 -1</clus>
<clus scale="   81.819">  5  6 -1 -1</clus>
<clus scale="   82.194">  2  5  1 -1</clus>
<clus scale="   95.181">  7  8 -1 -1</clus>
<clus scale="   34.073">  2  5  1 -1</clus>
</clustering>
</event>
<event>
 9    2  0.1723348E-004  0.1517896E+03  0.7546771E-02  0.1201104E+00
         21   -1    0    0  501  502  0.00000000000E+00  0.00000000000E+00  0.87242963755E+02  0.87242963755E+02  0.00000000000E+00 0.  1.
          4   -1    0    0  502    0 -0.00000000000E+00 -0.00000000000E+00 -0.41439559977E+03  0.41439559977E+03  0.00000000000E+00 0. -1.
         23    2    1    2    0    0 -0.10366377757E+03  0.46897750833E+02 -0.16852371435E+03  0.22472436503E+03  0.95682914493E+02 0.  0.
         24    2    1    2    0    0  0.78145878798E+02 -0.11000594336E+03 -0.94646982643E+02  0.18349313212E+03  0.80644852677E+02 0.  0.
        -13    1    4    4    0    0  0.13051655436E+02 -0.78689006561E+02 -0.72889548909E+02  0.10805180148E+03  0.00000000000E+00 0.  1.
         14    1    4    4    0    0  0.65094223362E+02 -0.31316936802E+02 -0.21757433734E+02  0.75441330638E+02  0.00000000000E+00 0. -1.
        -11    1    3    3    0    0 -0.71061474294E+02  0.74146246626E+01 -0.30824157283E+02  0.77812842513E+02  0.00000000000E+00 0.  1.
         11    1    3    3    0    0 -0.32602303275E+02  0.39483126170E+02 -0.13769955707E+03  0.14691152252E+03  0.00000000000E+00 0. -1.
          3    1    1    2  501    0  0.25517898771E+02  0.63108192530E+02 -0.63981939018E+02  0.93421066375E+02  0.00000000000E+00 0. -1.
<scales pt_clust_5="13000.00000" pt_clust_6="13000.00000" pt_clust_7="13000.00000" pt_clust_8="13000.00000" pt_clust_9="68.07211"></scales>
<clustering>
<clus scale="   68.072">  1  9  2 -1</clus>
<clus scale="   80.645">  5  6 -1 -1</clus>
<clus scale="   95.683">  7  8 -1 -1</clus>
<clus scale="  142.788">  1  5  2 -1</clus>
<clus scale="   68.072">  1  5  2 -1</clus>
</clustering>
</event>
<event>
 9    2  0.1723348E-004  0.1006040E+03  0.7546771E-02  0.1280957E+00
         -3   -1    0    0    0  501 -0.00000000000E+00  0.00000000000E+00  0.38446005720E+03  0.38446005720E+03  0.00000000000E+00 0.  1.
         21   -1    0    0  501  502  0.00000000000E+00 -0.00000000000E+00 -0.58680425171E+02  0.58680425171E+02  0.00000000000E+00 0.  1.
         23    2    1    2    0    0  0.37338414418E+02  0.17308598906E+02  0.91991353249E+02  0.13208083490E+03  0.85376771367E+02 0.  0.
         24    2    1    2    0    0 -0.16851621738E+01 -0.89709337543E+02  0.11116217742E+03  0.16425984472E+03  0.81078122113E+02 0.  0.
        -11    1    4    4    0    0 -0.33897743849E+02 -0.30014363754E+02  0.17334732273E+02  0.48481047973E+02  0.00000000000E+00 0.  1.
         12    1    4    4    0    0  0.32212581675E+02 -0.59694973790E+02  0.93827445145E+02  0.11577879675E+03  0.00000000000E+00 0. -1.
        -13    1    3    3    0    0  0.78508726237E+01  0.46639755867E+02  0.71470596369E+02  0.85702678918E+02  0.00000000000E+00 0. -1.
         13    1    3    3    0    0  0.29487541794E+02 -0.29331156962E+02  0.20520756880E+02  0.46378155986E+02  0.00000000000E+00 0.  1.
         -4    1    1    2    0  502 -0.35653252244E+02  0.72400738637E+02  0.12262610136E+03  0.14679980274E+03  0.00000000000E+00 0.  1.
<scales pt_clust_5="13000.00000" pt_clust_6="13000.00000" pt_clust_7="13000.00000" pt_clust_8="13000.00000" pt_clust_9="80.70333"></scales>
<clustering>
<clus scale="   80.703">  2  9  1 -1</clus>
<clus scale="   81.078">  5  6 -1 -1</clus>
<clus scale="   85.377">  7  8 -1 -1</clus>
<clus scale="   96.983">  2  5  1 -1</clus>
<clus scale="   80.703">  2  5  1 -1</clus>
</clustering>
</event>
<event>
 9    2  0.1723348E-004  0.1567765E+03  0.7546771E-02  0.1212184E+00
         21   -1    0    0  501  502  0.00000000000E+00  0.00000000000E+00  0.11259203090E+03  0.11259203090E+03  0.00000000000E+00 0.  1.
          4   -1    0    0  502    0 -0.00000000000E+00 -0.00000000000E+00 -0.41522178333E+03  0.41522178333E+03  0.00000000000E+00 0. -1.
         23    2    1    2    0    0 -0.45232402852E+02 -0.17204904938E+02 -0.17239532705E+03  0.20038627563E+03  0.89958499605E+02 0.  0.
         24    2    1    2    0    0  0.16532308767E+02 -0.13042607822E+03 -0.64748203487E+02  0.16339385960E+03  0.72256102773E+02 0.  0.
        -11    1    4    4    0    0 -0.18220531982E+02 -0.91579801394E+02 -0.21872691944E+02  0.95902359001E+02  0.00000000000E+00 0.  1.
         12    1    4    4    0    0  0.34752840749E+02 -0.38846276827E+02 -0.42875511543E+02  0.67491500602E+02  0.00000000000E+00 0. -1.
        -11    1    3    3    0    0 -0.69648348770E+02 -0.11136735175E+02 -0.90655618433E+02  0.11486235463E+03  0.00000000000E+00 0. -1.
         11    1    3    3    0    0  0.24415945918E+02 -0.60681697629E+01 -0.81739708621E+02  0.85523921010E+02  0.00000000000E+00 0.  1.
          3    1    1    2  501    0  0.28700094085E+02  0.14763098316E+03 -0.65486221886E+02  0.16403367900E+03  0.00000000000E+00 0. -1.
<scales pt_clust_5="13000.00000" pt_clust_6="13000.00000" pt_clust_7="13000.00000" pt_clust_8="13000.00000" pt_clust_9="139.13282"></scales>
<clustering>
<clus scale="   72.256">  5  6 -1 -1</clus>
<clus scale="   89.958">  7  8 -1 -1</clus>
<clus scale="  102.149">  2  7  1 -1</clus>
<clus scale="  139.133">  1  9  2 -1</clus>
<clus scale="  139.133">  1  5  2 -1</clus>
</clustering>
</event>
<event>
 9    2  0.1723348E-004  0.1032961E+03  0.7546771E-02  0.1280037E+00
         21   -1    0    0  501  502  0.00000000000E+00  0.00000000000E+00  0.50677059618E+02  0.50677059618E+02  0.00000000000E+00 0.  1.
          2   -1    0    0  502    0 -0.00000000000E+00 -0.00000000000E+00 -0.75791564786E+03  0.75791564786E+03  0.00000000000E+00 0. -1.
         24    2    1    2    0    0  0.53572138759E+02 -0.40220515105E+02 -0.22992903311E+03  0.25196138473E+03  0.78291220729E+02 0.  0.
         23    2    1    2    0    0  0.16604632789E+00 -0.32348793159E+02 -0.32731660950E+02  0.10297550493E+03  0.92120144363E+02 0.  0.
        -11    1    3    3    0    0  0.67762226348E+02 -0.51183238698E+02 -0.18379052341E+03  0.20246085977E+03  0.00000000000E+00 0.  1.
         12    1    3    3    0    0 -0.14190087589E+02  0.10962723593E+02 -0.46138509700E+02  0.49500524964E+02  0.00000000000E+00 0. -1.
        -13    1    4    4    0    0  0.17302637935E+01 -0.53062054280E+02  0.11309474387E+02  0.54281485132E+02  0.00000000000E+00 0.  1.
         13    1    4    4    0    0 -0.15642174656E+01  0.20713261121E+02 -0.44041135337E+02  0.48694019800E+02  0.00000000000E+00 0. -1.
          1    1    1    2  501    0 -0.53738185087E+02  0.72569308264E+02 -0.44457789418E+03  0.45365581781E+03  0.00000000000E+00 0. -1.
<scales pt_clust_5="13000.00000" pt_clust_6="13000.00000" pt_clust_7="13000.00000" pt_clust_8="13000.00000" pt_clust_9="90.30008"></scales>
<clustering>
<clus scale="   78.291">  5  6 -1 -1</clus>
<clus scale="   90.300">  1  9  2 -1</clus>
<clus scale="   91.178">  2  5  1 -1</clus>
<clus scale="   92.120">  7  8 -1 -1</clus>
<clus scale="   90.300">  1  5  2 -1</clus>
</clustering>
</event>
<event>
 9    2  0.1723348E-004  0.2411156E+03  0.7546771E-02  0.1134579E+00
         21   -1    0    0  501  502  0.00000000000E+00  0.00000000000E+00  0.87130112880E+03  0.87130112880E+03  0.00000000000E+00 0. -1.
          2   -1    0    0  502    0 -0.00000000000E+00 -0.00000000000E+00 -0.19856443469E+03  0.19856443469E+03  0.00000000000E+00 0. -1.
         23    2    1    2    0    0  0.74469983098E+02 -0.11530381228E+03  0.32519100212E+03  0.36434180545E+03  0.90305126246E+02 0.  0.
         24    2    1    2    0    0 -0.23529998085E+03 -0.52465726346E+02 -0.36959879874E+02  0.25623827968E+03  0.78570285889E+02 0.  0.
        -11    1    4    4    0    0 -0.11615744909E+03 -0.53987299614E+02  0.92847959667E+01  0.12842658968E+03  0.00000000000E+00 0.  1.
         12    1    4    4    0    0 -0.11914253176E+03  0.15215732676E+01 -0.46244675841E+02  0.12781169001E+03  0.00000000000E+00 0. -1.
        -11    1    3    3    0    0  0.34450949449E+02 -0.10154737674E+03  0.29037739146E+03  0.30954445095E+03  0.00000000000E+00 0. -1.
         11    1    3    3    0    0  0.40019033649E+02 -0.13756435542E+02  0.34813610663E+02  0.54797354502E+02  0.00000000000E+00 0.  1.
          1    1    1    2  501    0  0.16082999775E+03  0.16776953863E+03  0.38450557186E+03  0.44928547835E+03  0.00000000000E+00 0. -1.
<scales pt_clust_5="13000.00000" pt_clust_6="13000.00000" pt_clust_7="13000.00000" pt_clust_8="13000.00000" pt_clust_9="227.95491"></scales>
<clustering>
<clus scale="   78.570">  5  6 -1 -1</clus>
<clus scale="   90.305">  7  8 -1 -1</clus>
<clus scale="  164.304">  2  7  1 -1</clus>
<clus scale="  227.955">  1  9  2 -1</clus>
<clus scale="  227.955">  1  5  2 -1</clus>
</clustering>
</event>
<event>
 9    2  0.1723348E-004  0.2437073E+03  0.7546771E-02  0.1119582E+00
          2   -1    0    0  502    0 -0.00000000000E+00  0.00000000000E+00  0.25706941320E+04  0.25706941320E+04  0.00000000000E+00 0. -1.
         21   -1    0    0  501  502  0.00000000000E+00 -0.00000000000E+00 -0.32891756714E+02  0.32891756714E+02  0.00000000000E+00 0.  1.
         24    2    1    2    0    0  0.13993824207E+03 -0.15360299325E+03  0.16258347735E+04  0.16410563495E+04  0.80936026945E+02 0.  0.
         23    2    1    2    0    0 -0.13727458973E+03  0.19598530663E+03  0.80581438388E+03  0.84819729876E+03  0.11334585543E+03 0.  0.
        -11    1    3    3    0    0  0.39114565522E+02 -0.19110357102E+01  0.21821635739E+03  0.22170245810E+03  0.00000000000E+00 0.  1.
         12    1    3    3    0    0  0.10082367655E+03 -0.15169195754E+03  0.14076184161E+04  0.14193538914E+04  0.00000000000E+00 0. -1.
        -13    1    4    4    0    0 -0.76627582994E+02  0.12824726025E+03  0.31006378437E+03  0.34417829190E+03  0.00000000000E+00 0.  1.
         13    1    4    4    0    0 -0.60647006737E+02  0.67738046376E+02  0.49575059952E+03  0.50401900686E+03  0.00000000000E+00 0. -1.
          1    1    1    2  501    0 -0.26636523420E+01 -0.42382313383E+02  0.10615321789E+03  0.11433224042E+03  0.00000000000E+00 0. -1.
<scales pt_clust_5="13000.00000" pt_clust_6="13000.00000" pt_clust_7="13000.00000" pt_clust_8="13000.00000" pt_clust_9="42.46593"></scales>
<clustering>
<clus scale="   42.466">  2  9  1 -1</clus>
<clus scale="   80.936">  5  6 -1 -1</clus>
<clus scale="  113.346">  7  8 -1 -1</clus>
<clus scale="  230.427">  1  5  2 -1</clus>
<clus scale="   42.466">  2  5  1 -1</clus>
</clustering>
</event>
<event>
 9    2  0.1723348E-004  0.9404080E+02  0.7546771E-02  0.1300152E+00
          4   -1    0    0  502    0 -0.00000000000E+00  0.00000000000E+00  0.11913921645E+03  0.11913921645E+03  0.00000000000E+00 0. -1.
         21   -1    0    0  501  502  0.00000000000E+00 -0.00000000000E+00 -0.29681194529E+03  0.29681194529E+03  0.00000000000E+00 0.  1.
         23    2    1    2    0    0  0.37172619227E+01 -0.25362291341E+02  0.88096103242E+02  0.12918483513E+03  0.90943577915E+02 0.  0.
         24    2    1    2    0    0 -0.38926318021E+01  0.30857047712E+01 -0.23930329802E+03  0.25217295215E+03  0.79375406737E+02 0.  0.
        -13    1    4    4    0    0  0.32423754640E+02  0.17130277744E+01 -0.17775418371E+03  0.18069527984E+03  0.00000000000E+00 0.  1.
         14    1    4    4    0    0 -0.36316386442E+02  0.13726769968E+01 -0.61549114306E+02  0.71477672305E+02  0.00000000000E+00 0. -1.
        -11    1    3    3    0    0  0.46373683191E+02 -0.12353967056E+02  0.58479508267E+02  0.75650458570E+02  0.00000000000E+00 0. -1.
         11    1    3    3    0    0 -0.42656421269E+02 -0.13008324286E+02  0.29616594975E+02  0.53534376564E+02  0.00000000000E+00 0.  1.
          3    1    1    2  501    0  0.17536987930E+00  0.22276586570E+02 -0.26465534056E+02  0.34593374462E+02  0.00000000000E+00 0. -1.
<scales pt_clust_5="13000.00000" pt_clust_6="13000.00000" pt_clust_7="13000.00000" pt_clust_8="13000.00000" pt_clust_9="22.27728"></scales>
<clustering>
<clus scale="   22.277">  2  9  1 -1</clus>
<clus scale="   79.375">  5  6 -1 -1</clus>
<clus scale="   82.906">  2  5  1 -1</clus>
<clus scale="   90.944">  7  8 -1 -1</clus>
<clus scale="   22.277">  2  5  1 -1</clus>
</clustering>
</event>
<event>
 9    2  0.1723348E-004  0.2336883E+03  0.7546771E-02  0.1124944E+00
          2   -1    0    0  502    0 -0.00000000000E+00  0.00000000000E+00  0.43768248008E+03  0.43768248008E+03  0.00000000000E+00 0. -1.
         21   -1    0    0  501  502  0.00000000000E+00 -0.00000000000E+00 -0.72621402253E+03  0.72621402253E+03  0.00000000000E+00 0. -1.
         24    2    1    2    0    0 -0.85280949160E+02  0.20218122469E+03  0.38189816724E+03  0.44768228410E+03  0.80144428682E+02 0.  0.
         23    2    1    2    0    0  0.68137291171E+02 -0.12967170284E+03 -0.40922874971E+03  0.44459412121E+03  0.93478992609E+02 0.  0.
        -11    1    3    3    0    0 -0.63834913492E+02  0.54019973262E+02  0.14749543269E+03  0.16955222309E+03  0.00000000000E+00 0.  1.
         12    1    3    3    0    0 -0.21446035668E+02  0.14816125143E+03  0.23440273455E+03  0.27813006100E+03  0.00000000000E+00 0. -1.
        -11    1    4    4    0    0  0.48959437377E+02 -0.13465635723E+02 -0.17795486884E+03  0.18505751862E+03  0.00000000000E+00 0. -1.
         11    1    4    4    0    0  0.19177853794E+02 -0.11620606712E+03 -0.23127388087E+03  0.25953660259E+03  0.00000000000E+00 0.  1.
          1    1    1    2  501    0  0.17143657989E+02 -0.72509521844E+02 -0.26120095998E+03  0.27162009731E+03  0.00000000000E+00 0. -1.
<scales pt_clust_5="13000.00000" pt_clust_6="13000.00000" pt_clust_7="13000.00000" pt_clust_8="13000.00000" pt_clust_9="74.50863"></scales>
<clustering>
<clus scale="   74.509">  2  9  1 -1</clus>
<clus scale="   80.144">  5  6 -1 -1</clus>
<clus scale="   93.479">  7  8 -1 -1</clus>
<clus scale="  228.681">  1  5  2 -1</clus>
<clus scale="   74.509">  2  5  1 -1</clus>
</clustering>
</event>
<event>
 9    2  0.1723348E-004  0.5165441E+03  0.7546771E-02  0.1009681E+00
          2   -1    0    0  502    0 -0.00000000000E+00  0.00000000000E+00  0.21219731821E+04  0.21219731821E+04  0.00000000000E+00 0. -1.
         21   -1    0    0  501  502  0.00000000000E+00 -0.00000000000E+00 -0.19483280005E+03  0.19483280005E+03  0.00000000000E+00 0.  1.
         24    2    1    2    0    0 -0.10632095668E+03  0.49301154353E+03  0.15000539317E+04  0.15845623218E+04  0.79444482338E+02 0.  0.
         23    2    1    2    0    0  0.12431393855E+03 -0.50455947748E+03  0.45518996907E+03  0.69693204839E+03  0.92098591187E+02 0.  0.
        -11    1    3    3    0    0 -0.41290903837E+02  0.10173147329E+03  0.24888778640E+03  0.27202823680E+03  0.00000000000E+00 0.  1.
         12    1    3    3    0    0 -0.65030052839E+02  0.39128007025E+03  0.12511661453E+04  0.13125340850E+04  0.00000000000E+00 0. -1.
        -11    1    4    4    0    0 -0.73315041357E+01 -0.78907584101E+02  0.97017579614E+02  0.12526998258E+03  0.00000000000E+00 0. -1.
         11    1    4    4    0    0  0.13164544269E+03 -0.42565189338E+03  0.35817238946E+03  0.57166206581E+03  0.00000000000E+00 0.  1.
          1    1    1    2  501    0 -0.17992981877E+02  0.11547933946E+02 -0.28103518721E+02  0.35311611967E+02  0.00000000000E+00 0. -1.
<scales pt_clust_5="13000.00000" pt_clust_6="13000.00000" pt_clust_7="13000.00000" pt_clust_8="13000.00000" pt_clust_9="21.37995"></scales>
<clustering>
<clus scale="   21.380">  2  9  1 -1</clus>
<clus scale="   79.444">  5  6 -1 -1</clus>
<clus scale="   92.099">  7  8 -1 -1</clus>
<clus scale="  514.439">  1  5  2 -1</clus>
<clus scale="   21.380">  2  5  1 -1</clus>
</clustering>
</event>
<event>
 9    2  0.1723348E-004  0.9386382E+02  0.7546771E-02  0.1299790E+00
          2   -1    0    0  502    0 -0.00000000000E+00  0.00000000000E+00  0.37608500973E+03  0.37608500973E+03  0.00000000000E+00 0. -1.
         21   -1    0    0  501  502  0.00000000000E+00 -0.00000000000E+00 -0.44636300048E+02  0.44636300048E+02  0.00000000000E+00 0.  1.
         23    2    1    2    0    0  0.28379230357E+01 -0.28558561490E+02  0.25571850050E+03  0.27283028276E+03  0.90668442425E+02 0.  0.
         24    2    1    2    0    0  0.13462206917E+02  0.15731252639E+02  0.90234061189E+02  0.12258103272E+03  0.80344386606E+02 0.  0.
        -13    1    4    4    0    0  0.26691999891E+02  0.62659190865E+01 -0.33248535932E+01  0.27618458530E+02  0.00000000000E+00 0.  1.
         14    1    4    4    0    0 -0.13229792974E+02  0.94653335525E+01  0.93558914782E+02  0.94962574189E+02  0.00000000000E+00 0. -1.
        -11    1    3    3    0    0  0.40500855374E+02 -0.31051328179E+02  0.96109178813E+02  0.10881855779E+03  0.00000000000E+00 0.  1.
         11    1    3    3    0    0 -0.37662932338E+02  0.24927666895E+01  0.15960932168E+03  0.16401172497E+03  0.00000000000E+00 0. -1.
          1    1    1    2  501    0 -0.16300129952E+02  0.12827308851E+02 -0.14503852001E+02  0.25309994304E+02  0.00000000000E+00 0. -1.
<scales pt_clust_5="13000.00000" pt_clust_6="13000.00000" pt_clust_7="13000.00000" pt_clust_8="13000.00000" pt_clust_9="20.74208"></scales>
<clustering>
<clus scale="   20.742">  2  9  1 -1</clus>
<clus scale="   80.344">  5  6 -1 -1</clus>
<clus scale="   83.934">  2  5  1 -1</clus>
<clus scale="   90.668">  7  8 -1 -1</clus>
<clus scale="   20.742">  2  5  1 -1</clus>
</clustering>
</event>
<event>
 9    2  0.1723348E-004  0.9492182E+02  0.7546771E-02  0.1293495E+00
         21   -1    0    0  501  502  0.00000000000E+00  0.00000000000E+00  0.13970156576E+03  0.13970156576E+03  0.00000000000E+00 0.  1.
          2   -1    0    0  502    0 -0.00000000000E+00 -0.00000000000E+00 -0.11343478757E+03  0.11343478757E+03  0.00000000000E+00 0. -1.
         24    2    1    2    0    0  0.32680122039E+02  0.45224628453E+01 -0.38218755339E+02  0.97494581838E+02  0.83403100551E+02 0.  0.
         23    2    1    2    0    0 -0.49744786432E+02  0.24763561212E+02  0.63911711927E+02  0.12174187110E+03  0.87456266301E+02 0.  0.
        -11    1    3    3    0    0  0.92061245084E+01 -0.39091660807E+02 -0.17011929487E+02  0.43615552478E+02  0.00000000000E+00 0.  1.
         12    1    3    3    0    0  0.23473997531E+02  0.43614123652E+02 -0.21206825852E+02  0.53879029360E+02  0.00000000000E+00 0. -1.
        -13    1    4    4    0    0 -0.48263522391E+02  0.53358434690E+02  0.31636463136E+02  0.78596157323E+02  0.00000000000E+00 0.  1.
         13    1    4    4    0    0 -0.14812640408E+01 -0.28594873478E+02  0.32275248791E+02  0.43145713772E+02  0.00000000000E+00 0. -1.
          1    1    1    2  501    0  0.17064664393E+02 -0.29286024057E+02  0.57382160641E+00  0.33899900400E+02  0.00000000000E+00 0. -1.
<scales pt_clust_5="13000.00000" pt_clust_6="13000.00000" pt_clust_7="13000.00000" pt_clust_8="13000.00000" pt_clust_9="33.89506"></scales>
<clustering>
<clus scale="   33.895">  1  9  2 -1</clus>
<clus scale="   83.403">  5  6 -1 -1</clus>
<clus scale="   87.456">  7  8 -1 -1</clus>
<clus scale="   91.201">  2  5  1 -1</clus>
<clus scale="   33.895">  1  5  2 -1</clus>
</clustering>
</event>
<event>
 9    2  0.1723348E-004  0.2030596E+03  0.7546771E-02  0.1148382E+00
         21   -1    0    0  501  502  0.00000000000E+00  0.00000000000E+00  0.90589251253E+03  0.90589251253E+03  0.00000000000E+00 0. -1.
         -1   -1    0    0    0  501 -0.00000000000E+00 -0.00000000000E+00 -0.84353631736E+02  0.84353631736E+02  0.00000000000E+00 0.  1.
         24    2    1    2    0    0 -0.94777878004E+02  0.15063866710E+03  0.84875051345E+02  0.21219201248E+03  0.78401668586E+02 0.  0.
         23    2    1    2    0    0  0.88041355311E+02 -0.17275214338E+03  0.55665469670E+03  0.59656673705E+03  0.91830480312E+02 0.  0.
        -13    1    3    3    0    0  0.43612953457E+00  0.61264782497E+02  0.11289054272E+02  0.62297724916E+02  0.00000000000E+00 0.  1.
         14    1    3    3    0    0 -0.95214007538E+02  0.89373884603E+02  0.73585997073E+02  0.14989428757E+03  0.00000000000E+00 0. -1.
        -11    1    4    4    0    0  0.20209078939E+02 -0.12976778353E+03  0.29612852933E+03  0.32394473356E+03  0.00000000000E+00 0.  1.
         11    1    4    4    0    0  0.67832276372E+02 -0.42984359859E+02  0.26052616736E+03  0.27262200350E+03  0.00000000000E+00 0. -1.
         -2    1    1    2    0  502  0.67365226926E+01  0.22113476285E+02  0.18000913275E+03  0.18148739473E+03  0.00000000000E+00 0.  1.
<scales pt_clust_5="13000.00000" pt_clust_6="13000.00000" pt_clust_7="13000.00000" pt_clust_8="13000.00000" pt_clust_9="23.11680"></scales>
<clustering>
<clus scale="   23.117">  1  9  2 -1</clus>
<clus scale="   78.402">  5  6 -1 -1</clus>
<clus scale="   91.830">  7  8 -1 -1</clus>
<clus scale="  197.350">  2  5  1 -1</clus>
<clus scale="   23.117">  1  5  2 -1</clus>
</clustering>
</event>
<event>
 9    2  0.1723348E-004  0.1525170E+03  0.7546771E-02  0.1199433E+00
         21   -1    0    0  501  502  0.00000000000E+00  0.00000000000E+00  0.46283035670E+02  0.46283035670E+02  0.00000000000E+00 0.  1.
         -1   -1    0    0    0  501 -0.00000000000E+00 -0.00000000000E+00 -0.93805031655E+03  0.93805031655E+03  0.00000000000E+00 0.  1.
         23    2    1    2    0    0 -0.11357699292E+03 -0.64411968941E+02 -0.71253830971E+03  0.73015602101E+03  0.91478615735E+02 0.  0.
         24    2    1    2    0    0  0.93833296851E+02  0.40714364658E+02 -0.18156479434E+03  0.22324440292E+03  0.80062112142E+02 0.  0.
        -11    1    4    4    0    0  0.17891560699E+02  0.50197476200E+02 -0.70913245997E+02  0.88705033785E+02  0.00000000000E+00 0.  1.
         12    1    4    4    0    0  0.75941736152E+02 -0.94831115423E+01 -0.11065154835E+03  0.13453936913E+03  0.00000000000E+00 0. -1.
        -11    1    3    3    0    0 -0.68869873917E+02 -0.76387280183E+02 -0.59517718906E+03  0.60399831331E+03  0.00000000000E+00 0.  1.
         11    1    3    3    0    0 -0.44707119008E+02  0.11975311243E+02 -0.11736112066E+03  0.12615770770E+03  0.00000000000E+00 0. -1.
         -2    1    1    2    0  502  0.19743696074E+02  0.23697604283E+02  0.23358231742E+01  0.30932928302E+02  0.00000000000E+00 0.  1.
<scales pt_clust_5="13000.00000" pt_clust_6="13000.00000" pt_clust_7="13000.00000" pt_clust_8="13000.00000" pt_clust_9="30.84461"></scales>
<clustering>
<clus scale="   30.845">  1  9  2 -1</clus>
<clus scale="   80.062">  5  6 -1 -1</clus>
<clus scale="   91.479">  7  8 -1 -1</clus>
<clus scale="  145.956">  1  5  2 -1</clus>
<clus scale="   30.845">  1  5  2 -1</clus>
</clustering>
</event>
<event>
 9    2  0.1723348E-004  0.1424830E+03  0.7546771E-02  0.1236544E+00
         21   -1    0    0  501  502  0.00000000000E+00  0.00000000000E+00  0.41631864784E+02  0.41631864784E+02  0.00000000000E+00 0.  1.
         -3   -1    0    0    0  501 -0.00000000000E+00 -0.00000000000E+00 -0.68413098128E+03  0.68413098128E+03  0.00000000000E+00 0.  1.
         24    2    1    2    0    0 -0.12827231335E+02 -0.42871197565E+00 -0.14725093710E+03  0.16849189819E+03  0.80882381407E+02 0.  0.
         23    2    1    2    0    0 -0.25680965288E+02  0.10739818740E+03 -0.29475176449E+03  0.32678415374E+03  0.87837337345E+02 0.  0.
        -11    1    3    3    0    0  0.30367118551E+02 -0.11159082864E+02 -0.34608966005E+02  0.47375811839E+02  0.00000000000E+00 0.  1.
         12    1    3    3    0    0 -0.43194349886E+02  0.10730370888E+02 -0.11264197110E+03  0.12111608636E+03  0.00000000000E+00 0. -1.
        -11    1    4    4    0    0 -0.51665550769E+02  0.10187170381E+03 -0.24721764256E+03  0.27233019658E+03  0.00000000000E+00 0.  1.
         11    1    4    4    0    0  0.25984585481E+02  0.55264835894E+01 -0.47534121926E+02  0.54453957163E+02  0.00000000000E+00 0. -1.
         -4    1    1    2    0  502  0.38508196623E+02 -0.10696947542E+03 -0.20049641490E+03  0.23048679413E+03  0.00000000000E+00 0.  1.
<scales pt_clust_5="13000.00000" pt_clust_6="13000.00000" pt_clust_7="13000.00000" pt_clust_8="13000.00000" pt_clust_9="112.18734"></scales>
<clustering>
<clus scale="   80.882">  5  6 -1 -1</clus>
<clus scale="   81.894">  2  5  1 -1</clus>
<clus scale="   87.837">  7  8 -1 -1</clus>
<clus scale="  112.187">  1  9  2 -1</clus>
<clus scale="  112.187">  1  5  2 -1</clus>
</clustering>
</event>
<event>
 9    2  0.1723348E-004  0.9721450E+02  0.7546771E-02  0.1291487E+00
         21   -1    0    0  501  502  0.00000000000E+00  0.00000000000E+00  0.57997637660E+02  0.57997637660E+02  0.00000000000E+00 0. -1.
          2   -1    0    0  502    0 -0.00000000000E+00 -0.00000000000E+00 -0.60140497710E+03  0.60140497710E+03  0.00000000000E+00 0. -1.
         24    2    1    2    0    0  0.24979561315E+02 -0.58726418181E+02 -0.36258524728E+03  0.37710785394E+03  0.81667014640E+02 0.  0.
         23    2    1    2    0    0 -0.80586965780E+01 -0.28094977670E+02 -0.16723362749E+03  0.19280220910E+03  0.91385640621E+02 0.  0.
        -13    1    3    3    0    0 -0.27146301243E+02 -0.55949646303E+01 -0.12925953876E+03  0.13219778236E+03  0.00000000000E+00 0.  1.
         14    1    3    3    0    0  0.52125862558E+02 -0.53131453551E+02 -0.23332570852E+03  0.24491007158E+03  0.00000000000E+00 0. -1.
        -11    1    4    4    0    0  0.37735811483E+02 -0.23919812466E+02 -0.11408589804E+03  0.12252241031E+03  0.00000000000E+00 0.  1.
         11    1    4    4    0    0 -0.45794508061E+02 -0.41751652040E+01 -0.53147729453E+02  0.70279798798E+02  0.00000000000E+00 0. -1.
          1    1    1    2  501    0 -0.16920864737E+02  0.86821395852E+02 -0.13588464671E+02  0.89492551719E+02  0.00000000000E+00 0. -1.
<scales pt_clust_5="13000.00000" pt_clust_6="13000.00000" pt_clust_7="13000.00000" pt_clust_8="13000.00000" pt_clust_9="88.45491"></scales>
<clustering>
<clus scale="   81.667">  5  6 -1 -1</clus>
<clus scale="   88.455">  1  9  2 -1</clus>
<clus scale="   88.141">  2  5  1 -1</clus>
<clus scale="   91.386">  7  8 -1 -1</clus>
<clus scale="   88.455">  1  5  2 -1</clus>
</clustering>
</event>
<event>
 9    2  0.1723348E-004  0.2425832E+03  0.7546771E-02  0.1161685E+00
          2   -1    0    0  502    0 -0.00000000000E+00  0.00000000000E+00  0.15551511635E+04  0.15551511635E+04  0.00000000000E+00 0. -1.
         21   -1    0    0  501  502  0.00000000000E+00 -0.00000000000E+00 -0.50947449966E+02  0.50947449966E+02  0.00000000000E+00 0. -1.
         24    2    1    2    0    0 -0.29340329521E+02  0.74486574561E+01  0.22043378226E+03  0.23614415749E+03  0.79099136016E+02 0.  0.
         23    2    1    2    0    0  0.12452418763E+03  0.19067249153E+03  0.52151323467E+03  0.57664037692E+03  0.93143963984E+02 0.  0.
        -13    1    3    3    0    0 -0.46955828503E+02  0.27850652413E+02  0.17498213060E+03  0.18330099481E+03  0.00000000000E+00 0.  1.
         14    1    3    3    0    0  0.17615498982E+02 -0.20401994957E+02  0.45451651667E+02  0.52843162678E+02  0.00000000000E+00 0. -1.
        -11    1    4    4    0    0  0.25438130172E+02  0.29652701420E+02  0.27759619445E+02  0.47926794592E+02  0.00000000000E+00 0.  1.
         11    1    4    4    0    0  0.99086057462E+02  0.16101979011E+03  0.49375361522E+03  0.52871358232E+03  0.00000000000E+00 0. -1.
          1    1    1    2  501    0 -0.95183858113E+02 -0.19812114898E+03  0.76225669660E+03  0.79331407906E+03  0.00000000000E+00 0. -1.
<scales pt_clust_5="13000.00000" pt_clust_6="13000.00000" pt_clust_7="13000.00000" pt_clust_8="13000.00000" pt_clust_9="223.98854"></scales>
<clustering>
<clus scale="   79.099">  5  6 -1 -1</clus>
<clus scale="   84.694">  1  5  2 -1</clus>
<clus scale="   93.144">  7  8 -1 -1</clus>
<clus scale="  223.989">  2  9  1 -1</clus>
<clus scale="  223.989">  2  5  1 -1</clus>
</clustering>
</event>
<event>
 9    2  0.1723348E-004  0.1494627E+03  0.7546771E-02  0.1218398E+00
          2   -1    0    0  502    0 -0.00000000000E+00  0.00000000000E+00  0.12502997034E+04  0.12502997034E+04  0.00000000000E+00 0. -1.
         21   -1    0    0  501  502  0.00000000000E+00 -0.00000000000E+00 -0.46592228306E+02  0.46592228306E+02  0.00000000000E+00 0.  1.
         23    2    1    2    0    0  0.38621678011E+02 -0.30106925648E+02  0.14866986818E+03  0.18107117637E+03  0.91027359751E+02 0.  0.
         24    2    1    2    0    0 -0.12750975609E+03 -0.31526619752E+02  0.19382394303E+03  0.24784105557E+03  0.81269934677E+02 0.  0.
        -11    1    4    4    0    0 -0.10206816102E+03  0.10664932657E+02  0.10872243105E+03  0.14950657944E+03  0.00000000000E+00 0.  1.
         12    1    4    4    0    0 -0.25441595073E+02 -0.42191552408E+02  0.85101511973E+02  0.98334476124E+02  0.00000000000E+00 0. -1.
        -13    1    3    3    0    0  0.60332237405E+02 -0.24808342942E+02  0.56718787645E+02  0.86443354989E+02  0.00000000000E+00 0.  1.
         13    1    3    3    0    0 -0.21710559393E+02 -0.52985827056E+01  0.91951080538E+02  0.94627821384E+02  0.00000000000E+00 0. -1.
          1    1    1    2  501    0  0.88888078082E+02  0.61633545400E+02  0.86121366387E+03  0.86797969975E+03  0.00000000000E+00 0. -1.
<scales pt_clust_5="13000.00000" pt_clust_6="13000.00000" pt_clust_7="13000.00000" pt_clust_8="13000.00000" pt_clust_9="125.43648"></scales>
<clustering>
<clus scale="   81.270">  5  6 -1 -1</clus>
<clus scale="   91.027">  7  8 -1 -1</clus>
<clus scale="  103.364">  1  7  2 -1</clus>
<clus scale="  125.436">  2  9  1 -1</clus>
<clus scale="  125.436">  2  5  1 -1</clus>
</clustering>
</event>
<event>
 9    2  0.1723348E-004  0.1270563E+03  0.7546771E-02  0.1234307E+00
         21   -1    0    0  501  502  0.00000000000E+00  0.00000000000E+00  0.50898597931E+02  0.50898597931E+02  0.00000000000E+00 0. -1.
          2   -1    0    0  502    0 -0.00000000000E+00 -0.00000000000E+00 -0.74795955908E+03  0.74795955908E+03  0.00000000000E+00 0. -1.
         23    2    1    2    0    0 -0.49802490775E+02 -0.63580664536E+02 -0.53742236634E+03  0.55116459585E+03  0.91852179562E+02 0.  0.
         24    2    1    2    0    0  0.80702542528E+02  0.85479627834E+02 -0.15140662688E+03  0.20893607043E+03  0.83130305665E+02 0.  0.
        -11    1    4    4    0    0  0.48356746738E+02  0.67058636925E+02 -0.40722715692E+02  0.92160595238E+02  0.00000000000E+00 0.  1.
         12    1    4    4    0    0  0.32345795790E+02  0.18420990909E+02 -0.11068391119E+03  0.11677547519E+03  0.00000000000E+00 0. -1.
        -11    1    3    3    0    0 -0.25747314808E+02  0.20501709686E+02 -0.19455417886E+03  0.19731845538E+03  0.00000000000E+00 0.  1.
         11    1    3    3    0    0 -0.24055175967E+02 -0.84082374223E+02 -0.34286818747E+03  0.35384614047E+03  0.00000000000E+00 0. -1.
          1    1    1    2  501    0 -0.30900051753E+02 -0.21898963298E+02 -0.82319679410E+01  0.38757490734E+02  0.00000000000E+00 0. -1.
<scales pt_clust_5="13000.00000" pt_clust_6="13000.00000" pt_clust_7="13000.00000" pt_clust_8="13000.00000" pt_clust_9="37.87318"></scales>
<clustering>
<clus scale="   37.873">  1  9  2 -1</clus>
<clus scale="   83.130">  5  6 -1 -1</clus>
<clus scale="   91.852">  7  8 -1 -1</clus>
<clus scale="  120.901">  1  5  2 -1</clus>
<clus scale="   37.873">  1  5  2 -1</clus>
</clustering>
</event>
<event>
 9    2  0.1723348E-004  0.1493440E+03  0.7546771E-02  0.1203059E+00
          2   -1    0    0  502    0 -0.00000000000E+00  0.00000000000E+00  0.66157752544E+03  0.66157752544E+03  0.00000000000E+00 0. -1.
         21   -1    0    0  501  502  0.00000000000E+00 -0.00000000000E+00 -0.90116772486E+02  0.90116772486E+02  0.00000000000E+00 0.  1.
         23    2    1    2    0    0  0.40741696199E+02 -0.11059834479E+03  0.44636790567E+03  0.47029702650E+03  0.89683366607E+02 0.  0.
         24    2    1    2    0    0 -0.11853891492E+03  0.86620858744E+02  0.61607754999E+02  0.17816121173E+03  0.79945321127E+02 0.  0.
        -11    1    4    4    0    0 -0.91021294884E+02  0.97035831795E+02  0.32896162901E+02  0.13705103541E+03  0.00000000000E+00 0.  1.
         12    1    4    4    0    0 -0.27517620036E+02 -0.10414973051E+02  0.28711592098E+02  0.41110176318E+02  0.00000000000E+00 0. -1.
        -13    1    3    3    0    0  0.18735788066E+01 -0.10545167893E+03  0.36571411457E+03  0.38061841847E+03  0.00000000000E+00 0.  1.
         13    1    3    3    0    0  0.38868117393E+02 -0.51466658619E+01  0.80653791101E+02  0.89678608030E+02  0.00000000000E+00 0. -1.
          1    1    1    2  501    0  0.77797218720E+02  0.23977486048E+02  0.63485092282E+02  0.10323605969E+03  0.00000000000E+00 0. -1.
<scales pt_clust_5="13000.00000" pt_clust_6="13000.00000" pt_clust_7="13000.00000" pt_clust_8="13000.00000" pt_clust_9="81.40840"></scales>
<clustering>
<clus scale="   79.945">  5  6 -1 -1</clus>
<clus scale="   81.408">  2  9  1 -1</clus>
<clus scale="   89.683">  7  8 -1 -1</clus>
<clus scale="  143.707">  2  5  1 -1</clus>
<clus scale="   81.408">  2  5  1 -1</clus>
</clustering>
</event>
<event>
 9    2  0.1723348E-004  0.1048565E+03  0.7546771E-02  0.1275925E+00
         21   -1    0    0  501  502  0.00000000000E+00  0.00000000000E+00  0.17396248342E+03  0.17396248342E+03  0.00000000000E+00 0.  1.
         -1   -1    0    0    0  501 -0.00000000000E+00 -0.00000000000E+00 -0.10307404868E+03  0.10307404868E+03  0.00000000000E+00 0.  1.
         23    2    1    2    0    0 -0.31744276573E+02 -0.51577007375E+02 -0.34202449865E+02  0.11589147842E+03  0.92699193143E+02 0.  0.
         24    2    1    2    0    0  0.18652588549E+02  0.16040529954E+02  0.69991313968E+02  0.10950966483E+03  0.80550387959E+02 0.  0.
        -11    1    4    4    0    0  0.13423985821E+02 -0.32591085759E+02  0.31429515753E+02  0.47224958726E+02  0.00000000000E+00 0.  1.
         12    1    4    4    0    0  0.52286027278E+01  0.48631615713E+02  0.38561798215E+02  0.62284706107E+02  0.00000000000E+00 0. -1.
        -13    1    3    3    0    0 -0.54603823895E+02 -0.35806200753E+02  0.75652878137E+01  0.65733516383E+02  0.00000000000E+00 0. -1.
         13    1    3    3    0    0  0.22859547322E+02 -0.15770806622E+02 -0.41767737679E+02  0.50157962041E+02  0.00000000000E+00 0.  1.
         -2    1    1    2    0  502  0.13091688023E+02  0.35536477422E+02  0.35099570631E+02  0.51635388847E+02  0.00000000000E+00 0.  1.
<scales pt_clust_5="13000.00000" pt_clust_6="13000.00000" pt_clust_7="13000.00000" pt_clust_8="13000.00000" pt_clust_9="37.87128"></scales>
<clustering>
<clus scale="   37.871">  1  9  2 -1</clus>
<clus scale="   80.550">  5  6 -1 -1</clus>
<clus scale="   92.699">  7  8 -1 -1</clus>
<clus scale="   94.287">  1  5  2 -1</clus>
<clus scale="   37.871">  1  5  2 -1</clus>
</clustering>
</event>
<event>
 9    2  0.1723348E-004  0.1095568E+03  0.7546771E-02  0.1263149E+00
          2   -1    0    0  502    0 -0.00000000000E+00  0.00000000000E+00  0.10189557923E+04  0.10189557923E+04  0.00000000000E+00 0. -1.
         21   -1    0    0  501  502  0.00000000000E+00 -0.00000000000E+00 -0.34064474023E+02  0.34064474023E+02  0.00000000000E+00 0.  1.
         24    2    1    2    0    0 -0.48740830486E+02 -0.31291939804E+02  0.81875497064E+03  0.82632792123E+03  0.95411096799E+02 0.  0.
         23    2    1    2    0    0  0.25756587570E+02  0.44383154573E+01  0.53980799989E+02  0.10909872524E+03  0.91134541391E+02 0.  0.
        -13    1    3    3    0    0 -0.99609513014E+01  0.19405228056E+02  0.45660537676E+02  0.50603044648E+02  0.00000000000E+00 0.  1.
         14    1    3    3    0    0 -0.38779879184E+02 -0.50697167860E+02  0.77309443297E+03  0.77572487658E+03  0.00000000000E+00 0. -1.
        -13    1    4    4    0    0  0.25493013966E+02  0.29601954976E+02 -0.10017859825E+02  0.40330224583E+02  0.00000000000E+00 0.  1.
         13    1    4    4    0    0  0.26357360475E+00 -0.25163639518E+02  0.63998659814E+02  0.68768500659E+02  0.00000000000E+00 0. -1.
          1    1    1    2  501    0  0.22984242915E+02  0.26853624347E+02  0.11215554762E+03  0.11759361983E+03  0.00000000000E+00 0. -1.
<scales pt_clust_5="13000.00000" pt_clust_6="13000.00000" pt_clust_7="13000.00000" pt_clust_8="13000.00000" pt_clust_9="35.34677"></scales>
<clustering>
<clus scale="   35.347">  2  9  1 -1</clus>
<clus scale="   91.135">  7  8 -1 -1</clus>
<clus scale="   95.411">  5  6 -1 -1</clus>
<clus scale="  105.853">  2  7  1 -1</clus>
<clus scale="   35.347">  2  5  1 -1</clus>
</clustering>
</event>
<event>
 9    2  0.1723348E-004  0.1275133E+03  0.7546771E-02  0.1233774E+00
         21   -1    0    0  501  502  0.00000000000E+00  0.00000000000E+00  0.55311591169E+02  0.55311591169E+02  0.00000000000E+00 0.  1.
          2   -1    0    0  502    0 -0.00000000000E+00 -0.00000000000E+00 -0.59603709103E+03  0.59603709103E+03  0.00000000000E+00 0. -1.
         24    2    1    2    0    0 -0.67474695424E+01 -0.67615284869E+02 -0.22872405203E+03  0.25202919060E+03  0.81158276484E+02 0.  0.
         23    2    1    2    0    0  0.12494994302E+01  0.14532021618E+03 -0.21693370495E+03  0.27641237317E+03  0.90686499659E+02 0.  0.
        -13    1    3    3    0    0 -0.39827174308E+02 -0.16036734995E+02 -0.73094299881E+02  0.84771205947E+02  0.00000000000E+00 0.  1.
         14    1    3    3    0    0  0.33079704766E+02 -0.51578549874E+02 -0.15562975215E+03  0.16725798465E+03  0.00000000000E+00 0. -1.
        -11    1    4    4    0    0  0.42457212566E+02  0.10241423982E+03 -0.15464206597E+03  0.19027732388E+03  0.00000000000E+00 0.  1.
         11    1    4    4    0    0 -0.41207713136E+02  0.42905976354E+02 -0.62291638982E+02  0.86135049288E+02  0.00000000000E+00 0. -1.
          1    1    1    2  501    0  0.54979701122E+01 -0.77704931307E+02 -0.95067742879E+02  0.12290711843E+03  0.00000000000E+00 0. -1.
<scales pt_clust_5="13000.00000" pt_clust_6="13000.00000" pt_clust_7="13000.00000" pt_clust_8="13000.00000" pt_clust_9="77.89919"></scales>
<clustering>
<clus scale="   77.899">  1  9  2 -1</clus>
<clus scale="   81.158">  5  6 -1 -1</clus>
<clus scale="   90.686">  7  8 -1 -1</clus>
<clus scale="  120.923">  2  5  1 -1</clus>
<clus scale="   77.899">  1  5  2 -1</clus>
</clustering>
</event>
<event>
 9    2  0.1723348E-004  0.1007004E+03  0.7546771E-02  0.1294326E+00
          2   -1    0    0  502    0 -0.00000000000E+00  0.00000000000E+00  0.16819400915E+03  0.16819400915E+03  0.00000000000E+00 0. -1.
         21   -1    0    0  501  502  0.00000000000E+00 -0.00000000000E+00 -0.12278069822E+03  0.12278069822E+03  0.00000000000E+00 0. -1.
         23    2    1    2    0    0 -0.30482385677E+02  0.28777067635E+02  0.40372947600E+00  0.99598871210E+02  0.90346425998E+02 0.  0.
         24    2    1    2    0    0  0.18268102440E+02 -0.47552445252E+02 -0.50062095812E+02  0.93701236911E+02  0.60652697759E+02 0.  0.
        -13    1    4    4    0    0 -0.22416334616E+02 -0.17055338802E+02 -0.14741835889E+02  0.31791482580E+02  0.00000000000E+00 0.  1.
         14    1    4    4    0    0  0.40684437056E+02 -0.30497106450E+02 -0.35320259922E+02  0.61909754331E+02  0.00000000000E+00 0. -1.
        -13    1    3    3    0    0  0.35679842517E+01  0.52914963695E+02 -0.14989550177E+02  0.55112707327E+02  0.00000000000E+00 0. -1.
         13    1    3    3    0    0 -0.34050369929E+02 -0.24137896060E+02  0.15393279653E+02  0.44486163883E+02  0.00000000000E+00 0.  1.
          1    1    1    2  501    0  0.12214283237E+02  0.18775377617E+02  0.95071677263E+02  0.97674599243E+02  0.00000000000E+00 0. -1.
<scales pt_clust_5="13000.00000" pt_clust_6="13000.00000" pt_clust_7="13000.00000" pt_clust_8="13000.00000" pt_clust_9="22.39875"></scales>
<clustering>
<clus scale="   22.399">  2  9  1 -1</clus>
<clus scale="   60.653">  5  6 -1 -1</clus>
<clus scale="   75.212">  2  5  1 -1</clus>
<clus scale="   90.346">  7  8 -1 -1</clus>
<clus scale="   22.399">  2  5  1 -1</clus>
</clustering>
</event>
<event>
 9    2  0.1723348E-004  0.9422771E+02  0.7546771E-02  0.1302211E+00
         21   -1    0    0  501  502  0.00000000000E+00  0.00000000000E+00  0.88370352053E+02  0.88370352053E+02  0.00000000000E+00 0. -1.
          2   -1    0    0  502    0 -0.00000000000E+00 -0.00000000000E+00 -0.22709352185E+03  0.22709352185E+03  0.00000000000E+00 0. -1.
         23    2    1    2    0    0  0.12717751842E+02  0.14689267794E+02 -0.16798710717E+03  0.19264011796E+03  0.92266088418E+02 0.  0.
         24    2    1    2    0    0 -0.25943792965E+02  0.22462292727E+01 -0.60147117170E+01  0.81516101623E+02  0.77010207942E+02 0.  0.
        -11    1    4    4    0    0  0.24258980495E+02 -0.55850360994E-01 -0.17564850108E+02  0.29950379184E+02  0.00000000000E+00 0.  1.
         12    1    4    4    0    0 -0.50202773461E+02  0.23020796337E+01  0.11550138391E+02  0.51565722439E+02  0.00000000000E+00 0. -1.
        -11    1    3    3    0    0  0.27798020695E+02 -0.30313938457E+02 -0.11159246210E+03  0.11893083039E+03  0.00000000000E+00 0.  1.
         11    1    3    3    0    0 -0.15080268853E+02  0.45003206251E+02 -0.56394645065E+02  0.73709287566E+02  0.00000000000E+00 0. -1.
          1    1    1    2  501    0  0.13226041124E+02 -0.16935497067E+02  0.35278649084E+02  0.41307654326E+02  0.00000000000E+00 0. -1.
<scales pt_clust_5="13000.00000" pt_clust_6="13000.00000" pt_clust_7="13000.00000" pt_clust_8="13000.00000" pt_clust_9="21.48812"></scales>
<clustering>
<clus scale="   21.488">  1  9  2 -1</clus>
<clus scale="   77.010">  5  6 -1 -1</clus>
<clus scale="   79.350">  1  5  2 -1</clus>
<clus scale="   92.266">  7  8 -1 -1</clus>
<clus scale="   21.488">  1  5  2 -1</clus>
</clustering>
</event>
<event>
 9    2  0.1723348E-004  0.1663503E+03  0.7546771E-02  0.1186954E+00
          2   -1    0    0  502    0 -0.00000000000E+00  0.00000000000E+00  0.43125011715E+03  0.43125011715E+03  0.00000000000E+00 0. -1.
         21   -1    0    0  501  502  0.00000000000E+00 -0.00000000000E+00 -0.11918653941E+03  0.11918653941E+03  0.00000000000E+00 0. -1.
         24    2    1    2    0    0  0.92482163557E+02  0.11507973203E+03  0.25738101194E+03  0.30757264103E+03  0.80991659460E+02 0.  0.
         23    2    1    2    0    0 -0.86070594072E+02 -0.25589262493E+02  0.55267032760E+02  0.15314225695E+03  0.11106371340E+03 0.  0.
        -13    1    3    3    0    0  0.69195267311E+02  0.67959840031E+02  0.22702987628E+03  0.24687869409E+03  0.00000000000E+00 0.  1.
         14    1    3    3    0    0  0.23286896245E+02  0.47119891997E+02  0.30351135666E+02  0.60693946937E+02  0.00000000000E+00 0. -1.
        -13    1    4    4    0    0  0.23397297871E+02  0.60959614387E+01 -0.42912554524E+01  0.24556244967E+02  0.00000000000E+00 0. -1.
         13    1    4    4    0    0 -0.10946789194E+03 -0.31685223932E+02  0.59558288212E+02  0.12858601198E+03  0.00000000000E+00 0.  1.
          1    1    1    2  501    0 -0.64115694844E+01 -0.89490469536E+02 -0.58446696344E+00  0.89721758579E+02  0.00000000000E+00 0. -1.
<scales pt_clust_5="13000.00000" pt_clust_6="13000.00000" pt_clust_7="13000.00000" pt_clust_8="13000.00000" pt_clust_9="89.71985"></scales>
<clustering>
<clus scale="   80.992">  5  6 -1 -1</clus>
<clus scale="   89.720">  2  9  1 -1</clus>
<clus scale="  111.064">  7  8 -1 -1</clus>
<clus scale="  147.976">  1  5  2 -1</clus>
<clus scale="   89.720">  2  5  1 -1</clus>
</clustering>
</event>
<event>
 9    2  0.1723348E-004  0.1645798E+03  0.7546771E-02  0.1216446E+00
         -1   -1    0    0    0  501 -0.00000000000E+00  0.00000000000E+00  0.66598369557E+03  0.66598369557E+03  0.00000000000E+00 0.  1.
         21   -1    0    0  501  502  0.00000000000E+00 -0.00000000000E+00 -0.70825851467E+02  0.70825851467E+02  0.00000000000E+00 0. -1.
         24    2    1    2    0    0  0.78210895432E+01  0.63558769684E+01  0.62556360257E+02  0.10208268171E+03  0.80037547954E+02 0.  0.
         23    2    1    2    0    0 -0.10248429622E+03  0.91788665196E+02  0.13108049534E+03  0.21068373301E+03  0.90979937719E+02 0.  0.
        -11    1    3    3    0    0  0.22536281660E+02 -0.46316314497E+01  0.75946387274E+02  0.79354834389E+02  0.00000000000E+00 0.  1.
         12    1    3    3    0    0 -0.14715192117E+02  0.10987508418E+02 -0.13390027017E+02  0.22727847320E+02  0.00000000000E+00 0. -1.
        -11    1    4    4    0    0 -0.48879151128E+02 -0.68999677240E+01  0.21733174584E+02  0.53936183097E+02  0.00000000000E+00 0.  1.
         11    1    4    4    0    0 -0.53605145090E+02  0.98688632920E+02  0.10934732076E+03  0.15674754991E+03  0.00000000000E+00 0. -1.
         -2    1    1    2    0  502  0.94663206675E+02 -0.98144542164E+02  0.40152098850E+03  0.42404313231E+03  0.00000000000E+00 0.  1.
<scales pt_clust_5="13000.00000" pt_clust_6="13000.00000" pt_clust_7="13000.00000" pt_clust_8="13000.00000" pt_clust_9="137.14657"></scales>
<clustering>
<clus scale="   80.038">  5  6 -1 -1</clus>
<clus scale="   80.670">  1  5  2 -1</clus>
<clus scale="   90.980">  7  8 -1 -1</clus>
<clus scale="  137.147">  2  9  1 -1</clus>
<clus scale="  137.147">  2  5  1 -1</clus>
</clustering>
</event>
<event>
 9    2  0.1723348E-004  0.9646526E+02  0.7546771E-02  0.1294480E+00
         -1   -1    0    0    0  501 -0.00000000000E+00  0.00000000000E+00  0.90786891226E+02  0.90786891226E+02  0.00000000000E+00 0.  1.
         21   -1    0    0  501  502  0.00000000000E+00 -0.00000000000E+00 -0.39477884780E+03  0.39477884780E+03  0.00000000000E+00 0. -1.
         23    2    1    2    0    0  0.88135658829E+01 -0.30591631390E+02 -0.94123782227E+02  0.13479257011E+03  0.91083608414E+02 0.  0.
         24    2    1    2    0    0  0.25804486127E+02  0.34508509564E+02 -0.26813645521E+03  0.28288396494E+03  0.79179986562E+02 0.  0.
        -13    1    4    4    0    0 -0.28135933024E+02  0.10165384137E+02 -0.11141661118E+03  0.11536302271E+03  0.00000000000E+00 0.  1.
         14    1    4    4    0    0  0.53940419151E+02  0.24343125427E+02 -0.15671984403E+03  0.16752094223E+03  0.00000000000E+00 0. -1.
        -13    1    3    3    0    0 -0.28569814000E+02  0.10188129200E+02 -0.62726306282E+01  0.30973829980E+02  0.00000000000E+00 0. -1.
         13    1    3    3    0    0  0.37383379883E+02 -0.40779760590E+02 -0.87851151599E+02  0.10381874013E+03  0.00000000000E+00 0.  1.
         -2    1    1    2    0  502 -0.34618052010E+02 -0.39168781733E+01  0.58268280870E+02  0.67889203966E+02  0.00000000000E+00 0.  1.
<scales pt_clust_5="13000.00000" pt_clust_6="13000.00000" pt_clust_7="13000.00000" pt_clust_8="13000.00000" pt_clust_9="34.83895"></scales>
<clustering>
<clus scale="   34.839">  2  9  1 -1</clus>
<clus scale="   79.180">  5  6 -1 -1</clus>
<clus scale="   85.316">  2  5  1 -1</clus>
<clus scale="   91.084">  7  8 -1 -1</clus>
<clus scale="   34.839">  2  5  1 -1</clus>
</clustering>
</event>
<event>
 9    2  0.1723348E-004  0.1273583E+03  0.7546771E-02  0.1237635E+00
         21   -1    0    0  501  502  0.00000000000E+00  0.00000000000E+00  0.86571652825E+02  0.86571652825E+02  0.00000000000E+00 0.  1.
          2   -1    0    0  502    0 -0.00000000000E+00 -0.00000000000E+00 -0.27553118130E+03  0.27553118130E+03  0.00000000000E+00 0. -1.
         23    2    1    2    0    0 -0.61360079525E+02 -0.71219022664E+02 -0.96182075830E+02  0.16841386861E+03  0.10136582699E+03 0.  0.
         24    2    1    2    0    0  0.54646310437E+02  0.25043396927E+02 -0.14075069017E+02  0.10219400228E+03  0.81437801789E+02 0.  0.
        -11    1    4    4    0    0  0.25293790165E+02  0.44368003523E+02  0.18457796214E+02  0.54304565172E+02  0.00000000000E+00 0.  1.
         12    1    4    4    0    0  0.29352520272E+02 -0.19324606596E+02 -0.32532865231E+02  0.47889437108E+02  0.00000000000E+00 0. -1.
        -13    1    3    3    0    0 -0.16178420511E+02 -0.87808105184E+02 -0.53525348515E+02  0.10410075677E+03  0.00000000000E+00 0.  1.
         13    1    3    3    0    0 -0.45181659014E+02  0.16589082520E+02 -0.42656727315E+02  0.64313111846E+02  0.00000000000E+00 0. -1.
          1    1    1    2  501    0  0.67137690880E+01  0.46175625738E+02 -0.78702383626E+02  0.91494963227E+02  0.00000000000E+00 0. -1.
<scales pt_clust_5="13000.00000" pt_clust_6="13000.00000" pt_clust_7="13000.00000" pt_clust_8="13000.00000" pt_clust_9="46.66118"></scales>
<clustering>
<clus scale="   46.661">  1  9  2 -1</clus>
<clus scale="   81.438">  5  6 -1 -1</clus>
<clus scale="  101.366">  7  8 -1 -1</clus>
<clus scale="  112.148">  1  5  2 -1</clus>
<clus scale="   46.661">  1  5  2 -1</clus>
</clustering>
</event>
<event>
 9    2  0.1723348E-004  0.1943451E+03  0.7546771E-02  0.1192363E+00
          2   -1    0    0  502    0 -0.00000000000E+00  0.00000000000E+00  0.35500029592E+03  0.35500029592E+03  0.00000000000E+00 0. -1.
         21   -1    0    0  501  502  0.00000000000E+00 -0.00000000000E+00 -0.15485422806E+03  0.15485422806E+03  0.00000000000E+00 0. -1.
         24    2    1    2    0    0 -0.17584109710E+02  0.18295386290E+02  0.66745496664E+02  0.10599438658E+03  0.78332155517E+02 0.  0.
         23    2    1    2    0    0 -0.16296155174E+03 -0.29745900982E+02  0.20120805701E+02  0.19041188741E+03  0.91709073018E+02 0.  0.
        -11    1    3    3    0    0  0.21340958412E+02 -0.12281285151E+02  0.22943873779E+01  0.24729146454E+02  0.00000000000E+00 0.  1.
         12    1    3    3    0    0 -0.38925068121E+02  0.30576671441E+02  0.64451109286E+02  0.81265240127E+02  0.00000000000E+00 0. -1.
        -13    1    4    4    0    0 -0.10498497821E+03 -0.52375087067E+02 -0.16067045161E+02  0.11841936217E+03  0.00000000000E+00 0. -1.
         13    1    4    4    0    0 -0.57976573523E+02  0.22629186086E+02  0.36187850861E+02  0.71992525240E+02  0.00000000000E+00 0.  1.
          1    1    1    2  501    0  0.18054566145E+03  0.11450514692E+02  0.11327976549E+03  0.21344824999E+03  0.00000000000E+00 0. -1.
<scales pt_clust_5="13000.00000" pt_clust_6="13000.00000" pt_clust_7="13000.00000" pt_clust_8="13000.00000" pt_clust_9="171.34607"></scales>
<clustering>
<clus scale="   78.332">  5  6 -1 -1</clus>
<clus scale="   82.340">  1  5  2 -1</clus>
<clus scale="   91.709">  7  8 -1 -1</clus>
<clus scale="  171.346">  2  9  1 -1</clus>
<clus scale="  171.346">  2  5  1 -1</clus>
</clustering>
</event>
<event>
 9    2  0.1723348E-004  0.1490327E+03  0.7546771E-02  0.1205141E+00
         -3   -1    0    0    0  501 -0.00000000000E+00  0.00000000000E+00  0.33877237491E+02  0.33877237491E+02  0.00000000000E+00 0.  1.
         21   -1    0    0  501  502  0.00000000000E+00 -0.00000000000E+00 -0.11875921131E+04  0.11875921131E+04  0.00000000000E+00 0.  1.
         23    2    1    2    0    0  0.59942418864E+02 -0.86478604654E+02 -0.34846424643E+03  0.37707635283E+03  0.98425617529E+02 0.  0.
         24    2    1    2    0    0 -0.64983949230E+02  0.10923920839E+03 -0.80703885388E+03  0.82101223950E+03  0.81198937373E+02 0.  0.
        -11    1    4    4    0    0 -0.50187035889E+02  0.12108086583E+03 -0.67349712889E+03  0.68613241963E+03  0.00000000000E+00 0.  1.
         12    1    4    4    0    0 -0.14796913341E+02 -0.11841657443E+02 -0.13354172499E+03  0.13487981987E+03  0.00000000000E+00 0. -1.
        -13    1    3    3    0    0  0.21160274650E+01 -0.84722445149E+02 -0.23289187163E+03  0.24783259300E+03  0.00000000000E+00 0.  1.
         13    1    3    3    0    0  0.57826391399E+02 -0.17561595055E+01 -0.11557237480E+03  0.12924375983E+03  0.00000000000E+00 0. -1.
         -4    1    1    2    0  502  0.50415303655E+01 -0.22760603737E+02  0.17882246622E+01  0.23380758293E+02  0.00000000000E+00 0.  1.
<scales pt_clust_5="13000.00000" pt_clust_6="13000.00000" pt_clust_7="13000.00000" pt_clust_8="13000.00000" pt_clust_9="23.31229"></scales>
<clustering>
<clus scale="   23.312">  2  9  1 -1</clus>
<clus scale="   81.199">  5  6 -1 -1</clus>
<clus scale="   98.426">  7  8 -1 -1</clus>
<clus scale="  138.262">  2  5  1 -1</clus>
<clus scale="   23.312">  2  5  1 -1</clus>
</clustering>
</event>
<event>
 9    2  0.1723348E-004  0.1128348E+03  0.7546771E-02  0.1259282E+00
          2   -1    0    0  502    0 -0.00000000000E+00  0.00000000000E+00  0.12000470889E+03  0.12000470889E+03  0.00000000000E+00 0. -1.
         21   -1    0    0  501  502  0.00000000000E+00 -0.00000000000E+00 -0.27449293331E+03  0.27449293331E+03  0.00000000000E+00 0.  1.
         23    2    1    2    0    0 -0.44609637453E+02 -0.56111485718E+02  0.73967133707E+02  0.13660292058E+03  0.89725706795E+02 0.  0.
         24    2    1    2    0    0  0.34344846670E+02  0.37880860159E+02 -0.15338133463E+03  0.17995993706E+03  0.79026685856E+02 0.  0.
        -13    1    4    4    0    0 -0.11320225085E+01  0.43611198271E+02 -0.12990462229E+03  0.13703440802E+03  0.00000000000E+00 0.  1.
         14    1    4    4    0    0  0.35476869179E+02 -0.57303381122E+01 -0.23476712340E+02  0.42925529046E+02  0.00000000000E+00 0. -1.
        -11    1    3    3    0    0 -0.12218782299E+02 -0.54265377723E+02 -0.22810544110E+00  0.55624472064E+02  0.00000000000E+00 0.  1.
         11    1    3    3    0    0 -0.32390855153E+02 -0.18461079950E+01  0.74195239148E+02  0.80978448519E+02  0.00000000000E+00 0. -1.
          1    1    1    2  501    0  0.10264790782E+02  0.18230625559E+02 -0.75074023503E+02  0.77934784551E+02  0.00000000000E+00 0. -1.
<scales pt_clust_5="13000.00000" pt_clust_6="13000.00000" pt_clust_7="13000.00000" pt_clust_8="13000.00000" pt_clust_9="20.92180"></scales>
<clustering>
<clus scale="   20.922">  2  9  1 -1</clus>
<clus scale="   79.027">  5  6 -1 -1</clus>
<clus scale="   89.726">  7  8 -1 -1</clus>
<clus scale="  104.528">  2  5  1 -1</clus>
<clus scale="   20.922">  2  5  1 -1</clus>
</clustering>
</event>
<event>
 9    2  0.1723348E-004  0.2168711E+03  0.7546771E-02  0.1137058E+00
         21   -1    0    0  501  502  0.00000000000E+00  0.00000000000E+00  0.88886053956E+02  0.88886053956E+02  0.00000000000E+00 0. -1.
         -3   -1    0    0    0  501 -0.00000000000E+00 -0.00000000000E+00 -0.10766342883E+04  0.10766342883E+04  0.00000000000E+00 0.  1.
         23    2    1    2    0    0 -0.15111994303E+03  0.11517155904E+03 -0.69363661217E+03  0.72509889882E+03  0.92384728916E+02 0.  0.
         24    2    1    2    0    0  0.18251756537E+03 -0.10654476399E+03 -0.32454976634E+03  0.39584888565E+03  0.81849502358E+02 0.  0.
        -11    1    4    4    0    0  0.22285825198E+02 -0.50984061959E+02 -0.10019461908E+03  0.11460800264E+03  0.00000000000E+00 0.  1.
         12    1    4    4    0    0  0.16023174017E+03 -0.55560702027E+02 -0.22435514727E+03  0.28124088301E+03  0.00000000000E+00 0. -1.
        -11    1    3    3    0    0 -0.19686329453E+02  0.56126015480E+02 -0.30191073308E+03  0.30771378248E+03  0.00000000000E+00 0. -1.
         11    1    3    3    0    0 -0.13143361358E+03  0.59045543562E+02 -0.39172587909E+03  0.41738511634E+03  0.00000000000E+00 0.  1.
         -4    1    1    2    0  502 -0.31397622338E+02 -0.86267950566E+01  0.30438144204E+02  0.44572557746E+02  0.00000000000E+00 0.  1.
<scales pt_clust_5="13000.00000" pt_clust_6="13000.00000" pt_clust_7="13000.00000" pt_clust_8="13000.00000" pt_clust_9="32.56121"></scales>
<clustering>
<clus scale="   32.561">  1  9  2 -1</clus>
<clus scale="   81.850">  5  6 -1 -1</clus>
<clus scale="   92.385">  7  8 -1 -1</clus>
<clus scale="  212.597">  1  5  2 -1</clus>
<clus scale="   32.561">  1  5  2 -1</clus>
</clustering>
</event>
<event>
 9    2  0.1723348E-004  0.1067095E+03  0.7546771E-02  0.1270765E+00
          2   -1    0    0  502    0 -0.00000000000E+00  0.00000000000E+00  0.32951233270E+03  0.32951233270E+03  0.00000000000E+00 0. -1.
         21   -1    0    0  501  502  0.00000000000E+00 -0.00000000000E+00 -0.82193999704E+02  0.82193999704E+02  0.00000000000E+00 0.  1.
         23    2    1    2    0    0 -0.33498123481E+02  0.46335564799E+02  0.23593853601E+03  0.25924811511E+03  0.90958691558E+02 0.  0.
         24    2    1    2    0    0  0.55930077716E+02 -0.17144265229E+02 -0.22040522883E+02  0.10273656888E+03  0.81528636148E+02 0.  0.
        -13    1    4    4    0    0  0.70698525932E+02 -0.13050823958E+02 -0.37399907445E+02  0.81039241432E+02  0.00000000000E+00 0.  1.
         14    1    4    4    0    0 -0.14768448216E+02 -0.40934412704E+01  0.15359384562E+02  0.21697327445E+02  0.00000000000E+00 0. -1.
        -13    1    3    3    0    0  0.12562184747E+02  0.48481588392E+02  0.17956565017E+03  0.18641913963E+03  0.00000000000E+00 0. -1.
         13    1    3    3    0    0 -0.46060308228E+02 -0.21460235928E+01  0.56372885838E+02  0.72828975477E+02  0.00000000000E+00 0.  1.
          1    1    1    2  501    0 -0.22431954235E+02 -0.29191299571E+02  0.33420319868E+02  0.49721648419E+02  0.00000000000E+00 0. -1.
<scales pt_clust_5="13000.00000" pt_clust_6="13000.00000" pt_clust_7="13000.00000" pt_clust_8="13000.00000" pt_clust_9="36.81475"></scales>
<clustering>
<clus scale="   36.815">  2  9  1 -1</clus>
<clus scale="   81.529">  5  6 -1 -1</clus>
<clus scale="   90.959">  7  8 -1 -1</clus>
<clus scale="   98.795">  2  5  1 -1</clus>
<clus scale="   36.815">  2  5  1 -1</clus>
</clustering>
</event>
<event>
 9    2  0.1723348E-004  0.1768670E+03  0.7546771E-02  0.1197691E+00
         21   -1    0    0  501  502  0.00000000000E+00  0.00000000000E+00  0.15939149829E+03  0.15939149829E+03  0.00000000000E+00 0. -1.
          2   -1    0    0  502    0 -0.00000000000E+00 -0.00000000000E+00 -0.70689281989E+03  0.70689281989E+03  0.00000000000E+00 0. -1.
         24    2    1    2    0    0  0.58345490058E+02  0.21060175473E+01 -0.15479867415E+03  0.18279045858E+03  0.77724453744E+02 0.  0.
         23    2    1    2    0    0  0.14351061655E+03 -0.38139264254E+01  0.64908063043E+02  0.18333751695E+03  0.93753641923E+02 0.  0.
        -13    1    3    3    0    0  0.10631976224E+02 -0.34536441744E+02 -0.46337899712E+02  0.58762281069E+02  0.00000000000E+00 0.  1.
         14    1    3    3    0    0  0.47713513834E+02  0.36642459291E+02 -0.10846077444E+03  0.12402817751E+03  0.00000000000E+00 0. -1.
        -11    1    4    4    0    0  0.52084455970E+02  0.34690452376E+02  0.55577285723E+02  0.83696193032E+02  0.00000000000E+00 0.  1.
         11    1    4    4    0    0  0.91426160584E+02 -0.38504378802E+02  0.93307773195E+01  0.99641323915E+02  0.00000000000E+00 0. -1.
          1    1    1    2  501    0 -0.20185610661E+03  0.17079088782E+01 -0.45761071049E+03  0.50015634264E+03  0.00000000000E+00 0. -1.
<scales pt_clust_5="13000.00000" pt_clust_6="13000.00000" pt_clust_7="13000.00000" pt_clust_8="13000.00000" pt_clust_9="149.97408"></scales>
<clustering>
<clus scale="   77.724">  5  6 -1 -1</clus>
<clus scale="   93.754">  7  8 -1 -1</clus>
<clus scale="   97.210">  2  5  1 -1</clus>
<clus scale="  149.974">  1  9  2 -1</clus>
<clus scale="  149.974">  1  5  2 -1</clus>
</clustering>
</event>
<event>
 9    2  0.1723348E-004  0.9722472E+02  0.7546771E-02  0.1295034E+00
          2   -1    0    0  502    0 -0.00000000000E+00  0.00000000000E+00  0.65975559278E+03  0.65975559278E+03  0.00000000000E+00 0. -1.
         21   -1    0    0  501  502  0.00000000000E+00 -0.00000000000E+00 -0.28510326864E+02  0.28510326864E+02  0.00000000000E+00 0.  1.
         24    2    1    2    0    0  0.20633981230E+01  0.15113168599E+02  0.49245222834E+03  0.49924607535E+03  0.80652222990E+02 0.  0.
         23    2    1    2    0    0  0.16646762142E+02 -0.28030923714E+02  0.12992525960E+03  0.16461541887E+03  0.95680800963E+02 0.  0.
        -11    1    3    3    0    0 -0.41294895427E+01 -0.20779190766E+02  0.39421667120E+02  0.44753718184E+02  0.00000000000E+00 0.  1.
         12    1    3    3    0    0  0.61928876657E+01  0.35892359365E+02  0.45303056122E+03  0.45449235716E+03  0.00000000000E+00 0. -1.
        -13    1    4    4    0    0  0.59417396825E+01  0.21599639673E+02  0.10626591943E+03  0.10860153929E+03  0.00000000000E+00 0. -1.
         13    1    4    4    0    0  0.10705022459E+02 -0.49630563387E+02  0.23659340172E+02  0.56013879578E+02  0.00000000000E+00 0.  1.
          1    1    1    2  501    0 -0.18710160265E+02  0.12917755115E+02  0.88677779744E+01  0.24404425429E+02  0.00000000000E+00 0. -1.
<scales pt_clust_5="13000.00000" pt_clust_6="13000.00000" pt_clust_7="13000.00000" pt_clust_8="13000.00000" pt_clust_9="22.73628"></scales>
<clustering>
<clus scale="   22.736">  2  9  1 -1</clus>
<clus scale="   80.652">  5  6 -1 -1</clus>
<clus scale="   82.478">  1  5  2 -1</clus>
<clus scale="   95.681">  7  8 -1 -1</clus>
<clus scale="   22.736">  2  5  1 -1</clus>
</clustering>
</event>
<event>
 9    2  0.1723348E-004  0.2880209E+03  0.7546771E-02  0.1091763E+00
          2   -1    0    0  502    0 -0.00000000000E+00  0.00000000000E+00  0.26111629065E+04  0.26111629065E+04  0.00000000000E+00 0. -1.
         21   -1    0    0  501  502  0.00000000000E+00 -0.00000000000E+00 -0.48840331934E+02  0.48840331934E+02  0.00000000000E+00 0. -1.
         23    2    1    2    0    0  0.22113919926E+03 -0.20176527941E+03  0.14372953632E+04  0.14708490448E+04  0.89259049519E+02 0.  0.
         24    2    1    2    0    0 -0.23504772648E+03  0.83723458982E+02  0.68517030383E+03  0.73352120805E+03  0.79611344002E+02 0.  0.
        -13    1    4    4    0    0 -0.27061188136E+02  0.20689130916E+02  0.18598378353E+03  0.18907753906E+03  0.00000000000E+00 0.  1.
         14    1    4    4    0    0 -0.20798653835E+03  0.63034328065E+02  0.49918652030E+03  0.54444366899E+03  0.00000000000E+00 0. -1.
        -13    1    3    3    0    0  0.11851925017E+03 -0.64451387011E+02  0.49330632627E+03  0.51142147538E+03  0.00000000000E+00 0. -1.
         13    1    3    3    0    0  0.10261994909E+03 -0.13731389240E+03  0.94398903698E+03  0.95942756941E+03  0.00000000000E+00 0.  1.
          1    1    1    2  501    0  0.13908527226E+02  0.11804182043E+03  0.43985690745E+03  0.45563298556E+03  0.00000000000E+00 0. -1.
<scales pt_clust_5="13000.00000" pt_clust_6="13000.00000" pt_clust_7="13000.00000" pt_clust_8="13000.00000" pt_clust_9="118.85846"></scales>
<clustering>
<clus scale="   79.611">  5  6 -1 -1</clus>
<clus scale="   89.259">  7  8 -1 -1</clus>
<clus scale="  118.858">  2  9  1 -1</clus>
<clus scale="  285.179">  2  5  1 -1</clus>
<clus scale="  118.858">  2  5  1 -1</clus>
</clustering>
</event>
<event>
 9    2  0.1723348E-004  0.1024007E+03  0.7546771E-02  0.1279679E+00
         21   -1    0    0  501  502  0.00000000000E+00  0.00000000000E+00  0.10772294112E+03  0.10772294112E+03  0.00000000000E+00 0.  1.
          2   -1    0    0  502    0 -0.00000000000E+00 -0.00000000000E+00 -0.19162991326E+03  0.19162991326E+03  0.00000000000E+00 0. -1.
         23    2    1    2    0    0  0.53685548688E+02  0.83963827272E+01 -0.73371393986E+02  0.12784970844E+03  0.89496084346E+02 0.  0.
         24    2    1    2    0    0 -0.18185219765E+02 -0.63370292500E+02 -0.19355081319E+02  0.10547142821E+03  0.80019415188E+02 0.  0.
        -13    1    4    4    0    0  0.22624969754E+02 -0.11515628102E+02  0.16591675059E+02  0.30327918297E+02  0.00000000000E+00 0.  1.
         14    1    4    4    0    0 -0.40810189520E+02 -0.51854664398E+02 -0.35946756378E+02  0.75143509916E+02  0.00000000000E+00 0. -1.
        -13    1    3    3    0    0  0.10485819149E+02 -0.38607469068E+02 -0.36337144286E+02  0.54045139707E+02  0.00000000000E+00 0.  1.
         13    1    3    3    0    0  0.43199729538E+02  0.47003851795E+02 -0.37034249699E+02  0.73804568738E+02  0.00000000000E+00 0. -1.
          1    1    1    2  501    0 -0.35500328922E+02  0.54973909772E+02  0.88195031699E+01  0.66031717723E+02  0.00000000000E+00 0. -1.
<scales pt_clust_5="13000.00000" pt_clust_6="13000.00000" pt_clust_7="13000.00000" pt_clust_8="13000.00000" pt_clust_9="65.44008"></scales>
<clustering>
<clus scale="   65.440">  1  9  2 -1</clus>
<clus scale="   80.019">  5  6 -1 -1</clus>
<clus scale="   89.496">  7  8 -1 -1</clus>
<clus scale="   94.231">  1  5  2 -1</clus>
<clus scale="   65.440">  1  5  2 -1</clus>
</clustering>
</event>
<event>
 9    2  0.1723348E-004  0.9402284E+02  0.7546771E-02  0.1297448E+00
          2   -1    0    0  502    0 -0.00000000000E+00  0.00000000000E+00  0.36444287369E+03  0.36444287369E+03  0.00000000000E+00 0. -1.
         21   -1    0    0  501  502  0.00000000000E+00 -0.00000000000E+00 -0.49540726470E+02  0.49540726470E+02  0.00000000000E+00 0.  1.
         24    2    1    2    0    0  0.16332740202E+02  0.17214474856E+02  0.26808452117E+03  0.28180205052E+03  0.83546326327E+02 0.  0.
         23    2    1    2    0    0 -0.21065428558E+01 -0.38091869532E+02  0.37706242049E+02  0.10532512363E+03  0.90643217792E+02 0.  0.
        -13    1    3    3    0    0  0.92814179312E+01 -0.29094038721E+02  0.17446605182E+03  0.17711863552E+03  0.00000000000E+00 0.  1.
         14    1    3    3    0    0  0.70513222709E+01  0.46308513578E+02  0.93618469342E+02  0.10468341501E+03  0.00000000000E+00 0. -1.
        -11    1    4    4    0    0  0.39642343382E+02 -0.24530944174E+02 -0.12505684127E+01  0.46635249889E+02  0.00000000000E+00 0.  1.
         11    1    4    4    0    0 -0.41748886238E+02 -0.13560925358E+02  0.38956810462E+02  0.58689873744E+02  0.00000000000E+00 0. -1.
          1    1    1    2  501    0 -0.14226197346E+02  0.20877394675E+02  0.91113840066E+01  0.26856426007E+02  0.00000000000E+00 0. -1.
<scales pt_clust_5="13000.00000" pt_clust_6="13000.00000" pt_clust_7="13000.00000" pt_clust_8="13000.00000" pt_clust_9="25.26362"></scales>
<clustering>
<clus scale="   25.264">  2  9  1 -1</clus>
<clus scale="   83.546">  5  6 -1 -1</clus>
<clus scale="   87.201">  1  5  2 -1</clus>
<clus scale="   90.643">  7  8 -1 -1</clus>
<clus scale="   25.264">  2  5  1 -1</clus>
</clustering>
</event>
<event>
 9    2  0.1723348E-004  0.1503663E+03  0.7546771E-02  0.1201732E+00
          2   -1    0    0  502    0 -0.00000000000E+00  0.00000000000E+00  0.82241690558E+03  0.82241690558E+03  0.00000000000E+00 0. -1.
         21   -1    0    0  501  502  0.00000000000E+00 -0.00000000000E+00 -0.57817765062E+02  0.57817765062E+02  0.00000000000E+00 0.  1.
         23    2    1    2    0    0 -0.10512153151E+03 -0.73368214076E+02  0.67532104720E+03  0.69311640227E+03  0.88985386848E+02 0.  0.
         24    2    1    2    0    0  0.81329869421E+02  0.51835924167E+02  0.91661178753E+02  0.15494123014E+03  0.79394599383E+02 0.  0.
        -11    1    4    4    0    0  0.87511992213E+02  0.62717482488E+02  0.93110484137E+02  0.14234252227E+03  0.00000000000E+00 0.  1.
         12    1    4    4    0    0 -0.61821227925E+01 -0.10881558321E+02 -0.14493053838E+01  0.12598707862E+02  0.00000000000E+00 0. -1.
        -13    1    3    3    0    0 -0.42474853397E+02  0.25445146014E+01  0.89686150032E+02  0.99268289163E+02  0.00000000000E+00 0.  1.
         13    1    3    3    0    0 -0.62646678117E+02 -0.75912728678E+02  0.58563489717E+03  0.59384811310E+03  0.00000000000E+00 0. -1.
          1    1    1    2  501    0  0.23791662093E+02  0.21532289909E+02 -0.23830854343E+01  0.32177038243E+02  0.00000000000E+00 0. -1.
<scales pt_clust_5="13000.00000" pt_clust_6="13000.00000" pt_clust_7="13000.00000" pt_clust_8="13000.00000" pt_clust_9="32.08867"></scales>
<clustering>
<clus scale="   32.089">  2  9  1 -1</clus>
<clus scale="   79.395">  5  6 -1 -1</clus>
<clus scale="   88.985">  7  8 -1 -1</clus>
<clus scale="  144.897">  2  5  1 -1</clus>
<clus scale="   32.089">  2  5  1 -1</clus>
</clustering>
</event>
<event>
 9    2  0.1723348E-004  0.9424632E+02  0.7546771E-02  0.1294418E+00
         21   -1    0    0  501  502  0.00000000000E+00  0.00000000000E+00  0.26198022774E+02  0.26198022774E+02  0.00000000000E+00 0. -1.
          2   -1    0    0  502    0 -0.00000000000E+00 -0.00000000000E+00 -0.58557519750E+03  0.58557519750E+03  0.00000000000E+00 0. -1.
         24    2    1    2    0    0 -0.40135455981E+02 -0.29729947166E+02 -0.35663123275E+03  0.36857556617E+03  0.78532714310E+02 0.  0.
         23    2    1    2    0    0  0.22518150626E+02  0.59798502929E+02 -0.16015747368E+03  0.18816797915E+03  0.75324922455E+02 0.  0.
        -13    1    3    3    0    0  0.20915170834E+02 -0.10467143673E+02 -0.48249933662E+02  0.53619600577E+02  0.00000000000E+00 0.  1.
         14    1    3    3    0    0 -0.61050626815E+02 -0.19262803493E+02 -0.30838129909E+03  0.31495596559E+03  0.00000000000E+00 0. -1.
        -13    1    4    4    0    0  0.33962097660E+02  0.20318903973E+02 -0.24794751634E+02  0.46701837702E+02  0.00000000000E+00 0. -1.
         13    1    4    4    0    0 -0.11443947034E+02  0.39479598956E+02 -0.13536272204E+03  0.14146614145E+03  0.00000000000E+00 0.  1.
          1    1    1    2  501    0  0.17617305356E+02 -0.30068555763E+02 -0.42588468294E+02  0.55029674952E+02  0.00000000000E+00 0. -1.
<scales pt_clust_5="13000.00000" pt_clust_6="13000.00000" pt_clust_7="13000.00000" pt_clust_8="13000.00000" pt_clust_9="34.84950"></scales>
<clustering>
<clus scale="   34.849">  1  9  2 -1</clus>
<clus scale="   75.325">  7  8 -1 -1</clus>
<clus scale="   78.533">  5  6 -1 -1</clus>
<clus scale="   91.591">  1  7  2 -1</clus>
<clus scale="   34.849">  1  5  2 -1</clus>
</clustering>
</event>
<event>
 9    2  0.1723348E-004  0.9224285E+02  0.7546771E-02  0.1303675E+00
         21   -1    0    0  501  502  0.00000000000E+00  0.00000000000E+00  0.81591987804E+02  0.81591987804E+02  0.00000000000E+00 0.  1.
          2   -1    0    0  502    0 -0.00000000000E+00 -0.00000000000E+00 -0.30738092673E+03  0.30738092673E+03  0.00000000000E+00 0. -1.
         24    2    1    2    0    0  0.15545786434E+02 -0.19168571695E+02 -0.16268621179E+03  0.18378746934E+03  0.81865284245E+02 0.  0.
         23    2    1    2    0    0  0.34671211324E+02 -0.48051975096E+02 -0.20885731471E+02  0.11125662375E+03  0.91819046739E+02 0.  0.
        -13    1    3    3    0    0  0.23263243081E+02 -0.42389616700E+02 -0.14693425718E+03  0.15468592055E+03  0.00000000000E+00 0.  1.
         14    1    3    3    0    0 -0.77174566472E+01  0.23221045005E+02 -0.15751954606E+02  0.29101548793E+02  0.00000000000E+00 0. -1.
        -13    1    4    4    0    0  0.48399585523E+02  0.29216752900E+01  0.10815717172E+02  0.49679329739E+02  0.00000000000E+00 0. -1.
         13    1    4    4    0    0 -0.13728374199E+02 -0.50973650386E+02 -0.31701448643E+02  0.61577294012E+02  0.00000000000E+00 0.  1.
          1    1    1    2  501    0 -0.50216997758E+02  0.67220546791E+02 -0.42216995672E+02  0.93928821446E+02  0.00000000000E+00 0. -1.
<scales pt_clust_5="13000.00000" pt_clust_6="13000.00000" pt_clust_7="13000.00000" pt_clust_8="13000.00000" pt_clust_9="83.90679"></scales>
<clustering>
<clus scale="   81.865">  5  6 -1 -1</clus>
<clus scale="   83.907">  1  9  2 -1</clus>
<clus scale="   82.340">  2  5  1 -1</clus>
<clus scale="   91.819">  7  8 -1 -1</clus>
<clus scale="   83.907">  1  5  2 -1</clus>
</clustering>
</event>
<event>
 9    2  0.1723348E-004  0.1936094E+03  0.7546771E-02  0.1156145E+00
          2   -1    0    0  502    0 -0.00000000000E+00  0.00000000000E+00  0.44613207023E+03  0.44613207023E+03  0.00000000000E+00 0. -1.
         21   -1    0    0  501  502  0.00000000000E+00 -0.00000000000E+00 -0.11415697377E+03  0.11415697377E+03  0.00000000000E+00 0.  1.
         23    2    1    2    0    0 -0.11879381887E+03 -0.13480986815E+03  0.20473079635E+03  0.28732134031E+03  0.91395742096E+02 0.  0.
         24    2    1    2    0    0  0.10968594231E+03  0.94307324354E+02  0.45636642156E+02  0.18140778175E+03  0.99504787862E+02 0.  0.
        -13    1    4    4    0    0  0.44709385152E+02  0.98632662899E+02  0.14610373325E+02  0.10927394163E+03  0.00000000000E+00 0.  1.
         14    1    4    4    0    0  0.64976557154E+02 -0.43253385453E+01  0.31026268832E+02  0.72133840122E+02  0.00000000000E+00 0. -1.
        -11    1    3    3    0    0 -0.52353523439E+02 -0.26194558303E+01  0.40233224778E+02  0.66079235327E+02  0.00000000000E+00 0. -1.
         11    1    3    3    0    0 -0.66440295432E+02 -0.13219041232E+03  0.16449757157E+03  0.22124210499E+03  0.00000000000E+00 0.  1.
          1    1    1    2  501    0  0.91078765641E+01  0.40502543793E+02  0.81607657947E+02  0.91559921935E+02  0.00000000000E+00 0. -1.
<scales pt_clust_5="13000.00000" pt_clust_6="13000.00000" pt_clust_7="13000.00000" pt_clust_8="13000.00000" pt_clust_9="41.51399"></scales>
<clustering>
<clus scale="   41.514">  2  9  1 -1</clus>
<clus scale="   91.396">  7  8 -1 -1</clus>
<clus scale="   99.505">  5  6 -1 -1</clus>
<clus scale="  189.569">  1  7  2 -1</clus>
<clus scale="   41.514">  2  5  1 -1</clus>
</clustering>
</event>
<event>
 9    2  0.1723348E-004  0.3569279E+03  0.7546771E-02  0.1060076E+00
         -1   -1    0    0    0  501 -0.00000000000E+00  0.00000000000E+00  0.10513689973E+04  0.10513689973E+04  0.00000000000E+00 0.  1.
         21   -1    0    0  501  502  0.00000000000E+00 -0.00000000000E+00 -0.37486328863E+03  0.37486328863E+03  0.00000000000E+00 0.  1.
         23    2    1    2    0    0 -0.34505909866E+03 -0.12174130394E+02  0.89531047480E+03  0.96394519058E+03  0.91626923594E+02 0.  0.
         24    2    1    2    0    0  0.34003402118E+03  0.62227931715E+02 -0.17575484691E+03  0.39607584279E+03  0.80565848761E+02 0.  0.
        -13    1    4    4    0    0  0.20769091163E+03  0.12572879021E+02 -0.69960737713E+02  0.21951787372E+03  0.00000000000E+00 0.  1.
         14    1    4    4    0    0  0.13234310955E+03  0.49655052694E+02 -0.10579410919E+03  0.17655796908E+03  0.00000000000E+00 0. -1.
        -13    1    3    3    0    0 -0.20710271488E+03 -0.48488714197E+02  0.58321351188E+03  0.62079037554E+03  0.00000000000E+00 0.  1.
         13    1    3    3    0    0 -0.13795638378E+03  0.36314583802E+02  0.31209696292E+03  0.34315481504E+03  0.00000000000E+00 0. -1.
         -2    1    1    2    0  502  0.50250774819E+01 -0.50053801321E+02 -0.43049919182E+02  0.66211252608E+02  0.00000000000E+00 0.  1.
<scales pt_clust_5="13000.00000" pt_clust_6="13000.00000" pt_clust_7="13000.00000" pt_clust_8="13000.00000" pt_clust_9="50.30541"></scales>
<clustering>
<clus scale="   50.305">  2  9  1 -1</clus>
<clus scale="   80.566">  5  6 -1 -1</clus>
<clus scale="   91.627">  7  8 -1 -1</clus>
<clus scale="  354.250">  2  5  1 -1</clus>
<clus scale="   50.305">  2  5  1 -1</clus>
</clustering>
</event>
<event>
 9    2  0.1723348E-004  0.1350533E+03  0.7546771E-02  0.1222938E+00
         21   -1    0    0  501  502  0.00000000000E+00  0.00000000000E+00  0.18665504039E+03  0.18665504039E+03  0.00000000000E+00 0. -1.
          2   -1    0    0  502    0 -0.00000000000E+00 -0.00000000000E+00 -0.35409157770E+03  0.35409157770E+03  0.00000000000E+00 0. -1.
         23    2    1    2    0    0  0.91881016103E+02  0.37918968642E+02 -0.23736263765E+03  0.27336312495E+03  0.92230184994E+02 0.  0.
         24    2    1    2    0    0 -0.41635490481E+02 -0.12572684642E+03  0.26430689311E+02  0.15726225530E+03  0.80573454850E+02 0.  0.
        -13    1    4    4    0    0 -0.51702118148E+02 -0.82026216554E+02  0.47202501892E+02  0.10784009184E+03  0.00000000000E+00 0.  1.
         14    1    4    4    0    0  0.10066627667E+02 -0.43700629862E+02 -0.20771812581E+02  0.49422163458E+02  0.00000000000E+00 0. -1.
        -13    1    3    3    0    0  0.17398496571E+02 -0.15044090674E+02 -0.48127903724E+01  0.23498836105E+02  0.00000000000E+00 0.  1.
         13    1    3    3    0    0  0.74482519532E+02  0.52963059316E+02 -0.23254984728E+03  0.24986428884E+03  0.00000000000E+00 0. -1.
          1    1    1    2  501    0 -0.50245525622E+02  0.87807877774E+02  0.43495411027E+02  0.11012123785E+03  0.00000000000E+00 0. -1.
<scales pt_clust_5="13000.00000" pt_clust_6="13000.00000" pt_clust_7="13000.00000" pt_clust_8="13000.00000" pt_clust_9="101.16737"></scales>
<clustering>
<clus scale="   80.573">  5  6 -1 -1</clus>
<clus scale="   92.230">  7  8 -1 -1</clus>
<clus scale="  101.167">  1  9  2 -1</clus>
<clus scale="  127.378">  1  5  2 -1</clus>
<clus scale="  101.167">  1  5  2 -1</clus>
</clustering>
</event>
<event>
 9    2  0.1723348E-004  0.1020715E+03  0.7546771E-02  0.1280726E+00
          2   -1    0    0  502    0 -0.00000000000E+00  0.00000000000E+00  0.40038893654E+03  0.40038893654E+03  0.00000000000E+00 0. -1.
         21   -1    0    0  501  502  0.00000000000E+00 -0.00000000000E+00 -0.48186930202E+02  0.48186930202E+02  0.00000000000E+00 0.  1.
         23    2    1    2    0    0 -0.38072960871E+02 -0.23381923884E+02  0.28462882322E+03  0.30202325871E+03  0.90599211235E+02 0.  0.
         24    2    1    2    0    0  0.55838153273E+02  0.91051565927E+01  0.73681124618E+02  0.12295737346E+03  0.80553114935E+02 0.  0.
        -13    1    4    4    0    0  0.29047856826E+02  0.34653679461E+02  0.57339756239E+01  0.45579973265E+02  0.00000000000E+00 0.  1.
         14    1    4    4    0    0  0.26790296447E+02 -0.25548522869E+02  0.67947148994E+02  0.77377400195E+02  0.00000000000E+00 0. -1.
        -11    1    3    3    0    0  0.20423161867E+02  0.16754271064E+02  0.45704224948E+02  0.52789083319E+02  0.00000000000E+00 0.  1.
         11    1    3    3    0    0 -0.58496122738E+02 -0.40136194949E+02  0.23892459827E+03  0.24923417539E+03  0.00000000000E+00 0. -1.
          1    1    1    2  501    0 -0.17765192402E+02  0.14276767291E+02 -0.61079415013E+01  0.23595234577E+02  0.00000000000E+00 0. -1.
<scales pt_clust_5="13000.00000" pt_clust_6="13000.00000" pt_clust_7="13000.00000" pt_clust_8="13000.00000" pt_clust_9="22.79097"></scales>
<clustering>
<clus scale="   22.791">  2  9  1 -1</clus>
<clus scale="   80.553">  5  6 -1 -1</clus>
<clus scale="   90.599">  7  8 -1 -1</clus>
<clus scale="   93.269">  2  5  1 -1</clus>
<clus scale="   22.791">  2  5  1 -1</clus>
</clustering>
</event>
<event>
 9    2  0.1723348E-004  0.1059589E+03  0.7546771E-02  0.1272901E+00
          4   -1    0    0  502    0 -0.00000000000E+00  0.00000000000E+00  0.15092937598E+03  0.15092937598E+03  0.00000000000E+00 0. -1.
         21   -1    0    0  501  502  0.00000000000E+00 -0.00000000000E+00 -0.16641763583E+03  0.16641763583E+03  0.00000000000E+00 0.  1.
         24    2    1    2    0    0 -0.44106351696E+02 -0.44154424889E+02  0.78037242570E+02  0.12778299912E+03  0.79647348601E+02 0.  0.
         23    2    1    2    0    0  0.33331932023E+02  0.22277186522E+02 -0.65293508725E+01  0.99214513174E+02  0.90518486895E+02 0.  0.
        -11    1    3    3    0    0 -0.47101444571E+02 -0.47392768694E+02  0.20237674365E+02  0.69815356970E+02  0.00000000000E+00 0.  1.
         12    1    3    3    0    0  0.29950928745E+01  0.32383438048E+01  0.57799568205E+02  0.57967642151E+02  0.00000000000E+00 0. -1.
        -11    1    4    4    0    0  0.59769969790E+02  0.31929407663E+02 -0.15801220593E+02  0.69581714082E+02  0.00000000000E+00 0.  1.
         11    1    4    4    0    0 -0.26438037767E+02 -0.96522211417E+01  0.92718697202E+01  0.29632799092E+02  0.00000000000E+00 0. -1.
          3    1    1    2  501    0  0.10774419673E+02  0.21877238368E+02 -0.86996151546E+02  0.90349499510E+02  0.00000000000E+00 0. -1.
<scales pt_clust_5="13000.00000" pt_clust_6="13000.00000" pt_clust_7="13000.00000" pt_clust_8="13000.00000" pt_clust_9="24.38651"></scales>
<clustering>
<clus scale="   24.387">  2  9  1 -1</clus>
<clus scale="   79.647">  5  6 -1 -1</clus>
<clus scale="   90.518">  7  8 -1 -1</clus>
<clus scale="   96.837">  1  5  2 -1</clus>
<clus scale="   24.387">  2  5  1 -1</clus>
</clustering>
</event>
<event>
 9    2  0.1723348E-004  0.2491196E+03  0.7546771E-02  0.1114516E+00
         21   -1    0    0  501  502  0.00000000000E+00  0.00000000000E+00  0.27178114442E+03  0.27178114442E+03  0.00000000000E+00 0. -1.
          2   -1    0    0  502    0 -0.00000000000E+00 -0.00000000000E+00 -0.39030243984E+03  0.39030243984E+03  0.00000000000E+00 0. -1.
         23    2    1    2    0    0 -0.79669869202E+02 -0.23561553365E+03 -0.16500769174E+03  0.31303686068E+03  0.94353431598E+02 0.  0.
         24    2    1    2    0    0 -0.31820727433E+02  0.20925123684E+03  0.55843660475E+02  0.23409983291E+03  0.82979386218E+02 0.  0.
        -13    1    4    4    0    0  0.12737965070E+02  0.10253901465E+03  0.57892592491E+02  0.11844010108E+03  0.00000000000E+00 0.  1.
         14    1    4    4    0    0 -0.44558692503E+02  0.10671222219E+03 -0.20489320157E+01  0.11565973182E+03  0.00000000000E+00 0. -1.
        -13    1    3    3    0    0 -0.74745259951E+02 -0.90783557853E+02 -0.99334750143E+02  0.15393472918E+03  0.00000000000E+00 0. -1.
         13    1    3    3    0    0 -0.49246092510E+01 -0.14483197580E+03 -0.65672941595E+02  0.15910213150E+03  0.00000000000E+00 0.  1.
          1    1    1    2  501    0  0.11149059664E+03  0.26364296807E+02 -0.93572641556E+01  0.11494689068E+03  0.00000000000E+00 0. -1.
<scales pt_clust_5="13000.00000" pt_clust_6="13000.00000" pt_clust_7="13000.00000" pt_clust_8="13000.00000" pt_clust_9="114.56539"></scales>
<clustering>
<clus scale="   82.979">  5  6 -1 -1</clus>
<clus scale="   94.353">  7  8 -1 -1</clus>
<clus scale="  114.565">  1  9  2 -1</clus>
<clus scale="  245.038">  1  5  2 -1</clus>
<clus scale="  114.565">  1  5  2 -1</clus>
</clustering>
</event>
<event>
 9    2  0.1723348E-004  0.2313934E+03  0.7546771E-02  0.1126363E+00
         21   -1    0    0  501  502  0.00000000000E+00  0.00000000000E+00  0.52566222596E+02  0.52566222596E+02  0.00000000000E+00 0. -1.
          2   -1    0    0  502    0 -0.00000000000E+00 -0.00000000000E+00 -0.25754700709E+04  0.25754700709E+04  0.00000000000E+00 0. -1.
         24    2    1    2    0    0  0.15886445284E+03 -0.14369014230E+03 -0.72837867159E+03  0.76333634375E+03  0.79133514334E+02 0.  0.
         23    2    1    2    0    0  0.22549695705E+02  0.26697173657E+03 -0.88130134580E+03  0.92550496992E+03  0.89916574333E+02 0.  0.
        -11    1    3    3    0    0  0.70842260536E+02 -0.85348306687E+02 -0.49348202849E+03  0.50579390247E+03  0.00000000000E+00 0.  1.
         12    1    3    3    0    0  0.88022192307E+02 -0.58341835612E+02 -0.23489664310E+03  0.25754244128E+03  0.00000000000E+00 0. -1.
        -11    1    4    4    0    0  0.28742683422E+02  0.52637621322E+02 -0.29956021754E+03  0.30550480350E+03  0.00000000000E+00 0.  1.
         11    1    4    4    0    0 -0.61929877165E+01  0.21433411525E+03 -0.58174112826E+03  0.62000016642E+03  0.00000000000E+00 0. -1.
          1    1    1    2  501    0 -0.18141414855E+03 -0.12328159427E+03 -0.91322383093E+03  0.93919497984E+03  0.00000000000E+00 0. -1.
<scales pt_clust_5="13000.00000" pt_clust_6="13000.00000" pt_clust_7="13000.00000" pt_clust_8="13000.00000" pt_clust_9="219.33876"></scales>
<clustering>
<clus scale="   79.134">  5  6 -1 -1</clus>
<clus scale="   89.917">  7  8 -1 -1</clus>
<clus scale="  219.339">  1  9  2 -1</clus>
<clus scale="  227.420">  2  5  1 -1</clus>
<clus scale="  219.339">  1  5  2 -1</clus>
</clustering>
</event>
<event>
 9    2  0.1723348E-004  0.1175284E+03  0.7546771E-02  0.1251881E+00
         21   -1    0    0  501  502  0.00000000000E+00  0.00000000000E+00  0.78212280418E+02  0.78212280418E+02  0.00000000000E+00 0. -1.
          2   -1    0    0  502    0 -0.00000000000E+00 -0.00000000000E+00 -0.11504964924E+04  0.11504964924E+04  0.00000000000E+00 0. -1.
         24    2    1    2    0    0 -0.49682431025E+02 -0.59171575489E+02 -0.96058188712E+03  0.96689724681E+03  0.78759791318E+02 0.  0.
         23    2    1    2    0    0 -0.20447072318E+02  0.67622852478E+02 -0.14316612201E+03  0.18448402866E+03  0.92449366665E+02 0.  0.
        -11    1    3    3    0    0 -0.21172307012E+02 -0.29961549902E+02 -0.12383031114E+03  0.12915071433E+03  0.00000000000E+00 0.  1.
         12    1    3    3    0    0 -0.28510124013E+02 -0.29210025586E+02 -0.83675157599E+03  0.83774653248E+03  0.00000000000E+00 0. -1.
        -11    1    4    4    0    0  0.34283263190E+02  0.45897343924E+02 -0.75723415919E+02  0.94952325051E+02  0.00000000000E+00 0.  1.
         11    1    4    4    0    0 -0.54730335508E+02  0.21725508554E+02 -0.67442706090E+02  0.89531703611E+02  0.00000000000E+00 0. -1.
          1    1    1    2  501    0  0.70129503343E+02 -0.84512769895E+01  0.31463797115E+02  0.77327497378E+02  0.00000000000E+00 0. -1.
<scales pt_clust_5="13000.00000" pt_clust_6="13000.00000" pt_clust_7="13000.00000" pt_clust_8="13000.00000" pt_clust_9="70.63690"></scales>
<clustering>
<clus scale="   70.637">  1  9  2 -1</clus>
<clus scale="   78.760">  5  6 -1 -1</clus>
<clus scale="   92.449">  7  8 -1 -1</clus>
<clus scale="  107.094">  2  5  1 -1</clus>
<clus scale="   70.637">  1  5  2 -1</clus>
</clustering>
</event>
<event>
 9    2  0.1723348E-004  0.9220639E+02  0.7546771E-02  0.1303852E+00
          2   -1    0    0  502    0 -0.00000000000E+00  0.00000000000E+00  0.54413663918E+02  0.54413663918E+02  0.00000000000E+00 0. -1.
         21   -1    0    0  501  502  0.00000000000E+00 -0.00000000000E+00 -0.35351233540E+03  0.35351233540E+03  0.00000000000E+00 0.  1.
         24    2    1    2    0    0  0.48977213523E+01  0.26932438877E+01 -0.28673883230E+02  0.85339516883E+02  0.80183541486E+02 0.  0.
         23    2    1    2    0    0 -0.60118099132E+02  0.28588712384E+02 -0.17827568477E+03  0.21069676806E+03  0.90440079453E+02 0.  0.
        -13    1    3    3    0    0 -0.30820601555E+02 -0.70234001432E+01 -0.35677115274E+02  0.47666489110E+02  0.00000000000E+00 0.  1.
         14    1    3    3    0    0  0.35718322907E+02  0.97166440309E+01  0.70032320439E+01  0.37673027773E+02  0.00000000000E+00 0. -1.
        -13    1    4    4    0    0 -0.34859706940E+02  0.57477224253E+02 -0.14531733599E+03  0.16011233124E+03  0.00000000000E+00 0.  1.
         13    1    4    4    0    0 -0.25258392192E+02 -0.28888511869E+02 -0.32958348784E+02  0.50584436823E+02  0.00000000000E+00 0. -1.
          1    1    1    2  501    0  0.55220377780E+02 -0.31281956272E+02 -0.92149103475E+02  0.11188971437E+03  0.00000000000E+00 0. -1.
<scales pt_clust_5="13000.00000" pt_clust_6="13000.00000" pt_clust_7="13000.00000" pt_clust_8="13000.00000" pt_clust_9="63.46535"></scales>
<clustering>
<clus scale="   63.465">  2  9  1 -1</clus>
<clus scale="   80.184">  5  6 -1 -1</clus>
<clus scale="   82.171">  1  5  2 -1</clus>
<clus scale="   90.440">  7  8 -1 -1</clus>
<clus scale="   63.465">  2  5  1 -1</clus>
</clustering>
</event>
<event>
 9    2  0.1723348E-004  0.1750649E+03  0.7546771E-02  0.1195576E+00
          4   -1    0    0  502    0 -0.00000000000E+00  0.00000000000E+00  0.44909578253E+03  0.44909578253E+03  0.00000000000E+00 0. -1.
         21   -1    0    0  501  502  0.00000000000E+00 -0.00000000000E+00 -0.12531907516E+03  0.12531907516E+03  0.00000000000E+00 0. -1.
         24    2    1    2    0    0  0.41798801973E+02 -0.51195163840E+02  0.14387429847E+03  0.17810446254E+03  0.81567770390E+02 0.  0.
         23    2    1    2    0    0 -0.36254909747E+02 -0.12986847289E+03  0.39716989096E+02  0.16725422909E+03  0.90643803950E+02 0.  0.
        -13    1    3    3    0    0  0.61571499057E+02 -0.14572784924E+02  0.90389768087E+02  0.11033460804E+03  0.00000000000E+00 0.  1.
         14    1    3    3    0    0 -0.19772697085E+02 -0.36622378916E+02  0.53484530387E+02  0.67769854495E+02  0.00000000000E+00 0. -1.
        -13    1    4    4    0    0 -0.23460608230E+02 -0.10909978075E+02  0.39965353963E+02  0.47609424251E+02  0.00000000000E+00 0.  1.
         13    1    4    4    0    0 -0.12794301516E+02 -0.11895849482E+03 -0.24836486712E+00  0.11964480484E+03  0.00000000000E+00 0. -1.
          3    1    1    2  501    0 -0.55438922260E+01  0.18106363673E+03  0.14018541980E+03  0.22905616606E+03  0.00000000000E+00 0. -1.
<scales pt_clust_5="13000.00000" pt_clust_6="13000.00000" pt_clust_7="13000.00000" pt_clust_8="13000.00000" pt_clust_9="149.77135"></scales>
<clustering>
<clus scale="   81.568">  5  6 -1 -1</clus>
<clus scale="   90.644">  7  8 -1 -1</clus>
<clus scale="  104.983">  1  5  2 -1</clus>
<clus scale="  149.771">  2  9  1 -1</clus>
<clus scale="  149.771">  2  5  1 -1</clus>
</clustering>
</event>
<event>
 9    2  0.1723348E-004  0.9236183E+02  0.7546771E-02  0.1302513E+00
         21   -1    0    0  501  502  0.00000000000E+00  0.00000000000E+00  0.17498502537E+02  0.17498502537E+02  0.00000000000E+00 0. -1.
          2   -1    0    0  502    0 -0.00000000000E+00 -0.00000000000E+00 -0.89568582141E+03  0.89568582141E+03  0.00000000000E+00 0. -1.
         24    2    1    2    0    0 -0.19188732576E+02  0.17506039768E+02 -0.51086769808E+03  0.51749517003E+03  0.78363111052E+02 0.  0.
         23    2    1    2    0    0  0.67889391034E+01 -0.51043330338E+02 -0.19648895605E+03  0.22115657601E+03  0.87468908730E+02 0.  0.
        -11    1    3    3    0    0 -0.92938102640E+01  0.48563390157E+02 -0.27897845251E+03  0.28332623376E+03  0.00000000000E+00 0.  1.
         12    1    3    3    0    0 -0.98949223115E+01 -0.31057350389E+02 -0.23188924557E+03  0.23416893627E+03  0.00000000000E+00 0. -1.
        -13    1    4    4    0    0  0.37647545591E+02  0.44477291401E+01 -0.68831613774E+02  0.78580602176E+02  0.00000000000E+00 0.  1.
         13    1    4    4    0    0 -0.30858606488E+02 -0.55491059478E+02 -0.12765734228E+03  0.14257597383E+03  0.00000000000E+00 0. -1.
          1    1    1    2  501    0  0.12399793472E+02  0.33537290570E+02 -0.17083066474E+03  0.17453257791E+03  0.00000000000E+00 0. -1.
<scales pt_clust_5="13000.00000" pt_clust_6="13000.00000" pt_clust_7="13000.00000" pt_clust_8="13000.00000" pt_clust_9="35.75620"></scales>
<clustering>
<clus scale="   35.756">  1  9  2 -1</clus>
<clus scale="   78.363">  5  6 -1 -1</clus>
<clus scale="   83.789">  2  5  1 -1</clus>
<clus scale="   87.469">  7  8 -1 -1</clus>
<clus scale="   35.756">  1  5  2 -1</clus>
</clustering>
</event>
<event>
 9    2  0.1723348E-004  0.1033571E+03  0.7546771E-02  0.1277574E+00
          2   -1    0    0  502    0 -0.00000000000E+00  0.00000000000E+00  0.56541669033E+03  0.56541669033E+03  0.00000000000E+00 0. -1.
         21   -1    0    0  501  502  0.00000000000E+00 -0.00000000000E+00 -0.66688057970E+02  0.66688057970E+02  0.00000000000E+00 0.  1.
         24    2    1    2    0    0  0.24640490205E+02 -0.43740233126E+02  0.13087695578E+03  0.16207767849E+03  0.81363594798E+02 0.  0.
         23    2    1    2    0    0  0.62462436319E+02  0.67030536580E+02  0.47630492621E+02  0.13735461123E+03  0.90570285487E+02 0.  0.
        -11    1    3    3    0    0 -0.28782067296E+02 -0.16494247505E+02  0.65113146694E+02  0.73076600023E+02  0.00000000000E+00 0.  1.
         12    1    3    3    0    0  0.53422557501E+02 -0.27245985622E+02  0.65763809083E+02  0.89001078463E+02  0.00000000000E+00 0. -1.
        -13    1    4    4    0    0  0.35931802319E+02  0.80140683533E+02  0.58833565181E+02  0.10571192916E+03  0.00000000000E+00 0.  1.
         13    1    4    4    0    0  0.26530634000E+02 -0.13110146954E+02 -0.11203072560E+02  0.31642682067E+02  0.00000000000E+00 0. -1.
          1    1    1    2  501    0 -0.87102926525E+02 -0.23290303453E+02  0.32022118397E+03  0.33267245859E+03  0.00000000000E+00 0. -1.
<scales pt_clust_5="13000.00000" pt_clust_6="13000.00000" pt_clust_7="13000.00000" pt_clust_8="13000.00000" pt_clust_9="90.16300"></scales>
<clustering>
<clus scale="   81.364">  5  6 -1 -1</clus>
<clus scale="   90.163">  2  9  1 -1</clus>
<clus scale="   90.570">  7  8 -1 -1</clus>
<clus scale="   95.393">  1  5  2 -1</clus>
<clus scale="   90.163">  2  5  1 -1</clus>
</clustering>
</event>
<event>
 9    2  0.1723348E-004  0.9121036E+02  0.7546771E-02  0.1306439E+00
         21   -1    0    0  501  502  0.00000000000E+00  0.00000000000E+00  0.46614718134E+02  0.46614718134E+02  0.00000000000E+00 0.  1.
         -1   -1    0    0    0  501 -0.00000000000E+00 -0.00000000000E+00 -0.41644820073E+03  0.41644820073E+03  0.00000000000E+00 0.  1.
         23    2    1    2    0    0  0.94513891367E+01 -0.10688813013E+02 -0.31502293151E+03  0.32813809245E+03  0.90728059930E+02 0.  0.
         24    2    1    2    0    0  0.11525445907E+02  0.22263375792E+01 -0.70338452884E+02  0.10748841204E+03  0.80426788369E+02 0.  0.
        -13    1    4    4    0    0  0.15491164778E+01  0.38088329601E+02 -0.55687964529E+02  0.67485331792E+02  0.00000000000E+00 0.  1.
         14    1    4    4    0    0  0.99763294292E+01 -0.35861992022E+02 -0.14650488355E+02  0.40003080253E+02  0.00000000000E+00 0. -1.
        -11    1    3    3    0    0  0.25390370129E+02 -0.43089538927E+02 -0.12353197110E+03  0.13327237952E+03  0.00000000000E+00 0. -1.
         11    1    3    3    0    0 -0.15938980992E+02  0.32400725914E+02 -0.19149096041E+03  0.19486571293E+03  0.00000000000E+00 0.  1.
         -2    1    1    2    0  502 -0.20976835044E+02  0.84624754340E+01  0.15527901802E+02  0.27436414366E+02  0.00000000000E+00 0.  1.
<scales pt_clust_5="13000.00000" pt_clust_6="13000.00000" pt_clust_7="13000.00000" pt_clust_8="13000.00000" pt_clust_9="22.61948"></scales>
<clustering>
<clus scale="   22.619">  1  9  2 -1</clus>
<clus scale="   80.427">  5  6 -1 -1</clus>
<clus scale="   80.970">  1  5  2 -1</clus>
<clus scale="   90.728">  7  8 -1 -1</clus>
<clus scale="   22.619">  1  5  2 -1</clus>
</clustering>
</event>
<event>
 9    2  0.1723348E-004  0.1659910E+03  0.7546771E-02  0.1182388E+00
         21   -1    0    0  501  502  0.00000000000E+00  0.00000000000E+00  0.79296213860E+02  0.79296213860E+02  0.00000000000E+00 0. -1.
          2   -1    0    0  502    0 -0.00000000000E+00 -0.00000000000E+00 -0.47113758744E+03  0.47113758744E+03  0.00000000000E+00 0. -1.
         23    2    1    2    0    0  0.12337543175E+03  0.43098775963E+02 -0.17656122500E+03  0.23457560859E+03  0.82297316635E+02 0.  0.
         24    2    1    2    0    0 -0.13807026572E+03 -0.86192027698E+02 -0.19401938454E+03  0.26560894815E+03  0.80075763178E+02 0.  0.
        -11    1    4    4    0    0 -0.76089485828E+02 -0.55981823749E+01 -0.58243953870E+02  0.95985976382E+02  0.00000000000E+00 0.  1.
         12    1    4    4    0    0 -0.61980779890E+02 -0.80593845323E+02 -0.13577543067E+03  0.16962297177E+03  0.00000000000E+00 0. -1.
        -11    1    3    3    0    0  0.11344320017E+02 -0.20139741643E+02 -0.44881909320E+02  0.50484537973E+02  0.00000000000E+00 0.  1.
         11    1    3    3    0    0  0.11203111173E+03  0.63238517605E+02 -0.13167931568E+03  0.18409107062E+03  0.00000000000E+00 0. -1.
          1    1    1    2  501    0  0.14694833968E+02  0.43093251735E+02 -0.21260764046E+02  0.50249244554E+02  0.00000000000E+00 0. -1.
<scales pt_clust_5="13000.00000" pt_clust_6="13000.00000" pt_clust_7="13000.00000" pt_clust_8="13000.00000" pt_clust_9="45.52984"></scales>
<clustering>
<clus scale="   45.530">  1  9  2 -1</clus>
<clus scale="   80.076">  5  6 -1 -1</clus>
<clus scale="   82.297">  7  8 -1 -1</clus>
<clus scale="  164.901">  1  5  2 -1</clus>
<clus scale="   45.530">  1  5  2 -1</clus>
</clustering>
</event>
<event>
 9    2  0.1723348E-004  0.9940463E+02  0.7546771E-02  0.1286857E+00
          4   -1    0    0  502    0 -0.00000000000E+00  0.00000000000E+00  0.32660504288E+03  0.32660504288E+03  0.00000000000E+00 0. -1.
         21   -1    0    0  501  502  0.00000000000E+00 -0.00000000000E+00 -0.13415992765E+03  0.13415992765E+03  0.00000000000E+00 0.  1.
         23    2    1    2    0    0  0.62691883981E+02 -0.51264948386E+01 -0.35575890636E+01  0.10975739489E+03  0.89874779708E+02 0.  0.
         24    2    1    2    0    0 -0.11182941865E+02  0.23268725395E+02 -0.51212348928E+02  0.97832548847E+02  0.79259139290E+02 0.  0.
        -13    1    4    4    0    0 -0.24394234610E+02  0.20598541082E+02 -0.68698129015E+02  0.75754943780E+02  0.00000000000E+00 0.  1.
         14    1    4    4    0    0  0.13211292745E+02  0.26701843131E+01  0.17485780087E+02  0.22077605068E+02  0.00000000000E+00 0. -1.
        -13    1    3    3    0    0  0.79705557234E+02  0.12345889982E+02 -0.16231794380E+02  0.82273130500E+02  0.00000000000E+00 0.  1.
         13    1    3    3    0    0 -0.17013673253E+02 -0.17472384820E+02  0.12674205317E+02  0.27484264394E+02  0.00000000000E+00 0. -1.
          3    1    1    2  501    0 -0.51508942116E+02 -0.18142230557E+02  0.24721505323E+03  0.25317502679E+03  0.00000000000E+00 0. -1.
<scales pt_clust_5="13000.00000" pt_clust_6="13000.00000" pt_clust_7="13000.00000" pt_clust_8="13000.00000" pt_clust_9="54.61057"></scales>
<clustering>
<clus scale="   54.611">  2  9  1 -1</clus>
<clus scale="   79.259">  5  6 -1 -1</clus>
<clus scale="   89.875">  7  8 -1 -1</clus>
<clus scale="   89.921">  2  5  1 -1</clus>
<clus scale="   54.611">  2  5  1 -1</clus>
</clustering>
</event>
<event>
 9    2  0.1723348E-004  0.1071290E+03  0.7546771E-02  0.1270093E+00
          2   -1    0    0  502    0 -0.00000000000E+00  0.00000000000E+00  0.53927976317E+03  0.53927976317E+03  0.00000000000E+00 0. -1.
         21   -1    0    0  501  502  0.00000000000E+00 -0.00000000000E+00 -0.61279715098E+02  0.61279715098E+02  0.00000000000E+00 0. -1.
         24    2    1    2    0    0  0.45489081820E+02  0.10314256548E+02  0.32635977704E+03  0.33967821418E+03  0.81822641515E+02 0.  0.
         23    2    1    2    0    0 -0.79349415824E+02 -0.15711841631E+02  0.17919696856E+03  0.21689231408E+03  0.91583462536E+02 0.  0.
        -11    1    3    3    0    0  0.15787228209E+02 -0.35658504759E+02  0.15246671377E+03  0.15737491650E+03  0.00000000000E+00 0.  1.
         12    1    3    3    0    0  0.29701853612E+02  0.45972761307E+02  0.17389306327E+03  0.18230329767E+03  0.00000000000E+00 0. -1.
        -11    1    4    4    0    0 -0.26311644379E+02  0.33621573331E+02  0.10429470445E+03  0.11269471239E+03  0.00000000000E+00 0. -1.
         11    1    4    4    0    0 -0.53037771445E+02 -0.49333414962E+02  0.74902264106E+02  0.10419760170E+03  0.00000000000E+00 0.  1.
          1    1    1    2  501    0  0.33860334004E+02  0.53975850823E+01 -0.27556697529E+02  0.43988950002E+02  0.00000000000E+00 0. -1.
<scales pt_clust_5="13000.00000" pt_clust_6="13000.00000" pt_clust_7="13000.00000" pt_clust_8="13000.00000" pt_clust_9="34.28784"></scales>
<clustering>
<clus scale="   34.288">  2  9  1 -1</clus>
<clus scale="   81.823">  5  6 -1 -1</clus>
<clus scale="   91.583">  7  8 -1 -1</clus>
<clus scale="   98.914">  1  5  2 -1</clus>
<clus scale="   34.288">  2  5  1 -1</clus>
</clustering>
</event>
<event>
 9    2  0.1723348E-004  0.1098669E+03  0.7546771E-02  0.1266110E+00
          2   -1    0    0  502    0 -0.00000000000E+00  0.00000000000E+00  0.11604317863E+03  0.11604317863E+03  0.00000000000E+00 0. -1.
         21   -1    0    0  501  502  0.00000000000E+00 -0.00000000000E+00 -0.21265955212E+03  0.21265955212E+03  0.00000000000E+00 0.  1.
         23    2    1    2    0    0  0.23121559056E+02 -0.53804046250E+02  0.60920864404E+02  0.12624097329E+03  0.93786724706E+02 0.  0.
         24    2    1    2    0    0 -0.39619200133E+02  0.37269933554E+02 -0.14805483776E+03  0.17725332720E+03  0.80868894233E+02 0.  0.
        -13    1    4    4    0    0 -0.52530240555E+01  0.27391312188E+02 -0.13702263993E+03  0.13983233567E+03  0.00000000000E+00 0.  1.
         14    1    4    4    0    0 -0.34366176077E+02  0.98786213659E+01 -0.11032197825E+02  0.37420991530E+02  0.00000000000E+00 0. -1.
        -11    1    3    3    0    0 -0.29471182855E+02 -0.25385109284E+02 -0.26384096473E+01  0.38986094927E+02  0.00000000000E+00 0.  1.
         11    1    3    3    0    0  0.52592741911E+02 -0.28418936966E+02  0.63559274051E+02  0.87254878362E+02  0.00000000000E+00 0. -1.
          1    1    1    2  501    0  0.16497641077E+02  0.16534112697E+02 -0.94824001288E+01  0.25208430256E+02  0.00000000000E+00 0. -1.
<scales pt_clust_5="13000.00000" pt_clust_6="13000.00000" pt_clust_7="13000.00000" pt_clust_8="13000.00000" pt_clust_9="23.35699"></scales>
<clustering>
<clus scale="   23.357">  2  9  1 -1</clus>
<clus scale="   80.869">  5  6 -1 -1</clus>
<clus scale="   93.787">  7  8 -1 -1</clus>
<clus scale="   99.069">  2  5  1 -1</clus>
<clus scale="   23.357">  2  5  1 -1</clus>
</clustering>
</event>
<event>
 9    2  0.1723348E-004  0.1829180E+03  0.7546771E-02  0.1170216E+00
         21   -1    0    0  501  502  0.00000000000E+00  0.00000000000E+00  0.19212817533E+03  0.19212817533E+03  0.00000000000E+00 0. -1.
          2   -1    0    0  502    0 -0.00000000000E+00 -0.00000000000E+00 -0.62060965472E+03  0.62060965472E+03  0.00000000000E+00 0. -1.
         23    2    1    2    0    0  0.11723356562E+03 -0.58704676717E+02  0.60947946865E+02  0.17336388570E+03  0.95657914785E+02 0.  0.
         24    2    1    2    0    0  0.47703765916E+02  0.13653419826E+03 -0.40663795477E+03  0.43908369120E+03  0.80764008274E+02 0.  0.
        -13    1    4    4    0    0  0.38886838882E+02  0.11941478931E+02 -0.94603886994E+02  0.10297902986E+03  0.00000000000E+00 0.  1.
         14    1    4    4    0    0  0.88169270341E+01  0.12459271933E+03 -0.31203406778E+03  0.33610466133E+03  0.00000000000E+00 0. -1.
        -11    1    3    3    0    0  0.22850080763E+01 -0.44868053630E+02  0.64022960130E+01  0.45380093573E+02  0.00000000000E+00 0.  1.
         11    1    3    3    0    0  0.11494855755E+03 -0.13836623087E+02  0.54545650852E+02  0.12798379213E+03  0.00000000000E+00 0. -1.
          1    1    1    2  501    0 -0.16493733154E+03 -0.77829521548E+02 -0.82791471475E+02  0.20029025315E+03  0.00000000000E+00 0. -1.
<scales pt_clust_5="13000.00000" pt_clust_6="13000.00000" pt_clust_7="13000.00000" pt_clust_8="13000.00000" pt_clust_9="164.12246"></scales>
<clustering>
<clus scale="   80.764">  5  6 -1 -1</clus>
<clus scale="   95.658">  7  8 -1 -1</clus>
<clus scale="  162.297">  2  7  1 -1</clus>
<clus scale="  164.122">  1  9  2 -1</clus>
<clus scale="  164.122">  1  5  2 -1</clus>
</clustering>
</event>
<event>
 9    2  0.1723348E-004  0.1244035E+03  0.7546771E-02  0.1238655E+00
         -1   -1    0    0    0  501 -0.00000000000E+00  0.00000000000E+00  0.87622925211E+02  0.87622925211E+02  0.00000000000E+00 0.  1.
         21   -1    0    0  501  502  0.00000000000E+00 -0.00000000000E+00 -0.77072524212E+03  0.77072524212E+03  0.00000000000E+00 0.  1.
         24    2    1    2    0    0 -0.81241901494E+02 -0.38310829232E+02  0.34429497248E+02  0.12520647999E+03  0.80145531109E+02 0.  0.
         23    2    1    2    0    0  0.40202812253E+02  0.39138848172E+02 -0.43487270629E+03  0.44751769724E+03  0.89496944725E+02 0.  0.
        -13    1    3    3    0    0 -0.41159177489E+02  0.20714066336E+02  0.27165710961E+02  0.53489496986E+02  0.00000000000E+00 0.  1.
         14    1    3    3    0    0 -0.40082724005E+02 -0.59024895568E+02  0.72637862869E+01  0.71716983008E+02  0.00000000000E+00 0. -1.
        -11    1    4    4    0    0 -0.25403661508E+02  0.61597166862E+01 -0.58874737068E+02  0.64416789679E+02  0.00000000000E+00 0.  1.
         11    1    4    4    0    0  0.65606473762E+02  0.32979131486E+02 -0.37599796923E+03  0.38310090756E+03  0.00000000000E+00 0. -1.
         -2    1    1    2    0  502  0.41039089241E+02 -0.82801894008E+00 -0.28265910786E+03  0.28562399010E+03  0.00000000000E+00 0.  1.
<scales pt_clust_5="13000.00000" pt_clust_6="13000.00000" pt_clust_7="13000.00000" pt_clust_8="13000.00000" pt_clust_9="41.04744"></scales>
<clustering>
<clus scale="   41.047">  2  9  1 -1</clus>
<clus scale="   80.146">  5  6 -1 -1</clus>
<clus scale="   89.497">  7  8 -1 -1</clus>
<clus scale="  117.855">  1  5  2 -1</clus>
<clus scale="   41.047">  2  5  1 -1</clus>
</clustering>
</event>
<event>
 9    2  0.1723348E-004  0.5186420E+03  0.7546771E-02  0.1058044E+00
          2   -1    0    0  502    0 -0.00000000000E+00  0.00000000000E+00  0.62274315775E+03  0.62274315775E+03  0.00000000000E+00 0. -1.
         21   -1    0    0  501  502  0.00000000000E+00 -0.00000000000E+00 -0.18546525733E+04  0.18546525733E+04  0.00000000000E+00 0. -1.
         24    2    1    2    0    0 -0.82361450882E+02  0.41777201358E+02  0.38976325944E+03  0.40848042102E+03  0.80075669252E+02 0.  0.
         23    2    1    2    0    0  0.71766800015E+01  0.47401377393E+03 -0.14629372168E+03  0.50416736360E+03  0.89678954679E+02 0.  0.
        -11    1    3    3    0    0 -0.29693182092E+02 -0.10742155165E+02  0.40341138060E+02  0.51229741170E+02  0.00000000000E+00 0.  1.
         12    1    3    3    0    0 -0.52668268790E+02  0.52519356523E+02  0.34942212138E+03  0.35725067985E+03  0.00000000000E+00 0. -1.
        -11    1    4    4    0    0  0.26120490175E+02  0.43850297647E+02 -0.24968750977E+02  0.56820481660E+02  0.00000000000E+00 0.  1.
         11    1    4    4    0    0 -0.18943810174E+02  0.43016347628E+03 -0.12132497071E+03  0.44734688194E+03  0.00000000000E+00 0. -1.
          1    1    1    2  501    0  0.75184770880E+02 -0.51579097528E+03 -0.14753789533E+04  0.15647479464E+04  0.00000000000E+00 0. -1.
<scales pt_clust_5="13000.00000" pt_clust_6="13000.00000" pt_clust_7="13000.00000" pt_clust_8="13000.00000" pt_clust_9="510.82995"></scales>
<clustering>
<clus scale="   80.076">  5  6 -1 -1</clus>
<clus scale="   89.679">  7  8 -1 -1</clus>
<clus scale="  122.233">  1  5  2 -1</clus>
<clus scale="  510.830">  2  9  1 -1</clus>
<clus scale="  510.830">  2  5  1 -1</clus>
</clustering>
</event>
<event>
 9    2  0.1723348E-004  0.1373361E+03  0.7546771E-02  0.1220709E+00
         21   -1    0    0  501  502  0.00000000000E+00  0.00000000000E+00  0.60808652207E+02  0.60808652207E+02  0.00000000000E+00 0. -1.
          2   -1    0    0  502    0 -0.00000000000E+00 -0.00000000000E+00 -0.55440572584E+03  0.55440572584E+03  0.00000000000E+00 0. -1.
         23    2    1    2    0    0 -0.10026464340E+03  0.39768497865E+02 -0.17580972149E+03  0.22723090747E+03  0.95343038554E+02 0.  0.
         24    2    1    2    0    0  0.97216582006E+02  0.36504577647E+02 -0.12637178376E+03  0.18190874494E+03  0.79607259403E+02 0.  0.
        -13    1    4    4    0    0  0.30508808061E+02  0.33188783379E+02 -0.10074428657E+03  0.11037071164E+03  0.00000000000E+00 0.  1.
         14    1    4    4    0    0  0.66707773945E+02  0.33157942684E+01 -0.25627497187E+02  0.71538033300E+02  0.00000000000E+00 0. -1.
        -11    1    3    3    0    0 -0.96559929371E+02  0.23658801330E+01 -0.83925774827E+02  0.12795684049E+03  0.00000000000E+00 0.  1.
         11    1    3    3    0    0 -0.37047140241E+01  0.37402617732E+02 -0.91883946661E+02  0.99274066973E+02  0.00000000000E+00 0. -1.
          1    1    1    2  501    0  0.30480613890E+01 -0.76273075513E+02 -0.19141556839E+03  0.20607472564E+03  0.00000000000E+00 0. -1.
<scales pt_clust_5="13000.00000" pt_clust_6="13000.00000" pt_clust_7="13000.00000" pt_clust_8="13000.00000" pt_clust_9="76.33399"></scales>
<clustering>
<clus scale="   76.334">  1  9  2 -1</clus>
<clus scale="   79.607">  5  6 -1 -1</clus>
<clus scale="   95.343">  7  8 -1 -1</clus>
<clus scale="  126.918">  1  5  2 -1</clus>
<clus scale="   76.334">  1  5  2 -1</clus>
</clustering>
</event>
<event>
 9    2  0.1723348E-004  0.1051440E+03  0.7546771E-02  0.1275649E+00
         -3   -1    0    0    0  501 -0.00000000000E+00  0.00000000000E+00  0.23566827534E+03  0.23566827534E+03  0.00000000000E+00 0.  1.
         21   -1    0    0  501  502  0.00000000000E+00 -0.00000000000E+00 -0.93848354181E+02  0.93848354181E+02  0.00000000000E+00 0. -1.
         23    2    1    2    0    0 -0.31832456060E+02  0.14245278931E+02  0.97050386418E+02  0.13843803690E+03  0.92358428560E+02 0.  0.
         24    2    1    2    0    0  0.81373133044E+02  0.18739902529E+02  0.59572059957E+02  0.12974821170E+03  0.79454372964E+02 0.  0.
        -13    1    4    4    0    0  0.11238033052E+02 -0.18394869830E+02  0.43827890388E+02  0.48842078158E+02  0.00000000000E+00 0.  1.
         14    1    4    4    0    0  0.70135099992E+02  0.37134772359E+02  0.15744169569E+02  0.80906133540E+02  0.00000000000E+00 0. -1.
        -13    1    3    3    0    0 -0.46165077384E+02 -0.74887852546E+01  0.10332363796E+02  0.47896283948E+02  0.00000000000E+00 0. -1.
         13    1    3    3    0    0  0.14332621324E+02  0.21734064186E+02  0.86718022622E+02  0.90541752951E+02  0.00000000000E+00 0.  1.
         -4    1    1    2    0  502 -0.49540676984E+02 -0.32985181460E+02 -0.14802525214E+02  0.61330380927E+02  0.00000000000E+00 0.  1.
<scales pt_clust_5="13000.00000" pt_clust_6="13000.00000" pt_clust_7="13000.00000" pt_clust_8="13000.00000" pt_clust_9="59.51723"></scales>
<clustering>
<clus scale="   59.517">  2  9  1 -1</clus>
<clus scale="   79.454">  5  6 -1 -1</clus>
<clus scale="   92.358">  7  8 -1 -1</clus>
<clus scale="   94.012">  2  5  1 -1</clus>
<clus scale="   59.517">  2  5  1 -1</clus>
</clustering>
</event>
<event>
 9    2  0.1723348E-004  0.1259068E+03  0.7546771E-02  0.1237884E+00
          2   -1    0    0  502    0 -0.00000000000E+00  0.00000000000E+00  0.18526411923E+04  0.18526411923E+04  0.00000000000E+00 0. -1.
         21   -1    0    0  501  502  0.00000000000E+00 -0.00000000000E+00 -0.21332945061E+02  0.21332945061E+02  0.00000000000E+00 0.  1.
         24    2    1    2    0    0 -0.70586926776E+01 -0.88441536029E+02  0.15449078036E+04  0.15495316198E+04  0.80227106067E+02 0.  0.
         23    2    1    2    0    0  0.20839323621E+02  0.46355695465E+02  0.18756546042E+03  0.21613980447E+03  0.94617573536E+02 0.  0.
        -13    1    3    3    0    0  0.16171585715E+02 -0.17321660274E+02  0.10328349311E+03  0.10596716495E+03  0.00000000000E+00 0.  1.
         14    1    3    3    0    0 -0.23230278393E+02 -0.71119875755E+02  0.14416243105E+04  0.14435644548E+04  0.00000000000E+00 0. -1.
        -13    1    4    4    0    0 -0.33363366473E+02 -0.34968709297E+01  0.52495370468E+02  0.62298525257E+02  0.00000000000E+00 0.  1.
         13    1    4    4    0    0  0.54202690093E+02  0.49852566395E+02  0.13507008995E+03  0.15384127921E+03  0.00000000000E+00 0. -1.
          1    1    1    2  501    0 -0.13780630943E+02  0.42085840564E+02  0.98834983183E+02  0.10830271311E+03  0.00000000000E+00 0. -1.
<scales pt_clust_5="13000.00000" pt_clust_6="13000.00000" pt_clust_7="13000.00000" pt_clust_8="13000.00000" pt_clust_9="44.28458"></scales>
<clustering>
<clus scale="   44.285">  2  9  1 -1</clus>
<clus scale="   80.227">  5  6 -1 -1</clus>
<clus scale="   94.618">  7  8 -1 -1</clus>
<clus scale="  115.483">  1  5  2 -1</clus>
<clus scale="   44.285">  2  5  1 -1</clus>
</clustering>
</event>
<event>
 9    2  0.1723348E-004  0.1022629E+03  0.7546771E-02  0.1281102E+00
         21   -1    0    0  501  502  0.00000000000E+00  0.00000000000E+00  0.13896361754E+03  0.13896361754E+03  0.00000000000E+00 0. -1.
          4   -1    0    0  502    0 -0.00000000000E+00 -0.00000000000E+00 -0.36358030756E+03  0.36358030756E+03  0.00000000000E+00 0. -1.
         24    2    1    2    0    0  0.28451230450E+02 -0.20368612240E+02 -0.18098567902E+03  0.20184233913E+03  0.82220198124E+02 0.  0.
         23    2    1    2    0    0 -0.71278126552E+02 -0.39034361627E+02 -0.13525866626E+03  0.18340502361E+03  0.93478570660E+02 0.  0.
        -11    1    3    3    0    0 -0.23642208308E+02 -0.25083724969E+02 -0.96543177576E+02  0.10251210859E+03  0.00000000000E+00 0.  1.
         12    1    3    3    0    0  0.52093438758E+02  0.47151127291E+01 -0.84442501441E+02  0.99330230540E+02  0.00000000000E+00 0. -1.
        -13    1    4    4    0    0 -0.31050896918E+02 -0.49852565925E+02 -0.21980392719E+02  0.62710239935E+02  0.00000000000E+00 0. -1.
         13    1    4    4    0    0 -0.40227229635E+02  0.10818204298E+02 -0.11327827355E+03  0.12069478367E+03  0.00000000000E+00 0.  1.
          3    1    1    2  501    0  0.42826896103E+02  0.59402973866E+02  0.91627655259E+02  0.11729656236E+03  0.00000000000E+00 0. -1.
<scales pt_clust_5="13000.00000" pt_clust_6="13000.00000" pt_clust_7="13000.00000" pt_clust_8="13000.00000" pt_clust_9="73.23153"></scales>
<clustering>
<clus scale="   73.232">  1  9  2 -1</clus>
<clus scale="   82.220">  5  6 -1 -1</clus>
<clus scale="   92.085">  2  5  1 -1</clus>
<clus scale="   93.479">  7  8 -1 -1</clus>
<clus scale="   73.232">  1  5  2 -1</clus>
</clustering>
</event>
<event>
 9    2  0.1723348E-004  0.1574424E+03  0.7546771E-02  0.1193744E+00
         21   -1    0    0  501  502  0.00000000000E+00  0.00000000000E+00  0.56514474479E+03  0.56514474479E+03  0.00000000000E+00 0. -1.
          2   -1    0    0  502    0 -0.00000000000E+00 -0.00000000000E+00 -0.12923039177E+03  0.12923039177E+03  0.00000000000E+00 0. -1.
         24    2    1    2    0    0  0.11727295533E+03  0.79530093409E+01 -0.32064182090E+02  0.14556884029E+03  0.79661653765E+02 0.  0.
         23    2    1    2    0    0 -0.17078997661E+03 -0.31347792719E+02  0.22495254094E+03  0.29886025949E+03  0.92530583100E+02 0.  0.
        -11    1    3    3    0    0  0.73698084855E+02  0.38748782060E+02  0.10334116587E+00  0.83263956799E+02  0.00000000000E+00 0.  1.
         12    1    3    3    0    0  0.43574870473E+02 -0.30795772719E+02 -0.32167523256E+02  0.62304883488E+02  0.00000000000E+00 0. -1.
        -11    1    4    4    0    0 -0.13819662147E+03 -0.46905636978E+02  0.12353860832E+03  0.19120730297E+03  0.00000000000E+00 0. -1.
         11    1    4    4    0    0 -0.32593355147E+02  0.15557844258E+02  0.10141393262E+03  0.10765295652E+03  0.00000000000E+00 0.  1.
          1    1    1    2  501    0  0.53517021287E+02  0.23394783378E+02  0.24302599417E+03  0.24994603678E+03  0.00000000000E+00 0. -1.
<scales pt_clust_5="13000.00000" pt_clust_6="13000.00000" pt_clust_7="13000.00000" pt_clust_8="13000.00000" pt_clust_9="58.40708"></scales>
<clustering>
<clus scale="   58.407">  1  9  2 -1</clus>
<clus scale="   79.662">  5  6 -1 -1</clus>
<clus scale="   92.531">  7  8 -1 -1</clus>
<clus scale="  150.240">  2  5  1 -1</clus>
<clus scale="   58.407">  1  5  2 -1</clus>
</clustering>
</event>
<event>
 9    2  0.1723348E-004  0.1028197E+03  0.7546771E-02  0.1279498E+00
          2   -1    0    0  502    0 -0.00000000000E+00  0.00000000000E+00  0.55219379286E+03  0.55219379286E+03  0.00000000000E+00 0. -1.
         21   -1    0    0  501  502  0.00000000000E+00 -0.00000000000E+00 -0.33020359980E+02  0.33020359980E+02  0.00000000000E+00 0.  1.
         23    2    1    2    0    0 -0.61620846729E+02 -0.40335236829E+01  0.18263748351E+03  0.21334341773E+03  0.91354066358E+02 0.  0.
         24    2    1    2    0    0  0.30545164630E+02  0.95966013764E+01  0.96431623756E+02  0.12969985943E+03  0.80609513303E+02 0.  0.
        -11    1    4    4    0    0  0.31637280322E+02  0.42471263998E+02  0.50279159247E+02  0.73025472448E+02  0.00000000000E+00 0.  1.
         12    1    4    4    0    0 -0.10921156920E+01 -0.32874662621E+02  0.46152464509E+02  0.56674386979E+02  0.00000000000E+00 0. -1.
        -11    1    3    3    0    0  0.22818526931E+02  0.33121311400E+01  0.59896682161E+02  0.64181523181E+02  0.00000000000E+00 0.  1.
         11    1    3    3    0    0 -0.84439373661E+02 -0.73456548229E+01  0.12274080135E+03  0.14916189455E+03  0.00000000000E+00 0. -1.
          1    1    1    2  501    0  0.31075682100E+02 -0.55630776935E+01  0.24010432562E+03  0.24217087569E+03  0.00000000000E+00 0. -1.
<scales pt_clust_5="13000.00000" pt_clust_6="13000.00000" pt_clust_7="13000.00000" pt_clust_8="13000.00000" pt_clust_9="31.56971"></scales>
<clustering>
<clus scale="   31.570">  2  9  1 -1</clus>
<clus scale="   80.610">  5  6 -1 -1</clus>
<clus scale="   91.354">  7  8 -1 -1</clus>
<clus scale="   93.404">  2  5  1 -1</clus>
<clus scale="   31.570">  2  5  1 -1</clus>
</clustering>
</event>
<event>
 9    2  0.1723348E-004  0.1214545E+03  0.7546771E-02  0.1245053E+00
         21   -1    0    0  501  502  0.00000000000E+00  0.00000000000E+00  0.18018627457E+03  0.18018627457E+03  0.00000000000E+00 0. -1.
          2   -1    0    0  502    0 -0.00000000000E+00 -0.00000000000E+00 -0.31635530008E+03  0.31635530008E+03  0.00000000000E+00 0. -1.
         24    2    1    2    0    0 -0.49428591292E+02  0.58645862936E+02 -0.19409096496E+03  0.22252155893E+03  0.77214109022E+02 0.  0.
         23    2    1    2    0    0  0.33822928057E+02 -0.12153611276E+03  0.11019486093E+03  0.19076631569E+03  0.91289992113E+02 0.  0.
        -13    1    3    3    0    0 -0.68035252594E+02  0.58442716888E+02 -0.15177771986E+03  0.17629754110E+03  0.00000000000E+00 0.  1.
         14    1    3    3    0    0  0.18606661301E+02  0.20314604869E+00 -0.42313245102E+02  0.46224017828E+02  0.00000000000E+00 0. -1.
        -13    1    4    4    0    0  0.54966783789E+02 -0.42639577077E+02  0.73563925417E+02  0.10124787393E+03  0.00000000000E+00 0.  1.
         13    1    4    4    0    0 -0.21143855731E+02 -0.78896535686E+02  0.36630935509E+02  0.89518441758E+02  0.00000000000E+00 0. -1.
          1    1    1    2  501    0  0.15605663235E+02  0.62890249827E+02 -0.52272921474E+02  0.83253700024E+02  0.00000000000E+00 0. -1.
<scales pt_clust_5="13000.00000" pt_clust_6="13000.00000" pt_clust_7="13000.00000" pt_clust_8="13000.00000" pt_clust_9="64.79757"></scales>
<clustering>
<clus scale="   64.798">  1  9  2 -1</clus>
<clus scale="   77.214">  5  6 -1 -1</clus>
<clus scale="   91.290">  7  8 -1 -1</clus>
<clus scale="  111.263">  2  5  1 -1</clus>
<clus scale="   64.798">  1  5  2 -1</clus>
</clustering>
</event>
<event>
 9    2  0.1723348E-004  0.1493202E+03  0.7546771E-02  0.1203482E+00
         21   -1    0    0  501  502  0.00000000000E+00  0.00000000000E+00  0.13309127087E+03  0.13309127087E+03  0.00000000000E+00 0. -1.
          2   -1    0    0  502    0 -0.00000000000E+00 -0.00000000000E+00 -0.30615807175E+03  0.30615807175E+03  0.00000000000E+00 0. -1.
         23    2    1    2    0    0  0.10681580377E+03  0.86842670613E+02 -0.14574134753E+03  0.22036338070E+03  0.91477941601E+02 0.  0.
         24    2    1    2    0    0 -0.23160137669E+02 -0.10183711690E+03 -0.25425789067E+02  0.13387588832E+03  0.79806593510E+02 0.  0.
        -13    1    4    4    0    0 -0.26723730092E+02  0.14355073040E+01 -0.13139849540E+02  0.29813991299E+02  0.00000000000E+00 0.  1.
         14    1    4    4    0    0  0.35635924230E+01 -0.10327262420E+03 -0.12285939527E+02  0.10406189702E+03  0.00000000000E+00 0. -1.
        -13    1    3    3    0    0  0.39285854932E+02  0.12894582177E+02  0.25483866070E+01  0.41426355398E+02  0.00000000000E+00 0.  1.
         13    1    3    3    0    0  0.67529948837E+02  0.73948088436E+02 -0.14828973414E+03  0.17893702530E+03  0.00000000000E+00 0. -1.
          1    1    1    2  501    0 -0.83655666100E+02  0.14994446288E+02 -0.18996642826E+01  0.85010073606E+02  0.00000000000E+00 0. -1.
<scales pt_clust_5="13000.00000" pt_clust_6="13000.00000" pt_clust_7="13000.00000" pt_clust_8="13000.00000" pt_clust_9="84.98885"></scales>
<clustering>
<clus scale="   79.807">  5  6 -1 -1</clus>
<clus scale="   84.989">  1  9  2 -1</clus>
<clus scale="   91.478">  7  8 -1 -1</clus>
<clus scale="  142.469">  1  5  2 -1</clus>
<clus scale="   84.989">  1  5  2 -1</clus>
</clustering>
</event>
<event>
 9    2  0.1723348E-004  0.1387921E+03  0.7546771E-02  0.1217586E+00
          2   -1    0    0  502    0 -0.00000000000E+00  0.00000000000E+00  0.29281075502E+03  0.29281075502E+03  0.00000000000E+00 0. -1.
         21   -1    0    0  501  502  0.00000000000E+00 -0.00000000000E+00 -0.22065382265E+03  0.22065382265E+03  0.00000000000E+00 0.  1.
         24    2    1    2    0    0 -0.10133295641E+03 -0.32599582744E+02  0.22185241639E+03  0.25894972250E+03  0.80655832235E+02 0.  0.
         23    2    1    2    0    0  0.78033596898E+02  0.51452270215E+02 -0.35003095587E+02  0.13597107447E+03  0.92338172151E+02 0.  0.
        -11    1    3    3    0    0 -0.62913371038E+01 -0.32445243914E+02  0.29081349618E+02  0.44022717668E+02  0.00000000000E+00 0.  1.
         12    1    3    3    0    0 -0.95041619309E+02 -0.15433882989E+00  0.19277106677E+03  0.21492700483E+03  0.00000000000E+00 0. -1.
        -11    1    4    4    0    0  0.68234672889E+02 -0.91519152491E+01 -0.27452400519E+02  0.74117220882E+02  0.00000000000E+00 0. -1.
         11    1    4    4    0    0  0.97989240097E+01  0.60604185465E+02 -0.75506950683E+01  0.61853853587E+02  0.00000000000E+00 0.  1.
          1    1    1    2  501    0  0.23299359514E+02 -0.18852687471E+02 -0.11469238843E+03  0.11854378070E+03  0.00000000000E+00 0. -1.
<scales pt_clust_5="13000.00000" pt_clust_6="13000.00000" pt_clust_7="13000.00000" pt_clust_8="13000.00000" pt_clust_9="29.97139"></scales>
<clustering>
<clus scale="   29.971">  2  9  1 -1</clus>
<clus scale="   80.656">  5  6 -1 -1</clus>
<clus scale="   92.338">  7  8 -1 -1</clus>
<clus scale="  131.310">  1  5  2 -1</clus>
<clus scale="   29.971">  2  5  1 -1</clus>
</clustering>
</event>
<event>
 9    2  0.1723348E-004  0.1437888E+03  0.7546771E-02  0.1210783E+00
         21   -1    0    0  501  502  0.00000000000E+00  0.00000000000E+00  0.12393287179E+03  0.12393287179E+03  0.00000000000E+00 0. -1.
          2   -1    0    0  502    0 -0.00000000000E+00 -0.00000000000E+00 -0.69689557387E+03  0.69689557387E+03  0.00000000000E+00 0. -1.
         23    2    1    2    0    0  0.11684729481E+03  0.60257762769E+01 -0.63252404431E+03  0.64981557167E+03  0.92108687247E+02 0.  0.
         24    2    1    2    0    0 -0.54810082199E+02  0.41394217991E+01  0.41118714885E+02  0.10549892507E+03  0.80112387012E+02 0.  0.
        -13    1    4    4    0    0 -0.32044120996E+02 -0.37498841892E+02  0.25582725503E+02  0.55564959082E+02  0.00000000000E+00 0.  1.
         14    1    4    4    0    0 -0.22765961204E+02  0.41638263692E+02  0.15535989382E+02  0.49933965984E+02  0.00000000000E+00 0. -1.
        -11    1    3    3    0    0  0.14364987635E+02  0.22625236185E+02 -0.39253888286E+02  0.47530221204E+02  0.00000000000E+00 0.  1.
         11    1    3    3    0    0  0.10248230718E+03 -0.16599459908E+02 -0.59327015602E+03  0.60228535046E+03  0.00000000000E+00 0. -1.
          1    1    1    2  501    0 -0.62037212615E+02 -0.10165198076E+02  0.18442627337E+02  0.65513948928E+02  0.00000000000E+00 0. -1.
<scales pt_clust_5="13000.00000" pt_clust_6="13000.00000" pt_clust_7="13000.00000" pt_clust_8="13000.00000" pt_clust_9="62.86451"></scales>
<clustering>
<clus scale="   62.865">  1  9  2 -1</clus>
<clus scale="   80.112">  5  6 -1 -1</clus>
<clus scale="   92.109">  7  8 -1 -1</clus>
<clus scale="  136.416">  1  5  2 -1</clus>
<clus scale="   62.865">  1  5  2 -1</clus>
</clustering>
</event>
<event>
 9    2  0.1723348E-004  0.1213647E+03  0.7546771E-02  0.1244328E+00
         -3   -1    0    0    0  501 -0.00000000000E+00  0.00000000000E+00  0.32981749324E+03  0.32981749324E+03  0.00000000000E+00 0.  1.
         21   -1    0    0  501  502  0.00000000000E+00 -0.00000000000E+00 -0.65288420876E+02  0.65288420876E+02  0.00000000000E+00 0.  1.
         23    2    1    2    0    0  0.58545359545E+02  0.77322141497E+02  0.17983455921E+03  0.22397877700E+03  0.91759202104E+02 0.  0.
         24    2    1    2    0    0 -0.28947989212E+02 -0.54134906303E+02  0.86894696466E+02  0.13346425070E+03  0.80581907275E+02 0.  0.
        -13    1    4    4    0    0  0.18369341056E+02 -0.28407294078E+02  0.32575721706E+01  0.33985567880E+02  0.00000000000E+00 0.  1.
         14    1    4    4    0    0 -0.47317330268E+02 -0.25727612226E+02  0.83637124295E+02  0.99478682816E+02  0.00000000000E+00 0. -1.
        -13    1    3    3    0    0 -0.24273938061E+02  0.26458089380E+02  0.40920276645E+02  0.54440091875E+02  0.00000000000E+00 0. -1.
         13    1    3    3    0    0  0.82819297607E+02  0.50864052117E+02  0.13891428256E+03  0.16953868513E+03  0.00000000000E+00 0.  1.
         -4    1    1    2    0  502 -0.29597370333E+02 -0.23187235194E+02 -0.22001833147E+01  0.37662886416E+02  0.00000000000E+00 0.  1.
<scales pt_clust_5="13000.00000" pt_clust_6="13000.00000" pt_clust_7="13000.00000" pt_clust_8="13000.00000" pt_clust_9="37.59857"></scales>
<clustering>
<clus scale="   37.599">  2  9  1 -1</clus>
<clus scale="   80.582">  5  6 -1 -1</clus>
<clus scale="   91.759">  7  8 -1 -1</clus>
<clus scale="  113.151">  2  5  1 -1</clus>
<clus scale="   37.599">  2  5  1 -1</clus>
</clustering>
</event>
<event>
 9    2  0.1723348E-004  0.2299719E+03  0.7546771E-02  0.1140058E+00
         21   -1    0    0  501  502  0.00000000000E+00  0.00000000000E+00  0.19563413733E+03  0.19563413733E+03  0.00000000000E+00 0.  1.
          2   -1    0    0  502    0 -0.00000000000E+00 -0.00000000000E+00 -0.77744862787E+03  0.77744862787E+03  0.00000000000E+00 0. -1.
         23    2    1    2    0    0 -0.87440642021E+02  0.10665220969E+03 -0.56356775521E+02  0.17513311092E+03  0.92059549656E+02 0.  0.
         24    2    1    2    0    0  0.12056114869E+03  0.16893394652E+03 -0.22532791742E+02  0.22351238537E+03  0.79852306469E+02 0.  0.
        -11    1    4    4    0    0  0.10491885665E+03  0.17576471043E+03 -0.25176031320E+02  0.20624022999E+03  0.00000000000E+00 0.  1.
         12    1    4    4    0    0  0.15642292041E+02 -0.68307639102E+01  0.26432395779E+01  0.17272155377E+02  0.00000000000E+00 0. -1.
        -11    1    3    3    0    0 -0.52929965224E+02  0.11723009307E+03 -0.52143156915E+02  0.13879259618E+03  0.00000000000E+00 0. -1.
         11    1    3    3    0    0 -0.34510676797E+02 -0.10577883381E+02 -0.42136186064E+01  0.36340514740E+02  0.00000000000E+00 0.  1.
          1    1    1    2  501    0 -0.33120506668E+02 -0.27558615622E+03 -0.50292492328E+03  0.57443726891E+03  0.00000000000E+00 0. -1.
<scales pt_clust_5="13000.00000" pt_clust_6="13000.00000" pt_clust_7="13000.00000" pt_clust_8="13000.00000" pt_clust_9="215.66347"></scales>
<clustering>
<clus scale="   79.852">  5  6 -1 -1</clus>
<clus scale="   92.060">  7  8 -1 -1</clus>
<clus scale="  165.818">  2  7  1 -1</clus>
<clus scale="  215.663">  1  9  2 -1</clus>
<clus scale="  215.663">  1  5  2 -1</clus>
</clustering>
</event>
<event>
 9    2  0.1723348E-004  0.1338702E+03  0.7546771E-02  0.1224817E+00
         21   -1    0    0  501  502  0.00000000000E+00  0.00000000000E+00  0.46741414421E+02  0.46741414421E+02  0.00000000000E+00 0. -1.
          4   -1    0    0  502    0 -0.00000000000E+00 -0.00000000000E+00 -0.97305905566E+03  0.97305905566E+03  0.00000000000E+00 0. -1.
         23    2    1    2    0    0 -0.49331552060E+02 -0.51707802995E+02 -0.38446691789E+03  0.40155078186E+03  0.91219079932E+02 0.  0.
         24    2    1    2    0    0  0.14528044281E+03  0.96747496685E+02 -0.35929414214E+03  0.40715333822E+03  0.78835747369E+02 0.  0.
        -13    1    4    4    0    0  0.66259282935E+01  0.38206087120E+02 -0.50849561099E+02  0.63947524445E+02  0.00000000000E+00 0.  1.
         14    1    4    4    0    0  0.13865451451E+03  0.58541409566E+02 -0.30844458105E+03  0.34320581377E+03  0.00000000000E+00 0. -1.
        -11    1    3    3    0    0 -0.25245175508E+02 -0.63311272649E+02 -0.35612380041E+03  0.36258764092E+03  0.00000000000E+00 0. -1.
         11    1    3    3    0    0 -0.24086376552E+02  0.11603469654E+02 -0.28343117477E+02  0.38963140938E+02  0.00000000000E+00 0.  1.
          3    1    1    2  501    0 -0.95948890747E+02 -0.45039693691E+02 -0.18255658120E+03  0.21109635000E+03  0.00000000000E+00 0. -1.
<scales pt_clust_5="13000.00000" pt_clust_6="13000.00000" pt_clust_7="13000.00000" pt_clust_8="13000.00000" pt_clust_9="105.99417"></scales>
<clustering>
<clus scale="   78.836">  5  6 -1 -1</clus>
<clus scale="   91.219">  7  8 -1 -1</clus>
<clus scale="  105.994">  1  9  2 -1</clus>
<clus scale="  125.759">  1  5  2 -1</clus>
<clus scale="  105.994">  1  5  2 -1</clus>
</clustering>
</event>
<event>
 9    2  0.1723348E-004  0.1177986E+03  0.7546771E-02  0.1249473E+00
         -1   -1    0    0    0  501 -0.00000000000E+00  0.00000000000E+00  0.20976909294E+03  0.20976909294E+03  0.00000000000E+00 0.  1.
         21   -1    0    0  501  502  0.00000000000E+00 -0.00000000000E+00 -0.18769811213E+03  0.18769811213E+03  0.00000000000E+00 0. -1.
         23    2    1    2    0    0 -0.60229756416E+02  0.36651076109E+02  0.13065709462E+03  0.17383467841E+03  0.90422862730E+02 0.  0.
         24    2    1    2    0    0  0.56238818786E+02 -0.92205321272E+02 -0.55286524744E+02  0.14654136029E+03  0.82177517892E+02 0.  0.
        -13    1    4    4    0    0  0.36953111532E+02 -0.70981415033E+00 -0.34911193891E+02  0.50841201273E+02  0.00000000000E+00 0.  1.
         14    1    4    4    0    0  0.19285707254E+02 -0.91495507122E+02 -0.20375330853E+02  0.95700159013E+02  0.00000000000E+00 0. -1.
        -13    1    3    3    0    0 -0.81088457054E+02  0.32291233761E+02  0.12375036744E+03  0.15143386373E+03  0.00000000000E+00 0.  1.
         13    1    3    3    0    0  0.20858700638E+02  0.43598423472E+01  0.69067271873E+01  0.22400814674E+02  0.00000000000E+00 0. -1.
         -2    1    1    2    0  502  0.39909376300E+01  0.55554245164E+02 -0.53299589072E+02  0.77091166382E+02  0.00000000000E+00 0.  1.
<scales pt_clust_5="13000.00000" pt_clust_6="13000.00000" pt_clust_7="13000.00000" pt_clust_8="13000.00000" pt_clust_9="55.69741"></scales>
<clustering>
<clus scale="   55.697">  2  9  1 -1</clus>
<clus scale="   82.178">  5  6 -1 -1</clus>
<clus scale="   90.423">  7  8 -1 -1</clus>
<clus scale="  111.595">  2  5  1 -1</clus>
<clus scale="   55.697">  2  5  1 -1</clus>
</clustering>
</event>
<event>
 9    2  0.1723348E-004  0.1720653E+03  0.7546771E-02  0.1177569E+00
          2   -1    0    0  502    0 -0.00000000000E+00  0.00000000000E+00  0.44073032577E+03  0.44073032577E+03  0.00000000000E+00 0. -1.
         21   -1    0    0  501  502  0.00000000000E+00 -0.00000000000E+00 -0.15869704016E+03  0.15869704016E+03  0.00000000000E+00 0. -1.
         24    2    1    2    0    0  0.34264524324E+02  0.90835327830E+02 -0.60628350305E+01  0.12573881528E+03  0.79676704810E+02 0.  0.
         23    2    1    2    0    0 -0.36992851368E+02 -0.19949894721E+03  0.77063004967E+02  0.23630657606E+03  0.93454749305E+02 0.  0.
        -11    1    3    3    0    0 -0.87965783036E+01  0.30731622965E+02 -0.34030075739E+02  0.46688954740E+02  0.00000000000E+00 0.  1.
         12    1    3    3    0    0  0.43061102627E+02  0.60103704865E+02  0.27967240708E+02  0.79049860536E+02  0.00000000000E+00 0. -1.
        -13    1    4    4    0    0 -0.18801849408E+02 -0.16974757405E+03  0.96724469144E+02  0.19627371543E+03  0.00000000000E+00 0. -1.
         13    1    4    4    0    0 -0.18191001961E+02 -0.29751373154E+02 -0.19661464177E+02  0.40032860633E+02  0.00000000000E+00 0.  1.
          1    1    1    2  501    0  0.27283270446E+01  0.10866361938E+03  0.21103311568E+03  0.23738197458E+03  0.00000000000E+00 0. -1.
<scales pt_clust_5="13000.00000" pt_clust_6="13000.00000" pt_clust_7="13000.00000" pt_clust_8="13000.00000" pt_clust_9="108.69792"></scales>
<clustering>
<clus scale="   79.677">  5  6 -1 -1</clus>
<clus scale="   93.455">  7  8 -1 -1</clus>
<clus scale="  108.698">  2  9  1 -1</clus>
<clus scale="  164.988">  1  5  2 -1</clus>
<clus scale="  108.698">  2  5  1 -1</clus>
</clustering>
</event>
<event>
 9    2  0.1723348E-004  0.1737986E+03  0.7546771E-02  0.1184867E+00
          2   -1    0    0  502    0 -0.00000000000E+00  0.00000000000E+00  0.10742122025E+04  0.10742122025E+04  0.00000000000E+00 0. -1.
         21   -1    0    0  501  502  0.00000000000E+00 -0.00000000000E+00 -0.95360348065E+02  0.95360348065E+02  0.00000000000E+00 0. -1.
         24    2    1    2    0    0 -0.56703500827E+02  0.92668494876E+02  0.32784855700E+03  0.35490757010E+03  0.81682128047E+02 0.  0.
         23    2    1    2    0    0 -0.10609227672E+03  0.80368629183E+02  0.50277914957E+02  0.16866552486E+03  0.90584230444E+02 0.  0.
        -13    1    3    3    0    0 -0.63879849785E+02  0.10404096785E+03  0.28652395125E+03  0.31145004871E+03  0.00000000000E+00 0.  1.
         14    1    3    3    0    0  0.71763489576E+01 -0.11372472970E+02  0.41324605745E+02  0.43457521395E+02  0.00000000000E+00 0. -1.
        -13    1    4    4    0    0 -0.50261706543E+02  0.90660141509E+02  0.39192497623E+02  0.11082216508E+03  0.00000000000E+00 0. -1.
         13    1    4    4    0    0 -0.55830570181E+02 -0.10291512326E+02  0.11085417334E+02  0.57843359776E+02  0.00000000000E+00 0.  1.
          1    1    1    2  501    0  0.16279577755E+03 -0.17303712406E+03  0.60072538250E+03  0.64599945563E+03  0.00000000000E+00 0. -1.
<scales pt_clust_5="13000.00000" pt_clust_6="13000.00000" pt_clust_7="13000.00000" pt_clust_8="13000.00000" pt_clust_9="148.32552"></scales>
<clustering>
<clus scale="   81.682">  5  6 -1 -1</clus>
<clus scale="   90.584">  7  8 -1 -1</clus>
<clus scale="  135.922">  1  5  2 -1</clus>
<clus scale="  148.326">  2  9  1 -1</clus>
<clus scale="  148.326">  2  5  1 -1</clus>
</clustering>
</event>
<event>
 9    2  0.1723348E-004  0.1045703E+03  0.7546771E-02  0.1273093E+00
         21   -1    0    0  501  502  0.00000000000E+00  0.00000000000E+00  0.31376506437E+03  0.31376506437E+03  0.00000000000E+00 0.  1.
         -3   -1    0    0    0  501 -0.00000000000E+00 -0.00000000000E+00 -0.67133816148E+02  0.67133816148E+02  0.00000000000E+00 0.  1.
         24    2    1    2    0    0  0.33236154937E+02  0.53181092145E+02 -0.12708086695E+01  0.10225346646E+03  0.80754479085E+02 0.  0.
         23    2    1    2    0    0 -0.39231321698E+02 -0.32324938680E+02  0.16408786293E+03  0.19206747073E+03  0.85913260250E+02 0.  0.
        -13    1    3    3    0    0 -0.52935071987E+01  0.52264722713E+02 -0.23733532474E+02  0.57644627003E+02  0.00000000000E+00 0.  1.
         14    1    3    3    0    0  0.38529662136E+02  0.91636943272E+00  0.22462723804E+02  0.44608839460E+02  0.00000000000E+00 0. -1.
        -13    1    4    4    0    0 -0.63251316893E+02 -0.35135332882E+02  0.14173654375E+03  0.15913663481E+03  0.00000000000E+00 0.  1.
         13    1    4    4    0    0  0.24019995196E+02  0.28103942023E+01  0.22351319183E+02  0.32930835914E+02  0.00000000000E+00 0. -1.
         -4    1    1    2    0  502  0.59951667610E+01 -0.20856153465E+02  0.83814193959E+02  0.86577943327E+02  0.00000000000E+00 0.  1.
<scales pt_clust_5="13000.00000" pt_clust_6="13000.00000" pt_clust_7="13000.00000" pt_clust_8="13000.00000" pt_clust_9="21.70072"></scales>
<clustering>
<clus scale="   21.701">  1  9  2 -1</clus>
<clus scale="   80.754">  5  6 -1 -1</clus>
<clus scale="   85.913">  7  8 -1 -1</clus>
<clus scale="  100.375">  2  5  1 -1</clus>
<clus scale="   21.701">  1  5  2 -1</clus>
</clustering>
</event>
<event>
 9    2  0.1723348E-004  0.9971091E+02  0.7546771E-02  0.1287500E+00
         21   -1    0    0  501  502  0.00000000000E+00  0.00000000000E+00  0.53742588297E+02  0.53742588297E+02  0.00000000000E+00 0.  1.
          2   -1    0    0  502    0 -0.00000000000E+00 -0.00000000000E+00 -0.44409546618E+03  0.44409546618E+03  0.00000000000E+00 0. -1.
         23    2    1    2    0    0  0.57411630357E+02 -0.33372962036E+02 -0.33093587994E+03  0.34390123632E+03  0.65876048883E+02 0.  0.
         24    2    1    2    0    0 -0.34184938858E+02 -0.13938209563E+02 -0.43102415606E+02  0.98764436000E+02  0.80831379159E+02 0.  0.
        -13    1    4    4    0    0 -0.38838069858E+02  0.27155245446E+02 -0.20487106498E+02  0.51628718347E+02  0.00000000000E+00 0.  1.
         14    1    4    4    0    0  0.46531309993E+01 -0.41093455008E+02 -0.22615309109E+02  0.47135717653E+02  0.00000000000E+00 0. -1.
        -13    1    3    3    0    0  0.29820630342E+02  0.11530492251E+02 -0.61025874469E+02  0.68893973613E+02  0.00000000000E+00 0.  1.
         13    1    3    3    0    0  0.27591000015E+02 -0.44903454288E+02 -0.26991000547E+03  0.27500726271E+03  0.00000000000E+00 0. -1.
          1    1    1    2  501    0 -0.23226691499E+02  0.47311171599E+02 -0.16314582339E+02  0.55172382157E+02  0.00000000000E+00 0. -1.
<scales pt_clust_5="13000.00000" pt_clust_6="13000.00000" pt_clust_7="13000.00000" pt_clust_8="13000.00000" pt_clust_9="52.70509"></scales>
<clustering>
<clus scale="   52.705">  1  9  2 -1</clus>
<clus scale="   65.876">  7  8 -1 -1</clus>
<clus scale="   80.831">  5  6 -1 -1</clus>
<clus scale="   88.024">  2  7  1 -1</clus>
<clus scale="   52.705">  1  5  2 -1</clus>
</clustering>
</event>
<event>
 9    2  0.1723348E-004  0.2367529E+03  0.7546771E-02  0.1122707E+00
         21   -1    0    0  501  502  0.00000000000E+00  0.00000000000E+00  0.98098985495E+02  0.98098985495E+02  0.00000000000E+00 0. -1.
          2   -1    0    0  502    0 -0.00000000000E+00 -0.00000000000E+00 -0.11634613151E+04  0.11634613151E+04  0.00000000000E+00 0. -1.
         23    2    1    2    0    0 -0.10940344810E+03 -0.21839056908E+03 -0.92216940854E+03  0.95838278854E+03  0.91856389005E+02 0.  0.
         24    2    1    2    0    0  0.76553693382E+02  0.13058532851E+03 -0.11068743807E+03  0.20395315472E+03  0.80200900125E+02 0.  0.
        -11    1    4    4    0    0  0.92345958566E+02  0.12266965144E+03 -0.10129400183E+03  0.18394590035E+03  0.00000000000E+00 0.  1.
         12    1    4    4    0    0 -0.15792265184E+02  0.79156770699E+01 -0.93934362463E+01  0.20007254375E+02  0.00000000000E+00 0. -1.
        -11    1    3    3    0    0 -0.12222673959E+03 -0.18190077885E+03 -0.82960430700E+03  0.85806210464E+03  0.00000000000E+00 0. -1.
         11    1    3    3    0    0  0.12823291490E+02 -0.36489790236E+02 -0.92565101536E+02  0.10032068390E+03  0.00000000000E+00 0.  1.
          1    1    1    2  501    0  0.32849754722E+02  0.87805240572E+02 -0.32505482941E+02  0.99224357284E+02  0.00000000000E+00 0. -1.
<scales pt_clust_5="13000.00000" pt_clust_6="13000.00000" pt_clust_7="13000.00000" pt_clust_8="13000.00000" pt_clust_9="93.74896"></scales>
<clustering>
<clus scale="   80.201">  5  6 -1 -1</clus>
<clus scale="   91.856">  7  8 -1 -1</clus>
<clus scale="   93.749">  1  9  2 -1</clus>
<clus scale="  232.479">  1  5  2 -1</clus>
<clus scale="   93.749">  1  5  2 -1</clus>
</clustering>
</event>
<event>
 9    2  0.1723348E-004  0.9384199E+02  0.7546771E-02  0.1299420E+00
          2   -1    0    0  502    0 -0.00000000000E+00  0.00000000000E+00  0.42810650991E+03  0.42810650991E+03  0.00000000000E+00 0. -1.
         21   -1    0    0  501  502  0.00000000000E+00 -0.00000000000E+00 -0.37078395895E+02  0.37078395895E+02  0.00000000000E+00 0.  1.
         23    2    1    2    0    0  0.42762825577E+02 -0.13766580496E+02  0.22659093268E+03  0.24801950881E+03  0.90288692474E+02 0.  0.
         24    2    1    2    0    0  0.14203202820E+02  0.20737539715E+02  0.99833497817E+02  0.13075151739E+03  0.80606795558E+02 0.  0.
        -11    1    4    4    0    0  0.20536359662E+02  0.39546305376E+02  0.20639274577E+02  0.49108369878E+02  0.00000000000E+00 0.  1.
         12    1    4    4    0    0 -0.63331568426E+01 -0.18808765661E+02  0.79194223240E+02  0.81643147514E+02  0.00000000000E+00 0. -1.
        -13    1    3    3    0    0  0.69477449918E+02 -0.19604583517E+02  0.14516195879E+03  0.16212171360E+03  0.00000000000E+00 0. -1.
         13    1    3    3    0    0 -0.26714624341E+02  0.58380030210E+01  0.81428973888E+02  0.85897795206E+02  0.00000000000E+00 0.  1.
          1    1    1    2  501    0 -0.56966028397E+02 -0.69709592182E+01  0.64603683527E+02  0.86413879608E+02  0.00000000000E+00 0. -1.
<scales pt_clust_5="13000.00000" pt_clust_6="13000.00000" pt_clust_7="13000.00000" pt_clust_8="13000.00000" pt_clust_9="57.39096"></scales>
<clustering>
<clus scale="   57.391">  2  9  1 -1</clus>
<clus scale="   80.607">  5  6 -1 -1</clus>
<clus scale="   84.568">  2  5  1 -1</clus>
<clus scale="   90.289">  7  8 -1 -1</clus>
<clus scale="   57.391">  2  5  1 -1</clus>
</clustering>
</event>
<event>
 9    2  0.1723348E-004  0.1187253E+03  0.7546771E-02  0.1249612E+00
         21   -1    0    0  501  502  0.00000000000E+00  0.00000000000E+00  0.11459720932E+03  0.11459720932E+03  0.00000000000E+00 0.  1.
          2   -1    0    0  502    0 -0.00000000000E+00 -0.00000000000E+00 -0.22662625390E+03  0.22662625390E+03  0.00000000000E+00 0. -1.
         23    2    1    2    0    0  0.53044174348E+01  0.66516003956E+02 -0.10692805081E+03  0.15777546695E+03  0.94905080439E+02 0.  0.
         24    2    1    2    0    0 -0.61843758573E+02 -0.72292154082E+02  0.50665744412E+01  0.12571204170E+03  0.82018542029E+02 0.  0.
        -13    1    4    4    0    0 -0.46746307848E+02 -0.51633665444E+02  0.41585739746E+02  0.81121060489E+02  0.00000000000E+00 0.  1.
         14    1    4    4    0    0 -0.15097450724E+02 -0.20658488638E+02 -0.36519165304E+02  0.44590981215E+02  0.00000000000E+00 0. -1.
        -11    1    3    3    0    0  0.31321959602E+02 -0.11814328494E+02 -0.31125534758E+02  0.45710419218E+02  0.00000000000E+00 0.  1.
         11    1    3    3    0    0 -0.26017542168E+02  0.78330332450E+02 -0.75802516054E+02  0.11206504773E+03  0.00000000000E+00 0. -1.
          1    1    1    2  501    0  0.56539341138E+02  0.57761501265E+01 -0.10167568204E+02  0.57735954567E+02  0.00000000000E+00 0. -1.
<scales pt_clust_5="13000.00000" pt_clust_6="13000.00000" pt_clust_7="13000.00000" pt_clust_8="13000.00000" pt_clust_9="56.83363"></scales>
<clustering>
<clus scale="   56.834">  1  9  2 -1</clus>
<clus scale="   82.019">  5  6 -1 -1</clus>
<clus scale="   94.905">  7  8 -1 -1</clus>
<clus scale="  108.700">  1  5  2 -1</clus>
<clus scale="   56.834">  1  5  2 -1</clus>
</clustering>
</event>
<event>
 9    2  0.1723348E-004  0.9032387E+02  0.7546771E-02  0.1307112E+00
          2   -1    0    0  502    0 -0.00000000000E+00  0.00000000000E+00  0.40261518881E+03  0.40261518881E+03  0.00000000000E+00 0. -1.
         21   -1    0    0  501  502  0.00000000000E+00 -0.00000000000E+00 -0.66126804479E+02  0.66126804479E+02  0.00000000000E+00 0.  1.
         24    2    1    2    0    0 -0.64797423802E+01 -0.19705620653E+02  0.33097347108E+03  0.34091721461E+03  0.79062064934E+02 0.  0.
         23    2    1    2    0    0 -0.98598072878E+00  0.44367456375E+02  0.17332081632E+02  0.99477139783E+02  0.87326152684E+02 0.  0.
        -11    1    3    3    0    0  0.16217800291E+02  0.24132301300E+02  0.79639398594E+02  0.84781005070E+02  0.00000000000E+00 0.  1.
         12    1    3    3    0    0 -0.22697542672E+02 -0.43837921954E+02  0.25133407248E+03  0.25613620954E+03  0.00000000000E+00 0. -1.
        -13    1    4    4    0    0  0.76486223360E+01 -0.25624914685E+02  0.10094142099E+02  0.28583725806E+02  0.00000000000E+00 0. -1.
         13    1    4    4    0    0 -0.86346030648E+01  0.69992371060E+02  0.72379395332E+01  0.70893413977E+02  0.00000000000E+00 0.  1.
          1    1    1    2  501    0  0.74657231090E+01 -0.24661835721E+02 -0.11817168378E+02  0.28347638899E+02  0.00000000000E+00 0. -1.
<scales pt_clust_5="13000.00000" pt_clust_6="13000.00000" pt_clust_7="13000.00000" pt_clust_8="13000.00000" pt_clust_9="25.76709"></scales>
<clustering>
<clus scale="   25.767">  2  9  1 -1</clus>
<clus scale="   79.062">  5  6 -1 -1</clus>
<clus scale="   82.361">  1  5  2 -1</clus>
<clus scale="   87.326">  7  8 -1 -1</clus>
<clus scale="   25.767">  2  5  1 -1</clus>
</clustering>
</event>
<event>
 9    2  0.1723348E-004  0.1183558E+03  0.7546771E-02  0.1249422E+00
         -1   -1    0    0    0  501 -0.00000000000E+00  0.00000000000E+00  0.10992007840E+03  0.10992007840E+03  0.00000000000E+00 0.  1.
         21   -1    0    0  501  502  0.00000000000E+00 -0.00000000000E+00 -0.28676960266E+03  0.28676960266E+03  0.00000000000E+00 0.  1.
         23    2    1    2    0    0 -0.48342039336E+02 -0.12401593842E+02 -0.32255494759E+02  0.10847278317E+03  0.90747867466E+02 0.  0.
         24    2    1    2    0    0  0.73285057757E+02  0.10013011547E+03 -0.47379762306E+02  0.15491625490E+03  0.79733709564E+02 0.  0.
        -13    1    4    4    0    0  0.80399452304E+02  0.46472281200E+02 -0.36048672414E+02  0.99615519039E+02  0.00000000000E+00 0.  1.
         14    1    4    4    0    0 -0.71143945465E+01  0.53657834272E+02 -0.11331089893E+02  0.55300735860E+02  0.00000000000E+00 0. -1.
        -11    1    3    3    0    0  0.20829850386E+02 -0.13128695364E+02  0.10913540880E+02  0.26932335280E+02  0.00000000000E+00 0. -1.
         11    1    3    3    0    0 -0.69171889721E+02  0.72710152246E+00 -0.43169035639E+02  0.81540447891E+02  0.00000000000E+00 0.  1.
         -2    1    1    2    0  502 -0.24943018422E+02 -0.87728521629E+02 -0.97214267193E+02  0.13330064299E+03  0.00000000000E+00 0.  1.
<scales pt_clust_5="13000.00000" pt_clust_6="13000.00000" pt_clust_7="13000.00000" pt_clust_8="13000.00000" pt_clust_9="91.20552"></scales>
<clustering>
<clus scale="   79.734">  5  6 -1 -1</clus>
<clus scale="   90.748">  7  8 -1 -1</clus>
<clus scale="   91.206">  2  9  1 -1</clus>
<clus scale="  110.138">  2  5  1 -1</clus>
<clus scale="   91.206">  2  5  1 -1</clus>
</clustering>
</event>
<event>
 9    2  0.1723348E-004  0.1596047E+03  0.7546771E-02  0.1191281E+00
         21   -1    0    0  501  502  0.00000000000E+00  0.00000000000E+00  0.26784928744E+03  0.26784928744E+03  0.00000000000E+00 0. -1.
         -1   -1    0    0    0  501 -0.00000000000E+00 -0.00000000000E+00 -0.27544050578E+03  0.27544050578E+03  0.00000000000E+00 0.  1.
         24    2    1    2    0    0  0.12690367559E+03  0.28251731582E+02 -0.20472986776E+03  0.25549997602E+03  0.80394127773E+02 0.  0.
         23    2    1    2    0    0 -0.12959082165E+03  0.17757306615E+02  0.17123332794E+03  0.23492075222E+03  0.93583140746E+02 0.  0.
        -13    1    3    3    0    0  0.11444986529E+03  0.31515307868E+02 -0.21028499129E+03  0.24147828859E+03  0.00000000000E+00 0.  1.
         14    1    3    3    0    0  0.12453810298E+02 -0.32635762858E+01  0.55551235350E+01  0.14021687438E+02  0.00000000000E+00 0. -1.
        -11    1    4    4    0    0 -0.22046292189E+02  0.35420859288E+02  0.14805402409E+02  0.44270489183E+02  0.00000000000E+00 0.  1.
         11    1    4    4    0    0 -0.10754452946E+03 -0.17663552673E+02  0.15642792554E+03  0.19065026304E+03  0.00000000000E+00 0. -1.
         -2    1    1    2    0  502  0.26871460676E+01 -0.46009038197E+02  0.25905321478E+02  0.52869064969E+02  0.00000000000E+00 0.  1.
<scales pt_clust_5="13000.00000" pt_clust_6="13000.00000" pt_clust_7="13000.00000" pt_clust_8="13000.00000" pt_clust_9="46.08744"></scales>
<clustering>
<clus scale="   46.087">  1  9  2 -1</clus>
<clus scale="   80.394">  5  6 -1 -1</clus>
<clus scale="   93.583">  7  8 -1 -1</clus>
<clus scale="  152.247">  2  5  1 -1</clus>
<clus scale="   46.087">  1  5  2 -1</clus>
</clustering>
</event>
<event>
 9    2  0.1723348E-004  0.1324986E+03  0.7546771E-02  0.1227459E+00
         21   -1    0    0  501  502  0.00000000000E+00  0.00000000000E+00  0.10726613797E+03  0.10726613797E+03  0.00000000000E+00 0. -1.
          2   -1    0    0  502    0 -0.00000000000E+00 -0.00000000000E+00 -0.22128401638E+03  0.22128401638E+03  0.00000000000E+00 0. -1.
         24    2    1    2    0    0 -0.16725127218E+02 -0.84131634298E+02 -0.43904507786E+02  0.12494735720E+03  0.79538509529E+02 0.  0.
         23    2    1    2    0    0  0.37136807540E+01  0.10644733061E+03 -0.15022346725E+02  0.14275619531E+03  0.93855392920E+02 0.  0.
        -11    1    3    3    0    0  0.20257533131E+02  0.42087066589E+01 -0.12439484762E+02  0.24141699224E+02  0.00000000000E+00 0.  1.
         12    1    3    3    0    0 -0.36982660348E+02 -0.88340340956E+02 -0.31465023024E+02  0.10080565798E+03  0.00000000000E+00 0. -1.
        -11    1    4    4    0    0  0.22075934149E+02  0.14009841885E+02  0.28734708385E+02  0.38849787697E+02  0.00000000000E+00 0.  1.
         11    1    4    4    0    0 -0.18362253395E+02  0.92437488725E+02 -0.43757055110E+02  0.10390640761E+03  0.00000000000E+00 0. -1.
          1    1    1    2  501    0  0.13011446464E+02 -0.22315696312E+02 -0.55091023897E+02  0.60846601836E+02  0.00000000000E+00 0. -1.
<scales pt_clust_5="13000.00000" pt_clust_6="13000.00000" pt_clust_7="13000.00000" pt_clust_8="13000.00000" pt_clust_9="25.83193"></scales>
<clustering>
<clus scale="   25.832">  1  9  2 -1</clus>
<clus scale="   79.539">  5  6 -1 -1</clus>
<clus scale="   93.855">  7  8 -1 -1</clus>
<clus scale="  122.774">  2  5  1 -1</clus>
<clus scale="   25.832">  1  5  2 -1</clus>
</clustering>
</event>
<event>
 9    2  0.1723348E-004  0.1517647E+03  0.7546771E-02  0.1200838E+00
          2   -1    0    0  502    0 -0.00000000000E+00  0.00000000000E+00  0.52610858175E+03  0.52610858175E+03  0.00000000000E+00 0. -1.
         21   -1    0    0  501  502  0.00000000000E+00 -0.00000000000E+00 -0.11824287026E+03  0.11824287026E+03  0.00000000000E+00 0. -1.
         23    2    1    2    0    0 -0.87447271394E+02  0.92319975294E+02  0.17895647000E+03  0.23905952653E+03  0.94625767924E+02 0.  0.
         24    2    1    2    0    0  0.14923117662E+03  0.37405062553E+02  0.58100128136E+02  0.18208442205E+03  0.78166675018E+02 0.  0.
        -13    1    4    4    0    0  0.39711288277E+02  0.29226950507E+02 -0.13325819455E+02  0.51076203038E+02  0.00000000000E+00 0.  1.
         14    1    4    4    0    0  0.10951988834E+03  0.81781120460E+01  0.71425947591E+02  0.13100821901E+03  0.00000000000E+00 0. -1.
        -13    1    3    3    0    0  0.20698536305E+01  0.23354034261E+02 -0.42286133543E+01  0.23823861593E+02  0.00000000000E+00 0. -1.
         13    1    3    3    0    0 -0.89517125025E+02  0.68965941033E+02  0.18318508335E+03  0.21523566493E+03  0.00000000000E+00 0.  1.
          1    1    1    2  501    0 -0.61783905222E+02 -0.12972503785E+03  0.17080911335E+03  0.22320750344E+03  0.00000000000E+00 0. -1.
<scales pt_clust_5="13000.00000" pt_clust_6="13000.00000" pt_clust_7="13000.00000" pt_clust_8="13000.00000" pt_clust_9="143.68666"></scales>
<clustering>
<clus scale="   78.167">  5  6 -1 -1</clus>
<clus scale="   94.626">  7  8 -1 -1</clus>
<clus scale="  143.687">  2  9  1 -1</clus>
<clus scale="  143.687">  2  5  1 -1</clus>
<clus scale="  143.687">  2  5  1 -1</clus>
</clustering>
</event>
<event>
 9    2  0.1723348E-004  0.1055750E+03  0.7546771E-02  0.1272880E+00
          2   -1    0    0  502    0 -0.00000000000E+00  0.00000000000E+00  0.19164430593E+02  0.19164430593E+02  0.00000000000E+00 0. -1.
         21   -1    0    0  501  502  0.00000000000E+00 -0.00000000000E+00 -0.77914751229E+03  0.77914751229E+03  0.00000000000E+00 0. -1.
         23    2    1    2    0    0  0.39661089560E+02  0.37106006086E+02 -0.28154935542E+03  0.30048070192E+03  0.89826248829E+02 0.  0.
         24    2    1    2    0    0 -0.60267685630E+02 -0.13999039195E+02 -0.41452667620E+03  0.42681944778E+03  0.80711267456E+02 0.  0.
        -13    1    4    4    0    0 -0.32117514155E+02 -0.47763219481E+02 -0.22231938441E+03  0.22964922933E+03  0.00000000000E+00 0.  1.
         14    1    4    4    0    0 -0.28150171476E+02  0.33764180287E+02 -0.19220729179E+03  0.19717021845E+03  0.00000000000E+00 0. -1.
        -11    1    3    3    0    0 -0.23724636982E+02  0.24823590435E+02 -0.15078605965E+03  0.15464638640E+03  0.00000000000E+00 0.  1.
         11    1    3    3    0    0  0.63385726542E+02  0.12282415651E+02 -0.13076329576E+03  0.14583431552E+03  0.00000000000E+00 0. -1.
          1    1    1    2  501    0  0.20606596070E+02 -0.23106966891E+02 -0.63907050086E+02  0.71011793184E+02  0.00000000000E+00 0. -1.
<scales pt_clust_5="13000.00000" pt_clust_6="13000.00000" pt_clust_7="13000.00000" pt_clust_8="13000.00000" pt_clust_9="30.96070"></scales>
<clustering>
<clus scale="   30.961">  2  9  1 -1</clus>
<clus scale="   80.711">  5  6 -1 -1</clus>
<clus scale="   89.826">  7  8 -1 -1</clus>
<clus scale="   97.937">  2  5  1 -1</clus>
<clus scale="   30.961">  2  5  1 -1</clus>
</clustering>
</event>
<event>
 9    2  0.1723348E-004  0.2425071E+03  0.7546771E-02  0.1165640E+00
         21   -1    0    0  501  502  0.00000000000E+00  0.00000000000E+00  0.43980297322E+02  0.43980297322E+02  0.00000000000E+00 0. -1.
          2   -1    0    0  502    0 -0.00000000000E+00 -0.00000000000E+00 -0.24685925131E+04  0.24685925131E+04  0.00000000000E+00 0. -1.
         24    2    1    2    0    0  0.11520899941E+02  0.34570478727E+02 -0.18236515731E+03  0.19809567638E+03  0.68242195622E+02 0.  0.
         23    2    1    2    0    0 -0.19655186123E+03  0.10458758641E+03 -0.48073303792E+03  0.53781366892E+03  0.92563985126E+02 0.  0.
        -11    1    3    3    0    0 -0.14879828366E+02  0.42036342528E+02 -0.74769551000E+02  0.87057160200E+02  0.00000000000E+00 0.  1.
         12    1    3    3    0    0  0.26400728307E+02 -0.74658638005E+01 -0.10759560631E+03  0.11103851618E+03  0.00000000000E+00 0. -1.
        -11    1    4    4    0    0 -0.15007289808E+03  0.98628298567E+02 -0.44175704664E+03  0.47686340211E+03  0.00000000000E+00 0.  1.
         11    1    4    4    0    0 -0.46478963158E+02  0.59592878420E+01 -0.38975991280E+02  0.60950266809E+02  0.00000000000E+00 0. -1.
          1    1    1    2  501    0  0.18503096129E+03 -0.13915806514E+03 -0.17615140206E+04  0.17766634652E+04  0.00000000000E+00 0. -1.
<scales pt_clust_5="13000.00000" pt_clust_6="13000.00000" pt_clust_7="13000.00000" pt_clust_8="13000.00000" pt_clust_9="224.14648"></scales>
<clustering>
<clus scale="   68.242">  5  6 -1 -1</clus>
<clus scale="   77.362">  2  5  1 -1</clus>
<clus scale="   92.564">  7  8 -1 -1</clus>
<clus scale="  224.146">  1  9  2 -1</clus>
<clus scale="  224.146">  1  5  2 -1</clus>
</clustering>
</event>
<event>
 9    2  0.1723348E-004  0.1205909E+03  0.7546771E-02  0.1244977E+00
          2   -1    0    0  502    0 -0.00000000000E+00  0.00000000000E+00  0.97933750736E+03  0.97933750736E+03  0.00000000000E+00 0. -1.
         21   -1    0    0  501  502  0.00000000000E+00 -0.00000000000E+00 -0.90373603797E+02  0.90373603797E+02  0.00000000000E+00 0. -1.
         24    2    1    2    0    0  0.23840153051E+02  0.83674829438E+02  0.88415985918E+03  0.89211926105E+03  0.81044983627E+02 0.  0.
         23    2    1    2    0    0 -0.24702491750E+02 -0.16861667262E+02  0.38689417552E+02  0.10267215456E+03  0.90278299548E+02 0.  0.
        -11    1    3    3    0    0 -0.16813125747E+02  0.15213820325E+02  0.60324351050E+02  0.64445084032E+02  0.00000000000E+00 0.  1.
         12    1    3    3    0    0  0.40653278798E+02  0.68461009113E+02  0.82383550813E+03  0.82767417701E+03  0.00000000000E+00 0. -1.
        -13    1    4    4    0    0 -0.55665115779E+02  0.40570450866E+01  0.33099808535E+02  0.64889614382E+02  0.00000000000E+00 0. -1.
         13    1    4    4    0    0  0.30962624030E+02 -0.20918712348E+02  0.55896090169E+01  0.37782540175E+02  0.00000000000E+00 0.  1.
          1    1    1    2  501    0  0.86233869861E+00 -0.66813162177E+02 -0.33885373162E+02  0.74919695557E+02  0.00000000000E+00 0. -1.
<scales pt_clust_5="13000.00000" pt_clust_6="13000.00000" pt_clust_7="13000.00000" pt_clust_8="13000.00000" pt_clust_9="66.81873"></scales>
<clustering>
<clus scale="   66.819">  2  9  1 -1</clus>
<clus scale="   81.045">  5  6 -1 -1</clus>
<clus scale="   90.278">  7  8 -1 -1</clus>
<clus scale="  113.843">  1  5  2 -1</clus>
<clus scale="   66.819">  2  5  1 -1</clus>
</clustering>
</event>
<event>
 9    2  0.1723348E-004  0.1022326E+03  0.7546771E-02  0.1283007E+00
          2   -1    0    0  502    0 -0.00000000000E+00  0.00000000000E+00  0.30947941094E+03  0.30947941094E+03  0.00000000000E+00 0. -1.
         21   -1    0    0  501  502  0.00000000000E+00 -0.00000000000E+00 -0.70448272097E+02  0.70448272097E+02  0.00000000000E+00 0. -1.
         23    2    1    2    0    0 -0.28934208801E+02 -0.61129369305E+02  0.17507251082E+03  0.20869760446E+03  0.91270574844E+02 0.  0.
         24    2    1    2    0    0 -0.26859279189E+02  0.26390816127E+02  0.62685819345E+02  0.10549347978E+03  0.76035953832E+02 0.  0.
        -13    1    4    4    0    0  0.21741375680E+02 -0.95990532124E+01  0.12199951516E+02  0.26714566364E+02  0.00000000000E+00 0.  1.
         14    1    4    4    0    0 -0.48600654870E+02  0.35989869339E+02  0.50485867829E+02  0.78778913418E+02  0.00000000000E+00 0. -1.
        -13    1    3    3    0    0  0.16928430667E+02 -0.15531269686E+02  0.99556792845E+00  0.22995287743E+02  0.00000000000E+00 0.  1.
         13    1    3    3    0    0 -0.45862639468E+02 -0.45598099619E+02  0.17407694289E+03  0.18570231672E+03  0.00000000000E+00 0. -1.
          1    1    1    2  501    0  0.55793487990E+02  0.34738553178E+02  0.12728086767E+01  0.65736598793E+02  0.00000000000E+00 0. -1.
<scales pt_clust_5="13000.00000" pt_clust_6="13000.00000" pt_clust_7="13000.00000" pt_clust_8="13000.00000" pt_clust_9="65.72428"></scales>
<clustering>
<clus scale="   65.724">  2  9  1 -1</clus>
<clus scale="   76.036">  5  6 -1 -1</clus>
<clus scale="   88.897">  2  5  1 -1</clus>
<clus scale="   91.271">  7  8 -1 -1</clus>
<clus scale="   65.724">  2  5  1 -1</clus>
</clustering>
</event>
<event>
 9    2  0.1723348E-004  0.1106652E+03  0.7546771E-02  0.1263979E+00
         21   -1    0    0  501  502  0.00000000000E+00  0.00000000000E+00  0.22627811457E+03  0.22627811457E+03  0.00000000000E+00 0. -1.
          2   -1    0    0  502    0 -0.00000000000E+00 -0.00000000000E+00 -0.24135705592E+03  0.24135705592E+03  0.00000000000E+00 0. -1.
         24    2    1    2    0    0  0.37892343520E+02  0.29785354424E+02  0.37748203308E+02  0.10142891301E+03  0.80869651329E+02 0.  0.
         23    2    1    2    0    0 -0.76747434731E+02 -0.44237080646E+02  0.12773996643E+03  0.18094144131E+03  0.92602473612E+02 0.  0.
        -13    1    3    3    0    0  0.22375243214E+02 -0.21757738946E+02 -0.63431884348E+01  0.31847868884E+02  0.00000000000E+00 0.  1.
         14    1    3    3    0    0  0.15517100306E+02  0.51543093370E+02  0.44091391742E+02  0.69581044127E+02  0.00000000000E+00 0. -1.
        -13    1    4    4    0    0 -0.56933170044E+02 -0.69024185557E+02  0.11731071209E+03  0.14753822289E+03  0.00000000000E+00 0. -1.
         13    1    4    4    0    0 -0.19814264687E+02  0.24787104911E+02  0.10429254344E+02  0.33403218424E+02  0.00000000000E+00 0.  1.
          1    1    1    2  501    0  0.38855091211E+02  0.14451726222E+02 -0.18056711108E+03  0.18526481617E+03  0.00000000000E+00 0. -1.
<scales pt_clust_5="13000.00000" pt_clust_6="13000.00000" pt_clust_7="13000.00000" pt_clust_8="13000.00000" pt_clust_9="41.45567"></scales>
<clustering>
<clus scale="   41.456">  1  9  2 -1</clus>
<clus scale="   80.870">  5  6 -1 -1</clus>
<clus scale="   92.602">  7  8 -1 -1</clus>
<clus scale="  101.052">  2  5  1 -1</clus>
<clus scale="   41.456">  1  5  2 -1</clus>
</clustering>
</event>
<event>
 9    2  0.1723348E-004  0.1220807E+03  0.7546771E-02  0.1265256E+00
          2   -1    0    0  502    0 -0.00000000000E+00  0.00000000000E+00  0.67367658385E+03  0.67367658385E+03  0.00000000000E+00 0. -1.
         21   -1    0    0  501  502  0.00000000000E+00 -0.00000000000E+00 -0.37201876927E+02  0.37201876927E+02  0.00000000000E+00 0. -1.
         24    2    1    2    0    0  0.99698335504E+01  0.10404523903E+01  0.22668532197E+03  0.23827875551E+03  0.72732729963E+02 0.  0.
         23    2    1    2    0    0  0.48426300196E+02 -0.59599759556E+02  0.35242411746E+03  0.37195143252E+03  0.90817793939E+02 0.  0.
        -13    1    3    3    0    0 -0.96337969541E+00 -0.33536090057E+02  0.72503283781E+02  0.79889446085E+02  0.00000000000E+00 0.  1.
         14    1    3    3    0    0  0.10933213246E+02  0.34576542448E+02  0.15418203819E+03  0.15838930942E+03  0.00000000000E+00 0. -1.
        -13    1    4    4    0    0 -0.23591209024E+02 -0.34556633243E+02  0.10442321921E+03  0.11249406542E+03  0.00000000000E+00 0.  1.
         13    1    4    4    0    0  0.72017509221E+02 -0.25043126314E+02  0.24800089826E+03  0.25945736711E+03  0.00000000000E+00 0. -1.
          1    1    1    2  501    0 -0.58396133747E+02  0.58559307166E+02  0.57365267489E+02  0.10064827274E+03  0.00000000000E+00 0. -1.
<scales pt_clust_5="13000.00000" pt_clust_6="13000.00000" pt_clust_7="13000.00000" pt_clust_8="13000.00000" pt_clust_9="81.58327"></scales>
<clustering>
<clus scale="   72.733">  5  6 -1 -1</clus>
<clus scale="   73.420">  1  5  2 -1</clus>
<clus scale="   81.583">  2  9  1 -1</clus>
<clus scale="   90.818">  7  8 -1 -1</clus>
<clus scale="   81.583">  2  5  1 -1</clus>
</clustering>
</event>
<event>
 9    2  0.1723348E-004  0.9604596E+02  0.7546771E-02  0.1296800E+00
          2   -1    0    0  502    0 -0.00000000000E+00  0.00000000000E+00  0.28430060655E+03  0.28430060655E+03  0.00000000000E+00 0. -1.
         21   -1    0    0  501  502  0.00000000000E+00 -0.00000000000E+00 -0.86200579577E+02  0.86200579577E+02  0.00000000000E+00 0. -1.
         24    2    1    2    0    0  0.35054333295E+02  0.10743691636E+02  0.17431215803E+03  0.19498064302E+03  0.79299996992E+02 0.  0.
         23    2    1    2    0    0  0.35848158810E+02  0.61241102896E+01  0.39304397763E+01  0.99982449264E+02  0.93050774242E+02 0.  0.
        -11    1    3    3    0    0 -0.21042096326E+00  0.38777010605E+02  0.10854521070E+03  0.11526388678E+03  0.00000000000E+00 0.  1.
         12    1    3    3    0    0  0.35264754259E+02 -0.28033318969E+02  0.65766947329E+02  0.79716756246E+02  0.00000000000E+00 0. -1.
        -13    1    4    4    0    0  0.83037674783E+00 -0.33346287959E+02  0.26491374368E+02  0.42596447764E+02  0.00000000000E+00 0.  1.
         13    1    4    4    0    0  0.35017782063E+02  0.39470398249E+02 -0.22560934591E+02  0.57386001500E+02  0.00000000000E+00 0. -1.
          1    1    1    2  501    0 -0.70902492106E+02 -0.16867801925E+02  0.19857429169E+02  0.75538093845E+02  0.00000000000E+00 0. -1.
<scales pt_clust_5="13000.00000" pt_clust_6="13000.00000" pt_clust_7="13000.00000" pt_clust_8="13000.00000" pt_clust_9="72.88132"></scales>
<clustering>
<clus scale="   72.881">  2  9  1 -1</clus>
<clus scale="   79.300">  5  6 -1 -1</clus>
<clus scale="   82.794">  1  5  2 -1</clus>
<clus scale="   93.051">  7  8 -1 -1</clus>
<clus scale="   72.881">  2  5  1 -1</clus>
</clustering>
</event>
<event>
 9    2  0.1723348E-004  0.3232170E+03  0.7546771E-02  0.1074493E+00
         21   -1    0    0  501  502  0.00000000000E+00  0.00000000000E+00  0.12576418663E+03  0.12576418663E+03  0.00000000000E+00 0.  1.
          2   -1    0    0  502    0 -0.00000000000E+00 -0.00000000000E+00 -0.20162222187E+04  0.20162222187E+04  0.00000000000E+00 0. -1.
         24    2    1    2    0    0  0.99672651437E+02  0.29397506851E+03 -0.15386097344E+04  0.15717037893E+04  0.81098139341E+02 0.  0.
         23    2    1    2    0    0 -0.71390929588E+02 -0.30141565039E+03 -0.39990380276E+03  0.51402828627E+03  0.91400046479E+02 0.  0.
        -13    1    3    3    0    0  0.20301123344E+02  0.14052192508E+03 -0.54525414162E+03  0.56343644361E+03  0.00000000000E+00 0.  1.
         14    1    3    3    0    0  0.79371528093E+02  0.15345314342E+03 -0.99335559274E+03  0.10082673457E+04  0.00000000000E+00 0. -1.
        -11    1    4    4    0    0  0.21670601887E+02 -0.40873630596E+02 -0.54788356219E+02  0.71707967768E+02  0.00000000000E+00 0. -1.
         11    1    4    4    0    0 -0.93061531475E+02 -0.26054201979E+03 -0.34511544654E+03  0.44232031850E+03  0.00000000000E+00 0.  1.
          1    1    1    2  501    0 -0.28281721849E+02  0.74405818796E+01  0.48055505071E+02  0.56254329762E+02  0.00000000000E+00 0. -1.
<scales pt_clust_5="13000.00000" pt_clust_6="13000.00000" pt_clust_7="13000.00000" pt_clust_8="13000.00000" pt_clust_9="29.24411"></scales>
<clustering>
<clus scale="   29.244">  1  9  2 -1</clus>
<clus scale="   81.098">  5  6 -1 -1</clus>
<clus scale="   91.400">  7  8 -1 -1</clus>
<clus scale="  320.456">  2  5  1 -1</clus>
<clus scale="   29.244">  1  5  2 -1</clus>
</clustering>
</event>
<event>
 9    2  0.1723348E-004  0.1294347E+03  0.7546771E-02  0.1252922E+00
          2   -1    0    0  502    0 -0.00000000000E+00  0.00000000000E+00  0.80549759375E+03  0.80549759375E+03  0.00000000000E+00 0. -1.
         21   -1    0    0  501  502  0.00000000000E+00 -0.00000000000E+00 -0.20453552403E+03  0.20453552403E+03  0.00000000000E+00 0. -1.
         24    2    1    2    0    0  0.11314807149E+02  0.68832840328E+01  0.72159758138E+03  0.72585839865E+03  0.77407628710E+02 0.  0.
         23    2    1    2    0    0  0.81887340259E+02 -0.67974867375E+00  0.10190083211E+02  0.12342503668E+03  0.91781824618E+02 0.  0.
        -11    1    3    3    0    0  0.15168385941E+02 -0.15785266718E+02  0.60128268386E+02  0.63989555683E+02  0.00000000000E+00 0.  1.
         12    1    3    3    0    0 -0.38535787916E+01  0.22668550750E+02  0.66146931299E+03  0.66186884297E+03  0.00000000000E+00 0. -1.
        -11    1    4    4    0    0  0.38485631896E+02 -0.39967211236E+02 -0.18158189213E+02  0.58380147926E+02  0.00000000000E+00 0.  1.
         11    1    4    4    0    0  0.43401708363E+02  0.39287462562E+02  0.28348272424E+02  0.65044888752E+02  0.00000000000E+00 0. -1.
          1    1    1    2  501    0 -0.93202147408E+02 -0.62035353590E+01 -0.13082559487E+03  0.16074968245E+03  0.00000000000E+00 0. -1.
<scales pt_clust_5="13000.00000" pt_clust_6="13000.00000" pt_clust_7="13000.00000" pt_clust_8="13000.00000" pt_clust_9="91.26580"></scales>
<clustering>
<clus scale="   77.408">  5  6 -1 -1</clus>
<clus scale="   78.532">  1  5  2 -1</clus>
<clus scale="   91.266">  2  9  1 -1</clus>
<clus scale="   91.782">  7  8 -1 -1</clus>
<clus scale="   91.266">  2  5  1 -1</clus>
</clustering>
</event>
<event>
 9    2  0.1723348E-004  0.1465217E+03  0.7546771E-02  0.1206851E+00
         21   -1    0    0  501  502  0.00000000000E+00  0.00000000000E+00  0.72651880501E+02  0.72651880501E+02  0.00000000000E+00 0. -1.
          2   -1    0    0  502    0 -0.00000000000E+00 -0.00000000000E+00 -0.36801096476E+03  0.36801096476E+03  0.00000000000E+00 0. -1.
         24    2    1    2    0    0  0.31486411755E+02 -0.10554617684E+03 -0.16344708140E+03  0.21190859928E+03  0.77839041993E+02 0.  0.
         23    2    1    2    0    0 -0.59023992563E+02  0.11366341148E+03 -0.12365625173E+03  0.19888176230E+03  0.88655986684E+02 0.  0.
        -11    1    3    3    0    0  0.54590099510E+02 -0.78836276837E+02 -0.95516059333E+02  0.13534605683E+03  0.00000000000E+00 0.  1.
         12    1    3    3    0    0 -0.23103687755E+02 -0.26709899999E+02 -0.67931022070E+02  0.76562542443E+02  0.00000000000E+00 0. -1.
        -13    1    4    4    0    0 -0.28522061012E+02  0.19108782467E+02 -0.86057289649E+02  0.92652634250E+02  0.00000000000E+00 0.  1.
         13    1    4    4    0    0 -0.30501931551E+02  0.94554629013E+02 -0.37598962085E+02  0.10622912805E+03  0.00000000000E+00 0. -1.
          1    1    1    2  501    0  0.27537580808E+02 -0.81172346438E+01 -0.82557511223E+01  0.29872483686E+02  0.00000000000E+00 0. -1.
<scales pt_clust_5="13000.00000" pt_clust_6="13000.00000" pt_clust_7="13000.00000" pt_clust_8="13000.00000" pt_clust_9="28.70902"></scales>
<clustering>
<clus scale="   28.709">  1  9  2 -1</clus>
<clus scale="   77.839">  5  6 -1 -1</clus>
<clus scale="   88.656">  7  8 -1 -1</clus>
<clus scale="  140.241">  2  5  1 -1</clus>
<clus scale="   28.709">  1  5  2 -1</clus>
</clustering>
</event>
<event>
 9    2  0.1723348E-004  0.1769746E+03  0.7546771E-02  0.1194049E+00
         -3   -1    0    0    0  501 -0.00000000000E+00  0.00000000000E+00  0.40819721977E+03  0.40819721977E+03  0.00000000000E+00 0.  1.
         21   -1    0    0  501  502  0.00000000000E+00 -0.00000000000E+00 -0.30564813710E+03  0.30564813710E+03  0.00000000000E+00 0.  1.
         23    2    1    2    0    0  0.46204993544E+02  0.32287958108E+02 -0.14567621837E+03  0.17961857144E+03  0.88678390486E+02 0.  0.
         24    2    1    2    0    0 -0.19003756788E+03 -0.73515524351E+02  0.30353660416E+03  0.37470605979E+03  0.82166609140E+02 0.  0.
        -13    1    4    4    0    0 -0.10432347639E+03 -0.66157754704E+00  0.11595197828E+03  0.15597655810E+03  0.00000000000E+00 0.  1.
         14    1    4    4    0    0 -0.85714091492E+02 -0.72853946804E+02  0.18758462588E+03  0.21872950169E+03  0.00000000000E+00 0. -1.
        -13    1    3    3    0    0  0.54915630199E+02 -0.13436284351E+02 -0.96971060402E+02  0.11224814801E+03  0.00000000000E+00 0.  1.
         13    1    3    3    0    0 -0.87106366548E+01  0.45724242459E+02 -0.48705157970E+02  0.67370423424E+02  0.00000000000E+00 0. -1.
         -4    1    1    2    0  502  0.14383257433E+03  0.41227566243E+02 -0.55311303116E+02  0.15952072564E+03  0.00000000000E+00 0.  1.
<scales pt_clust_5="13000.00000" pt_clust_6="13000.00000" pt_clust_7="13000.00000" pt_clust_8="13000.00000" pt_clust_9="156.74396"></scales>
<clustering>
<clus scale="   82.167">  5  6 -1 -1</clus>
<clus scale="   88.678">  7  8 -1 -1</clus>
<clus scale="  105.078">  1  7  2 -1</clus>
<clus scale="  156.744">  2  9  1 -1</clus>
<clus scale="  156.744">  2  5  1 -1</clus>
</clustering>
</event>
<event>
 9    2  0.1723348E-004  0.9466369E+02  0.7546771E-02  0.1298203E+00
         21   -1    0    0  501  502  0.00000000000E+00  0.00000000000E+00  0.29089246786E+02  0.29089246786E+02  0.00000000000E+00 0. -1.
          2   -1    0    0  502    0 -0.00000000000E+00 -0.00000000000E+00 -0.41797335572E+03  0.41797335572E+03  0.00000000000E+00 0. -1.
         24    2    1    2    0    0  0.37939820268E+01  0.24300871439E+02 -0.19174848946E+03  0.20954223723E+03  0.80842682527E+02 0.  0.
         23    2    1    2    0    0 -0.23823460182E+02 -0.15363306944E+02 -0.10252517131E+03  0.14040086695E+03  0.91637351736E+02 0.  0.
        -11    1    3    3    0    0  0.21345018101E+02 -0.17685709687E+02 -0.27272337568E+02  0.38886688227E+02  0.00000000000E+00 0.  1.
         12    1    3    3    0    0 -0.17551036074E+02  0.41986581126E+02 -0.16447615190E+03  0.17065554900E+03  0.00000000000E+00 0. -1.
        -13    1    4    4    0    0  0.67885981189E+01 -0.45729982467E+02 -0.78335537988E+02  0.90960281842E+02  0.00000000000E+00 0.  1.
         13    1    4    4    0    0 -0.30612058300E+02  0.30366675523E+02 -0.24189633321E+02  0.49440585109E+02  0.00000000000E+00 0. -1.
          1    1    1    2  501    0  0.20029478155E+02 -0.89375644945E+01 -0.94610448165E+02  0.97119498332E+02  0.00000000000E+00 0. -1.
<scales pt_clust_5="13000.00000" pt_clust_6="13000.00000" pt_clust_7="13000.00000" pt_clust_8="13000.00000" pt_clust_9="21.93309"></scales>
<clustering>
<clus scale="   21.933">  1  9  2 -1</clus>
<clus scale="   80.843">  5  6 -1 -1</clus>
<clus scale="   84.258">  2  5  1 -1</clus>
<clus scale="   91.637">  7  8 -1 -1</clus>
<clus scale="   21.933">  1  5  2 -1</clus>
</clustering>
</event>
<event>
 9    2  0.1723348E-004  0.1915649E+03  0.7546771E-02  0.1158172E+00
          2   -1    0    0  502    0 -0.00000000000E+00  0.00000000000E+00  0.63686318268E+03  0.63686318268E+03  0.00000000000E+00 0. -1.
         21   -1    0    0  501  502  0.00000000000E+00 -0.00000000000E+00 -0.34373853208E+03  0.34373853208E+03  0.00000000000E+00 0. -1.
         24    2    1    2    0    0 -0.10541901009E+03 -0.13495056507E+03  0.56641341207E+03  0.59715127590E+03  0.80253786431E+02 0.  0.
         23    2    1    2    0    0  0.14151730172E+03  0.59456308913E+02 -0.14357001692E+03  0.22908262466E+03  0.91127931000E+02 0.  0.
        -13    1    3    3    0    0 -0.12608810361E+02 -0.34940938905E+02  0.45874039702E+02  0.59027780145E+02  0.00000000000E+00 0.  1.
         14    1    3    3    0    0 -0.92810199731E+02 -0.10000962616E+03  0.52053937237E+03  0.53812349576E+03  0.00000000000E+00 0. -1.
        -13    1    4    4    0    0  0.82070121636E+02  0.70669698257E+02 -0.54058694525E+02  0.12104566730E+03  0.00000000000E+00 0. -1.
         13    1    4    4    0    0  0.59447180079E+02 -0.11213389344E+02 -0.89511322391E+02  0.10803695736E+03  0.00000000000E+00 0.  1.
          1    1    1    2  501    0 -0.36098291624E+02  0.75494256152E+02 -0.12971874456E+03  0.15436781420E+03  0.00000000000E+00 0. -1.
<scales pt_clust_5="13000.00000" pt_clust_6="13000.00000" pt_clust_7="13000.00000" pt_clust_8="13000.00000" pt_clust_9="83.68076"></scales>
<clustering>
<clus scale="   80.254">  5  6 -1 -1</clus>
<clus scale="   83.681">  2  9  1 -1</clus>
<clus scale="   91.128">  7  8 -1 -1</clus>
<clus scale="  186.637">  1  5  2 -1</clus>
<clus scale="   83.681">  2  5  1 -1</clus>
</clustering>
</event>
<event>
 9    2  0.1723348E-004  0.9818409E+02  0.7546771E-02  0.1289340E+00
         21   -1    0    0  501  502  0.00000000000E+00  0.00000000000E+00  0.11884543897E+03  0.11884543897E+03  0.00000000000E+00 0. -1.
         -1   -1    0    0    0  501 -0.00000000000E+00 -0.00000000000E+00 -0.35144994389E+03  0.35144994389E+03  0.00000000000E+00 0.  1.
         23    2    1    2    0    0 -0.12363357531E+02 -0.52700346061E+02 -0.97844474163E+02  0.14384549190E+03  0.90486492540E+02 0.  0.
         24    2    1    2    0    0  0.82616465914E+01 -0.26562884910E+02  0.67822478438E+02  0.10887425619E+03  0.80497660962E+02 0.  0.
        -11    1    4    4    0    0 -0.10567494037E+02 -0.31066590614E+02 -0.52931309503E+01  0.33238866073E+02  0.00000000000E+00 0.  1.
         12    1    4    4    0    0  0.18829140629E+02  0.45037057036E+01  0.73115609388E+02  0.75635390117E+02  0.00000000000E+00 0. -1.
        -11    1    3    3    0    0 -0.48520950591E+02 -0.47923398961E+02 -0.71820870867E+02  0.99041265674E+02  0.00000000000E+00 0.  1.
         11    1    3    3    0    0  0.36157593060E+02 -0.47769471001E+01 -0.26023603296E+02  0.44804226229E+02  0.00000000000E+00 0. -1.
         -2    1    1    2    0  502  0.41017109393E+01  0.79263230971E+02 -0.20258250919E+03  0.21757563477E+03  0.00000000000E+00 0.  1.
<scales pt_clust_5="13000.00000" pt_clust_6="13000.00000" pt_clust_7="13000.00000" pt_clust_8="13000.00000" pt_clust_9="79.36933"></scales>
<clustering>
<clus scale="   79.369">  1  9  2 -1</clus>
<clus scale="   80.498">  5  6 -1 -1</clus>
<clus scale="   89.063">  1  5  2 -1</clus>
<clus scale="   90.486">  7  8 -1 -1</clus>
<clus scale="   79.369">  1  5  2 -1</clus>
</clustering>
</event>
<event>
 9    2  0.1723348E-004  0.1006096E+03  0.7546771E-02  0.1284403E+00
         21   -1    0    0  501  502  0.00000000000E+00  0.00000000000E+00  0.54105881450E+02  0.54105881450E+02  0.00000000000E+00 0.  1.
         -1   -1    0    0    0  501 -0.00000000000E+00 -0.00000000000E+00 -0.49284623543E+03  0.49284623543E+03  0.00000000000E+00 0.  1.
         23    2    1    2    0    0 -0.63613783042E+01 -0.35541733030E+02 -0.29160609723E+03  0.30779644251E+03  0.91656162677E+02 0.  0.
         24    2    1    2    0    0  0.28964190979E+01  0.70860441095E+02 -0.22866741756E+02  0.10992010511E+03  0.80808107712E+02 0.  0.
        -11    1    4    4    0    0  0.84053772632E+01  0.87981984083E+02 -0.12788622459E+02  0.89303016491E+02  0.00000000000E+00 0.  1.
         12    1    4    4    0    0 -0.55089581653E+01 -0.17121542988E+02 -0.10078119297E+02  0.20617088614E+02  0.00000000000E+00 0. -1.
        -13    1    3    3    0    0  0.34059381026E+02  0.82375116725E+01 -0.69467288760E+02  0.77804898574E+02  0.00000000000E+00 0. -1.
         13    1    3    3    0    0 -0.40420759330E+02 -0.43779244703E+02 -0.22213880847E+03  0.22999154393E+03  0.00000000000E+00 0.  1.
         -2    1    1    2    0  502  0.34649592063E+01 -0.35318708065E+02 -0.12426751499E+03  0.12923556927E+03  0.00000000000E+00 0.  1.
<scales pt_clust_5="13000.00000" pt_clust_6="13000.00000" pt_clust_7="13000.00000" pt_clust_8="13000.00000" pt_clust_9="35.48828"></scales>
<clustering>
<clus scale="   35.488">  1  9  2 -1</clus>
<clus scale="   80.808">  5  6 -1 -1</clus>
<clus scale="   90.837">  1  5  2 -1</clus>
<clus scale="   91.656">  7  8 -1 -1</clus>
<clus scale="   35.488">  1  5  2 -1</clus>
</clustering>
</event>
<event>
 9    2  0.1723348E-004  0.1543963E+03  0.7546771E-02  0.1196161E+00
         21   -1    0    0  501  502  0.00000000000E+00  0.00000000000E+00  0.15999606587E+03  0.15999606587E+03  0.00000000000E+00 0. -1.
         -1   -1    0    0    0  501 -0.00000000000E+00 -0.00000000000E+00 -0.27841130327E+03  0.27841130327E+03  0.00000000000E+00 0.  1.
         23    2    1    2    0    0  0.12395061868E+03  0.56925116476E+02 -0.45688882500E+02  0.17062518510E+03  0.91767396437E+02 0.  0.
         24    2    1    2    0    0 -0.12180036810E+03  0.31822185833E+02  0.79940749471E+00  0.15251404022E+03  0.86092463272E+02 0.  0.
        -11    1    4    4    0    0 -0.54392761251E+02 -0.28101430806E+02  0.92868647898E+01  0.61923410335E+02  0.00000000000E+00 0.  1.
         12    1    4    4    0    0 -0.67407606848E+02  0.59923616639E+02 -0.84874572951E+01  0.90590629887E+02  0.00000000000E+00 0. -1.
        -11    1    3    3    0    0  0.72239916388E+02 -0.78311073158E+01 -0.49080972347E+02  0.87686222453E+02  0.00000000000E+00 0. -1.
         11    1    3    3    0    0  0.51710702293E+02  0.64756223791E+02  0.33920898463E+01  0.82938962646E+02  0.00000000000E+00 0.  1.
         -2    1    1    2    0  502 -0.21502505825E+01 -0.88747302309E+02 -0.73525762396E+02  0.11526814382E+03  0.00000000000E+00 0.  1.
<scales pt_clust_5="13000.00000" pt_clust_6="13000.00000" pt_clust_7="13000.00000" pt_clust_8="13000.00000" pt_clust_9="88.77339"></scales>
<clustering>
<clus scale="   86.092">  5  6 -1 -1</clus>
<clus scale="   88.773">  1  9  2 -1</clus>
<clus scale="   91.767">  7  8 -1 -1</clus>
<clus scale="  151.092">  1  5  2 -1</clus>
<clus scale="   88.773">  1  5  2 -1</clus>
</clustering>
</event>
<event>
 9    2  0.1723348E-004  0.1282850E+03  0.7546771E-02  0.1248290E+00
         21   -1    0    0  501  502  0.00000000000E+00  0.00000000000E+00  0.11629663111E+04  0.11629663111E+04  0.00000000000E+00 0. -1.
         -1   -1    0    0    0  501 -0.00000000000E+00 -0.00000000000E+00 -0.37360991603E+02  0.37360991603E+02  0.00000000000E+00 0.  1.
         24    2    1    2    0    0  0.84093181536E+01  0.38611586848E+02  0.58465525445E+03  0.59131182243E+03  0.79160176357E+02 0.  0.
         23    2    1    2    0    0 -0.12587902630E+02  0.53404484252E+02  0.70903990864E+02  0.13002933249E+03  0.94179388175E+02 0.  0.
        -11    1    3    3    0    0 -0.12913675542E+02  0.50402219740E+02  0.22960236281E+03  0.23542385558E+03  0.00000000000E+00 0.  1.
         12    1    3    3    0    0  0.21322993695E+02 -0.11790632892E+02  0.35505289164E+03  0.35588796685E+03  0.00000000000E+00 0. -1.
        -13    1    4    4    0    0 -0.52449976202E+02  0.42270031105E+02  0.39643680471E+02  0.78162503379E+02  0.00000000000E+00 0.  1.
         13    1    4    4    0    0  0.39862073572E+02  0.11134453147E+02  0.31260310392E+02  0.51866829113E+02  0.00000000000E+00 0. -1.
         -2    1    1    2    0  502  0.41785844760E+01 -0.92016071100E+02  0.47004607419E+03  0.47898614779E+03  0.00000000000E+00 0.  1.
<scales pt_clust_5="13000.00000" pt_clust_6="13000.00000" pt_clust_7="13000.00000" pt_clust_8="13000.00000" pt_clust_9="87.10498"></scales>
<clustering>
<clus scale="   79.160">  5  6 -1 -1</clus>
<clus scale="   88.475">  2  5  1 -1</clus>
<clus scale="   87.105">  1  9  2 -1</clus>
<clus scale="   94.179">  7  8 -1 -1</clus>
<clus scale="   87.105">  1  5  2 -1</clus>
</clustering>
</event>
<event>
 9    2  0.1723348E-004  0.9589277E+02  0.7546771E-02  0.1296161E+00
         -3   -1    0    0    0  501 -0.00000000000E+00  0.00000000000E+00  0.17178099209E+03  0.17178099209E+03  0.00000000000E+00 0.  1.
         21   -1    0    0  501  502  0.00000000000E+00 -0.00000000000E+00 -0.10715727610E+03  0.10715727610E+03  0.00000000000E+00 0. -1.
         23    2    1    2    0    0  0.60168389208E+01 -0.39543540327E+02  0.93700616987E+02  0.13741713624E+03  0.92215886795E+02 0.  0.
         24    2    1    2    0    0 -0.44268772432E+01 -0.13309039689E+02 -0.34804362568E+02  0.88335353685E+02  0.79969139531E+02 0.  0.
        -13    1    4    4    0    0 -0.27846624942E+02  0.86953974308E+01  0.12013830557E+02  0.31549589249E+02  0.00000000000E+00 0.  1.
         14    1    4    4    0    0  0.23419747699E+02 -0.22004437119E+02 -0.46818193124E+02  0.56785764437E+02  0.00000000000E+00 0. -1.
        -13    1    3    3    0    0  0.17273344236E+02 -0.67060249753E+02  0.53979858941E+02  0.87802452638E+02  0.00000000000E+00 0.  1.
         13    1    3    3    0    0 -0.11256505315E+02  0.27516709425E+02  0.39720758045E+02  0.49614683605E+02  0.00000000000E+00 0. -1.
         -4    1    1    2    0  502 -0.15899616776E+01  0.52852580016E+02  0.57274615706E+01  0.53185778254E+02  0.00000000000E+00 0.  1.
<scales pt_clust_5="13000.00000" pt_clust_6="13000.00000" pt_clust_7="13000.00000" pt_clust_8="13000.00000" pt_clust_9="52.87649"></scales>
<clustering>
<clus scale="   52.876">  2  9  1 -1</clus>
<clus scale="   79.969">  5  6 -1 -1</clus>
<clus scale="   84.183">  2  5  1 -1</clus>
<clus scale="   92.216">  7  8 -1 -1</clus>
<clus scale="   52.876">  2  5  1 -1</clus>
</clustering>
</event>
<event>
 9    2  0.1723348E-004  0.1050795E+03  0.7546771E-02  0.1274999E+00
         -1   -1    0    0    0  501 -0.00000000000E+00  0.00000000000E+00  0.22982464343E+03  0.22982464343E+03  0.00000000000E+00 0.  1.
         21   -1    0    0  501  502  0.00000000000E+00 -0.00000000000E+00 -0.13479154376E+03  0.13479154376E+03  0.00000000000E+00 0. -1.
         24    2    1    2    0    0  0.27319163618E+02 -0.43495920277E+02  0.18068182611E+03  0.20459392634E+03  0.81083417709E+02 0.  0.
         23    2    1    2    0    0 -0.69784935539E+01  0.45602829529E+02 -0.41244488096E+02  0.11113547012E+03  0.92312878232E+02 0.  0.
        -11    1    3    3    0    0  0.28736700740E+02 -0.35808769411E+02  0.18821728328E+03  0.19373644898E+03  0.00000000000E+00 0.  1.
         12    1    3    3    0    0 -0.14175371220E+01 -0.76871508654E+01 -0.75354571715E+01  0.10857477364E+02  0.00000000000E+00 0. -1.
        -11    1    4    4    0    0 -0.34619158753E+02 -0.56007804538E+01  0.67440884762E+01  0.35711869509E+02  0.00000000000E+00 0.  1.
         11    1    4    4    0    0  0.27640665199E+02  0.51203609983E+02 -0.47988576572E+02  0.75423600613E+02  0.00000000000E+00 0. -1.
         -2    1    1    2    0  502 -0.20340670064E+02 -0.21069092527E+01 -0.44404238344E+02  0.48886790733E+02  0.00000000000E+00 0.  1.
<scales pt_clust_5="13000.00000" pt_clust_6="13000.00000" pt_clust_7="13000.00000" pt_clust_8="13000.00000" pt_clust_9="20.44950"></scales>
<clustering>
<clus scale="   20.449">  2  9  1 -1</clus>
<clus scale="   81.083">  5  6 -1 -1</clus>
<clus scale="   92.313">  7  8 -1 -1</clus>
<clus scale="   95.365">  1  5  2 -1</clus>
<clus scale="   20.449">  2  5  1 -1</clus>
</clustering>
</event>
<event>
 9    2  0.1723348E-004  0.2459737E+03  0.7546771E-02  0.1137787E+00
          2   -1    0    0  502    0 -0.00000000000E+00  0.00000000000E+00  0.49825714634E+03  0.49825714634E+03  0.00000000000E+00 0. -1.
         21   -1    0    0  501  502  0.00000000000E+00 -0.00000000000E+00 -0.25918692829E+03  0.25918692829E+03  0.00000000000E+00 0. -1.
         23    2    1    2    0    0  0.10875548165E+03 -0.18637255068E+02  0.21801219022E+03  0.26081468357E+03  0.91213387270E+02 0.  0.
         24    2    1    2    0    0 -0.23812527742E+03 -0.11659912824E+03 -0.69904893154E+02  0.28854364810E+03  0.89842853461E+02 0.  0.
        -11    1    4    4    0    0 -0.60393343645E+02 -0.55045046898E+02 -0.57750507867E+02  0.10006215220E+03  0.00000000000E+00 0.  1.
         12    1    4    4    0    0 -0.17773193377E+03 -0.61554081346E+02 -0.12154385287E+02  0.18848149589E+03  0.00000000000E+00 0. -1.
        -13    1    3    3    0    0  0.65848851303E+02 -0.49881877091E+02  0.17100958175E+03  0.18991721862E+03  0.00000000000E+00 0. -1.
         13    1    3    3    0    0  0.42906630351E+02  0.31244622022E+02  0.47002608475E+02  0.70897464954E+02  0.00000000000E+00 0.  1.
          1    1    1    2  501    0  0.12936979576E+03  0.13523638331E+03  0.90962920994E+02  0.20808574296E+03  0.00000000000E+00 0. -1.
<scales pt_clust_5="13000.00000" pt_clust_6="13000.00000" pt_clust_7="13000.00000" pt_clust_8="13000.00000" pt_clust_9="228.97896"></scales>
<clustering>
<clus scale="   89.843">  5  6 -1 -1</clus>
<clus scale="   91.213">  7  8 -1 -1</clus>
<clus scale="  143.161">  1  7  2 -1</clus>
<clus scale="  228.979">  2  9  1 -1</clus>
<clus scale="  228.979">  2  5  1 -1</clus>
</clustering>
</event>
<event>
 9    2  0.1723348E-004  0.1640444E+03  0.7546771E-02  0.1203124E+00
         21   -1    0    0  501  502  0.00000000000E+00  0.00000000000E+00  0.87910304144E+03  0.87910304144E+03  0.00000000000E+00 0.  1.
         -1   -1    0    0    0  501 -0.00000000000E+00 -0.00000000000E+00 -0.70886388277E+02  0.70886388277E+02  0.00000000000E+00 0.  1.
         24    2    1    2    0    0 -0.15917266046E+02  0.69826635553E+02  0.35186513179E+03  0.36814893280E+03  0.81212359676E+02 0.  0.
         23    2    1    2    0    0 -0.50558302242E+02  0.63658465069E+02  0.25619445302E+02  0.12602540872E+03  0.92830520654E+02 0.  0.
        -13    1    3    3    0    0 -0.41304991539E+02  0.69233521542E+02  0.23155474674E+03  0.24518764971E+03  0.00000000000E+00 0.  1.
         14    1    3    3    0    0  0.25387725493E+02  0.59311401115E+00  0.12031038505E+03  0.12296128309E+03  0.00000000000E+00 0. -1.
        -11    1    4    4    0    0 -0.49897033854E+02 -0.45199238941E+01 -0.67432091406E+01  0.50553086641E+02  0.00000000000E+00 0. -1.
         11    1    4    4    0    0 -0.66126838864E+00  0.68178388963E+02  0.32362654443E+02  0.75472322079E+02  0.00000000000E+00 0.  1.
         -2    1    1    2    0  502  0.66475568289E+02 -0.13348510062E+03  0.43073207608E+03  0.45581508820E+03  0.00000000000E+00 0.  1.
<scales pt_clust_5="13000.00000" pt_clust_6="13000.00000" pt_clust_7="13000.00000" pt_clust_8="13000.00000" pt_clust_9="135.25188"></scales>
<clustering>
<clus scale="   81.212">  5  6 -1 -1</clus>
<clus scale="   92.831">  7  8 -1 -1</clus>
<clus scale="  108.280">  2  5  1 -1</clus>
<clus scale="  135.252">  1  9  2 -1</clus>
<clus scale="  135.252">  1  5  2 -1</clus>
</clustering>
</event>
<event>
 9    2  0.1723348E-004  0.1015154E+03  0.7546771E-02  0.1284141E+00
         21   -1    0    0  501  502  0.00000000000E+00  0.00000000000E+00  0.35291396641E+03  0.35291396641E+03  0.00000000000E+00 0.  1.
         -1   -1    0    0    0  501 -0.00000000000E+00 -0.00000000000E+00 -0.17608178562E+03  0.17608178562E+03  0.00000000000E+00 0.  1.
         23    2    1    2    0    0 -0.35691393135E+02 -0.33813998056E+02 -0.11942824804E+03  0.15886781673E+03  0.92512781572E+02 0.  0.
         24    2    1    2    0    0 -0.10008085414E+02  0.36636797721E+02  0.19093226339E+02  0.89204335945E+02  0.78424776304E+02 0.  0.
        -11    1    4    4    0    0 -0.62220240136E+01  0.31072813459E+02 -0.27602964930E+02  0.42025670631E+02  0.00000000000E+00 0.  1.
         12    1    4    4    0    0 -0.37860614006E+01  0.55639842627E+01  0.46696191269E+02  0.47178665314E+02  0.00000000000E+00 0. -1.
        -13    1    3    3    0    0  0.50401796701E+01 -0.32139519041E+02  0.14894754250E+00  0.32532664826E+02  0.00000000000E+00 0. -1.
         13    1    3    3    0    0 -0.40731572805E+02 -0.16744790147E+01 -0.11957719558E+03  0.12633515191E+03  0.00000000000E+00 0.  1.
         -2    1    1    2    0  502  0.45699478550E+02 -0.28227996657E+01  0.27716720249E+03  0.28092359936E+03  0.00000000000E+00 0.  1.
<scales pt_clust_5="13000.00000" pt_clust_6="13000.00000" pt_clust_7="13000.00000" pt_clust_8="13000.00000" pt_clust_9="45.78658"></scales>
<clustering>
<clus scale="   45.787">  1  9  2 -1</clus>
<clus scale="   78.425">  5  6 -1 -1</clus>
<clus scale="   88.866">  1  5  2 -1</clus>
<clus scale="   92.513">  7  8 -1 -1</clus>
<clus scale="   45.787">  1  5  2 -1</clus>
</clustering>
</event>
<event>
 9    2  0.1723348E-004  0.3663563E+03  0.7546771E-02  0.1088193E+00
          2   -1    0    0  502    0 -0.00000000000E+00  0.00000000000E+00  0.11663763803E+04  0.11663763803E+04  0.00000000000E+00 0. -1.
         21   -1    0    0  501  502  0.00000000000E+00 -0.00000000000E+00 -0.18155687260E+03  0.18155687260E+03  0.00000000000E+00 0. -1.
         24    2    1    2    0    0 -0.71831818790E+02  0.10715745397E+03  0.15380632880E+03  0.21644399995E+03  0.80926436975E+02 0.  0.
         23    2    1    2    0    0 -0.29631610969E+03 -0.15870893441E+03  0.60008669597E+03  0.69386213670E+03  0.91372092817E+02 0.  0.
        -13    1    3    3    0    0 -0.82233417121E+02  0.88666436442E+02  0.94552474217E+02  0.15350648919E+03  0.00000000000E+00 0.  1.
         14    1    3    3    0    0  0.10401598331E+02  0.18491017530E+02  0.59253854588E+02  0.62937510760E+02  0.00000000000E+00 0. -1.
        -13    1    4    4    0    0 -0.48747950879E+02 -0.47997558208E+02  0.19252074844E+03  0.20431438248E+03  0.00000000000E+00 0.  1.
         13    1    4    4    0    0 -0.24756815881E+03 -0.11071137620E+03  0.40756594753E+03  0.48954775422E+03  0.00000000000E+00 0. -1.
          1    1    1    2  501    0  0.36814792848E+03  0.51551480437E+02  0.23092648296E+03  0.43762711629E+03  0.00000000000E+00 0. -1.
<scales pt_clust_5="13000.00000" pt_clust_6="13000.00000" pt_clust_7="13000.00000" pt_clust_8="13000.00000" pt_clust_9="354.77889"></scales>
<clustering>
<clus scale="   80.926">  5  6 -1 -1</clus>
<clus scale="   91.372">  7  8 -1 -1</clus>
<clus scale="  152.288">  1  5  2 -1</clus>
<clus scale="  354.779">  2  9  1 -1</clus>
<clus scale="  354.779">  2  5  1 -1</clus>
</clustering>
</event>
<event>
 9    2  0.1723348E-004  0.2044625E+03  0.7546771E-02  0.1146913E+00
          2   -1    0    0  502    0 -0.00000000000E+00  0.00000000000E+00  0.71692694527E+03  0.71692694527E+03  0.00000000000E+00 0. -1.
         21   -1    0    0  501  502  0.00000000000E+00 -0.00000000000E+00 -0.13745665581E+03  0.13745665581E+03  0.00000000000E+00 0.  1.
         24    2    1    2    0    0 -0.18218165899E+03  0.35198213317E+02  0.54406785563E+03  0.58047400522E+03  0.80691809421E+02 0.  0.
         23    2    1    2    0    0  0.15670325769E+03 -0.75604936039E+02 -0.23977021617E+02  0.19770085685E+03  0.90767361475E+02 0.  0.
        -11    1    3    3    0    0 -0.58245543950E+02  0.50570618094E+02  0.22367545737E+03  0.23660228451E+03  0.00000000000E+00 0.  1.
         12    1    3    3    0    0 -0.12393611504E+03 -0.15372404777E+02  0.32039239826E+03  0.34387172071E+03  0.00000000000E+00 0. -1.
        -11    1    4    4    0    0  0.12271067361E+03 -0.11731655614E+02 -0.22647315203E+02  0.12533332377E+03  0.00000000000E+00 0.  1.
         11    1    4    4    0    0  0.33992584079E+02 -0.63873280425E+02 -0.13297064137E+01  0.72367533077E+02  0.00000000000E+00 0. -1.
          1    1    1    2  501    0  0.25478401292E+02  0.40406722722E+02  0.59379455440E+02  0.76208739012E+02  0.00000000000E+00 0. -1.
<scales pt_clust_5="13000.00000" pt_clust_6="13000.00000" pt_clust_7="13000.00000" pt_clust_8="13000.00000" pt_clust_9="47.76876"></scales>
<clustering>
<clus scale="   47.769">  2  9  1 -1</clus>
<clus scale="   80.692">  5  6 -1 -1</clus>
<clus scale="   90.767">  7  8 -1 -1</clus>
<clus scale="  200.193">  1  5  2 -1</clus>
<clus scale="   47.769">  2  5  1 -1</clus>
</clustering>
</event>
<event>
 9    2  0.1723348E-004  0.1434910E+03  0.7546771E-02  0.1232935E+00
         -3   -1    0    0    0  501 -0.00000000000E+00  0.00000000000E+00  0.37773198401E+03  0.37773198401E+03  0.00000000000E+00 0.  1.
         21   -1    0    0  501  502  0.00000000000E+00 -0.00000000000E+00 -0.17332907449E+03  0.17332907449E+03  0.00000000000E+00 0.  1.
         24    2    1    2    0    0  0.35106294759E+02 -0.48284451466E+01  0.69602169360E+02  0.11089557932E+03  0.78724848169E+02 0.  0.
         23    2    1    2    0    0  0.73522562795E+02 -0.75836099864E+02 -0.97572145435E+02  0.17127115891E+03  0.93041953039E+02 0.  0.
        -13    1    3    3    0    0  0.50748590729E+02  0.58003381274E+01  0.75437857595E+02  0.91103972153E+02  0.00000000000E+00 0.  1.
         14    1    3    3    0    0 -0.15642295971E+02 -0.10628783274E+02 -0.58356882357E+01  0.19791607168E+02  0.00000000000E+00 0. -1.
        -11    1    4    4    0    0 -0.62442733088E+01 -0.55981500026E+02 -0.25033599155E+02  0.61640898607E+02  0.00000000000E+00 0. -1.
         11    1    4    4    0    0  0.79766836104E+02 -0.19854599837E+02 -0.72538546280E+02  0.10963026030E+03  0.00000000000E+00 0.  1.
         -4    1    1    2    0  502 -0.10862885755E+03  0.80664545010E+02  0.23237288559E+03  0.26889432027E+03  0.00000000000E+00 0.  1.
<scales pt_clust_5="13000.00000" pt_clust_6="13000.00000" pt_clust_7="13000.00000" pt_clust_8="13000.00000" pt_clust_9="109.23776"></scales>
<clustering>
<clus scale="   78.725">  5  6 -1 -1</clus>
<clus scale="   86.333">  1  5  2 -1</clus>
<clus scale="   93.042">  7  8 -1 -1</clus>
<clus scale="  109.238">  2  9  1 -1</clus>
<clus scale="  109.238">  2  5  1 -1</clus>
</clustering>
</event>
<event>
 9    2  0.1723348E-004  0.3175120E+03  0.7546771E-02  0.1077514E+00
         21   -1    0    0  501  502  0.00000000000E+00  0.00000000000E+00  0.17404613578E+03  0.17404613578E+03  0.00000000000E+00 0. -1.
          2   -1    0    0  502    0 -0.00000000000E+00 -0.00000000000E+00 -0.11787616194E+04  0.11787616194E+04  0.00000000000E+00 0. -1.
         24    2    1    2    0    0  0.23778784150E+03  0.20018614668E+03 -0.95299880442E+03  0.10057721265E+04  0.82178454348E+02 0.  0.
         23    2    1    2    0    0 -0.18711897614E+03 -0.16313366813E+03 -0.49376413977E+01  0.26875090180E+03  0.10284241347E+03 0.  0.
        -13    1    3    3    0    0  0.65345289363E+02  0.12711534075E+02 -0.21297342452E+03  0.22313509247E+03  0.00000000000E+00 0.  1.
         14    1    3    3    0    0  0.17244255214E+03  0.18747461261E+03 -0.74002537990E+03  0.78263703404E+03  0.00000000000E+00 0. -1.
        -11    1    4    4    0    0 -0.71627655169E+02 -0.23233743658E+02  0.34932238610E+02  0.83009572483E+02  0.00000000000E+00 0. -1.
         11    1    4    4    0    0 -0.11549132097E+03 -0.13989992447E+03 -0.39869880008E+02  0.18574132932E+03  0.00000000000E+00 0.  1.
          1    1    1    2  501    0 -0.50668865363E+02 -0.37052478555E+02 -0.46779037844E+02  0.78284726900E+02  0.00000000000E+00 0. -1.
<scales pt_clust_5="13000.00000" pt_clust_6="13000.00000" pt_clust_7="13000.00000" pt_clust_8="13000.00000" pt_clust_9="62.77117"></scales>
<clustering>
<clus scale="   62.771">  1  9  2 -1</clus>
<clus scale="   82.178">  5  6 -1 -1</clus>
<clus scale="  102.842">  7  8 -1 -1</clus>
<clus scale="  311.433">  2  5  1 -1</clus>
<clus scale="   62.771">  1  5  2 -1</clus>
</clustering>
</event>
<event>
 9    2  0.1723348E-004  0.1170831E+03  0.7546771E-02  0.1253082E+00
         21   -1    0    0  501  502  0.00000000000E+00  0.00000000000E+00  0.13839210269E+03  0.13839210269E+03  0.00000000000E+00 0. -1.
          2   -1    0    0  502    0 -0.00000000000E+00 -0.00000000000E+00 -0.26526338669E+03  0.26526338669E+03  0.00000000000E+00 0. -1.
         24    2    1    2    0    0  0.37129096825E+02 -0.75211014251E+02 -0.10812520753E+03  0.15892893695E+03  0.80821284336E+02 0.  0.
         23    2    1    2    0    0 -0.75888108532E+02 -0.24704493123E+01 -0.73389659930E+02  0.14214686641E+03  0.95155563728E+02 0.  0.
        -11    1    3    3    0    0  0.48383779337E+02 -0.26613664929E+02 -0.22082780653E+02  0.59472064579E+02  0.00000000000E+00 0.  1.
         12    1    3    3    0    0 -0.11254682512E+02 -0.48597349322E+02 -0.86042426877E+02  0.99456872374E+02  0.00000000000E+00 0. -1.
        -13    1    4    4    0    0 -0.39212848273E+02 -0.48818145125E+02 -0.36593922291E+02  0.72525677603E+02  0.00000000000E+00 0.  1.
         13    1    4    4    0    0 -0.36675260259E+02  0.46347695812E+02 -0.36795737639E+02  0.69621188805E+02  0.00000000000E+00 0. -1.
          1    1    1    2  501    0  0.38759011707E+02  0.77681463563E+02  0.54643583466E+02  0.10257968602E+03  0.00000000000E+00 0. -1.
<scales pt_clust_5="13000.00000" pt_clust_6="13000.00000" pt_clust_7="13000.00000" pt_clust_8="13000.00000" pt_clust_9="86.81400"></scales>
<clustering>
<clus scale="   80.821">  5  6 -1 -1</clus>
<clus scale="   86.814">  1  9  2 -1</clus>
<clus scale="   95.156">  7  8 -1 -1</clus>
<clus scale="  105.764">  2  5  1 -1</clus>
<clus scale="   86.814">  1  5  2 -1</clus>
</clustering>
</event>
<event>
 9    2  0.1723348E-004  0.1120862E+03  0.7546771E-02  0.1261523E+00
         21   -1    0    0  501  502  0.00000000000E+00  0.00000000000E+00  0.10562172297E+03  0.10562172297E+03  0.00000000000E+00 0. -1.
         -1   -1    0    0    0  501 -0.00000000000E+00 -0.00000000000E+00 -0.14172782588E+03  0.14172782588E+03  0.00000000000E+00 0.  1.
         24    2    1    2    0    0 -0.61176394557E+02 -0.67444594072E+00 -0.20598300876E+02  0.10296816225E+03  0.80219363680E+02 0.  0.
         23    2    1    2    0    0  0.63041516989E+02 -0.24824544449E+02 -0.24329855308E+02  0.11733502240E+03  0.92655678456E+02 0.  0.
        -11    1    3    3    0    0 -0.29289030156E+02  0.49215462041E+00 -0.51052106983E+02  0.58859214496E+02  0.00000000000E+00 0.  1.
         12    1    3    3    0    0 -0.31887364401E+02 -0.11666005611E+01  0.30453806107E+02  0.44108947751E+02  0.00000000000E+00 0. -1.
        -11    1    4    4    0    0  0.26262829709E+02 -0.53041088975E+02  0.95042800174E+01  0.59945180646E+02  0.00000000000E+00 0. -1.
         11    1    4    4    0    0  0.36778687280E+02  0.28216544526E+02 -0.33834135325E+02  0.57389841751E+02  0.00000000000E+00 0.  1.
         -2    1    1    2    0  502 -0.18651224322E+01  0.25498990390E+02  0.88220532702E+01  0.27046364201E+02  0.00000000000E+00 0.  1.
<scales pt_clust_5="13000.00000" pt_clust_6="13000.00000" pt_clust_7="13000.00000" pt_clust_8="13000.00000" pt_clust_9="25.56711"></scales>
<clustering>
<clus scale="   25.567">  1  9  2 -1</clus>
<clus scale="   80.219">  5  6 -1 -1</clus>
<clus scale="   92.656">  7  8 -1 -1</clus>
<clus scale="  102.046">  2  5  1 -1</clus>
<clus scale="   25.567">  1  5  2 -1</clus>
</clustering>
</event>
<event>
 9    2  0.1723348E-004  0.1287571E+03  0.7546771E-02  0.1230813E+00
         -1   -1    0    0    0  501 -0.00000000000E+00  0.00000000000E+00  0.15025904958E+03  0.15025904958E+03  0.00000000000E+00 0.  1.
         21   -1    0    0  501  502  0.00000000000E+00 -0.00000000000E+00 -0.34760522825E+03  0.34760522825E+03  0.00000000000E+00 0. -1.
         23    2    1    2    0    0  0.41501616681E+02  0.87843303867E+02  0.10265491316E+03  0.16583323064E+03  0.86739834946E+02 0.  0.
         24    2    1    2    0    0 -0.50601286673E+02 -0.64640884717E+02 -0.22131368104E+03  0.24949096685E+03  0.80790240325E+02 0.  0.
        -13    1    4    4    0    0 -0.14443502882E+02 -0.55025444205E+02 -0.55387893499E+02  0.79399200448E+02  0.00000000000E+00 0.  1.
         14    1    4    4    0    0 -0.36157783791E+02 -0.96154405112E+01 -0.16592578754E+03  0.17009176640E+03  0.00000000000E+00 0. -1.
        -13    1    3    3    0    0  0.67940267690E+02  0.72955859504E+02  0.74659807164E+02  0.12454928428E+03  0.00000000000E+00 0.  1.
         13    1    3    3    0    0 -0.26438651010E+02  0.14887444363E+02  0.27995105993E+02  0.41283946353E+02  0.00000000000E+00 0. -1.
         -2    1    1    2    0  502  0.90996699928E+01 -0.23202419150E+02 -0.78687410783E+02  0.82540080349E+02  0.00000000000E+00 0.  1.
<scales pt_clust_5="13000.00000" pt_clust_6="13000.00000" pt_clust_7="13000.00000" pt_clust_8="13000.00000" pt_clust_9="24.92301"></scales>
<clustering>
<clus scale="   24.923">  2  9  1 -1</clus>
<clus scale="   80.790">  5  6 -1 -1</clus>
<clus scale="   86.740">  7  8 -1 -1</clus>
<clus scale="  124.827">  2  5  1 -1</clus>
<clus scale="   24.923">  2  5  1 -1</clus>
</clustering>
</event>
<event>
 9    2  0.1723348E-004  0.1060381E+03  0.7546771E-02  0.1273039E+00
          2   -1    0    0  502    0 -0.00000000000E+00  0.00000000000E+00  0.44132783192E+03  0.44132783192E+03  0.00000000000E+00 0. -1.
         21   -1    0    0  501  502  0.00000000000E+00 -0.00000000000E+00 -0.57335452383E+02  0.57335452383E+02  0.00000000000E+00 0.  1.
         23    2    1    2    0    0 -0.93927676550E+01 -0.52169003749E+02  0.13850690450E+03  0.17446065863E+03  0.91883239921E+02 0.  0.
         24    2    1    2    0    0 -0.21495304983E+02  0.54542339173E+02  0.26547555139E+02  0.10308383741E+03  0.80526951722E+02 0.  0.
        -11    1    4    4    0    0 -0.17600054534E+02  0.65588417795E+02 -0.63097647220E+01  0.68201287373E+02  0.00000000000E+00 0.  1.
         12    1    4    4    0    0 -0.38952504482E+01 -0.11046078623E+02  0.32857319861E+02  0.34882550042E+02  0.00000000000E+00 0. -1.
        -13    1    3    3    0    0  0.13839679804E+02 -0.73327886664E+02  0.95521675129E+02  0.12121429833E+03  0.00000000000E+00 0. -1.
         13    1    3    3    0    0 -0.23232447459E+02  0.21158882915E+02  0.42985229376E+02  0.53246360304E+02  0.00000000000E+00 0.  1.
          1    1    1    2  501    0  0.30888072638E+02 -0.23733354237E+01  0.21893791989E+03  0.22111878826E+03  0.00000000000E+00 0. -1.
<scales pt_clust_5="13000.00000" pt_clust_6="13000.00000" pt_clust_7="13000.00000" pt_clust_8="13000.00000" pt_clust_9="30.97913"></scales>
<clustering>
<clus scale="   30.979">  2  9  1 -1</clus>
<clus scale="   80.527">  5  6 -1 -1</clus>
<clus scale="   91.883">  7  8 -1 -1</clus>
<clus scale="   96.365">  2  5  1 -1</clus>
<clus scale="   30.979">  2  5  1 -1</clus>
</clustering>
</event>
<event>
 9    2  0.1723348E-004  0.9344883E+02  0.7546771E-02  0.1300731E+00
          2   -1    0    0  502    0 -0.00000000000E+00  0.00000000000E+00  0.20966907286E+03  0.20966907286E+03  0.00000000000E+00 0. -1.
         21   -1    0    0  501  502  0.00000000000E+00 -0.00000000000E+00 -0.65958759060E+02  0.65958759060E+02  0.00000000000E+00 0. -1.
         23    2    1    2    0    0 -0.14835078955E+02  0.20898766253E+02  0.89462881065E+02  0.13006364230E+03  0.90863116617E+02 0.  0.
         24    2    1    2    0    0 -0.71985539503E+01 -0.19248912844E+02 -0.38996323317E+01  0.83360619215E+02  0.80693530589E+02 0.  0.
        -13    1    4    4    0    0 -0.28970071809E+02 -0.14300300644E+02 -0.33330942183E+02  0.46418911727E+02  0.00000000000E+00 0.  1.
         14    1    4    4    0    0  0.21771517859E+02 -0.49486121993E+01  0.29431309851E+02  0.36941707488E+02  0.00000000000E+00 0. -1.
        -13    1    3    3    0    0 -0.75736153718E+01 -0.29383612060E+02  0.68844569448E+02  0.75235171629E+02  0.00000000000E+00 0.  1.
         13    1    3    3    0    0 -0.72614635831E+01  0.50282378313E+02  0.20618311617E+02  0.54828470671E+02  0.00000000000E+00 0. -1.
          1    1    1    2  501    0  0.22033632905E+02 -0.16498534095E+01  0.58147065066E+02  0.62203570405E+02  0.00000000000E+00 0. -1.
<scales pt_clust_5="13000.00000" pt_clust_6="13000.00000" pt_clust_7="13000.00000" pt_clust_8="13000.00000" pt_clust_9="22.09533"></scales>
<clustering>
<clus scale="   22.095">  2  9  1 -1</clus>
<clus scale="   80.694">  5  6 -1 -1</clus>
<clus scale="   83.594">  2  5  1 -1</clus>
<clus scale="   90.863">  7  8 -1 -1</clus>
<clus scale="   22.095">  2  5  1 -1</clus>
</clustering>
</event>
<event>
 9    2  0.1723348E-004  0.2247670E+03  0.7546771E-02  0.1143758E+00
          2   -1    0    0  502    0 -0.00000000000E+00  0.00000000000E+00  0.97834813808E+03  0.97834813808E+03  0.00000000000E+00 0. -1.
         21   -1    0    0  501  502  0.00000000000E+00 -0.00000000000E+00 -0.11337149429E+03  0.11337149429E+03  0.00000000000E+00 0. -1.
         24    2    1    2    0    0  0.19735179803E+01  0.14118071225E+03  0.42276987538E+03  0.45292103122E+03  0.80418932565E+02 0.  0.
         23    2    1    2    0    0 -0.18468945193E+03  0.31328230229E+02  0.17986847219E+03  0.27552758741E+03  0.92038755282E+02 0.  0.
        -13    1    3    3    0    0 -0.26033910066E+02  0.12409764217E+02  0.10550260803E+03  0.10937352066E+03  0.00000000000E+00 0.  1.
         14    1    3    3    0    0  0.28007428046E+02  0.12877094803E+03  0.31726726735E+03  0.34354751056E+03  0.00000000000E+00 0. -1.
        -11    1    4    4    0    0 -0.63510853406E+02  0.56135161117E+02  0.66399445351E+02  0.10767391122E+03  0.00000000000E+00 0.  1.
         11    1    4    4    0    0 -0.12117859852E+03 -0.24806930888E+02  0.11346902684E+03  0.16785367620E+03  0.00000000000E+00 0. -1.
          1    1    1    2  501    0  0.18271593395E+03 -0.17250894248E+03  0.26233829622E+03  0.36327101373E+03  0.00000000000E+00 0. -1.
<scales pt_clust_5="13000.00000" pt_clust_6="13000.00000" pt_clust_7="13000.00000" pt_clust_8="13000.00000" pt_clust_9="205.05881"></scales>
<clustering>
<clus scale="   80.419">  5  6 -1 -1</clus>
<clus scale="   92.039">  7  8 -1 -1</clus>
<clus scale="  162.490">  1  5  2 -1</clus>
<clus scale="  205.059">  2  9  1 -1</clus>
<clus scale="  205.059">  2  5  1 -1</clus>
</clustering>
</event>
<event>
 9    2  0.1723348E-004  0.9140623E+02  0.7546771E-02  0.1303773E+00
         21   -1    0    0  501  502  0.00000000000E+00  0.00000000000E+00  0.18799756745E+03  0.18799756745E+03  0.00000000000E+00 0. -1.
          4   -1    0    0  502    0 -0.00000000000E+00 -0.00000000000E+00 -0.87749143377E+02  0.87749143377E+02  0.00000000000E+00 0. -1.
         24    2    1    2    0    0 -0.32416889963E+02  0.93229660369E+01 -0.19277320927E+02  0.90155332602E+02  0.81354756737E+02 0.  0.
         23    2    1    2    0    0 -0.13562965093E+02  0.22748628127E+01  0.10011590683E+03  0.13435273536E+03  0.88534364372E+02 0.  0.
        -13    1    3    3    0    0 -0.95027861504E+01  0.27945373745E+02  0.23808923872E+02  0.37922443411E+02  0.00000000000E+00 0.  1.
         14    1    3    3    0    0 -0.22914103812E+02 -0.18622407708E+02 -0.43086244798E+02  0.52232889190E+02  0.00000000000E+00 0. -1.
        -13    1    4    4    0    0  0.21187711190E+02  0.30943556405E+02  0.72188234860E+02  0.81348411420E+02  0.00000000000E+00 0. -1.
         13    1    4    4    0    0 -0.34750676283E+02 -0.28668693593E+02  0.27927671973E+02  0.53004323939E+02  0.00000000000E+00 0.  1.
          3    1    1    2  501    0  0.45979855055E+02 -0.11597828850E+02  0.19409838164E+02  0.51238642864E+02  0.00000000000E+00 0. -1.
<scales pt_clust_5="13000.00000" pt_clust_6="13000.00000" pt_clust_7="13000.00000" pt_clust_8="13000.00000" pt_clust_9="47.42000"></scales>
<clustering>
<clus scale="   47.420">  1  9  2 -1</clus>
<clus scale="   81.355">  5  6 -1 -1</clus>
<clus scale="   84.471">  2  5  1 -1</clus>
<clus scale="   88.534">  7  8 -1 -1</clus>
<clus scale="   47.420">  1  5  2 -1</clus>
</clustering>
</event>
<event>
 9    2  0.1723348E-004  0.1458145E+03  0.7546771E-02  0.1217642E+00
          2   -1    0    0  502    0 -0.00000000000E+00  0.00000000000E+00  0.11228266047E+04  0.11228266047E+04  0.00000000000E+00 0. -1.
         21   -1    0    0  501  502  0.00000000000E+00 -0.00000000000E+00 -0.32509249996E+02  0.32509249996E+02  0.00000000000E+00 0. -1.
         24    2    1    2    0    0 -0.66723596746E+02 -0.41523748853E+02  0.36551479805E+03  0.38261433071E+03  0.81341246546E+02 0.  0.
         23    2    1    2    0    0  0.78719766646E+02 -0.78861101232E+02  0.39607311871E+03  0.42243669189E+03  0.95723394990E+02 0.  0.
        -13    1    3    3    0    0 -0.69527367184E+02  0.17856655250E+01  0.21523626036E+03  0.22619436589E+03  0.00000000000E+00 0.  1.
         14    1    3    3    0    0  0.28037704388E+01 -0.43309414378E+02  0.15027853769E+03  0.15641996481E+03  0.00000000000E+00 0. -1.
        -11    1    4    4    0    0  0.23815100353E+02 -0.83198040234E+02  0.29375772790E+03  0.30623957223E+03  0.00000000000E+00 0.  1.
         11    1    4    4    0    0  0.54904666292E+02  0.43369390022E+01  0.10231539081E+03  0.11619711966E+03  0.00000000000E+00 0. -1.
          1    1    1    2  501    0 -0.11996169900E+02  0.12038485009E+03  0.32872943800E+03  0.35028483214E+03  0.00000000000E+00 0. -1.
<scales pt_clust_5="13000.00000" pt_clust_6="13000.00000" pt_clust_7="13000.00000" pt_clust_8="13000.00000" pt_clust_9="109.99507"></scales>
<clustering>
<clus scale="   81.341">  5  6 -1 -1</clus>
<clus scale="   95.723">  7  8 -1 -1</clus>
<clus scale="  113.105">  1  5  2 -1</clus>
<clus scale="  109.995">  2  9  1 -1</clus>
<clus scale="  109.995">  2  5  1 -1</clus>
</clustering>
</event>
<event>
 9    2  0.1723348E-004  0.9633645E+02  0.7546771E-02  0.1294602E+00
          2   -1    0    0  502    0 -0.00000000000E+00  0.00000000000E+00  0.33712460215E+03  0.33712460215E+03  0.00000000000E+00 0. -1.
         21   -1    0    0  501  502  0.00000000000E+00 -0.00000000000E+00 -0.45621138183E+02  0.45621138183E+02  0.00000000000E+00 0.  1.
         24    2    1    2    0    0  0.20915842402E+02  0.12418342164E+02  0.21130022058E+03  0.22805875815E+03  0.82288068782E+02 0.  0.
         23    2    1    2    0    0 -0.27708270857E+02  0.18716168181E+02  0.68857180067E+02  0.12086054324E+03  0.93530296916E+02 0.  0.
        -13    1    3    3    0    0  0.10175072632E+02 -0.21624746088E+02  0.14300245797E+02  0.27850651272E+02  0.00000000000E+00 0.  1.
         14    1    3    3    0    0  0.10740769770E+02  0.34043088251E+02  0.19699997479E+03  0.20020810687E+03  0.00000000000E+00 0. -1.
        -13    1    4    4    0    0 -0.28654174566E+02 -0.25344225816E+02 -0.99579101796E+00  0.38267258878E+02  0.00000000000E+00 0.  1.
         13    1    4    4    0    0  0.94590370929E+00  0.44060393997E+02  0.69852971085E+02  0.82593284366E+02  0.00000000000E+00 0. -1.
          1    1    1    2  501    0  0.67924284551E+01 -0.31134510345E+02  0.11346063320E+02  0.33826438943E+02  0.00000000000E+00 0. -1.
<scales pt_clust_5="13000.00000" pt_clust_6="13000.00000" pt_clust_7="13000.00000" pt_clust_8="13000.00000" pt_clust_9="31.86683"></scales>
<clustering>
<clus scale="   31.867">  2  9  1 -1</clus>
<clus scale="   82.288">  5  6 -1 -1</clus>
<clus scale="   85.464">  1  5  2 -1</clus>
<clus scale="   93.530">  7  8 -1 -1</clus>
<clus scale="   31.867">  2  5  1 -1</clus>
</clustering>
</event>
<event>
 9    2  0.1723348E-004  0.1482078E+03  0.7546771E-02  0.1221960E+00
          2   -1    0    0  502    0 -0.00000000000E+00  0.00000000000E+00  0.91934179916E+02  0.91934179916E+02  0.00000000000E+00 0. -1.
         21   -1    0    0  501  502  0.00000000000E+00 -0.00000000000E+00 -0.58077726535E+03  0.58077726535E+03  0.00000000000E+00 0. -1.
         24    2    1    2    0    0 -0.42141632455E+02 -0.33539638026E+02 -0.32878441768E+03  0.34318615735E+03  0.82320840531E+02 0.  0.
         23    2    1    2    0    0 -0.23254258873E+02 -0.83277759297E+02 -0.30000962015E+01  0.12315106031E+03  0.87642668427E+02 0.  0.
        -11    1    3    3    0    0  0.13255104359E+02  0.16584403728E+02 -0.10909561663E+03  0.11114222333E+03  0.00000000000E+00 0.  1.
         12    1    3    3    0    0 -0.55396736814E+02 -0.50124041753E+02 -0.21968880105E+03  0.23204393402E+03  0.00000000000E+00 0. -1.
        -13    1    4    4    0    0  0.24269663454E+02 -0.69527060443E+02 -0.17589997591E+01  0.73662220833E+02  0.00000000000E+00 0.  1.
         13    1    4    4    0    0 -0.47523922327E+02 -0.13750698855E+02 -0.12410964424E+01  0.49488839477E+02  0.00000000000E+00 0. -1.
          1    1    1    2  501    0  0.65395891328E+02  0.11681739732E+03 -0.15705857156E+03  0.20637422760E+03  0.00000000000E+00 0. -1.
<scales pt_clust_5="13000.00000" pt_clust_6="13000.00000" pt_clust_7="13000.00000" pt_clust_8="13000.00000" pt_clust_9="119.51695"></scales>
<clustering>
<clus scale="   82.321">  5  6 -1 -1</clus>
<clus scale="   87.643">  7  8 -1 -1</clus>
<clus scale="   98.375">  1  5  2 -1</clus>
<clus scale="  119.517">  2  9  1 -1</clus>
<clus scale="  119.517">  2  5  1 -1</clus>
</clustering>
</event>
<event>
 9    2  0.1723348E-004  0.9799573E+02  0.7546771E-02  0.1291045E+00
         21   -1    0    0  501  502  0.00000000000E+00  0.00000000000E+00  0.76695970767E+02  0.76695970767E+02  0.00000000000E+00 0. -1.
          2   -1    0    0  502    0 -0.00000000000E+00 -0.00000000000E+00 -0.50726213329E+03  0.50726213329E+03  0.00000000000E+00 0. -1.
         23    2    1    2    0    0  0.27956657554E+02  0.20364409527E+02 -0.42041577262E+03  0.43186516179E+03  0.92530061202E+02 0.  0.
         24    2    1    2    0    0  0.20587315069E+02 -0.46847460565E+02 -0.14962663552E+02  0.96585940471E+02  0.80538441089E+02 0.  0.
        -13    1    4    4    0    0 -0.24368479445E+02  0.14354311256E+00 -0.19765021611E+02  0.31376734603E+02  0.00000000000E+00 0.  1.
         14    1    4    4    0    0  0.44955794514E+02 -0.46991003677E+02  0.48023580595E+01  0.65209205868E+02  0.00000000000E+00 0. -1.
        -11    1    3    3    0    0  0.50074107862E+02 -0.18876853620E+02 -0.21370972055E+03  0.22030795841E+03  0.00000000000E+00 0.  1.
         11    1    3    3    0    0 -0.22117450308E+02  0.39241263146E+02 -0.20670605207E+03  0.21155720339E+03  0.00000000000E+00 0. -1.
          1    1    1    2  501    0 -0.48543972623E+02  0.26483051038E+02  0.48122736488E+01  0.55507001792E+02  0.00000000000E+00 0. -1.
<scales pt_clust_5="13000.00000" pt_clust_6="13000.00000" pt_clust_7="13000.00000" pt_clust_8="13000.00000" pt_clust_9="55.29800"></scales>
<clustering>
<clus scale="   55.298">  1  9  2 -1</clus>
<clus scale="   80.538">  5  6 -1 -1</clus>
<clus scale="   86.763">  1  5  2 -1</clus>
<clus scale="   92.530">  7  8 -1 -1</clus>
<clus scale="   55.298">  1  5  2 -1</clus>
</clustering>
</event>
<event>
 9    2  0.1723348E-004  0.3378212E+03  0.7546771E-02  0.1108563E+00
         21   -1    0    0  501  502  0.00000000000E+00  0.00000000000E+00  0.32246135334E+03  0.32246135334E+03  0.00000000000E+00 0.  1.
          2   -1    0    0  502    0 -0.00000000000E+00 -0.00000000000E+00 -0.48441520553E+03  0.48441520553E+03  0.00000000000E+00 0. -1.
         24    2    1    2    0    0 -0.22083663943E+01 -0.81615191456E+02 -0.30928027922E+02  0.11841501910E+03  0.79997859212E+02 0.  0.
         23    2    1    2    0    0 -0.23691833757E+03  0.26867934866E+03 -0.99104611858E+02  0.38318536438E+03  0.93222359473E+02 0.  0.
        -13    1    3    3    0    0 -0.28896641855E+02 -0.70675843993E+02 -0.31669110681E+00  0.76355688249E+02  0.00000000000E+00 0.  1.
         14    1    3    3    0    0  0.26688275461E+02 -0.10939347463E+02 -0.30611336815E+02  0.42059330850E+02  0.00000000000E+00 0. -1.
        -11    1    4    4    0    0 -0.21917128251E+03  0.23791523591E+03 -0.57616520040E+02  0.32857171810E+03  0.00000000000E+00 0.  1.
         11    1    4    4    0    0 -0.17747055063E+02  0.30764112756E+02 -0.41488091818E+02  0.54613646277E+02  0.00000000000E+00 0. -1.
          1    1    1    2  501    0  0.23912670397E+03 -0.18706415721E+03 -0.31921212410E+02  0.30527617539E+03  0.00000000000E+00 0. -1.
<scales pt_clust_5="13000.00000" pt_clust_6="13000.00000" pt_clust_7="13000.00000" pt_clust_8="13000.00000" pt_clust_9="324.70413"></scales>
<clustering>
<clus scale="   79.998">  5  6 -1 -1</clus>
<clus scale="   93.222">  7  8 -1 -1</clus>
<clus scale="  114.305">  2  5  1 -1</clus>
<clus scale="  324.704">  1  9  2 -1</clus>
<clus scale="  324.704">  1  5  2 -1</clus>
</clustering>
</event>
<event>
 9    2  0.1723348E-004  0.1212685E+03  0.7546771E-02  0.1245239E+00
          4   -1    0    0  502    0 -0.00000000000E+00  0.00000000000E+00  0.16666983912E+03  0.16666983912E+03  0.00000000000E+00 0. -1.
         21   -1    0    0  501  502  0.00000000000E+00 -0.00000000000E+00 -0.16014160012E+03  0.16014160012E+03  0.00000000000E+00 0. -1.
         24    2    1    2    0    0  0.64035532704E+02  0.37929406914E+02  0.39822488596E+02  0.13319039733E+03  0.10302748170E+03 0.  0.
         23    2    1    2    0    0 -0.29460647528E+02 -0.27993983154E+02 -0.84685594572E+02  0.13088982425E+03  0.91153186010E+02 0.  0.
        -11    1    3    3    0    0  0.53880817401E+02 -0.13361351756E+02  0.55606874513E+02  0.78573485971E+02  0.00000000000E+00 0.  1.
         12    1    3    3    0    0  0.10154715303E+02  0.51290758670E+02 -0.15784385917E+02  0.54616911361E+02  0.00000000000E+00 0. -1.
        -11    1    4    4    0    0 -0.49455237254E+02 -0.29794101622E+02 -0.92752317149E+02  0.10925429657E+03  0.00000000000E+00 0. -1.
         11    1    4    4    0    0  0.19994589727E+02  0.18001184685E+01  0.80667225779E+01  0.21635527680E+02  0.00000000000E+00 0.  1.
          3    1    1    2  501    0 -0.34574885176E+02 -0.99354237606E+01  0.51391344976E+02  0.62731217657E+02  0.00000000000E+00 0. -1.
<scales pt_clust_5="13000.00000" pt_clust_6="13000.00000" pt_clust_7="13000.00000" pt_clust_8="13000.00000" pt_clust_9="35.97411"></scales>
<clustering>
<clus scale="   35.974">  2  9  1 -1</clus>
<clus scale="   91.153">  7  8 -1 -1</clus>
<clus scale="  103.027">  5  6 -1 -1</clus>
<clus scale="  111.357">  2  7  1 -1</clus>
<clus scale="   35.974">  2  5  1 -1</clus>
</clustering>
</event>
<event>
 9    2  0.1723348E-004  0.1127977E+03  0.7546771E-02  0.1259199E+00
          2   -1    0    0  502    0 -0.00000000000E+00  0.00000000000E+00  0.54125010811E+02  0.54125010811E+02  0.00000000000E+00 0. -1.
         21   -1    0    0  501  502  0.00000000000E+00 -0.00000000000E+00 -0.38604959869E+03  0.38604959869E+03  0.00000000000E+00 0.  1.
         23    2    1    2    0    0 -0.57466169758E+02  0.21379127375E+02 -0.69169879883E+02  0.12968666653E+03  0.90965550839E+02 0.  0.
         24    2    1    2    0    0  0.54609809336E+02 -0.66733779139E+02 -0.20890502594E+03  0.24002524724E+03  0.80840465714E+02 0.  0.
        -13    1    4    4    0    0  0.52722468017E+02 -0.69992234880E+02 -0.21538645602E+03  0.23252934656E+03  0.00000000000E+00 0.  1.
         14    1    4    4    0    0  0.18873413196E+01  0.32584557406E+01  0.64814300805E+01  0.74959006770E+01  0.00000000000E+00 0. -1.
        -13    1    3    3    0    0 -0.60832877574E+02  0.51233828804E+02 -0.52910490232E+02  0.95525201829E+02  0.00000000000E+00 0.  1.
         13    1    3    3    0    0  0.33667078162E+01 -0.29854701429E+02 -0.16259389651E+02  0.34161464704E+02  0.00000000000E+00 0. -1.
          1    1    1    2  501    0  0.28563604217E+01  0.45354651764E+02 -0.53849682058E+02  0.70462695727E+02  0.00000000000E+00 0. -1.
<scales pt_clust_5="13000.00000" pt_clust_6="13000.00000" pt_clust_7="13000.00000" pt_clust_8="13000.00000" pt_clust_9="45.44451"></scales>
<clustering>
<clus scale="   45.445">  2  9  1 -1</clus>
<clus scale="   80.840">  5  6 -1 -1</clus>
<clus scale="   90.966">  7  8 -1 -1</clus>
<clus scale="  104.803">  2  5  1 -1</clus>
<clus scale="   45.445">  2  5  1 -1</clus>
</clustering>
</event>
<event>
 9    2  0.1723348E-004  0.1321791E+03  0.7546771E-02  0.1225199E+00
         21   -1    0    0  501  502  0.00000000000E+00  0.00000000000E+00  0.52155102037E+02  0.52155102037E+02  0.00000000000E+00 0.  1.
          2   -1    0    0  502    0 -0.00000000000E+00 -0.00000000000E+00 -0.58678205133E+03  0.58678205133E+03  0.00000000000E+00 0. -1.
         23    2    1    2    0    0 -0.96301522734E+02 -0.42931982210E+02 -0.38183709007E+03  0.40612989775E+03  0.89581204006E+02 0.  0.
         24    2    1    2    0    0  0.81834551462E+02  0.21461573681E+02 -0.16491136304E+03  0.20422050073E+03  0.85748249552E+02 0.  0.
        -13    1    4    4    0    0  0.83990634562E+02 -0.64542422121E+01 -0.15111234275E+03  0.17300584981E+03  0.00000000000E+00 0.  1.
         14    1    4    4    0    0 -0.21560831004E+01  0.27915815893E+02 -0.13799020294E+02  0.31214650925E+02  0.00000000000E+00 0. -1.
        -13    1    3    3    0    0 -0.62603972329E+02  0.19205321581E+02 -0.14793652813E+03  0.16178169885E+03  0.00000000000E+00 0.  1.
         13    1    3    3    0    0 -0.33697550405E+02 -0.62137303792E+02 -0.23390056194E+03  0.24434819889E+03  0.00000000000E+00 0. -1.
          1    1    1    2  501    0  0.14466971272E+02  0.21470408529E+02  0.12121503821E+02  0.28586754889E+02  0.00000000000E+00 0. -1.
<scales pt_clust_5="13000.00000" pt_clust_6="13000.00000" pt_clust_7="13000.00000" pt_clust_8="13000.00000" pt_clust_9="25.88961"></scales>
<clustering>
<clus scale="   25.890">  1  9  2 -1</clus>
<clus scale="   85.748">  5  6 -1 -1</clus>
<clus scale="   89.581">  7  8 -1 -1</clus>
<clus scale="  129.612">  1  5  2 -1</clus>
<clus scale="   25.890">  1  5  2 -1</clus>
</clustering>
</event>
<event>
 9    2  0.1723348E-004  0.9949407E+02  0.7546771E-02  0.1286356E+00
          2   -1    0    0  502    0 -0.00000000000E+00  0.00000000000E+00  0.16750696526E+03  0.16750696526E+03  0.00000000000E+00 0. -1.
         21   -1    0    0  501  502  0.00000000000E+00 -0.00000000000E+00 -0.74696500138E+02  0.74696500138E+02  0.00000000000E+00 0.  1.
         24    2    1    2    0    0  0.19332270077E+02  0.32071946975E+02  0.70673181777E+02  0.11296225097E+03  0.79771079178E+02 0.  0.
         23    2    1    2    0    0 -0.38716720944E+02 -0.39797660051E+02  0.12752238874E+02  0.10636059736E+03  0.89817141166E+02 0.  0.
        -13    1    3    3    0    0 -0.75348621386E+01  0.51148023467E+02  0.27217955207E+02  0.58426976112E+02  0.00000000000E+00 0.  1.
         14    1    3    3    0    0  0.26867132216E+02 -0.19076076492E+02  0.43455226570E+02  0.54535274860E+02  0.00000000000E+00 0. -1.
        -11    1    4    4    0    0 -0.20279424369E+02  0.86742828105E+01  0.41549899136E+02  0.47041389789E+02  0.00000000000E+00 0. -1.
         11    1    4    4    0    0 -0.18437296575E+02 -0.48471942861E+02 -0.28797660262E+02  0.59319207567E+02  0.00000000000E+00 0.  1.
          1    1    1    2  501    0  0.19384450866E+02  0.77257130764E+01  0.93850444754E+01  0.22880617075E+02  0.00000000000E+00 0. -1.
<scales pt_clust_5="13000.00000" pt_clust_6="13000.00000" pt_clust_7="13000.00000" pt_clust_8="13000.00000" pt_clust_9="20.86730"></scales>
<clustering>
<clus scale="   20.867">  2  9  1 -1</clus>
<clus scale="   79.771">  5  6 -1 -1</clus>
<clus scale="   89.817">  7  8 -1 -1</clus>
<clus scale="   90.528">  1  5  2 -1</clus>
<clus scale="   20.867">  2  5  1 -1</clus>
</clustering>
</event>
<event>
 9    2  0.1723348E-004  0.9614541E+02  0.7546771E-02  0.1293003E+00
          2   -1    0    0  502    0 -0.00000000000E+00  0.00000000000E+00  0.12288204214E+04  0.12288204214E+04  0.00000000000E+00 0. -1.
         21   -1    0    0  501  502  0.00000000000E+00 -0.00000000000E+00 -0.15294388936E+02  0.15294388936E+02  0.00000000000E+00 0. -1.
         24    2    1    2    0    0 -0.88733745882E+01  0.38849900339E+00  0.34891351427E+03  0.35830532867E+03  0.81013458174E+02 0.  0.
         23    2    1    2    0    0  0.78624619286E+02 -0.86245127600E+01  0.46339206505E+03  0.47848783961E+03  0.89231125358E+02 0.  0.
        -11    1    3    3    0    0 -0.26639872409E+02  0.31893855864E+02  0.13168949034E+03  0.13809063223E+03  0.00000000000E+00 0.  1.
         12    1    3    3    0    0  0.17766497821E+02 -0.31505356860E+02  0.21722402393E+03  0.22021469644E+03  0.00000000000E+00 0. -1.
        -13    1    4    4    0    0  0.70840236971E+02 -0.41132783429E+02  0.26740871366E+03  0.27967421259E+03  0.00000000000E+00 0. -1.
         13    1    4    4    0    0  0.77843823155E+01  0.32508270669E+02  0.19598335138E+03  0.19881362702E+03  0.00000000000E+00 0.  1.
          1    1    1    2  501    0 -0.69751244698E+02  0.82360137566E+01  0.40122045317E+03  0.40732164207E+03  0.00000000000E+00 0. -1.
<scales pt_clust_5="13000.00000" pt_clust_6="13000.00000" pt_clust_7="13000.00000" pt_clust_8="13000.00000" pt_clust_9="70.23584"></scales>
<clustering>
<clus scale="   70.236">  2  9  1 -1</clus>
<clus scale="   81.013">  5  6 -1 -1</clus>
<clus scale="   88.572">  1  5  2 -1</clus>
<clus scale="   89.231">  7  8 -1 -1</clus>
<clus scale="   70.236">  2  5  1 -1</clus>
</clustering>
</event>
<event>
 9    2  0.1723348E-004  0.1329060E+03  0.7546771E-02  0.1225570E+00
         21   -1    0    0  501  502  0.00000000000E+00  0.00000000000E+00  0.92495883007E+02  0.92495883007E+02  0.00000000000E+00 0. -1.
          2   -1    0    0  502    0 -0.00000000000E+00 -0.00000000000E+00 -0.73560951548E+03  0.73560951548E+03  0.00000000000E+00 0. -1.
         23    2    1    2    0    0  0.11744893461E+03 -0.11241559781E+02 -0.56138396992E+03  0.58080323894E+03  0.90883528618E+02 0.  0.
         24    2    1    2    0    0 -0.40787689572E+02  0.56110403304E+02 -0.11072391231E+03  0.15386326974E+03  0.81253357082E+02 0.  0.
        -13    1    4    4    0    0 -0.41424217704E+02  0.72449709145E+02 -0.10920198659E+03  0.13744089654E+03  0.00000000000E+00 0.  1.
         14    1    4    4    0    0  0.63652813271E+00 -0.16339305841E+02 -0.15219257247E+01  0.16422373195E+02  0.00000000000E+00 0. -1.
        -11    1    3    3    0    0 -0.60480872777E+01 -0.22929689671E+02 -0.66245874169E+02  0.70362389617E+02  0.00000000000E+00 0.  1.
         11    1    3    3    0    0  0.12349702189E+03  0.11688129890E+02 -0.49513809575E+03  0.51044084932E+03  0.00000000000E+00 0. -1.
          1    1    1    2  501    0 -0.76661245036E+02 -0.44868843523E+02  0.28994249759E+02  0.93438889808E+02  0.00000000000E+00 0. -1.
<scales pt_clust_5="13000.00000" pt_clust_6="13000.00000" pt_clust_7="13000.00000" pt_clust_8="13000.00000" pt_clust_9="88.82657"></scales>
<clustering>
<clus scale="   81.253">  5  6 -1 -1</clus>
<clus scale="   88.827">  1  9  2 -1</clus>
<clus scale="   90.884">  7  8 -1 -1</clus>
<clus scale="  126.516">  1  5  2 -1</clus>
<clus scale="   88.827">  1  5  2 -1</clus>
</clustering>
</event>
<event>
 9    2  0.1723348E-004  0.1005179E+03  0.7546771E-02  0.1282994E+00
         21   -1    0    0  501  502  0.00000000000E+00  0.00000000000E+00  0.14597702333E+03  0.14597702333E+03  0.00000000000E+00 0. -1.
          4   -1    0    0  502    0 -0.00000000000E+00 -0.00000000000E+00 -0.11429664093E+03  0.11429664093E+03  0.00000000000E+00 0. -1.
         24    2    1    2    0    0  0.40221858436E+02 -0.23075400937E+02 -0.22548344795E+02  0.96196070102E+02  0.81209506991E+02 0.  0.
         23    2    1    2    0    0 -0.22916510030E+02  0.48292854584E+02  0.74055068279E+02  0.12762929033E+03  0.89149965650E+02 0.  0.
        -13    1    3    3    0    0  0.23184405718E+02 -0.82739228051E+01  0.30117720759E+02  0.38897963581E+02  0.00000000000E+00 0.  1.
         14    1    3    3    0    0  0.17037452718E+02 -0.14801478131E+02 -0.52666065553E+02  0.57298106521E+02  0.00000000000E+00 0. -1.
        -11    1    4    4    0    0 -0.44478333928E+02  0.13134226017E+02  0.42772776425E+01  0.46573868061E+02  0.00000000000E+00 0.  1.
         11    1    4    4    0    0  0.21561823898E+02  0.35158628567E+02  0.69777790637E+02  0.81055422265E+02  0.00000000000E+00 0. -1.
          3    1    1    2  501    0 -0.17305348406E+02 -0.25217453647E+02 -0.19826341081E+02  0.36448303837E+02  0.00000000000E+00 0. -1.
<scales pt_clust_5="13000.00000" pt_clust_6="13000.00000" pt_clust_7="13000.00000" pt_clust_8="13000.00000" pt_clust_9="30.58424"></scales>
<clustering>
<clus scale="   30.584">  1  9  2 -1</clus>
<clus scale="   81.210">  5  6 -1 -1</clus>
<clus scale="   89.150">  7  8 -1 -1</clus>
<clus scale="   93.547">  2  5  1 -1</clus>
<clus scale="   30.584">  1  5  2 -1</clus>
</clustering>
</event>
<event>
 9    2  0.1723348E-004  0.1168874E+03  0.7546771E-02  0.1251419E+00
          2   -1    0    0  502    0 -0.00000000000E+00  0.00000000000E+00  0.41307843705E+03  0.41307843705E+03  0.00000000000E+00 0. -1.
         21   -1    0    0  501  502  0.00000000000E+00 -0.00000000000E+00 -0.10194495444E+03  0.10194495444E+03  0.00000000000E+00 0. -1.
         24    2    1    2    0    0 -0.64300337931E+02 -0.17796371461E+02  0.20011666235E+03  0.22638680969E+03  0.82177033028E+02 0.  0.
         23    2    1    2    0    0  0.96452817332E+02  0.66088574661E+02 -0.15767114964E+02  0.14920887633E+03  0.91344628684E+02 0.  0.
        -13    1    3    3    0    0 -0.17466524954E+02 -0.45628507382E+02  0.70384096987E+02  0.85679409945E+02  0.00000000000E+00 0.  1.
         14    1    3    3    0    0 -0.46833812977E+02  0.27832135921E+02  0.12973256536E+03  0.14070739975E+03  0.00000000000E+00 0. -1.
        -13    1    4    4    0    0  0.23231486917E+02 -0.23207558955E+02 -0.52285340974E+01  0.33251020222E+02  0.00000000000E+00 0.  1.
         13    1    4    4    0    0  0.73221330415E+02  0.89296133616E+02 -0.10538580867E+02  0.11595785611E+03  0.00000000000E+00 0. -1.
          1    1    1    2  501    0 -0.32152479401E+02 -0.48292203201E+02  0.12678393523E+03  0.13942770547E+03  0.00000000000E+00 0. -1.
<scales pt_clust_5="13000.00000" pt_clust_6="13000.00000" pt_clust_7="13000.00000" pt_clust_8="13000.00000" pt_clust_9="58.01657"></scales>
<clustering>
<clus scale="   58.017">  2  9  1 -1</clus>
<clus scale="   82.177">  5  6 -1 -1</clus>
<clus scale="   91.345">  7  8 -1 -1</clus>
<clus scale="  109.872">  1  5  2 -1</clus>
<clus scale="   58.017">  2  5  1 -1</clus>
</clustering>
</event>
<event>
 9    2  0.1723348E-004  0.1869546E+03  0.7546771E-02  0.1162317E+00
         -3   -1    0    0    0  501 -0.00000000000E+00  0.00000000000E+00  0.29784858147E+03  0.29784858147E+03  0.00000000000E+00 0.  1.
         21   -1    0    0  501  502  0.00000000000E+00 -0.00000000000E+00 -0.14937489045E+03  0.14937489045E+03  0.00000000000E+00 0. -1.
         24    2    1    2    0    0 -0.84949300751E+02  0.15140876071E+03  0.13838796638E+03  0.23583905525E+03  0.79547685233E+02 0.  0.
         23    2    1    2    0    0  0.75798912833E+02 -0.12936616470E+03  0.33586030602E+02  0.17789008851E+03  0.89642525531E+02 0.  0.
        -13    1    3    3    0    0 -0.92524189727E+02  0.14604779570E+03  0.14399163674E+03  0.22499839059E+03  0.00000000000E+00 0.  1.
         14    1    3    3    0    0  0.75748889759E+01  0.53609650105E+01 -0.56036703668E+01  0.10840664667E+02  0.00000000000E+00 0. -1.
        -13    1    4    4    0    0  0.68851119245E+02 -0.86698308048E+02  0.61290293062E+02  0.12654474807E+03  0.00000000000E+00 0.  1.
         13    1    4    4    0    0  0.69477935877E+01 -0.42667856654E+02 -0.27704262460E+02  0.51345340447E+02  0.00000000000E+00 0. -1.
         -4    1    1    2    0  502  0.91503879184E+01 -0.22042596012E+02 -0.23500305966E+02  0.33494328154E+02  0.00000000000E+00 0.  1.
<scales pt_clust_5="13000.00000" pt_clust_6="13000.00000" pt_clust_7="13000.00000" pt_clust_8="13000.00000" pt_clust_9="23.86641"></scales>
<clustering>
<clus scale="   23.866">  2  9  1 -1</clus>
<clus scale="   79.548">  5  6 -1 -1</clus>
<clus scale="   89.643">  7  8 -1 -1</clus>
<clus scale="  182.330">  1  5  2 -1</clus>
<clus scale="   23.866">  2  5  1 -1</clus>
</clustering>
</event>
<event>
 9    2  0.1723348E-004  0.2280929E+03  0.7546771E-02  0.1154351E+00
          2   -1    0    0  502    0 -0.00000000000E+00  0.00000000000E+00  0.46144745466E+03  0.46144745466E+03  0.00000000000E+00 0. -1.
         21   -1    0    0  501  502  0.00000000000E+00 -0.00000000000E+00 -0.22673197571E+03  0.22673197571E+03  0.00000000000E+00 0. -1.
         24    2    1    2    0    0 -0.92069236482E+02  0.31426525539E+02  0.18544264841E+03  0.22138306992E+03  0.71813069719E+02 0.  0.
         23    2    1    2    0    0 -0.42489629524E+02  0.16167486321E+03  0.11509928901E+03  0.22240454923E+03  0.90949475956E+02 0.  0.
        -13    1    3    3    0    0 -0.37751679386E+02 -0.13468320486E+02  0.28012938019E+02  0.48901018902E+02  0.00000000000E+00 0.  1.
         14    1    3    3    0    0 -0.54317557095E+02  0.44894846025E+02  0.15742971039E+03  0.17248205101E+03  0.00000000000E+00 0. -1.
        -13    1    4    4    0    0  0.87910910652E+01  0.33560876207E+02 -0.10041154623E+02  0.36117038639E+02  0.00000000000E+00 0.  1.
         13    1    4    4    0    0 -0.51280720589E+02  0.12811398701E+03  0.12514044363E+03  0.18628751059E+03  0.00000000000E+00 0. -1.
          1    1    1    2  501    0  0.13455886601E+03 -0.19310138875E+03 -0.65826458471E+02  0.24439181122E+03  0.00000000000E+00 0. -1.
<scales pt_clust_5="13000.00000" pt_clust_6="13000.00000" pt_clust_7="13000.00000" pt_clust_8="13000.00000" pt_clust_9="209.17587"></scales>
<clustering>
<clus scale="   71.813">  5  6 -1 -1</clus>
<clus scale="   90.949">  7  8 -1 -1</clus>
<clus scale="  120.919">  1  5  2 -1</clus>
<clus scale="  209.176">  2  9  1 -1</clus>
<clus scale="  209.176">  2  5  1 -1</clus>
</clustering>
</event>
<event>
 9    2  0.1723348E-004  0.1636683E+03  0.7546771E-02  0.1196320E+00
          2   -1    0    0  502    0 -0.00000000000E+00  0.00000000000E+00  0.48458322222E+03  0.48458322222E+03  0.00000000000E+00 0. -1.
         21   -1    0    0  501  502  0.00000000000E+00 -0.00000000000E+00 -0.18216772433E+03  0.18216772433E+03  0.00000000000E+00 0.  1.
         24    2    1    2    0    0  0.74025417748E+02  0.60833297229E+02  0.26112598130E+03  0.29011038013E+03  0.82442719645E+02 0.  0.
         23    2    1    2    0    0 -0.11693683047E+03  0.78064824723E+02 -0.81277840851E+02  0.18649106015E+03  0.91675999711E+02 0.  0.
        -11    1    3    3    0    0  0.14089377808E+02  0.47656434914E+02  0.51007881873E+02  0.71214116360E+02  0.00000000000E+00 0.  1.
         12    1    3    3    0    0  0.59936039940E+02  0.13176862316E+02  0.21011809943E+03  0.21889626377E+03  0.00000000000E+00 0. -1.
        -13    1    4    4    0    0 -0.98597854804E+02  0.96653506146E+02 -0.52716085650E+02  0.14779182287E+03  0.00000000000E+00 0.  1.
         13    1    4    4    0    0 -0.18338975665E+02 -0.18588681423E+02 -0.28561755201E+02  0.38699237275E+02  0.00000000000E+00 0. -1.
          1    1    1    2  501    0  0.42911412721E+02 -0.13889812195E+03  0.12256735745E+03  0.19014950627E+03  0.00000000000E+00 0. -1.
<scales pt_clust_5="13000.00000" pt_clust_6="13000.00000" pt_clust_7="13000.00000" pt_clust_8="13000.00000" pt_clust_9="135.58336"></scales>
<clustering>
<clus scale="   82.443">  5  6 -1 -1</clus>
<clus scale="   91.676">  7  8 -1 -1</clus>
<clus scale="  126.401">  1  5  2 -1</clus>
<clus scale="  135.583">  2  9  1 -1</clus>
<clus scale="  135.583">  2  5  1 -1</clus>
</clustering>
</event>
<event>
 9    2  0.1723348E-004  0.1449253E+03  0.7546771E-02  0.1228484E+00
          2   -1    0    0  502    0 -0.00000000000E+00  0.00000000000E+00  0.16848303644E+03  0.16848303644E+03  0.00000000000E+00 0. -1.
         21   -1    0    0  501  502  0.00000000000E+00 -0.00000000000E+00 -0.20426174114E+03  0.20426174114E+03  0.00000000000E+00 0. -1.
         24    2    1    2    0    0 -0.34575103458E+02  0.28047810442E+02 -0.36450796887E+02  0.98820785666E+02  0.80341580991E+02 0.  0.
         23    2    1    2    0    0  0.73571253075E+02 -0.12207473373E+03  0.22086590220E+02  0.16990311557E+03  0.89801343635E+02 0.  0.
        -11    1    3    3    0    0  0.93491122346E+01  0.44084923817E+02 -0.16694303142E+02  0.48058153990E+02  0.00000000000E+00 0.  1.
         12    1    3    3    0    0 -0.43924215692E+02 -0.16037113374E+02 -0.19756493745E+02  0.50762631676E+02  0.00000000000E+00 0. -1.
        -13    1    4    4    0    0  0.12868036205E+02 -0.99180719206E+02  0.30317284120E+02  0.10450616793E+03  0.00000000000E+00 0. -1.
         13    1    4    4    0    0  0.60703216869E+02 -0.22894014527E+02 -0.82306938997E+01  0.65396947647E+02  0.00000000000E+00 0.  1.
          1    1    1    2  501    0 -0.38996149617E+02  0.94026923291E+02 -0.21414498039E+02  0.10402087634E+03  0.00000000000E+00 0. -1.
<scales pt_clust_5="13000.00000" pt_clust_6="13000.00000" pt_clust_7="13000.00000" pt_clust_8="13000.00000" pt_clust_9="113.75004"></scales>
<clustering>
<clus scale="   80.342">  5  6 -1 -1</clus>
<clus scale="   89.801">  7  8 -1 -1</clus>
<clus scale="   91.853">  1  5  2 -1</clus>
<clus scale="  113.750">  2  9  1 -1</clus>
<clus scale="  113.750">  2  5  1 -1</clus>
</clustering>
</event>
<event>
 9    2  0.1723348E-004  0.9391475E+02  0.7546771E-02  0.1298942E+00
          2   -1    0    0  502    0 -0.00000000000E+00  0.00000000000E+00  0.87873199588E+03  0.87873199588E+03  0.00000000000E+00 0. -1.
         21   -1    0    0  501  502  0.00000000000E+00 -0.00000000000E+00 -0.18094320892E+02  0.18094320892E+02  0.00000000000E+00 0. -1.
         24    2    1    2    0    0 -0.11139213287E+02  0.29151520208E+02  0.47169079417E+03  0.48004013645E+03  0.83501102355E+02 0.  0.
         23    2    1    2    0    0  0.95589752121E+01  0.24281115581E+02  0.23814519992E+03  0.25679027200E+03  0.92450857032E+02 0.  0.
        -13    1    3    3    0    0  0.31276341192E+02 -0.47134390738E+01  0.11611895194E+03  0.12034964489E+03  0.00000000000E+00 0.  1.
         14    1    3    3    0    0 -0.42415554480E+02  0.33864959282E+02  0.35557184223E+03  0.35969049156E+03  0.00000000000E+00 0. -1.
        -11    1    4    4    0    0  0.28483216273E+02 -0.21322659732E+02  0.16326524595E+03  0.16709724702E+03  0.00000000000E+00 0.  1.
         11    1    4    4    0    0 -0.18924241061E+02  0.45603775313E+02  0.74879953977E+02  0.89693024980E+02  0.00000000000E+00 0. -1.
          1    1    1    2  501    0  0.15802380753E+01 -0.53432635789E+02  0.15080168089E+03  0.15999590832E+03  0.00000000000E+00 0. -1.
<scales pt_clust_5="13000.00000" pt_clust_6="13000.00000" pt_clust_7="13000.00000" pt_clust_8="13000.00000" pt_clust_9="53.45600"></scales>
<clustering>
<clus scale="   53.456">  2  9  1 -1</clus>
<clus scale="   83.501">  5  6 -1 -1</clus>
<clus scale="   85.119">  1  5  2 -1</clus>
<clus scale="   92.451">  7  8 -1 -1</clus>
<clus scale="   53.456">  2  5  1 -1</clus>
</clustering>
</event>
<event>
 9    2  0.1723348E-004  0.1204790E+03  0.7546771E-02  0.1244362E+00
         -1   -1    0    0    0  501 -0.00000000000E+00  0.00000000000E+00  0.27936481815E+03  0.27936481815E+03  0.00000000000E+00 0.  1.
         21   -1    0    0  501  502  0.00000000000E+00 -0.00000000000E+00 -0.66111981946E+02  0.66111981946E+02  0.00000000000E+00 0.  1.
         23    2    1    2    0    0  0.21595970074E+02  0.84225621333E+02  0.14381269007E+03  0.19123140433E+03  0.91252501128E+02 0.  0.
         24    2    1    2    0    0 -0.31758609643E+02 -0.61495847777E+02  0.69047471458E+02  0.12934406965E+03  0.84687581494E+02 0.  0.
        -13    1    4    4    0    0  0.27189269624E+02 -0.20733893833E+02  0.78033848314E+01  0.35071976719E+02  0.00000000000E+00 0.  1.
         14    1    4    4    0    0 -0.58947879267E+02 -0.40761953945E+02  0.61244086626E+02  0.94272092934E+02  0.00000000000E+00 0. -1.
        -13    1    3    3    0    0  0.43477738138E+02  0.92841767339E+02  0.11602231525E+03  0.15482598332E+03  0.00000000000E+00 0.  1.
         13    1    3    3    0    0 -0.21881768064E+02 -0.86161460054E+01  0.27790374820E+02  0.36405421001E+02  0.00000000000E+00 0. -1.
         -2    1    1    2    0  502  0.10162639569E+02 -0.22729773556E+02  0.39267467067E+00  0.24901326115E+02  0.00000000000E+00 0.  1.
<scales pt_clust_5="13000.00000" pt_clust_6="13000.00000" pt_clust_7="13000.00000" pt_clust_8="13000.00000" pt_clust_9="24.89823"></scales>
<clustering>
<clus scale="   24.898">  2  9  1 -1</clus>
<clus scale="   84.688">  5  6 -1 -1</clus>
<clus scale="   91.253">  7  8 -1 -1</clus>
<clus scale="  115.586">  2  5  1 -1</clus>
<clus scale="   24.898">  2  5  1 -1</clus>
</clustering>
</event>
<event>
 9    2  0.1723348E-004  0.9255874E+02  0.7546771E-02  0.1303271E+00
          2   -1    0    0  502    0 -0.00000000000E+00  0.00000000000E+00  0.60935036577E+03  0.60935036577E+03  0.00000000000E+00 0. -1.
         21   -1    0    0  501  502  0.00000000000E+00 -0.00000000000E+00 -0.15290316444E+03  0.15290316444E+03  0.00000000000E+00 0. -1.
         24    2    1    2    0    0 -0.17667564733E+02  0.49985852476E+01  0.50655025311E+03  0.51315475591E+03  0.79984472790E+02 0.  0.
         23    2    1    2    0    0  0.89465383417E+01 -0.31760202576E+02  0.74150439035E+02  0.12169716348E+03  0.90681646290E+02 0.  0.
        -11    1    3    3    0    0  0.21749550935E+02  0.28612877237E+02  0.20584185450E+03  0.20895599722E+03  0.00000000000E+00 0.  1.
         12    1    3    3    0    0 -0.39417115668E+02 -0.23614291990E+02  0.30070839861E+03  0.30419875869E+03  0.00000000000E+00 0. -1.
        -13    1    4    4    0    0 -0.39251147153E+02 -0.95633643795E+01  0.17351752023E+02  0.43968099679E+02  0.00000000000E+00 0. -1.
         13    1    4    4    0    0  0.48197685495E+02 -0.22196838197E+02  0.56798687012E+02  0.77729063801E+02  0.00000000000E+00 0.  1.
          1    1    1    2  501    0  0.87210263909E+01  0.26761617328E+02 -0.12425349081E+03  0.12740161083E+03  0.00000000000E+00 0. -1.
<scales pt_clust_5="13000.00000" pt_clust_6="13000.00000" pt_clust_7="13000.00000" pt_clust_8="13000.00000" pt_clust_9="28.14677"></scales>
<clustering>
<clus scale="   28.147">  2  9  1 -1</clus>
<clus scale="   79.984">  5  6 -1 -1</clus>
<clus scale="   82.106">  1  5  2 -1</clus>
<clus scale="   90.682">  7  8 -1 -1</clus>
<clus scale="   28.147">  2  5  1 -1</clus>
</clustering>
</event>
<event>
 9    2  0.1723348E-004  0.1507180E+03  0.7546771E-02  0.1222436E+00
          2   -1    0    0  502    0 -0.00000000000E+00  0.00000000000E+00  0.10445716979E+04  0.10445716979E+04  0.00000000000E+00 0. -1.
         21   -1    0    0  501  502  0.00000000000E+00 -0.00000000000E+00 -0.52802023122E+02  0.52802023122E+02  0.00000000000E+00 0. -1.
         24    2    1    2    0    0 -0.18888747016E+01  0.45100150273E+02  0.47854663996E+03  0.48742598078E+03  0.80867847246E+02 0.  0.
         23    2    1    2    0    0 -0.86828240177E+02  0.46893152971E+02  0.44631252313E+03  0.46568925386E+03  0.89070206964E+02 0.  0.
        -11    1    3    3    0    0 -0.92778165081E+01  0.19802968962E+02  0.25414396450E+02  0.33528003308E+02  0.00000000000E+00 0.  1.
         12    1    3    3    0    0  0.73889418065E+01  0.25297181311E+02  0.45313224351E+03  0.45389797747E+03  0.00000000000E+00 0. -1.
        -13    1    4    4    0    0  0.15349812773E+02  0.19003372893E+02  0.52889278742E+02  0.58258224650E+02  0.00000000000E+00 0.  1.
         13    1    4    4    0    0 -0.10217805295E+03  0.27889780078E+02  0.39342324439E+03  0.40743102921E+03  0.00000000000E+00 0. -1.
          1    1    1    2  501    0  0.88717114878E+02 -0.91993303244E+02  0.66910511652E+02  0.14425848635E+03  0.00000000000E+00 0. -1.
<scales pt_clust_5="13000.00000" pt_clust_6="13000.00000" pt_clust_7="13000.00000" pt_clust_8="13000.00000" pt_clust_9="121.58298"></scales>
<clustering>
<clus scale="   80.868">  5  6 -1 -1</clus>
<clus scale="   89.070">  7  8 -1 -1</clus>
<clus scale="   92.613">  1  5  2 -1</clus>
<clus scale="  121.583">  2  9  1 -1</clus>
<clus scale="  121.583">  2  5  1 -1</clus>
</clustering>
</event>
<event>
 9    2  0.1723348E-004  0.2305229E+03  0.7546771E-02  0.1126821E+00
          2   -1    0    0  502    0 -0.00000000000E+00  0.00000000000E+00  0.85788123454E+03  0.85788123454E+03  0.00000000000E+00 0. -1.
         21   -1    0    0  501  502  0.00000000000E+00 -0.00000000000E+00 -0.15986936057E+03  0.15986936057E+03  0.00000000000E+00 0.  1.
         24    2    1    2    0    0 -0.19447257289E+03 -0.10875986728E+03  0.65979381526E+03  0.70112154941E+03  0.81211194195E+02 0.  0.
         23    2    1    2    0    0  0.15106822407E+03  0.36675985680E+02 -0.58254365206E+02  0.18861751473E+03  0.89533566600E+02 0.  0.
        -13    1    3    3    0    0 -0.80276786674E+02 -0.36462778469E+01  0.18802741504E+03  0.20447974626E+03  0.00000000000E+00 0.  1.
         14    1    3    3    0    0 -0.11419578621E+03 -0.10511358943E+03  0.47176640021E+03  0.49664180316E+03  0.00000000000E+00 0. -1.
        -13    1    4    4    0    0  0.10736199298E+03 -0.10339921348E+01 -0.72005120595E+02  0.12927646371E+03  0.00000000000E+00 0.  1.
         13    1    4    4    0    0  0.43706231088E+02  0.37709977814E+02  0.13750755389E+02  0.59341051023E+02  0.00000000000E+00 0. -1.
          1    1    1    2  501    0  0.43404348814E+02  0.72083881597E+02  0.96472423919E+02  0.12801153096E+03  0.00000000000E+00 0. -1.
<scales pt_clust_5="13000.00000" pt_clust_6="13000.00000" pt_clust_7="13000.00000" pt_clust_8="13000.00000" pt_clust_9="84.14292"></scales>
<clustering>
<clus scale="   81.211">  5  6 -1 -1</clus>
<clus scale="   84.143">  2  9  1 -1</clus>
<clus scale="   89.534">  7  8 -1 -1</clus>
<clus scale="  227.420">  1  5  2 -1</clus>
<clus scale="   84.143">  2  5  1 -1</clus>
</clustering>
</event>
<event>
 9    2  0.1723348E-004  0.2821096E+03  0.7546771E-02  0.1094856E+00
         21   -1    0    0  501  502  0.00000000000E+00  0.00000000000E+00  0.10018458202E+03  0.10018458202E+03  0.00000000000E+00 0. -1.
         -1   -1    0    0    0  501 -0.00000000000E+00 -0.00000000000E+00 -0.98803490990E+03  0.98803490990E+03  0.00000000000E+00 0.  1.
         24    2    1    2    0    0  0.17121995227E+03 -0.19684164824E+03 -0.55963631938E+03  0.62282049436E+03  0.81545396455E+02 0.  0.
         23    2    1    2    0    0 -0.17793378572E+03  0.21882819691E+03 -0.26140983970E+03  0.39475000004E+03  0.89141720742E+02 0.  0.
        -13    1    3    3    0    0  0.12458606846E+03 -0.13212833429E+03 -0.29492997643E+03  0.34635715118E+03  0.00000000000E+00 0.  1.
         14    1    3    3    0    0  0.46633883810E+02 -0.64713313950E+02 -0.26470634295E+03  0.27646334318E+03  0.00000000000E+00 0. -1.
        -11    1    4    4    0    0 -0.17095600064E+02  0.80612263915E+02 -0.56931544233E+02  0.10015886064E+03  0.00000000000E+00 0.  1.
         11    1    4    4    0    0 -0.16083818566E+03  0.13821593299E+03 -0.20447829547E+03  0.29459113940E+03  0.00000000000E+00 0. -1.
         -2    1    1    2    0  502  0.67138334445E+01 -0.21986548670E+02 -0.66804168802E+02  0.70648997525E+02  0.00000000000E+00 0.  1.
<scales pt_clust_5="13000.00000" pt_clust_6="13000.00000" pt_clust_7="13000.00000" pt_clust_8="13000.00000" pt_clust_9="22.98879"></scales>
<clustering>
<clus scale="   22.989">  1  9  2 -1</clus>
<clus scale="   81.545">  5  6 -1 -1</clus>
<clus scale="   89.142">  7  8 -1 -1</clus>
<clus scale="  279.802">  2  5  1 -1</clus>
<clus scale="   22.989">  1  5  2 -1</clus>
</clustering>
</event>
<event>
 9    2  0.1723348E-004  0.1065456E+03  0.7546771E-02  0.1273505E+00
         21   -1    0    0  501  502  0.00000000000E+00  0.00000000000E+00  0.10713697028E+03  0.10713697028E+03  0.00000000000E+00 0.  1.
         -1   -1    0    0    0  501 -0.00000000000E+00 -0.00000000000E+00 -0.30209519131E+03  0.30209519131E+03  0.00000000000E+00 0.  1.
         24    2    1    2    0    0  0.15661122522E+02  0.60340868396E+02 -0.20041464246E+03  0.22315141859E+03  0.75790735257E+02 0.  0.
         23    2    1    2    0    0  0.19926086006E+01 -0.84474237507E+01  0.59703252921E+02  0.10896198687E+03  0.90735366398E+02 0.  0.
        -13    1    3    3    0    0 -0.22259168301E+02  0.16443316151E+02 -0.12489652742E+03  0.12792574323E+03  0.00000000000E+00 0.  1.
         14    1    3    3    0    0  0.37920290824E+02  0.43897552245E+02 -0.75518115039E+02  0.95225675363E+02  0.00000000000E+00 0. -1.
        -11    1    4    4    0    0  0.25260111599E+02 -0.37891645625E+02  0.54584447458E+02  0.71086651000E+02  0.00000000000E+00 0.  1.
         11    1    4    4    0    0 -0.23267502999E+02  0.29444221875E+02  0.51188054635E+01  0.37875335866E+02  0.00000000000E+00 0. -1.
         -2    1    1    2    0  502 -0.17653731123E+02 -0.51893444646E+02 -0.54246831494E+02  0.77118756129E+02  0.00000000000E+00 0.  1.
<scales pt_clust_5="13000.00000" pt_clust_6="13000.00000" pt_clust_7="13000.00000" pt_clust_8="13000.00000" pt_clust_9="54.81411"></scales>
<clustering>
<clus scale="   54.814">  1  9  2 -1</clus>
<clus scale="   75.791">  5  6 -1 -1</clus>
<clus scale="   90.735">  7  8 -1 -1</clus>
<clus scale="   94.145">  2  5  1 -1</clus>
<clus scale="   54.814">  1  5  2 -1</clus>
</clustering>
</event>
<event>
 9    2  0.1723348E-004  0.1459690E+03  0.7546771E-02  0.1227114E+00
         -3   -1    0    0    0  501 -0.00000000000E+00  0.00000000000E+00  0.91982339809E+02  0.91982339809E+02  0.00000000000E+00 0.  1.
         21   -1    0    0  501  502  0.00000000000E+00 -0.00000000000E+00 -0.40408421968E+03  0.40408421968E+03  0.00000000000E+00 0.  1.
         23    2    1    2    0    0  0.15743361560E+02  0.16253578629E+01 -0.22115036322E+02  0.95091135113E+02  0.91119448660E+02 0.  0.
         24    2    1    2    0    0  0.59355804955E+02 -0.10186292194E+03 -0.10123523144E+03  0.17444810785E+03  0.79274231614E+02 0.  0.
        -11    1    4    4    0    0  0.42527664233E+02 -0.38642874747E+02 -0.44602732138E+01  0.57634781434E+02  0.00000000000E+00 0.  1.
         12    1    4    4    0    0  0.16828140723E+02 -0.63220047188E+02 -0.96774958231E+02  0.11681332641E+03  0.00000000000E+00 0. -1.
        -13    1    3    3    0    0 -0.89312331814E+00 -0.34450013456E+02  0.17790313558E+02  0.38782681095E+02  0.00000000000E+00 0.  1.
         13    1    3    3    0    0  0.16636484878E+02  0.36075371319E+02 -0.39905349880E+02  0.56308454019E+02  0.00000000000E+00 0. -1.
         -4    1    1    2    0  502 -0.75099166516E+02  0.10023756407E+03 -0.18875161210E+03  0.22652731653E+03  0.00000000000E+00 0.  1.
<scales pt_clust_5="13000.00000" pt_clust_6="13000.00000" pt_clust_7="13000.00000" pt_clust_8="13000.00000" pt_clust_9="122.56655"></scales>
<clustering>
<clus scale="   79.274">  5  6 -1 -1</clus>
<clus scale="   91.119">  7  8 -1 -1</clus>
<clus scale="   92.484">  1  7  2 -1</clus>
<clus scale="  122.567">  2  9  1 -1</clus>
<clus scale="  122.567">  2  5  1 -1</clus>
</clustering>
</event>
<event>
 9    2  0.1723348E-004  0.2260596E+03  0.7546771E-02  0.1129444E+00
          2   -1    0    0  502    0 -0.00000000000E+00  0.00000000000E+00  0.76054380714E+03  0.76054380714E+03  0.00000000000E+00 0. -1.
         21   -1    0    0  501  502  0.00000000000E+00 -0.00000000000E+00 -0.43341325322E+02  0.43341325322E+02  0.00000000000E+00 0. -1.
         24    2    1    2    0    0  0.57512924330E+02  0.59584270555E+02  0.24233903746E+03  0.26861609171E+03  0.81045505060E+02 0.  0.
         23    2    1    2    0    0 -0.18330751526E+01  0.59383583786E+02  0.27681640655E+03  0.29762177028E+03  0.91769412257E+02 0.  0.
        -13    1    3    3    0    0 -0.14204969069E+02  0.22859417187E+02  0.11357502489E+03  0.11672026550E+03  0.00000000000E+00 0.  1.
         14    1    3    3    0    0  0.71717893399E+02  0.36724853368E+02  0.12876401257E+03  0.15189582621E+03  0.00000000000E+00 0. -1.
        -13    1    4    4    0    0 -0.13221737444E+02 -0.22537523894E+02  0.55125247207E+02  0.61004485114E+02  0.00000000000E+00 0.  1.
         13    1    4    4    0    0  0.11388662291E+02  0.81921107680E+02  0.22169115934E+03  0.23661728517E+03  0.00000000000E+00 0. -1.
          1    1    1    2  501    0 -0.55679849177E+02 -0.11896785434E+03  0.19804703782E+03  0.23764727046E+03  0.00000000000E+00 0. -1.
<scales pt_clust_5="13000.00000" pt_clust_6="13000.00000" pt_clust_7="13000.00000" pt_clust_8="13000.00000" pt_clust_9="131.35294"></scales>
<clustering>
<clus scale="   81.046">  5  6 -1 -1</clus>
<clus scale="   91.769">  7  8 -1 -1</clus>
<clus scale="  104.694">  5  7 -1 -1</clus>
<clus scale="  131.353">  2  9  1 -1</clus>
<clus scale="  131.353">  2  5  1 -1</clus>
</clustering>
</event>
<event>
 9    2  0.1723348E-004  0.1215444E+03  0.7546771E-02  0.1243667E+00
         21   -1    0    0  501  502  0.00000000000E+00  0.00000000000E+00  0.37628537614E+03  0.37628537614E+03  0.00000000000E+00 0.  1.
          2   -1    0    0  502    0 -0.00000000000E+00 -0.00000000000E+00 -0.12107342512E+03  0.12107342512E+03  0.00000000000E+00 0. -1.
         23    2    1    2    0    0  0.45464868912E+01  0.91168442020E+02 -0.37223268494E+02  0.13461804559E+03  0.91673830053E+02 0.  0.
         24    2    1    2    0    0  0.46860752993E+02 -0.20078295685E+02  0.24451932342E+03  0.26277853122E+03  0.81632033026E+02 0.  0.
        -11    1    4    4    0    0  0.30304570632E+02  0.26610178706E+02  0.15815373203E+03  0.16321480192E+03  0.00000000000E+00 0.  1.
         12    1    4    4    0    0  0.16556182361E+02 -0.46688474391E+02  0.86365591386E+02  0.99563729293E+02  0.00000000000E+00 0. -1.
        -13    1    3    3    0    0 -0.40180727589E+02  0.43467145343E+02 -0.35869318920E+02  0.69213377562E+02  0.00000000000E+00 0. -1.
         13    1    3    3    0    0  0.44727214480E+02  0.47701296678E+02 -0.13539495742E+01  0.65404668024E+02  0.00000000000E+00 0.  1.
          1    1    1    2  501    0 -0.51407239884E+02 -0.71090146335E+02  0.47915896096E+02  0.99962224450E+02  0.00000000000E+00 0. -1.
<scales pt_clust_5="13000.00000" pt_clust_6="13000.00000" pt_clust_7="13000.00000" pt_clust_8="13000.00000" pt_clust_9="87.72982"></scales>
<clustering>
<clus scale="   81.632">  5  6 -1 -1</clus>
<clus scale="   87.730">  1  9  2 -1</clus>
<clus scale="   91.674">  7  8 -1 -1</clus>
<clus scale="  114.161">  1  5  2 -1</clus>
<clus scale="   87.730">  1  5  2 -1</clus>
</clustering>
</event>
<event>
 9    2  0.1723348E-004  0.2556907E+03  0.7546771E-02  0.1147342E+00
          2   -1    0    0  502    0 -0.00000000000E+00  0.00000000000E+00  0.11337792896E+04  0.11337792896E+04  0.00000000000E+00 0. -1.
         21   -1    0    0  501  502  0.00000000000E+00 -0.00000000000E+00 -0.10717053686E+03  0.10717053686E+03  0.00000000000E+00 0.  1.
         24    2    1    2    0    0  0.55667422527E+02  0.57674481384E+00  0.45786580118E+03  0.46894272356E+03  0.84658086011E+02 0.  0.
         23    2    1    2    0    0 -0.25402764155E+03  0.46149050932E+02  0.16580957878E+03  0.32047041626E+03  0.92459146189E+02 0.  0.
        -11    1    3    3    0    0  0.33428451952E+02 -0.45568304586E+01  0.49293175331E+02  0.59733100019E+02  0.00000000000E+00 0.  1.
         12    1    3    3    0    0  0.22238970575E+02  0.51335752724E+01  0.40857262585E+03  0.40920962354E+03  0.00000000000E+00 0. -1.
        -11    1    4    4    0    0 -0.17491571102E+03  0.61383750536E+02  0.77471498979E+02  0.20091118422E+03  0.00000000000E+00 0.  1.
         11    1    4    4    0    0 -0.79111930524E+02 -0.15234699605E+02  0.88338079797E+02  0.11955923204E+03  0.00000000000E+00 0. -1.
          1    1    1    2  501    0  0.19836021902E+03 -0.46725795745E+02  0.40293337278E+03  0.45153668663E+03  0.00000000000E+00 0. -1.
<scales pt_clust_5="13000.00000" pt_clust_6="13000.00000" pt_clust_7="13000.00000" pt_clust_8="13000.00000" pt_clust_9="238.38857"></scales>
<clustering>
<clus scale="   84.658">  5  6 -1 -1</clus>
<clus scale="   92.459">  7  8 -1 -1</clus>
<clus scale="  101.322">  1  5  2 -1</clus>
<clus scale="  238.389">  2  9  1 -1</clus>
<clus scale="  238.389">  2  5  1 -1</clus>
</clustering>
</event>
<event>
 9    2  0.1723348E-004  0.1134127E+03  0.7546771E-02  0.1257154E+00
          2   -1    0    0  502    0 -0.00000000000E+00  0.00000000000E+00  0.53840004781E+03  0.53840004781E+03  0.00000000000E+00 0. -1.
         21   -1    0    0  501  502  0.00000000000E+00 -0.00000000000E+00 -0.38849704471E+02  0.38849704471E+02  0.00000000000E+00 0. -1.
         24    2    1    2    0    0  0.71822185192E+02 -0.33655214414E+02  0.28571367685E+03  0.30807432419E+03  0.83584593937E+02 0.  0.
         23    2    1    2    0    0 -0.38355922552E+02  0.13809135397E+02  0.74885593663E+02  0.12487969625E+03  0.91242629195E+02 0.  0.
        -13    1    3    3    0    0 -0.11341128682E+02 -0.23512555029E+02  0.34530409486E+02  0.43287534268E+02  0.00000000000E+00 0.  1.
         14    1    3    3    0    0  0.83163313873E+02 -0.10142659386E+02  0.25118326737E+03  0.26478678992E+03  0.00000000000E+00 0. -1.
        -11    1    4    4    0    0 -0.59593294625E+02  0.26494941670E+02  0.26226623920E+02  0.70293516775E+02  0.00000000000E+00 0. -1.
         11    1    4    4    0    0  0.21237372073E+02 -0.12685806273E+02  0.48658969743E+02  0.54586179476E+02  0.00000000000E+00 0.  1.
          1    1    1    2  501    0 -0.33466262640E+02  0.19846079018E+02  0.13895107282E+03  0.14429573183E+03  0.00000000000E+00 0. -1.
<scales pt_clust_5="13000.00000" pt_clust_6="13000.00000" pt_clust_7="13000.00000" pt_clust_8="13000.00000" pt_clust_9="38.90834"></scales>
<clustering>
<clus scale="   38.908">  2  9  1 -1</clus>
<clus scale="   83.585">  5  6 -1 -1</clus>
<clus scale="   91.243">  7  8 -1 -1</clus>
<clus scale="  107.348">  1  5  2 -1</clus>
<clus scale="   38.908">  2  5  1 -1</clus>
</clustering>
</event>
<event>
 9    2  0.1723348E-004  0.9686594E+02  0.7546771E-02  0.1292752E+00
          2   -1    0    0  502    0 -0.00000000000E+00  0.00000000000E+00  0.10647316877E+03  0.10647316877E+03  0.00000000000E+00 0. -1.
         21   -1    0    0  501  502  0.00000000000E+00 -0.00000000000E+00 -0.17856956843E+03  0.17856956843E+03  0.00000000000E+00 0.  1.
         24    2    1    2    0    0  0.47563917228E+02 -0.43345924643E+02 -0.20249147182E+02  0.10340026611E+03  0.78360651249E+02 0.  0.
         23    2    1    2    0    0 -0.14056712021E+02 -0.18485063437E+02 -0.61314730732E+02  0.11068165774E+03  0.89171993547E+02 0.  0.
        -11    1    3    3    0    0  0.61763090408E+02 -0.36907845557E+02 -0.36670857086E+02  0.80756548712E+02  0.00000000000E+00 0.  1.
         12    1    3    3    0    0 -0.14199173180E+02 -0.64380790862E+01  0.16421709904E+02  0.22643717395E+02  0.00000000000E+00 0. -1.
        -13    1    4    4    0    0 -0.19761326524E+02 -0.40971105297E+02 -0.71980480889E+02  0.85148876236E+02  0.00000000000E+00 0.  1.
         13    1    4    4    0    0  0.57046145030E+01  0.22486041860E+02  0.10665750157E+02  0.25532781509E+02  0.00000000000E+00 0. -1.
          1    1    1    2  501    0 -0.33507205207E+02  0.61830988081E+02  0.94674782547E+01  0.70960813357E+02  0.00000000000E+00 0. -1.
<scales pt_clust_5="13000.00000" pt_clust_6="13000.00000" pt_clust_7="13000.00000" pt_clust_8="13000.00000" pt_clust_9="70.32644"></scales>
<clustering>
<clus scale="   70.326">  2  9  1 -1</clus>
<clus scale="   78.361">  5  6 -1 -1</clus>
<clus scale="   87.016">  1  5  2 -1</clus>
<clus scale="   89.172">  7  8 -1 -1</clus>
<clus scale="   70.326">  2  5  1 -1</clus>
</clustering>
</event>
<event>
 9    2  0.1723348E-004  0.2267821E+03  0.7546771E-02  0.1144106E+00
         21   -1    0    0  501  502  0.00000000000E+00  0.00000000000E+00  0.12625559737E+03  0.12625559737E+03  0.00000000000E+00 0.  1.
          2   -1    0    0  502    0 -0.00000000000E+00 -0.00000000000E+00 -0.78462041742E+03  0.78462041742E+03  0.00000000000E+00 0. -1.
         24    2    1    2    0    0  0.11029611670E+03  0.77028719346E+02 -0.23460367436E+03  0.28222634693E+03  0.80710407751E+02 0.  0.
         23    2    1    2    0    0 -0.52578693880E+02 -0.24066851263E+03 -0.14274203899E+03  0.29837550723E+03  0.89256941467E+02 0.  0.
        -11    1    3    3    0    0  0.40512562064E+02  0.49295187676E+02 -0.44395852954E+02  0.77732071711E+02  0.00000000000E+00 0.  1.
         12    1    3    3    0    0  0.69783554635E+02  0.27733531670E+02 -0.19020782140E+03  0.20449427522E+03  0.00000000000E+00 0. -1.
        -11    1    4    4    0    0 -0.46214958454E+02 -0.39870739105E+02 -0.36423613279E+02  0.71078673496E+02  0.00000000000E+00 0. -1.
         11    1    4    4    0    0 -0.63637354260E+01 -0.20079777353E+03 -0.10631842571E+03  0.22729683374E+03  0.00000000000E+00 0.  1.
          1    1    1    2  501    0 -0.57717422819E+02  0.16363979329E+03 -0.28101910670E+03  0.33027416062E+03  0.00000000000E+00 0. -1.
<scales pt_clust_5="13000.00000" pt_clust_6="13000.00000" pt_clust_7="13000.00000" pt_clust_8="13000.00000" pt_clust_9="208.47873"></scales>
<clustering>
<clus scale="   80.710">  5  6 -1 -1</clus>
<clus scale="   89.257">  7  8 -1 -1</clus>
<clus scale="  156.885">  2  5  1 -1</clus>
<clus scale="  208.479">  1  9  2 -1</clus>
<clus scale="  208.479">  1  5  2 -1</clus>
</clustering>
</event>
<event>
 9    2  0.1723348E-004  0.1197695E+03  0.7546771E-02  0.1246463E+00
         -1   -1    0    0    0  501 -0.00000000000E+00  0.00000000000E+00  0.51391491154E+03  0.51391491154E+03  0.00000000000E+00 0.  1.
         21   -1    0    0  501  502  0.00000000000E+00 -0.00000000000E+00 -0.78580685243E+02  0.78580685243E+02  0.00000000000E+00 0.  1.
         24    2    1    2    0    0  0.58608225430E+02  0.48695667227E+02  0.41254583704E+03  0.42718052271E+03  0.80516701509E+02 0.  0.
         23    2    1    2    0    0 -0.74386322458E+02 -0.63690511176E+02  0.38473306564E+02  0.13848579303E+03  0.90046173545E+02 0.  0.
        -11    1    3    3    0    0  0.42801795060E+02  0.65502761634E+02  0.37527979608E+03  0.38335040210E+03  0.00000000000E+00 0.  1.
         12    1    3    3    0    0  0.15806430370E+02 -0.16807094407E+02  0.37266040965E+02  0.43830120609E+02  0.00000000000E+00 0. -1.
        -13    1    4    4    0    0 -0.27645966184E+02 -0.74620338554E+02  0.45493396742E+01  0.79706905997E+02  0.00000000000E+00 0.  1.
         13    1    4    4    0    0 -0.46740356273E+02  0.10929827378E+02  0.33923966889E+02  0.58778887031E+02  0.00000000000E+00 0. -1.
         -2    1    1    2    0  502  0.15778097028E+02  0.14994843949E+02 -0.15684917308E+02  0.26829281053E+02  0.00000000000E+00 0.  1.
<scales pt_clust_5="13000.00000" pt_clust_6="13000.00000" pt_clust_7="13000.00000" pt_clust_8="13000.00000" pt_clust_9="21.76680"></scales>
<clustering>
<clus scale="   21.767">  2  9  1 -1</clus>
<clus scale="   80.517">  5  6 -1 -1</clus>
<clus scale="   90.046">  7  8 -1 -1</clus>
<clus scale="  112.780">  1  5  2 -1</clus>
<clus scale="   21.767">  2  5  1 -1</clus>
</clustering>
</event>
<event>
 9    2  0.1723348E-004  0.2406838E+03  0.7546771E-02  0.1161495E+00
         21   -1    0    0  501  502  0.00000000000E+00  0.00000000000E+00  0.19066381157E+03  0.19066381157E+03  0.00000000000E+00 0. -1.
          4   -1    0    0  502    0 -0.00000000000E+00 -0.00000000000E+00 -0.20288732602E+04  0.20288732602E+04  0.00000000000E+00 0. -1.
         23    2    1    2    0    0 -0.17564050380E+02 -0.28700314375E+01  0.10076923914E+03  0.13319278934E+03  0.85259290575E+02 0.  0.
         24    2    1    2    0    0  0.20857859903E+03 -0.11700503609E+03 -0.18080572158E+04  0.18255818974E+04  0.80518060473E+02 0.  0.
        -11    1    4    4    0    0  0.50257393173E+02 -0.37321815228E+02 -0.26088334730E+03  0.26828873319E+03  0.00000000000E+00 0.  1.
         12    1    4    4    0    0  0.15832120586E+03 -0.79683220859E+02 -0.15471738685E+04  0.15572931643E+04  0.00000000000E+00 0. -1.
        -11    1    3    3    0    0  0.18615139111E+02  0.16327582531E+02  0.86257029527E+02  0.89740673600E+02  0.00000000000E+00 0.  1.
         11    1    3    3    0    0 -0.36179189491E+02 -0.19197613968E+02  0.14512209609E+02  0.43452115737E+02  0.00000000000E+00 0. -1.
          3    1    1    2  501    0 -0.19101454865E+03  0.11987506753E+03 -0.13092147190E+03  0.26076238497E+03  0.00000000000E+00 0. -1.
<scales pt_clust_5="13000.00000" pt_clust_6="13000.00000" pt_clust_7="13000.00000" pt_clust_8="13000.00000" pt_clust_9="226.81611"></scales>
<clustering>
<clus scale="   80.518">  5  6 -1 -1</clus>
<clus scale="   85.259">  7  8 -1 -1</clus>
<clus scale="   87.097">  2  7  1 -1</clus>
<clus scale="  226.816">  1  9  2 -1</clus>
<clus scale="  226.816">  1  5  2 -1</clus>
</clustering>
</event>
<event>
 9    2  0.1723348E-004  0.1656248E+03  0.7546771E-02  0.1209600E+00
         -1   -1    0    0    0  501 -0.00000000000E+00  0.00000000000E+00  0.35402953137E+03  0.35402953137E+03  0.00000000000E+00 0.  1.
         21   -1    0    0  501  502  0.00000000000E+00 -0.00000000000E+00 -0.14765970141E+03  0.14765970141E+03  0.00000000000E+00 0.  1.
         23    2    1    2    0    0 -0.58601531667E+01  0.24878356616E+02  0.16279185765E+03  0.18676570947E+03  0.87903169972E+02 0.  0.
         24    2    1    2    0    0  0.13657914800E+03 -0.68551805863E+02  0.93193191560E+01  0.17290774569E+03  0.80355616200E+02 0.  0.
        -13    1    4    4    0    0  0.11860765765E+03 -0.77168367771E+02  0.29500376285E+02  0.14454413042E+03  0.00000000000E+00 0.  1.
         14    1    4    4    0    0  0.17971490356E+02  0.86165619079E+01 -0.20181057129E+02  0.28363615277E+02  0.00000000000E+00 0. -1.
        -13    1    3    3    0    0  0.14294106448E+02 -0.25701642998E+02  0.97031272302E+02  0.10139015601E+03  0.00000000000E+00 0.  1.
         13    1    3    3    0    0 -0.20154259615E+02  0.50579999614E+02  0.65760585352E+02  0.85375553453E+02  0.00000000000E+00 0. -1.
         -2    1    1    2    0  502 -0.13071899483E+03  0.43673449247E+02  0.34258653152E+02  0.14201577763E+03  0.00000000000E+00 0.  1.
<scales pt_clust_5="13000.00000" pt_clust_6="13000.00000" pt_clust_7="13000.00000" pt_clust_8="13000.00000" pt_clust_9="144.82605"></scales>
<clustering>
<clus scale="   80.356">  5  6 -1 -1</clus>
<clus scale="   87.903">  7  8 -1 -1</clus>
<clus scale="   91.544">  1  7  2 -1</clus>
<clus scale="  144.826">  2  9  1 -1</clus>
<clus scale="  144.826">  2  5  1 -1</clus>
</clustering>
</event>
<event>
 9    2  0.1723348E-004  0.1094782E+03  0.7546771E-02  0.1265742E+00
         21   -1    0    0  501  502  0.00000000000E+00  0.00000000000E+00  0.27809520441E+03  0.27809520441E+03  0.00000000000E+00 0.  1.
         -3   -1    0    0    0  501 -0.00000000000E+00 -0.00000000000E+00 -0.10246776164E+03  0.10246776164E+03  0.00000000000E+00 0.  1.
         23    2    1    2    0    0 -0.53698561610E+02 -0.93980956198E+01 -0.13163492869E+02  0.10682203491E+03  0.90916499482E+02 0.  0.
         24    2    1    2    0    0  0.71455757327E+02  0.67503170281E+02  0.16572226989E+03  0.20875107777E+03  0.80315244378E+02 0.  0.
        -11    1    4    4    0    0  0.49366018651E+02  0.39213531684E+02  0.16055402454E+03  0.17248854936E+03  0.00000000000E+00 0.  1.
         12    1    4    4    0    0  0.22089738676E+02  0.28289638597E+02  0.51682453518E+01  0.36262528411E+02  0.00000000000E+00 0. -1.
        -11    1    3    3    0    0 -0.14441468321E+02  0.28905050052E+02 -0.35138124199E+02  0.47736209506E+02  0.00000000000E+00 0.  1.
         11    1    3    3    0    0 -0.39257093289E+02 -0.38303145672E+02  0.21974631331E+02  0.59085825406E+02  0.00000000000E+00 0. -1.
         -4    1    1    2    0  502 -0.17757195718E+02 -0.58105074661E+02  0.23068665751E+02  0.64989853367E+02  0.00000000000E+00 0.  1.
<scales pt_clust_5="13000.00000" pt_clust_6="13000.00000" pt_clust_7="13000.00000" pt_clust_8="13000.00000" pt_clust_9="60.75789"></scales>
<clustering>
<clus scale="   60.758">  1  9  2 -1</clus>
<clus scale="   80.315">  5  6 -1 -1</clus>
<clus scale="   90.916">  7  8 -1 -1</clus>
<clus scale="  100.847">  1  5  2 -1</clus>
<clus scale="   60.758">  1  5  2 -1</clus>
</clustering>
</event>
<event>
 9    2  0.1723348E-004  0.1034443E+03  0.7546771E-02  0.1279499E+00
         21   -1    0    0  501  502  0.00000000000E+00  0.00000000000E+00  0.91039988346E+02  0.91039988346E+02  0.00000000000E+00 0. -1.
          2   -1    0    0  502    0 -0.00000000000E+00 -0.00000000000E+00 -0.62595532192E+03  0.62595532192E+03  0.00000000000E+00 0. -1.
         24    2    1    2    0    0 -0.43677075422E+02 -0.43405596934E+01 -0.50518028061E+03  0.51339933179E+03  0.80282193485E+02 0.  0.
         23    2    1    2    0    0  0.54044629869E+02 -0.67981733243E+02 -0.10286383314E+02  0.12799008590E+03  0.93452203475E+02 0.  0.
        -11    1    3    3    0    0 -0.22195030513E+02  0.34637244945E+02 -0.15360966779E+03  0.15902291708E+03  0.00000000000E+00 0.  1.
         12    1    3    3    0    0 -0.21482044909E+02 -0.38977804638E+02 -0.35157061282E+03  0.35437641472E+03  0.00000000000E+00 0. -1.
        -11    1    4    4    0    0  0.31273052838E+02 -0.67903532068E+02  0.30927462717E+02  0.80903655364E+02  0.00000000000E+00 0. -1.
         11    1    4    4    0    0  0.22771577031E+02 -0.78201175440E-01 -0.41213846031E+02  0.47086430535E+02  0.00000000000E+00 0.  1.
          1    1    1    2  501    0 -0.10367554447E+02  0.72322292937E+02 -0.19448669649E+02  0.75605892574E+02  0.00000000000E+00 0. -1.
<scales pt_clust_5="13000.00000" pt_clust_6="13000.00000" pt_clust_7="13000.00000" pt_clust_8="13000.00000" pt_clust_9="73.06162"></scales>
<clustering>
<clus scale="   73.062">  1  9  2 -1</clus>
<clus scale="   80.282">  5  6 -1 -1</clus>
<clus scale="   91.720">  2  5  1 -1</clus>
<clus scale="   93.452">  7  8 -1 -1</clus>
<clus scale="   73.062">  1  5  2 -1</clus>
</clustering>
</event>
<event>
 9    2  0.1723348E-004  0.1999283E+03  0.7546771E-02  0.1170963E+00
          2   -1    0    0  502    0 -0.00000000000E+00  0.00000000000E+00  0.31153356857E+03  0.31153356857E+03  0.00000000000E+00 0. -1.
         21   -1    0    0  501  502  0.00000000000E+00 -0.00000000000E+00 -0.21572206561E+03  0.21572206561E+03  0.00000000000E+00 0. -1.
         24    2    1    2    0    0  0.86266905391E+02 -0.32790092693E+02  0.47941166396E+02  0.13125991590E+03  0.80085210502E+02 0.  0.
         23    2    1    2    0    0 -0.22906272324E+03  0.42613180072E+01  0.22859072514E+02  0.24824559169E+03  0.92819430009E+02 0.  0.
        -13    1    3    3    0    0  0.66892287037E+02 -0.16722553949E+02 -0.84882721142E+01  0.69471380000E+02  0.00000000000E+00 0.  1.
         14    1    3    3    0    0  0.19374618354E+02 -0.16067538744E+02  0.56429438510E+02  0.61788535896E+02  0.00000000000E+00 0. -1.
        -13    1    4    4    0    0 -0.18484051693E+03  0.24582303789E+02 -0.14297391836E+02  0.18701529823E+03  0.00000000000E+00 0. -1.
         13    1    4    4    0    0 -0.44222206309E+02 -0.20320985781E+02  0.37156464350E+02  0.61230293458E+02  0.00000000000E+00 0.  1.
          1    1    1    2  501    0  0.14279581785E+03  0.28528774686E+02  0.25011264052E+02  0.14775012660E+03  0.00000000000E+00 0. -1.
<scales pt_clust_5="13000.00000" pt_clust_6="13000.00000" pt_clust_7="13000.00000" pt_clust_8="13000.00000" pt_clust_9="177.07587"></scales>
<clustering>
<clus scale="   80.085">  5  6 -1 -1</clus>
<clus scale="   92.819">  7  8 -1 -1</clus>
<clus scale="  122.192">  1  5  2 -1</clus>
<clus scale="  177.076">  2  9  1 -1</clus>
<clus scale="  177.076">  2  5  1 -1</clus>
</clustering>
</event>
<event>
 9    2  0.1723348E-004  0.1146909E+03  0.7546771E-02  0.1257115E+00
         21   -1    0    0  501  502  0.00000000000E+00  0.00000000000E+00  0.96900389467E+02  0.96900389467E+02  0.00000000000E+00 0.  1.
         -3   -1    0    0    0  501 -0.00000000000E+00 -0.00000000000E+00 -0.30921069939E+03  0.30921069939E+03  0.00000000000E+00 0.  1.
         23    2    1    2    0    0  0.39754475765E+02 -0.39157084968E+02 -0.20706919942E+03  0.23844814131E+03  0.10424090895E+03 0.  0.
         24    2    1    2    0    0 -0.38227545591E+02  0.39470979179E+01 -0.49169457203E+02  0.11134443951E+03  0.92211842323E+02 0.  0.
        -13    1    4    4    0    0 -0.39745244230E+02 -0.21413082240E+02 -0.66653488055E+02  0.80503987478E+02  0.00000000000E+00 0.  1.
         14    1    4    4    0    0  0.15176986386E+01  0.25360180158E+02  0.17484030852E+02  0.30840452034E+02  0.00000000000E+00 0. -1.
        -13    1    3    3    0    0 -0.11052176645E+02  0.23143890227E+02 -0.13796170184E+02  0.29122578443E+02  0.00000000000E+00 0. -1.
         13    1    3    3    0    0  0.50806652410E+02 -0.62300975195E+02 -0.19327302924E+03  0.20932556287E+03  0.00000000000E+00 0.  1.
         -4    1    1    2    0  502 -0.15269301742E+01  0.35209987050E+02  0.43928346699E+02  0.56318508037E+02  0.00000000000E+00 0.  1.
<scales pt_clust_5="13000.00000" pt_clust_6="13000.00000" pt_clust_7="13000.00000" pt_clust_8="13000.00000" pt_clust_9="35.24308"></scales>
<clustering>
<clus scale="   35.243">  1  9  2 -1</clus>
<clus scale="   92.212">  5  6 -1 -1</clus>
<clus scale="  103.879">  1  5  2 -1</clus>
<clus scale="  104.241">  7  8 -1 -1</clus>
<clus scale="   35.243">  1  5  2 -1</clus>
</clustering>
</event>
<event>
 9    2  0.1723348E-004  0.1181533E+03  0.7546771E-02  0.1248962E+00
         21   -1    0    0  501  502  0.00000000000E+00  0.00000000000E+00  0.88497115842E+02  0.88497115842E+02  0.00000000000E+00 0.  1.
         -1   -1    0    0    0  501 -0.00000000000E+00 -0.00000000000E+00 -0.40323508914E+03  0.40323508914E+03  0.00000000000E+00 0.  1.
         24    2    1    2    0    0 -0.22083920571E+02 -0.90944904762E+02 -0.20209107294E+03  0.23686605179E+03  0.80660086016E+02 0.  0.
         23    2    1    2    0    0  0.41275999299E+02  0.10475429294E+02  0.17638441493E+02  0.10053552542E+03  0.89346709601E+02 0.  0.
        -13    1    3    3    0    0  0.22313077750E+02 -0.69442183687E+02 -0.13685332507E+03  0.15507715143E+03  0.00000000000E+00 0.  1.
         14    1    3    3    0    0 -0.44396998322E+02 -0.21502721075E+02 -0.65237747874E+02  0.81788900354E+02  0.00000000000E+00 0. -1.
        -13    1    4    4    0    0  0.29651930926E+02 -0.33436193124E+02  0.29549144535E+02  0.53575815076E+02  0.00000000000E+00 0.  1.
         13    1    4    4    0    0  0.11624068373E+02  0.43911622417E+02 -0.11910703042E+02  0.46959710346E+02  0.00000000000E+00 0. -1.
         -2    1    1    2    0  502 -0.19192078728E+02  0.80469475468E+02 -0.13028534185E+03  0.15433062777E+03  0.00000000000E+00 0.  1.
<scales pt_clust_5="13000.00000" pt_clust_6="13000.00000" pt_clust_7="13000.00000" pt_clust_8="13000.00000" pt_clust_9="82.72653"></scales>
<clustering>
<clus scale="   80.660">  5  6 -1 -1</clus>
<clus scale="   82.727">  1  9  2 -1</clus>
<clus scale="   89.347">  7  8 -1 -1</clus>
<clus scale="  111.729">  2  5  1 -1</clus>
<clus scale="   82.727">  1  5  2 -1</clus>
</clustering>
</event>
<event>
 9    2  0.1723348E-004  0.3161285E+03  0.7546771E-02  0.1112218E+00
          2   -1    0    0  502    0 -0.00000000000E+00  0.00000000000E+00  0.34089561109E+03  0.34089561109E+03  0.00000000000E+00 0. -1.
         21   -1    0    0  501  502  0.00000000000E+00 -0.00000000000E+00 -0.20673837273E+04  0.20673837273E+04  0.00000000000E+00 0.  1.
         23    2    1    2    0    0  0.85733042243E+02 -0.24360050194E+02  0.26552331679E+03  0.29437411003E+03  0.90608599599E+02 0.  0.
         24    2    1    2    0    0  0.24016061855E+03  0.55929215526E+02 -0.32857297226E+03  0.41854957157E+03  0.80114579904E+02 0.  0.
        -13    1    4    4    0    0  0.23741619740E+03  0.59259955539E+02 -0.33241692187E+03  0.41277015767E+03  0.00000000000E+00 0.  1.
         14    1    4    4    0    0  0.27444211520E+01 -0.33307400132E+01  0.38439496084E+01  0.57794139051E+01  0.00000000000E+00 0. -1.
        -13    1    3    3    0    0  0.38674543241E+02  0.32898169611E+02  0.81955589665E+02  0.96409172468E+02  0.00000000000E+00 0.  1.
         13    1    3    3    0    0  0.47058499002E+02 -0.57258219805E+02  0.18356772712E+03  0.19796493757E+03  0.00000000000E+00 0. -1.
          1    1    1    2  501    0 -0.32589366079E+03 -0.31569165332E+02 -0.16634384607E+04  0.16953556568E+04  0.00000000000E+00 0. -1.
<scales pt_clust_5="13000.00000" pt_clust_6="13000.00000" pt_clust_7="13000.00000" pt_clust_8="13000.00000" pt_clust_9="305.80855"></scales>
<clustering>
<clus scale="   80.115">  5  6 -1 -1</clus>
<clus scale="   90.609">  7  8 -1 -1</clus>
<clus scale="  127.096">  1  7  2 -1</clus>
<clus scale="  305.809">  2  9  1 -1</clus>
<clus scale="  305.809">  2  5  1 -1</clus>
</clustering>
</event>
<event>
 9    2  0.1723348E-004  0.1056576E+03  0.7546771E-02  0.1272409E+00
         21   -1    0    0  501  502  0.00000000000E+00  0.00000000000E+00  0.13711384542E+03  0.13711384542E+03  0.00000000000E+00 0. -1.
          2   -1    0    0  502    0 -0.00000000000E+00 -0.00000000000E+00 -0.39549912591E+03  0.39549912591E+03  0.00000000000E+00 0. -1.
         24    2    1    2    0    0 -0.31483456193E+02 -0.35598237074E+02 -0.17887827132E+03  0.20203548335E+03  0.81009000027E+02 0.  0.
         23    2    1    2    0    0  0.49863050595E+02  0.46188157822E+02 -0.18855103866E+03  0.21948943155E+03  0.89467573143E+02 0.  0.
        -11    1    3    3    0    0 -0.49833580327E+02 -0.32929880239E+02 -0.71955089587E+02  0.93516296217E+02  0.00000000000E+00 0.  1.
         12    1    3    3    0    0  0.18350124134E+02 -0.26683568354E+01 -0.10692318174E+03  0.10851918713E+03  0.00000000000E+00 0. -1.
        -13    1    4    4    0    0  0.37289077967E+02 -0.70721147797E+01 -0.21319716069E+02  0.43531832449E+02  0.00000000000E+00 0.  1.
         13    1    4    4    0    0  0.12573972628E+02  0.53260272602E+02 -0.16723132260E+03  0.17595759910E+03  0.00000000000E+00 0. -1.
          1    1    1    2  501    0 -0.18379594402E+02 -0.10589920748E+02  0.10904402949E+03  0.11108805642E+03  0.00000000000E+00 0. -1.
<scales pt_clust_5="13000.00000" pt_clust_6="13000.00000" pt_clust_7="13000.00000" pt_clust_8="13000.00000" pt_clust_9="21.21216"></scales>
<clustering>
<clus scale="   21.212">  1  9  2 -1</clus>
<clus scale="   81.009">  5  6 -1 -1</clus>
<clus scale="   89.468">  7  8 -1 -1</clus>
<clus scale="   98.598">  2  5  1 -1</clus>
<clus scale="   21.212">  1  5  2 -1</clus>
</clustering>
</event>
<event>
 9    2  0.1723348E-004  0.1580235E+03  0.7546771E-02  0.1192450E+00
         21   -1    0    0  501  502  0.00000000000E+00  0.00000000000E+00  0.10606027972E+04  0.10606027972E+04  0.00000000000E+00 0.  1.
         -3   -1    0    0    0  501 -0.00000000000E+00 -0.00000000000E+00 -0.29628965512E+02  0.29628965512E+02  0.00000000000E+00 0.  1.
         24    2    1    2    0    0 -0.64319994755E+02 -0.12683414246E+03  0.40524731877E+03  0.43727574253E+03  0.82223623182E+02 0.  0.
         23    2    1    2    0    0  0.73122555759E+02  0.89060563400E+02  0.47071128247E+03  0.49316224676E+03  0.91439587010E+02 0.  0.
        -13    1    3    3    0    0 -0.61514182883E+02 -0.94639039182E+02  0.20131974411E+03  0.23080334010E+03  0.00000000000E+00 0.  1.
         14    1    3    3    0    0 -0.28058118721E+01 -0.32195103281E+02  0.20392757466E+03  0.20647240242E+03  0.00000000000E+00 0. -1.
        -11    1    4    4    0    0  0.38221438004E+02  0.10273896793E+03  0.35151271117E+03  0.36820831057E+03  0.00000000000E+00 0.  1.
         11    1    4    4    0    0  0.34901117754E+02 -0.13678404533E+02  0.11919857130E+03  0.12495393620E+03  0.00000000000E+00 0. -1.
         -4    1    1    2    0  502 -0.88025610035E+01  0.37773579063E+02  0.15501523045E+03  0.15979377343E+03  0.00000000000E+00 0.  1.
<scales pt_clust_5="13000.00000" pt_clust_6="13000.00000" pt_clust_7="13000.00000" pt_clust_8="13000.00000" pt_clust_9="38.78567"></scales>
<clustering>
<clus scale="   38.786">  1  9  2 -1</clus>
<clus scale="   82.224">  5  6 -1 -1</clus>
<clus scale="   91.440">  7  8 -1 -1</clus>
<clus scale="  152.876">  2  5  1 -1</clus>
<clus scale="   38.786">  1  5  2 -1</clus>
</clustering>
</event>
<event>
 9    2  0.1723348E-004  0.1311263E+03  0.7546771E-02  0.1229246E+00
          2   -1    0    0  502    0 -0.00000000000E+00  0.00000000000E+00  0.12093356167E+03  0.12093356167E+03  0.00000000000E+00 0. -1.
         21   -1    0    0  501  502  0.00000000000E+00 -0.00000000000E+00 -0.38693515309E+03  0.38693515309E+03  0.00000000000E+00 0. -1.
         24    2    1    2    0    0  0.97821744796E+02  0.69385136420E+01 -0.95123092501E+00  0.12502393778E+03  0.77542526733E+02 0.  0.
         23    2    1    2    0    0 -0.74624617034E+02 -0.70964149336E+01 -0.31030779171E+03  0.33198844257E+03  0.91138399310E+02 0.  0.
        -13    1    3    3    0    0  0.30117059751E+02  0.33799492313E+02  0.19615265991E+02  0.49337628931E+02  0.00000000000E+00 0.  1.
         14    1    3    3    0    0  0.67704685046E+02 -0.26860978671E+02 -0.20566496916E+02  0.75686308852E+02  0.00000000000E+00 0. -1.
        -11    1    4    4    0    0 -0.95799055408E+02 -0.30920022552E+01 -0.26540550402E+03  0.28218274408E+03  0.00000000000E+00 0. -1.
         11    1    4    4    0    0  0.21174438374E+02 -0.40044126785E+01 -0.44902287690E+02  0.49805698481E+02  0.00000000000E+00 0.  1.
          1    1    1    2  501    0 -0.23197127762E+02  0.15790129165E+00  0.45257431221E+02  0.50856334413E+02  0.00000000000E+00 0. -1.
<scales pt_clust_5="13000.00000" pt_clust_6="13000.00000" pt_clust_7="13000.00000" pt_clust_8="13000.00000" pt_clust_9="23.19768"></scales>
<clustering>
<clus scale="   23.198">  2  9  1 -1</clus>
<clus scale="   77.543">  5  6 -1 -1</clus>
<clus scale="   91.138">  7  8 -1 -1</clus>
<clus scale="  122.069">  1  5  2 -1</clus>
<clus scale="   23.198">  2  5  1 -1</clus>
</clustering>
</event>
<event>
 9    2  0.1723348E-004  0.2446055E+03  0.7546771E-02  0.1117275E+00
          2   -1    0    0  502    0 -0.00000000000E+00  0.00000000000E+00  0.19889631311E+03  0.19889631311E+03  0.00000000000E+00 0. -1.
         21   -1    0    0  501  502  0.00000000000E+00 -0.00000000000E+00 -0.52459303726E+03  0.52459303726E+03  0.00000000000E+00 0. -1.
         24    2    1    2    0    0 -0.19243939115E+03 -0.19748843161E+03 -0.10172853200E+03  0.30474214652E+03  0.80526279939E+02 0.  0.
         23    2    1    2    0    0  0.17771326251E+03  0.59892524712E+02 -0.17592332526E+03  0.27226238658E+03  0.89491187210E+02 0.  0.
        -13    1    3    3    0    0 -0.48459495844E+02 -0.60519414049E+02 -0.68104890136E+02  0.10319495276E+03  0.00000000000E+00 0.  1.
         14    1    3    3    0    0 -0.14397989530E+03 -0.13696901756E+03 -0.33623641862E+02  0.20154719376E+03  0.00000000000E+00 0. -1.
        -13    1    4    4    0    0  0.16816811545E+03  0.37714818956E+02 -0.11624302579E+03  0.20788305286E+03  0.00000000000E+00 0. -1.
         13    1    4    4    0    0  0.95451470582E+01  0.22177705755E+02 -0.59680299472E+02  0.64379333718E+02  0.00000000000E+00 0.  1.
          1    1    1    2  501    0  0.14726128638E+02  0.13759590689E+03 -0.48044866893E+02  0.14648481728E+03  0.00000000000E+00 0. -1.
<scales pt_clust_5="13000.00000" pt_clust_6="13000.00000" pt_clust_7="13000.00000" pt_clust_8="13000.00000" pt_clust_9="138.38176"></scales>
<clustering>
<clus scale="   80.526">  5  6 -1 -1</clus>
<clus scale="   89.491">  7  8 -1 -1</clus>
<clus scale="  138.382">  2  9  1 -1</clus>
<clus scale="  241.470">  1  5  2 -1</clus>
<clus scale="  138.382">  2  5  1 -1</clus>
</clustering>
</event>
<event>
 9    2  0.1723348E-004  0.2214127E+03  0.7546771E-02  0.1165731E+00
          2   -1    0    0  502    0 -0.00000000000E+00  0.00000000000E+00  0.32545564050E+03  0.32545564050E+03  0.00000000000E+00 0. -1.
         21   -1    0    0  501  502  0.00000000000E+00 -0.00000000000E+00 -0.29658349387E+03  0.29658349387E+03  0.00000000000E+00 0. -1.
         23    2    1    2    0    0  0.33892129078E+02  0.25884980120E+02 -0.14741374297E+02  0.10250006311E+03  0.92033940541E+02 0.  0.
         24    2    1    2    0    0 -0.18534809117E+03  0.11130771648E+03  0.16328631654E+03  0.28272200586E+03  0.80783592270E+02 0.  0.
        -11    1    4    4    0    0 -0.51831058448E+02  0.60663476861E+02  0.24195333138E+02  0.83378235712E+02  0.00000000000E+00 0.  1.
         12    1    4    4    0    0 -0.13351703272E+03  0.50644239622E+02  0.13909098340E+03  0.19934377015E+03  0.00000000000E+00 0. -1.
        -11    1    3    3    0    0  0.26662245572E+02  0.56676199185E+02  0.85576381534E+01  0.63216295872E+02  0.00000000000E+00 0.  1.
         11    1    3    3    0    0  0.72298835054E+01 -0.30791219065E+02 -0.23299012451E+02  0.39283767235E+02  0.00000000000E+00 0. -1.
          1    1    1    2  501    0  0.15145596209E+03 -0.13719269660E+03 -0.11967279562E+03  0.23681706540E+03  0.00000000000E+00 0. -1.
<scales pt_clust_5="13000.00000" pt_clust_6="13000.00000" pt_clust_7="13000.00000" pt_clust_8="13000.00000" pt_clust_9="206.14940"></scales>
<clustering>
<clus scale="   80.784">  5  6 -1 -1</clus>
<clus scale="   92.034">  7  8 -1 -1</clus>
<clus scale="  101.435">  1  7  2 -1</clus>
<clus scale="  206.149">  2  9  1 -1</clus>
<clus scale="  206.149">  2  5  1 -1</clus>
</clustering>
</event>
<event>
 9    2  0.1723348E-004  0.1000413E+03  0.7546771E-02  0.1285281E+00
          4   -1    0    0  502    0 -0.00000000000E+00  0.00000000000E+00  0.32078471455E+02  0.32078471455E+02  0.00000000000E+00 0. -1.
         21   -1    0    0  501  502  0.00000000000E+00 -0.00000000000E+00 -0.38195200284E+03  0.38195200284E+03  0.00000000000E+00 0.  1.
         23    2    1    2    0    0  0.51899674590E+02  0.31445161646E+01 -0.12499253999E+03  0.16308061415E+03  0.90932323475E+02 0.  0.
         24    2    1    2    0    0 -0.27318109510E+02 -0.32909540432E+01 -0.19008686123E+03  0.20834814329E+03  0.80739237750E+02 0.  0.
        -11    1    4    4    0    0  0.91616037076E+01 -0.30466261472E+02 -0.12470124114E+03  0.12869548404E+03  0.00000000000E+00 0.  1.
         12    1    4    4    0    0 -0.36479713217E+02  0.27175307429E+02 -0.65385620095E+02  0.79652659249E+02  0.00000000000E+00 0. -1.
        -11    1    3    3    0    0 -0.21599762915E+02 -0.14189760855E+02 -0.51930615433E+02  0.58005929787E+02  0.00000000000E+00 0.  1.
         11    1    3    3    0    0  0.73499437505E+02  0.17334277020E+02 -0.73061924559E+02  0.10507468436E+03  0.00000000000E+00 0. -1.
          3    1    1    2  501    0 -0.24581565080E+02  0.14643787867E+00 -0.34794130160E+02  0.42601716860E+02  0.00000000000E+00 0. -1.
<scales pt_clust_5="13000.00000" pt_clust_6="13000.00000" pt_clust_7="13000.00000" pt_clust_8="13000.00000" pt_clust_9="24.58201"></scales>
<clustering>
<clus scale="   24.582">  2  9  1 -1</clus>
<clus scale="   80.739">  5  6 -1 -1</clus>
<clus scale="   90.876">  2  5  1 -1</clus>
<clus scale="   90.932">  7  8 -1 -1</clus>
<clus scale="   24.582">  2  5  1 -1</clus>
</clustering>
</event>
<event>
 9    2  0.1723348E-004  0.8962459E+02  0.7546771E-02  0.1305224E+00
          2   -1    0    0  502    0 -0.00000000000E+00  0.00000000000E+00  0.97008404590E+02  0.97008404590E+02  0.00000000000E+00 0. -1.
         21   -1    0    0  501  502  0.00000000000E+00 -0.00000000000E+00 -0.25665892333E+03  0.25665892333E+03  0.00000000000E+00 0.  1.
         24    2    1    2    0    0 -0.70518840408E+01 -0.10804703665E+01 -0.27973015193E+01  0.89639519779E+02  0.89311377358E+02 0.  0.
         23    2    1    2    0    0 -0.99204098225E+01 -0.38744768762E+02 -0.18782505825E+03  0.21079846128E+03  0.86937719853E+02 0.  0.
        -13    1    3    3    0    0  0.38925051862E+01  0.39772193684E+02  0.16395878027E+02  0.43194951133E+02  0.00000000000E+00 0.  1.
         14    1    3    3    0    0 -0.10944389227E+02 -0.40852664051E+02 -0.19193179546E+02  0.46444568646E+02  0.00000000000E+00 0. -1.
        -11    1    4    4    0    0  0.19360793413E+02 -0.48228054760E+02 -0.16352221072E+03  0.17158175598E+03  0.00000000000E+00 0.  1.
         11    1    4    4    0    0 -0.29281203235E+02  0.94832859982E+01 -0.24302847533E+02  0.39216705298E+02  0.00000000000E+00 0. -1.
          1    1    1    2  501    0  0.16972293863E+02  0.39825239128E+02  0.30971841031E+02  0.53229346863E+02  0.00000000000E+00 0. -1.
<scales pt_clust_5="13000.00000" pt_clust_6="13000.00000" pt_clust_7="13000.00000" pt_clust_8="13000.00000" pt_clust_9="43.29100"></scales>
<clustering>
<clus scale="   43.291">  2  9  1 -1</clus>
<clus scale="   86.938">  7  8 -1 -1</clus>
<clus scale="   87.259">  2  7  1 -1</clus>
<clus scale="   89.311">  5  6 -1 -1</clus>
<clus scale="   43.291">  2  5  1 -1</clus>
</clustering>
</event>
<event>
 9    2  0.1723348E-004  0.1049686E+03  0.7546771E-02  0.1275235E+00
         -3   -1    0    0    0  501 -0.00000000000E+00  0.00000000000E+00  0.24256400958E+03  0.24256400958E+03  0.00000000000E+00 0.  1.
         21   -1    0    0  501  502  0.00000000000E+00 -0.00000000000E+00 -0.24020128115E+03  0.24020128115E+03  0.00000000000E+00 0.  1.
         23    2    1    2    0    0  0.41768366416E+02 -0.33205454879E+02  0.20773144079E+03  0.23388894513E+03  0.93297848264E+02 0.  0.
         24    2    1    2    0    0  0.34913235916E+01  0.14748174531E+02 -0.86174652252E+02  0.12004958323E+03  0.82195703962E+02 0.  0.
        -13    1    4    4    0    0  0.23482613507E+02  0.65554892733E+01 -0.93970087724E+02  0.97081331695E+02  0.00000000000E+00 0.  1.
         14    1    4    4    0    0 -0.19991289916E+02  0.81926852575E+01  0.77954354728E+01  0.22968251532E+02  0.00000000000E+00 0. -1.
        -13    1    3    3    0    0  0.51505482973E+02 -0.51499372314E+02  0.19804357644E+03  0.21101246004E+03  0.00000000000E+00 0.  1.
         13    1    3    3    0    0 -0.97371165565E+01  0.18293917436E+02  0.96878643576E+01  0.22876485084E+02  0.00000000000E+00 0. -1.
         -4    1    1    2    0  502 -0.45259690008E+02  0.18457280348E+02 -0.11919406011E+03  0.12882676237E+03  0.00000000000E+00 0.  1.
<scales pt_clust_5="13000.00000" pt_clust_6="13000.00000" pt_clust_7="13000.00000" pt_clust_8="13000.00000" pt_clust_9="48.87853"></scales>
<clustering>
<clus scale="   48.879">  2  9  1 -1</clus>
<clus scale="   82.196">  5  6 -1 -1</clus>
<clus scale="   93.298">  7  8 -1 -1</clus>
<clus scale="   95.237">  2  5  1 -1</clus>
<clus scale="   48.879">  2  5  1 -1</clus>
</clustering>
</event>
<event>
 9    2  0.1723348E-004  0.1450773E+03  0.7546771E-02  0.1212712E+00
         21   -1    0    0  501  502  0.00000000000E+00  0.00000000000E+00  0.32677146693E+02  0.32677146693E+02  0.00000000000E+00 0. -1.
          2   -1    0    0  502    0 -0.00000000000E+00 -0.00000000000E+00 -0.97884611799E+03  0.97884611799E+03  0.00000000000E+00 0. -1.
         23    2    1    2    0    0 -0.27133653579E+02  0.10565259990E+03 -0.51070886312E+03  0.53324734341E+03  0.10784470024E+03 0.  0.
         24    2    1    2    0    0 -0.92966100287E+01 -0.79288394030E+02 -0.14827108064E+03  0.18758747465E+03  0.82653922512E+02 0.  0.
        -13    1    4    4    0    0  0.36844309061E+02 -0.32681809774E+02 -0.60179367505E+02  0.77763488049E+02  0.00000000000E+00 0.  1.
         14    1    4    4    0    0 -0.46140919090E+02 -0.46606584256E+02 -0.88091713133E+02  0.10982398660E+03  0.00000000000E+00 0. -1.
        -11    1    3    3    0    0  0.41812286811E+02  0.44275396823E+02 -0.19026447447E+03  0.19977274173E+03  0.00000000000E+00 0.  1.
         11    1    3    3    0    0 -0.68945940390E+02  0.61377203077E+02 -0.32044438865E+03  0.33347460169E+03  0.00000000000E+00 0. -1.
          1    1    1    2  501    0  0.36430263607E+02 -0.26364205870E+02 -0.28718902754E+03  0.29068844662E+03  0.00000000000E+00 0. -1.
<scales pt_clust_5="13000.00000" pt_clust_6="13000.00000" pt_clust_7="13000.00000" pt_clust_8="13000.00000" pt_clust_9="44.96929"></scales>
<clustering>
<clus scale="   44.969">  1  9  2 -1</clus>
<clus scale="   82.654">  5  6 -1 -1</clus>
<clus scale="  107.845">  7  8 -1 -1</clus>
<clus scale="  127.470">  1  5  2 -1</clus>
<clus scale="   44.969">  1  5  2 -1</clus>
</clustering>
</event>
<event>
 9    2  0.1723348E-004  0.1690410E+03  0.7546771E-02  0.1180736E+00
         21   -1    0    0  501  502  0.00000000000E+00  0.00000000000E+00  0.10254159125E+03  0.10254159125E+03  0.00000000000E+00 0.  1.
          2   -1    0    0  502    0 -0.00000000000E+00 -0.00000000000E+00 -0.84042606747E+03  0.84042606747E+03  0.00000000000E+00 0. -1.
         23    2    1    2    0    0  0.57398809950E+02  0.13640292447E+03 -0.73440360560E+03  0.75503224096E+03  0.93939596430E+02 0.  0.
         24    2    1    2    0    0 -0.31567909858E+02 -0.98370785941E+02 -0.30568971470E+02  0.13457396943E+03  0.80637130238E+02 0.  0.
        -11    1    4    4    0    0 -0.13400440384E+02 -0.56964572589E+02  0.24395381772E+02  0.63400859494E+02  0.00000000000E+00 0.  1.
         12    1    4    4    0    0 -0.18167469473E+02 -0.41406213352E+02 -0.54964353242E+02  0.71173109940E+02  0.00000000000E+00 0. -1.
        -11    1    3    3    0    0  0.38551090298E+02  0.17116905847E+01 -0.19181642376E+03  0.19565954327E+03  0.00000000000E+00 0.  1.
         11    1    3    3    0    0  0.18847719652E+02  0.13469123389E+03 -0.54258718184E+03  0.55937269768E+03  0.00000000000E+00 0. -1.
          1    1    1    2  501    0 -0.25830900092E+02 -0.38032138531E+02  0.27088100847E+02  0.53361448334E+02  0.00000000000E+00 0. -1.
<scales pt_clust_5="13000.00000" pt_clust_6="13000.00000" pt_clust_7="13000.00000" pt_clust_8="13000.00000" pt_clust_9="45.97476"></scales>
<clustering>
<clus scale="   45.975">  1  9  2 -1</clus>
<clus scale="   80.637">  5  6 -1 -1</clus>
<clus scale="   93.940">  7  8 -1 -1</clus>
<clus scale="  162.026">  1  5  2 -1</clus>
<clus scale="   45.975">  1  5  2 -1</clus>
</clustering>
</event>
<event>
 9    2  0.1723348E-004  0.1177406E+03  0.7546771E-02  0.1251502E+00
         21   -1    0    0  501  502  0.00000000000E+00  0.00000000000E+00  0.21243181852E+03  0.21243181852E+03  0.00000000000E+00 0. -1.
          4   -1    0    0  502    0 -0.00000000000E+00 -0.00000000000E+00 -0.25938087100E+03  0.25938087100E+03  0.00000000000E+00 0. -1.
         24    2    1    2    0    0 -0.55476555381E+02  0.39219231916E+02 -0.18382981222E+03  0.21176504341E+03  0.80219931449E+02 0.  0.
         23    2    1    2    0    0  0.82288602408E+02 -0.35498632724E+02  0.97026172671E+01  0.13002069256E+03  0.93699907686E+02 0.  0.
        -13    1    3    3    0    0 -0.11940305572E+02  0.56347356553E+02 -0.88820998545E+02  0.10586201052E+03  0.00000000000E+00 0.  1.
         14    1    3    3    0    0 -0.43536249809E+02 -0.17128124637E+02 -0.95008813673E+02  0.10590303290E+03  0.00000000000E+00 0. -1.
        -11    1    4    4    0    0  0.35992454359E+02  0.20508605257E+02  0.33799693621E+02  0.53464744919E+02  0.00000000000E+00 0.  1.
         11    1    4    4    0    0  0.46296148049E+02 -0.56007237981E+02 -0.24097076354E+02  0.76555947641E+02  0.00000000000E+00 0. -1.
          3    1    1    2  501    0 -0.26812047027E+02 -0.37205991922E+01  0.12717814248E+03  0.13002695355E+03  0.00000000000E+00 0. -1.
<scales pt_clust_5="13000.00000" pt_clust_6="13000.00000" pt_clust_7="13000.00000" pt_clust_8="13000.00000" pt_clust_9="27.06896"></scales>
<clustering>
<clus scale="   27.069">  1  9  2 -1</clus>
<clus scale="   80.220">  5  6 -1 -1</clus>
<clus scale="   93.700">  7  8 -1 -1</clus>
<clus scale="  107.324">  2  5  1 -1</clus>
<clus scale="   27.069">  1  5  2 -1</clus>
</clustering>
</event>
<event>
 9    2  0.1723348E-004  0.1031323E+03  0.7546771E-02  0.1280357E+00
          2   -1    0    0  502    0 -0.00000000000E+00  0.00000000000E+00  0.13692238335E+04  0.13692238335E+04  0.00000000000E+00 0. -1.
         21   -1    0    0  501  502  0.00000000000E+00 -0.00000000000E+00 -0.19051443701E+02  0.19051443701E+02  0.00000000000E+00 0. -1.
         24    2    1    2    0    0 -0.44603580584E+02 -0.48712707987E+02  0.71386367570E+03  0.72127658569E+03  0.79222208116E+02 0.  0.
         23    2    1    2    0    0 -0.37510294400E+01 -0.22795267145E+02  0.19360280958E+03  0.21595537129E+03  0.92849233097E+02 0.  0.
        -13    1    3    3    0    0 -0.23611650969E+02  0.17440379938E+02  0.12835525647E+03  0.13166908816E+03  0.00000000000E+00 0.  1.
         14    1    3    3    0    0 -0.20991929615E+02 -0.66153087925E+02  0.58550841923E+03  0.58960749753E+03  0.00000000000E+00 0. -1.
        -13    1    4    4    0    0 -0.33809638365E+02 -0.16711840686E+01  0.21788329743E+02  0.40256872898E+02  0.00000000000E+00 0. -1.
         13    1    4    4    0    0  0.30058608925E+02 -0.21124083076E+02  0.17181447984E+03  0.17569849840E+03  0.00000000000E+00 0.  1.
          1    1    1    2  501    0  0.48354610024E+02  0.71507975132E+02  0.44270590448E+03  0.45104332018E+03  0.00000000000E+00 0. -1.
<scales pt_clust_5="13000.00000" pt_clust_6="13000.00000" pt_clust_7="13000.00000" pt_clust_8="13000.00000" pt_clust_9="86.32246"></scales>
<clustering>
<clus scale="   79.222">  5  6 -1 -1</clus>
<clus scale="   86.322">  2  9  1 -1</clus>
<clus scale="   91.057">  1  5  2 -1</clus>
<clus scale="   92.849">  7  8 -1 -1</clus>
<clus scale="   86.322">  2  5  1 -1</clus>
</clustering>
</event>
<event>
 9    2  0.1723348E-004  0.9543401E+02  0.7546771E-02  0.1298514E+00
         21   -1    0    0  501  502  0.00000000000E+00  0.00000000000E+00  0.85222271549E+02  0.85222271549E+02  0.00000000000E+00 0. -1.
         -1   -1    0    0    0  501 -0.00000000000E+00 -0.00000000000E+00 -0.15666708715E+03  0.15666708715E+03  0.00000000000E+00 0.  1.
         23    2    1    2    0    0 -0.50807717637E+01  0.10778592877E+02 -0.94059855319E+02  0.13423674081E+03  0.95027648060E+02 0.  0.
         24    2    1    2    0    0 -0.15395263667E+02 -0.33965194319E+01  0.22804035852E+02  0.85885699063E+02  0.81288244936E+02 0.  0.
        -11    1    4    4    0    0  0.26199901612E+02  0.10621271759E+02 -0.11151927559E+02  0.30390981336E+02  0.00000000000E+00 0.  1.
         12    1    4    4    0    0 -0.41595165279E+02 -0.14017791191E+02  0.33955963411E+02  0.55494717727E+02  0.00000000000E+00 0. -1.
        -11    1    3    3    0    0 -0.37843308387E+02  0.36046865658E+02 -0.66254412490E+02  0.84386845466E+02  0.00000000000E+00 0.  1.
         11    1    3    3    0    0  0.32762536623E+02 -0.25268272780E+02 -0.27805442829E+02  0.49849895348E+02  0.00000000000E+00 0. -1.
         -2    1    1    2    0  502  0.20476035430E+02 -0.73820734453E+01 -0.18899613212E+00  0.21766918818E+02  0.00000000000E+00 0.  1.
<scales pt_clust_5="13000.00000" pt_clust_6="13000.00000" pt_clust_7="13000.00000" pt_clust_8="13000.00000" pt_clust_9="21.76610"></scales>
<clustering>
<clus scale="   21.766">  1  9  2 -1</clus>
<clus scale="   81.288">  5  6 -1 -1</clus>
<clus scale="   81.763">  1  5  2 -1</clus>
<clus scale="   95.028">  7  8 -1 -1</clus>
<clus scale="   21.766">  1  5  2 -1</clus>
</clustering>
</event>
<event>
 9    2  0.1723348E-004  0.9940136E+02  0.7546771E-02  0.1287212E+00
         21   -1    0    0  501  502  0.00000000000E+00  0.00000000000E+00  0.13750049291E+03  0.13750049291E+03  0.00000000000E+00 0. -1.
          4   -1    0    0  502    0 -0.00000000000E+00 -0.00000000000E+00 -0.21373912876E+03  0.21373912876E+03  0.00000000000E+00 0. -1.
         23    2    1    2    0    0 -0.18156321173E+02  0.43917786005E+02 -0.35481151268E+02  0.10834747639E+03  0.90674360313E+02 0.  0.
         24    2    1    2    0    0 -0.38156433261E+02 -0.32230357813E+02  0.70657086128E+02  0.11750901701E+03  0.79506200358E+02 0.  0.
        -11    1    4    4    0    0  0.24912619953E+02 -0.10209567733E+02  0.23520539208E+02  0.35750380010E+02  0.00000000000E+00 0.  1.
         12    1    4    4    0    0 -0.63069053214E+02 -0.22020790080E+02  0.47136546919E+02  0.81758637003E+02  0.00000000000E+00 0. -1.
        -13    1    3    3    0    0  0.22488803431E+01  0.33054351067E+02  0.26352959730E+02  0.42333510058E+02  0.00000000000E+00 0. -1.
         13    1    3    3    0    0 -0.20405201516E+02  0.10863434938E+02 -0.61834110999E+02  0.66013966330E+02  0.00000000000E+00 0.  1.
          3    1    1    2  501    0  0.56312754434E+02 -0.11687428192E+02 -0.11141457071E+03  0.12538312827E+03  0.00000000000E+00 0. -1.
<scales pt_clust_5="13000.00000" pt_clust_6="13000.00000" pt_clust_7="13000.00000" pt_clust_8="13000.00000" pt_clust_9="57.51283"></scales>
<clustering>
<clus scale="   57.513">  1  9  2 -1</clus>
<clus scale="   79.506">  5  6 -1 -1</clus>
<clus scale="   89.331">  1  5  2 -1</clus>
<clus scale="   90.674">  7  8 -1 -1</clus>
<clus scale="   57.513">  1  5  2 -1</clus>
</clustering>
</event>
<event>
 9    2  0.1723348E-004  0.9964045E+02  0.7546771E-02  0.1283450E+00
         21   -1    0    0  501  502  0.00000000000E+00  0.00000000000E+00  0.20940799360E+03  0.20940799360E+03  0.00000000000E+00 0. -1.
          2   -1    0    0  502    0 -0.00000000000E+00 -0.00000000000E+00 -0.13662438438E+03  0.13662438438E+03  0.00000000000E+00 0. -1.
         23    2    1    2    0    0 -0.27127398806E+02 -0.29752850116E+02  0.71567065351E+02  0.11933869556E+03  0.86595332202E+02 0.  0.
         24    2    1    2    0    0  0.45902379813E+01  0.65411043546E+02  0.83768280487E+02  0.13398866856E+03  0.81462651476E+02 0.  0.
        -11    1    4    4    0    0  0.13779233412E+02 -0.16465482196E+02  0.11300581466E+02  0.24262780526E+02  0.00000000000E+00 0.  1.
         12    1    4    4    0    0 -0.91889954308E+01  0.81876525742E+02  0.72467699021E+02  0.10972588804E+03  0.00000000000E+00 0. -1.
        -13    1    3    3    0    0 -0.58266069640E+02 -0.21235141747E+02  0.55746666800E+02  0.83387990596E+02  0.00000000000E+00 0. -1.
         13    1    3    3    0    0  0.31138670834E+02 -0.85177083690E+01  0.15820398551E+02  0.35950704965E+02  0.00000000000E+00 0.  1.
          1    1    1    2  501    0  0.22537160825E+02 -0.35658193431E+02 -0.82551736609E+02  0.92705013855E+02  0.00000000000E+00 0. -1.
<scales pt_clust_5="13000.00000" pt_clust_6="13000.00000" pt_clust_7="13000.00000" pt_clust_8="13000.00000" pt_clust_9="42.18332"></scales>
<clustering>
<clus scale="   42.183">  1  9  2 -1</clus>
<clus scale="   81.463">  5  6 -1 -1</clus>
<clus scale="   86.595">  7  8 -1 -1</clus>
<clus scale="   95.214">  1  5  2 -1</clus>
<clus scale="   42.183">  1  5  2 -1</clus>
</clustering>
</event>
<event>
 9    2  0.1723348E-004  0.2011411E+03  0.7546771E-02  0.1149785E+00
          2   -1    0    0  502    0 -0.00000000000E+00  0.00000000000E+00  0.23115743957E+03  0.23115743957E+03  0.00000000000E+00 0. -1.
         21   -1    0    0  501  502  0.00000000000E+00 -0.00000000000E+00 -0.22100755117E+03  0.22100755117E+03  0.00000000000E+00 0.  1.
         24    2    1    2    0    0  0.17686848000E+03  0.62416941105E+02  0.90588375897E+02  0.22311222490E+03  0.79965475666E+02 0.  0.
         23    2    1    2    0    0 -0.15021481329E+03 -0.60914826498E+02 -0.79954897261E+02  0.20235242583E+03  0.90986880497E+02 0.  0.
        -11    1    3    3    0    0  0.10468801508E+03  0.63728894570E+02  0.87986955747E+02  0.15087298263E+03  0.00000000000E+00 0.  1.
         12    1    3    3    0    0  0.72180464918E+02 -0.13119534652E+01  0.26014201498E+01  0.72239242275E+02  0.00000000000E+00 0. -1.
        -11    1    4    4    0    0 -0.88013186686E+02 -0.56730732804E+02 -0.91372301306E+02  0.13897335903E+03  0.00000000000E+00 0.  1.
         11    1    4    4    0    0 -0.62201626608E+02 -0.41840936936E+01  0.11417404045E+02  0.63379066795E+02  0.00000000000E+00 0. -1.
          1    1    1    2  501    0 -0.26653666706E+02 -0.15021146077E+01 -0.48359022704E+00  0.26700340010E+02  0.00000000000E+00 0. -1.
<scales pt_clust_5="13000.00000" pt_clust_6="13000.00000" pt_clust_7="13000.00000" pt_clust_8="13000.00000" pt_clust_9="26.69596"></scales>
<clustering>
<clus scale="   26.696">  2  9  1 -1</clus>
<clus scale="   79.965">  5  6 -1 -1</clus>
<clus scale="   90.987">  7  8 -1 -1</clus>
<clus scale="  196.402">  1  5  2 -1</clus>
<clus scale="   26.696">  2  5  1 -1</clus>
</clustering>
</event>
<event>
 9    2  0.1723348E-004  0.9583317E+02  0.7546771E-02  0.1301252E+00
          2   -1    0    0  502    0 -0.00000000000E+00  0.00000000000E+00  0.26492395433E+03  0.26492395433E+03  0.00000000000E+00 0. -1.
         21   -1    0    0  501  502  0.00000000000E+00 -0.00000000000E+00 -0.50614889521E+02  0.50614889521E+02  0.00000000000E+00 0.  1.
         23    2    1    2    0    0  0.22316480749E+02 -0.16136420840E+02  0.17754625535E+03  0.20281546307E+03  0.94090540868E+02 0.  0.
         24    2    1    2    0    0 -0.49847282700E+01 -0.46614869979E+01  0.40902262005E+02  0.85335834677E+02  0.74583058839E+02 0.  0.
        -13    1    4    4    0    0 -0.31773092028E+02 -0.74519163261E+01 -0.40977722226E+01  0.32891521265E+02  0.00000000000E+00 0.  1.
         14    1    4    4    0    0  0.26788363758E+02  0.27904293282E+01  0.45000034228E+02  0.52444313411E+02  0.00000000000E+00 0. -1.
        -11    1    3    3    0    0  0.44247694749E+00  0.25636843760E+02  0.14057948725E+03  0.14289869061E+03  0.00000000000E+00 0. -1.
         11    1    3    3    0    0  0.21874003801E+02 -0.41773264600E+02  0.36966768097E+02  0.59916772453E+02  0.00000000000E+00 0.  1.
          1    1    1    2  501    0 -0.17331752479E+02  0.20797907838E+02 -0.41394525435E+01  0.27387546107E+02  0.00000000000E+00 0. -1.
<scales pt_clust_5="13000.00000" pt_clust_6="13000.00000" pt_clust_7="13000.00000" pt_clust_8="13000.00000" pt_clust_9="27.07291"></scales>
<clustering>
<clus scale="   27.073">  2  9  1 -1</clus>
<clus scale="   74.583">  5  6 -1 -1</clus>
<clus scale="   76.770">  2  5  1 -1</clus>
<clus scale="   94.091">  7  8 -1 -1</clus>
<clus scale="   27.073">  2  5  1 -1</clus>
</clustering>
</event>
<event>
 9    2  0.1723348E-004  0.1109959E+03  0.7546771E-02  0.1259116E+00
         -1   -1    0    0    0  501 -0.00000000000E+00  0.00000000000E+00  0.22141390792E+03  0.22141390792E+03  0.00000000000E+00 0.  1.
         21   -1    0    0  501  502  0.00000000000E+00 -0.00000000000E+00 -0.20487210712E+03  0.20487210712E+03  0.00000000000E+00 0. -1.
         23    2    1    2    0    0  0.16404365338E+02 -0.61491003599E+02  0.18322067469E+03  0.21437886794E+03  0.91313945601E+02 0.  0.
         24    2    1    2    0    0 -0.15402057292E+02  0.37045776254E+02 -0.15496230079E+03  0.18478055781E+03  0.92308867244E+02 0.  0.
        -13    1    4    4    0    0 -0.61599236021E+00  0.66364238768E+02 -0.88201406130E+02  0.11038151873E+03  0.00000000000E+00 0.  1.
         14    1    4    4    0    0 -0.14786064932E+02 -0.29318462515E+02 -0.66760894661E+02  0.74399039082E+02  0.00000000000E+00 0. -1.
        -11    1    3    3    0    0  0.53656374731E+02 -0.45285709254E+02  0.12531562578E+03  0.14364472868E+03  0.00000000000E+00 0. -1.
         11    1    3    3    0    0 -0.37252009393E+02 -0.16205294345E+02  0.57905048909E+02  0.70734139267E+02  0.00000000000E+00 0.  1.
         -2    1    1    2    0  502 -0.10023080464E+01  0.24445227345E+02 -0.11716573091E+02  0.27126589288E+02  0.00000000000E+00 0.  1.
<scales pt_clust_5="13000.00000" pt_clust_6="13000.00000" pt_clust_7="13000.00000" pt_clust_8="13000.00000" pt_clust_9="24.46577"></scales>
<clustering>
<clus scale="   24.466">  2  9  1 -1</clus>
<clus scale="   91.314">  7  8 -1 -1</clus>
<clus scale="   92.309">  5  6 -1 -1</clus>
<clus scale="  110.170">  1  7  2 -1</clus>
<clus scale="   24.466">  2  5  1 -1</clus>
</clustering>
</event>
<event>
 9    2  0.1723348E-004  0.2845017E+03  0.7546771E-02  0.1093255E+00
         -3   -1    0    0    0  501 -0.00000000000E+00  0.00000000000E+00  0.17961058393E+03  0.17961058393E+03  0.00000000000E+00 0.  1.
         21   -1    0    0  501  502  0.00000000000E+00 -0.00000000000E+00 -0.52883946169E+03  0.52883946169E+03  0.00000000000E+00 0.  1.
         24    2    1    2    0    0 -0.53688114419E+01  0.67835848565E+02 -0.91496827004E+02  0.13876502482E+03  0.79079303702E+02 0.  0.
         23    2    1    2    0    0  0.35350268785E+01  0.14154902954E+03 -0.31052299132E+03  0.35373995059E+03  0.93052675004E+02 0.  0.
        -13    1    3    3    0    0  0.15775856009E+02  0.71092894090E+02 -0.92039415749E+02  0.11736409704E+03  0.00000000000E+00 0.  1.
         14    1    3    3    0    0 -0.21144667451E+02 -0.32570455249E+01  0.54258874454E+00  0.21400927777E+02  0.00000000000E+00 0. -1.
        -11    1    4    4    0    0 -0.27714770835E+02  0.13446678812E+02 -0.26631245116E+02  0.40720325514E+02  0.00000000000E+00 0. -1.
         11    1    4    4    0    0  0.31249797714E+02  0.12810235073E+03 -0.28389174620E+03  0.31301962507E+03  0.00000000000E+00 0.  1.
         -4    1    1    2    0  502  0.18337845634E+01 -0.20938487811E+03  0.52790940556E+02  0.21594507022E+03  0.00000000000E+00 0.  1.
<scales pt_clust_5="13000.00000" pt_clust_6="13000.00000" pt_clust_7="13000.00000" pt_clust_8="13000.00000" pt_clust_9="209.39301"></scales>
<clustering>
<clus scale="   79.079">  5  6 -1 -1</clus>
<clus scale="   93.053">  7  8 -1 -1</clus>
<clus scale="  101.348">  5  7 -1 -1</clus>
<clus scale="  209.393">  2  9  1 -1</clus>
<clus scale="  209.393">  2  5  1 -1</clus>
</clustering>
</event>
<event>
 9    2  0.1723348E-004  0.1955834E+03  0.7546771E-02  0.1159839E+00
          2   -1    0    0  502    0 -0.00000000000E+00  0.00000000000E+00  0.76632686757E+03  0.76632686757E+03  0.00000000000E+00 0. -1.
         21   -1    0    0  501  502  0.00000000000E+00 -0.00000000000E+00 -0.13262431510E+03  0.13262431510E+03  0.00000000000E+00 0. -1.
         23    2    1    2    0    0 -0.12736451463E+03  0.61405612282E+02  0.12503697766E+03  0.20997119590E+03  0.91985262503E+02 0.  0.
         24    2    1    2    0    0  0.12802549389E+03  0.13487490595E+03  0.80414327271E+02  0.21789017608E+03  0.80174169515E+02 0.  0.
        -11    1    4    4    0    0  0.17939305656E+02  0.28719841416E+02  0.52438472091E+02  0.62421481347E+02  0.00000000000E+00 0.  1.
         12    1    4    4    0    0  0.11008618824E+03  0.10615506454E+03  0.27975855180E+02  0.15546869473E+03  0.00000000000E+00 0. -1.
        -11    1    3    3    0    0 -0.53419005116E+02 -0.11295274117E+02  0.10745983474E+02  0.55647546988E+02  0.00000000000E+00 0.  1.
         11    1    3    3    0    0 -0.73945509509E+02  0.72700886399E+02  0.11429099419E+03  0.15432364891E+03  0.00000000000E+00 0. -1.
          1    1    1    2  501    0 -0.66097926802E+00 -0.19628051823E+03  0.42825124754E+03  0.47108981070E+03  0.00000000000E+00 0. -1.
<scales pt_clust_5="13000.00000" pt_clust_6="13000.00000" pt_clust_7="13000.00000" pt_clust_8="13000.00000" pt_clust_9="178.39568"></scales>
<clustering>
<clus scale="   80.174">  5  6 -1 -1</clus>
<clus scale="   91.985">  7  8 -1 -1</clus>
<clus scale="  168.682">  1  7  2 -1</clus>
<clus scale="  178.396">  2  9  1 -1</clus>
<clus scale="  178.396">  2  5  1 -1</clus>
</clustering>
</event>
<event>
 9    2  0.1723348E-004  0.3045318E+03  0.7546771E-02  0.1082997E+00
         21   -1    0    0  501  502  0.00000000000E+00  0.00000000000E+00  0.67523314665E+03  0.67523314665E+03  0.00000000000E+00 0. -1.
          2   -1    0    0  502    0 -0.00000000000E+00 -0.00000000000E+00 -0.95730570807E+03  0.95730570807E+03  0.00000000000E+00 0. -1.
         24    2    1    2    0    0  0.30743860863E+02 -0.88382320659E+02 -0.39614398480E+03  0.41577499606E+03  0.84747690625E+02 0.  0.
         23    2    1    2    0    0 -0.55791010543E+02 -0.14230867753E+03 -0.51571306283E+03  0.54559011408E+03  0.91346663054E+02 0.  0.
        -13    1    3    3    0    0  0.33267607917E+02  0.39600554379E+01 -0.91913114394E+02  0.97828607131E+02  0.00000000000E+00 0.  1.
         14    1    3    3    0    0 -0.25237470543E+01 -0.92342376097E+02 -0.30423087041E+03  0.31794638892E+03  0.00000000000E+00 0. -1.
        -11    1    4    4    0    0 -0.18837963542E+02 -0.86860996235E+02 -0.15414684561E+03  0.17793524538E+03  0.00000000000E+00 0.  1.
         11    1    4    4    0    0 -0.36953047002E+02 -0.55447681296E+02 -0.36156621722E+03  0.36765486870E+03  0.00000000000E+00 0. -1.
          1    1    1    2  501    0  0.25047149681E+02  0.23069099819E+03  0.62978448621E+03  0.67117374459E+03  0.00000000000E+00 0. -1.
<scales pt_clust_5="13000.00000" pt_clust_6="13000.00000" pt_clust_7="13000.00000" pt_clust_8="13000.00000" pt_clust_9="232.04675"></scales>
<clustering>
<clus scale="   84.748">  5  6 -1 -1</clus>
<clus scale="   91.347">  7  8 -1 -1</clus>
<clus scale="  113.907">  5  7 -1 -1</clus>
<clus scale="  232.047">  1  9  2 -1</clus>
<clus scale="  232.047">  1  5  2 -1</clus>
</clustering>
</event>
<event>
 9    2  0.1723348E-004  0.1212077E+03  0.7546771E-02  0.1244935E+00
         21   -1    0    0  501  502  0.00000000000E+00  0.00000000000E+00  0.11773549060E+03  0.11773549060E+03  0.00000000000E+00 0. -1.
          4   -1    0    0  502    0 -0.00000000000E+00 -0.00000000000E+00 -0.23779943882E+03  0.23779943882E+03  0.00000000000E+00 0. -1.
         24    2    1    2    0    0 -0.37741933545E+02  0.52383997288E+02 -0.78316129792E+02  0.12929692835E+03  0.80098331910E+02 0.  0.
         23    2    1    2    0    0  0.81889140139E+02 -0.90291116064E+02  0.28676931100E+01  0.15291358922E+03  0.92282312451E+02 0.  0.
        -11    1    3    3    0    0  0.20562297385E+02  0.31706549702E+02 -0.45902752029E+02  0.59457346154E+02  0.00000000000E+00 0.  1.
         12    1    3    3    0    0 -0.58304230930E+02  0.20677447585E+02 -0.32413377763E+02  0.69839582193E+02  0.00000000000E+00 0. -1.
        -11    1    4    4    0    0  0.28255701121E+02 -0.34349942294E+01  0.35722364701E+02  0.45675717521E+02  0.00000000000E+00 0.  1.
         11    1    4    4    0    0  0.53633439017E+02 -0.86856121834E+02 -0.32854671591E+02  0.10723787170E+03  0.00000000000E+00 0. -1.
          3    1    1    2  501    0 -0.44147206594E+02  0.37907118776E+02 -0.44615511540E+02  0.73324411855E+02  0.00000000000E+00 0. -1.
<scales pt_clust_5="13000.00000" pt_clust_6="13000.00000" pt_clust_7="13000.00000" pt_clust_8="13000.00000" pt_clust_9="58.18874"></scales>
<clustering>
<clus scale="   58.189">  1  9  2 -1</clus>
<clus scale="   80.098">  5  6 -1 -1</clus>
<clus scale="   92.282">  7  8 -1 -1</clus>
<clus scale="  112.210">  2  5  1 -1</clus>
<clus scale="   58.189">  1  5  2 -1</clus>
</clustering>
</event>
<event>
 9    2  0.1723348E-004  0.4499839E+03  0.7546771E-02  0.1073514E+00
         21   -1    0    0  501  502  0.00000000000E+00  0.00000000000E+00  0.28076690752E+03  0.28076690752E+03  0.00000000000E+00 0. -1.
          2   -1    0    0  502    0 -0.00000000000E+00 -0.00000000000E+00 -0.10694667070E+04  0.10694667070E+04  0.00000000000E+00 0. -1.
         24    2    1    2    0    0 -0.70261046085E+02  0.63491776605E+02 -0.75214548076E+02  0.14329393386E+03  0.76864185065E+02 0.  0.
         23    2    1    2    0    0  0.36862530959E+03 -0.28982609761E+03 -0.10083158923E+03  0.48889165415E+03  0.94679746440E+02 0.  0.
        -11    1    3    3    0    0 -0.59538460527E+02  0.72826099318E+02 -0.34541058294E+02  0.10020755327E+03  0.00000000000E+00 0.  1.
         12    1    3    3    0    0 -0.10722585558E+02 -0.93343227134E+01 -0.40673489783E+02  0.43086380594E+02  0.00000000000E+00 0. -1.
        -13    1    4    4    0    0  0.61940997987E+02 -0.55432050284E+02 -0.56158486441E+02  0.10031537783E+03  0.00000000000E+00 0.  1.
         13    1    4    4    0    0  0.30668431161E+03 -0.23439404732E+03 -0.44673102794E+02  0.38857627632E+03  0.00000000000E+00 0. -1.
          1    1    1    2  501    0 -0.29836426351E+03  0.22633432100E+03 -0.61265366216E+03  0.71804802650E+03  0.00000000000E+00 0. -1.
<scales pt_clust_5="13000.00000" pt_clust_6="13000.00000" pt_clust_7="13000.00000" pt_clust_8="13000.00000" pt_clust_9="439.91068"></scales>
<clustering>
<clus scale="   76.864">  5  6 -1 -1</clus>
<clus scale="   94.680">  7  8 -1 -1</clus>
<clus scale="  121.967">  2  5  1 -1</clus>
<clus scale="  439.911">  1  9  2 -1</clus>
<clus scale="  439.911">  1  5  2 -1</clus>
</clustering>
</event>
<event>
 9    2  0.1723348E-004  0.1068186E+03  0.7546771E-02  0.1267105E+00
         21   -1    0    0  501  502  0.00000000000E+00  0.00000000000E+00  0.66046136710E+02  0.66046136710E+02  0.00000000000E+00 0.  1.
          2   -1    0    0  502    0 -0.00000000000E+00 -0.00000000000E+00 -0.65682401165E+03  0.65682401165E+03  0.00000000000E+00 0. -1.
         24    2    1    2    0    0  0.50841789725E+02  0.20943252574E+01 -0.99956136043E+02  0.13799607781E+03  0.80389144652E+02 0.  0.
         23    2    1    2    0    0 -0.11152691879E+03 -0.38206993691E+02 -0.70067872271E+02  0.15823531704E+03  0.78935928785E+02 0.  0.
        -11    1    3    3    0    0  0.66221355422E+02 -0.75441704432E+01 -0.45773300663E+02  0.80854050456E+02  0.00000000000E+00 0.  1.
         12    1    3    3    0    0 -0.15379565697E+02  0.96384957006E+01 -0.54182835380E+02  0.57142027355E+02  0.00000000000E+00 0. -1.
        -11    1    4    4    0    0 -0.49757551922E+02 -0.29416755808E+02  0.79400799404E+01  0.58345559943E+02  0.00000000000E+00 0. -1.
         11    1    4    4    0    0 -0.61769366871E+02 -0.87902378833E+01 -0.78007952211E+02  0.99889757102E+02  0.00000000000E+00 0.  1.
          1    1    1    2  501    0  0.60685129069E+02  0.36112668434E+02 -0.42075386663E+03  0.42663875351E+03  0.00000000000E+00 0. -1.
<scales pt_clust_5="13000.00000" pt_clust_6="13000.00000" pt_clust_7="13000.00000" pt_clust_8="13000.00000" pt_clust_9="70.61738"></scales>
<clustering>
<clus scale="   70.617">  1  9  2 -1</clus>
<clus scale="   78.936">  7  8 -1 -1</clus>
<clus scale="   80.389">  5  6 -1 -1</clus>
<clus scale="  105.729">  1  7  2 -1</clus>
<clus scale="   70.617">  1  5  2 -1</clus>
</clustering>
</event>
<event>
 9    2  0.1723348E-004  0.1385551E+03  0.7546771E-02  0.1218413E+00
         21   -1    0    0  501  502  0.00000000000E+00  0.00000000000E+00  0.28601966650E+03  0.28601966650E+03  0.00000000000E+00 0. -1.
          2   -1    0    0  502    0 -0.00000000000E+00 -0.00000000000E+00 -0.16058845686E+03  0.16058845686E+03  0.00000000000E+00 0. -1.
         24    2    1    2    0    0 -0.10922322164E+03  0.12043542547E+02 -0.98959522215E+02  0.16838133729E+03  0.80526571073E+02 0.  0.
         23    2    1    2    0    0  0.65442324931E+02 -0.11794845281E+02  0.12725204076E+03  0.17167748257E+03  0.94118329119E+02 0.  0.
        -13    1    3    3    0    0 -0.10546407088E+03  0.31443017926E+02 -0.61601891430E+02  0.12611949354E+03  0.00000000000E+00 0.  1.
         14    1    3    3    0    0 -0.37591507575E+01 -0.19399475379E+02 -0.37357630785E+02  0.42261843751E+02  0.00000000000E+00 0. -1.
        -11    1    4    4    0    0  0.64669080079E+02  0.22898931025E+02  0.44049263180E+02  0.81527839092E+02  0.00000000000E+00 0.  1.
         11    1    4    4    0    0  0.77324485192E+00 -0.34693776307E+02  0.83202777578E+02  0.90149643475E+02  0.00000000000E+00 0. -1.
          1    1    1    2  501    0  0.43780896707E+02 -0.24869726578E+00  0.97138691101E+02  0.10654930350E+03  0.00000000000E+00 0. -1.
<scales pt_clust_5="13000.00000" pt_clust_6="13000.00000" pt_clust_7="13000.00000" pt_clust_8="13000.00000" pt_clust_9="43.78160"></scales>
<clustering>
<clus scale="   43.782">  1  9  2 -1</clus>
<clus scale="   80.527">  5  6 -1 -1</clus>
<clus scale="   94.118">  7  8 -1 -1</clus>
<clus scale="  129.707">  2  5  1 -1</clus>
<clus scale="   43.782">  1  5  2 -1</clus>
</clustering>
</event>
<event>
 9    2  0.1723348E-004  0.1604689E+03  0.7546771E-02  0.1204917E+00
         21   -1    0    0  501  502  0.00000000000E+00  0.00000000000E+00  0.19014916704E+03  0.19014916704E+03  0.00000000000E+00 0. -1.
          2   -1    0    0  502    0 -0.00000000000E+00 -0.00000000000E+00 -0.31467111469E+03  0.31467111469E+03  0.00000000000E+00 0. -1.
         23    2    1    2    0    0  0.54883785277E+02  0.34057247166E+02  0.68836201814E+02  0.13086106912E+03  0.90631510855E+02 0.  0.
         24    2    1    2    0    0  0.10144983248E+03 -0.32528175105E+02 -0.16980853075E+03  0.21585442886E+03  0.80050275824E+02 0.  0.
        -11    1    4    4    0    0  0.66598362951E+02 -0.42779782067E+02 -0.57550785586E+02  0.97864930506E+02  0.00000000000E+00 0.  1.
         12    1    4    4    0    0  0.34851469527E+02  0.10251606962E+02 -0.11225774516E+03  0.11798949836E+03  0.00000000000E+00 0. -1.
        -13    1    3    3    0    0  0.31000113179E+02 -0.27290627021E+02  0.98308256483E+01  0.42455040610E+02  0.00000000000E+00 0.  1.
         13    1    3    3    0    0  0.23883672098E+02  0.61347874187E+02  0.59005376165E+02  0.88406028508E+02  0.00000000000E+00 0. -1.
          1    1    1    2  501    0 -0.15633361775E+03 -0.15290720608E+01 -0.23549618716E+02  0.15810478375E+03  0.00000000000E+00 0. -1.
<scales pt_clust_5="13000.00000" pt_clust_6="13000.00000" pt_clust_7="13000.00000" pt_clust_8="13000.00000" pt_clust_9="139.07630"></scales>
<clustering>
<clus scale="   80.050">  5  6 -1 -1</clus>
<clus scale="   90.632">  7  8 -1 -1</clus>
<clus scale="  111.293">  2  7  1 -1</clus>
<clus scale="  139.076">  1  9  2 -1</clus>
<clus scale="  139.076">  1  5  2 -1</clus>
</clustering>
</event>
<event>
 9    2  0.1723348E-004  0.9842031E+02  0.7546771E-02  0.1288202E+00
         21   -1    0    0  501  502  0.00000000000E+00  0.00000000000E+00  0.32490583046E+02  0.32490583046E+02  0.00000000000E+00 0.  1.
         -1   -1    0    0    0  501 -0.00000000000E+00 -0.00000000000E+00 -0.56797250369E+03  0.56797250369E+03  0.00000000000E+00 0.  1.
         23    2    1    2    0    0 -0.57900153565E+02  0.27704748883E+02 -0.32147486013E+03  0.34001754809E+03  0.90254453727E+02 0.  0.
         24    2    1    2    0    0  0.11263783035E+02  0.16843985474E+02 -0.12560366468E+03  0.15101656084E+03  0.81358026107E+02 0.  0.
        -11    1    4    4    0    0  0.16124489452E+01  0.49531239348E+02 -0.79534124891E+02  0.93710301916E+02  0.00000000000E+00 0.  1.
         12    1    4    4    0    0  0.96513340900E+01 -0.32687253874E+02 -0.46069539790E+02  0.57306258925E+02  0.00000000000E+00 0. -1.
        -13    1    3    3    0    0 -0.49515709515E+02 -0.26322042809E+02 -0.16224158480E+03  0.17165950968E+03  0.00000000000E+00 0.  1.
         13    1    3    3    0    0 -0.83844440506E+01  0.54026791692E+02 -0.15923327534E+03  0.16835803841E+03  0.00000000000E+00 0. -1.
         -2    1    1    2    0  502  0.46636370530E+02 -0.44548734357E+02 -0.88403395825E+02  0.10942897780E+03  0.00000000000E+00 0.  1.
<scales pt_clust_5="13000.00000" pt_clust_6="13000.00000" pt_clust_7="13000.00000" pt_clust_8="13000.00000" pt_clust_9="64.49450"></scales>
<clustering>
<clus scale="   64.495">  1  9  2 -1</clus>
<clus scale="   81.358">  5  6 -1 -1</clus>
<clus scale="   90.254">  7  8 -1 -1</clus>
<clus scale="   90.332">  1  5  2 -1</clus>
<clus scale="   64.495">  1  5  2 -1</clus>
</clustering>
</event>
<event>
 9    2  0.1723348E-004  0.9637800E+02  0.7546771E-02  0.1293986E+00
          2   -1    0    0  502    0 -0.00000000000E+00  0.00000000000E+00  0.59521904075E+03  0.59521904075E+03  0.00000000000E+00 0. -1.
         21   -1    0    0  501  502  0.00000000000E+00 -0.00000000000E+00 -0.42606434431E+02  0.42606434431E+02  0.00000000000E+00 0.  1.
         24    2    1    2    0    0  0.25182594063E+02  0.53542158456E+01  0.43634218360E+03  0.44445947088E+03  0.80541227889E+02 0.  0.
         23    2    1    2    0    0 -0.58189304587E+02 -0.11598851367E+02  0.11697561423E+03  0.15976636581E+03  0.91222085035E+02 0.  0.
        -11    1    3    3    0    0 -0.27548587508E+02  0.10687764601E+02  0.11285995218E+03  0.11666414098E+03  0.00000000000E+00 0.  1.
         12    1    3    3    0    0  0.52731181571E+02 -0.53335487558E+01  0.32348223142E+03  0.32779532989E+03  0.00000000000E+00 0. -1.
        -11    1    4    4    0    0 -0.74559220660E+02  0.39841040706E+01  0.52044281561E+02  0.91014052288E+02  0.00000000000E+00 0. -1.
         11    1    4    4    0    0  0.16369916074E+02 -0.15582955437E+02  0.64931332665E+02  0.68752313518E+02  0.00000000000E+00 0.  1.
          1    1    1    2  501    0  0.33006710524E+02  0.62446355210E+01 -0.70519150687E+00  0.33599638502E+02  0.00000000000E+00 0. -1.
<scales pt_clust_5="13000.00000" pt_clust_6="13000.00000" pt_clust_7="13000.00000" pt_clust_8="13000.00000" pt_clust_9="33.59224"></scales>
<clustering>
<clus scale="   33.592">  2  9  1 -1</clus>
<clus scale="   80.541">  5  6 -1 -1</clus>
<clus scale="   86.337">  1  5  2 -1</clus>
<clus scale="   91.222">  7  8 -1 -1</clus>
<clus scale="   33.592">  2  5  1 -1</clus>
</clustering>
</event>
<event>
 9    2  0.1723348E-004  0.1902383E+03  0.7546771E-02  0.1159692E+00
          2   -1    0    0  502    0 -0.00000000000E+00  0.00000000000E+00  0.69691245521E+03  0.69691245521E+03  0.00000000000E+00 0. -1.
         21   -1    0    0  501  502  0.00000000000E+00 -0.00000000000E+00 -0.11198994138E+03  0.11198994138E+03  0.00000000000E+00 0. -1.
         24    2    1    2    0    0  0.15556877204E+03  0.34214051915E+02  0.34572605965E+03  0.38876977855E+03  0.79013848235E+02 0.  0.
         23    2    1    2    0    0 -0.20015080157E+03  0.48988908647E+02  0.89269552844E+02  0.24296499755E+03  0.92750635742E+02 0.  0.
        -11    1    3    3    0    0 -0.27928871303E+00  0.21340944410E+02  0.45570995239E+02  0.50321263076E+02  0.00000000000E+00 0.  1.
         12    1    3    3    0    0  0.15584806075E+03  0.12873107505E+02  0.30015506441E+03  0.33844851548E+03  0.00000000000E+00 0. -1.
        -11    1    4    4    0    0 -0.19546857394E+03  0.22326108121E+02  0.88897597981E+02  0.21589164279E+03  0.00000000000E+00 0. -1.
         11    1    4    4    0    0 -0.46822276352E+01  0.26662800527E+02  0.37195486240E+00  0.27073354760E+02  0.00000000000E+00 0.  1.
          1    1    1    2  501    0  0.44582029532E+02 -0.83202960562E+02  0.14992690134E+03  0.17716762048E+03  0.00000000000E+00 0. -1.
<scales pt_clust_5="13000.00000" pt_clust_6="13000.00000" pt_clust_7="13000.00000" pt_clust_8="13000.00000" pt_clust_9="94.39438"></scales>
<clustering>
<clus scale="   79.014">  5  6 -1 -1</clus>
<clus scale="   92.751">  7  8 -1 -1</clus>
<clus scale="   94.394">  2  9  1 -1</clus>
<clus scale="  183.932">  1  5  2 -1</clus>
<clus scale="   94.394">  2  5  1 -1</clus>
</clustering>
</event>
<event>
 9    2  0.1723348E-004  0.1273435E+03  0.7546771E-02  0.1234253E+00
         21   -1    0    0  501  502  0.00000000000E+00  0.00000000000E+00  0.68661337091E+02  0.68661337091E+02  0.00000000000E+00 0. -1.
          2   -1    0    0  502    0 -0.00000000000E+00 -0.00000000000E+00 -0.74348962154E+03  0.74348962154E+03  0.00000000000E+00 0. -1.
         24    2    1    2    0    0 -0.28468157870E+02 -0.78078121009E+02 -0.32531526848E+03  0.34517796849E+03  0.80069825997E+02 0.  0.
         23    2    1    2    0    0  0.46370455609E+02  0.11871830727E+03 -0.49832695430E+02  0.16402016951E+03  0.90416054104E+02 0.  0.
        -13    1    3    3    0    0 -0.48822529754E+02 -0.28571431988E+02 -0.21846364289E+03  0.22566862742E+03  0.00000000000E+00 0.  1.
         14    1    3    3    0    0  0.20354371884E+02 -0.49506689020E+02 -0.10685162559E+03  0.11950934107E+03  0.00000000000E+00 0. -1.
        -11    1    4    4    0    0  0.29875141400E+02  0.30087622170E+02 -0.59812778612E+02  0.73316830038E+02  0.00000000000E+00 0.  1.
         11    1    4    4    0    0  0.16495314209E+02  0.88630685098E+02  0.99800831827E+01  0.90703339476E+02  0.00000000000E+00 0. -1.
          1    1    1    2  501    0 -0.17902297739E+02 -0.40640186260E+02 -0.29968032054E+03  0.30295282063E+03  0.00000000000E+00 0. -1.
<scales pt_clust_5="13000.00000" pt_clust_6="13000.00000" pt_clust_7="13000.00000" pt_clust_8="13000.00000" pt_clust_9="44.40855"></scales>
<clustering>
<clus scale="   44.409">  1  9  2 -1</clus>
<clus scale="   80.070">  5  6 -1 -1</clus>
<clus scale="   90.416">  7  8 -1 -1</clus>
<clus scale="  120.218">  2  5  1 -1</clus>
<clus scale="   44.409">  1  5  2 -1</clus>
</clustering>
</event>
<event>
 9    2  0.1723348E-004  0.9122458E+02  0.7546771E-02  0.1306846E+00
         21   -1    0    0  501  502  0.00000000000E+00  0.00000000000E+00  0.27620135066E+03  0.27620135066E+03  0.00000000000E+00 0. -1.
         -1   -1    0    0    0  501 -0.00000000000E+00 -0.00000000000E+00 -0.45880116858E+02  0.45880116858E+02  0.00000000000E+00 0.  1.
         23    2    1    2    0    0  0.74384047818E+01 -0.10335139717E+02  0.37632655125E+02  0.99014070299E+02  0.90694125536E+02 0.  0.
         24    2    1    2    0    0  0.21000018124E+02  0.84523929288E+01  0.15555088116E+03  0.17625396741E+03  0.79730425146E+02 0.  0.
        -13    1    4    4    0    0  0.35633160636E+02 -0.16628836409E+02  0.36290108913E+02  0.53508993096E+02  0.00000000000E+00 0.  1.
         14    1    4    4    0    0 -0.14633142512E+02  0.25081229337E+02  0.11926077224E+03  0.12274497432E+03  0.00000000000E+00 0. -1.
        -13    1    3    3    0    0 -0.13262209344E+02  0.21326954216E+02  0.52634720376E+02  0.58319284648E+02  0.00000000000E+00 0. -1.
         13    1    3    3    0    0  0.20700614125E+02 -0.31662093932E+02 -0.15002065251E+02  0.40694785651E+02  0.00000000000E+00 0.  1.
         -2    1    1    2    0  502 -0.28438422906E+02  0.18827467880E+01  0.37137697518E+02  0.46813429801E+02  0.00000000000E+00 0.  1.
<scales pt_clust_5="13000.00000" pt_clust_6="13000.00000" pt_clust_7="13000.00000" pt_clust_8="13000.00000" pt_clust_9="28.50068"></scales>
<clustering>
<clus scale="   28.501">  1  9  2 -1</clus>
<clus scale="   79.730">  5  6 -1 -1</clus>
<clus scale="   80.333">  1  5  2 -1</clus>
<clus scale="   90.694">  7  8 -1 -1</clus>
<clus scale="   28.501">  1  5  2 -1</clus>
</clustering>
</event>
<event>
 9    2  0.1723348E-004  0.1057397E+03  0.7546771E-02  0.1274313E+00
         21   -1    0    0  501  502  0.00000000000E+00  0.00000000000E+00  0.35778281626E+03  0.35778281626E+03  0.00000000000E+00 0.  1.
          2   -1    0    0  502    0 -0.00000000000E+00 -0.00000000000E+00 -0.76310970110E+02  0.76310970110E+02  0.00000000000E+00 0. -1.
         23    2    1    2    0    0 -0.50499707749E+02  0.85792105774E+01 -0.18501758384E+02  0.10842557359E+03  0.93754821786E+02 0.  0.
         24    2    1    2    0    0  0.40786697110E+02  0.21678914779E+02  0.19991535013E+03  0.22068463787E+03  0.81252890220E+02 0.  0.
        -11    1    4    4    0    0  0.60652484395E+02  0.22975739228E+02  0.18431127315E+03  0.19539000452E+03  0.00000000000E+00 0.  1.
         12    1    4    4    0    0 -0.19865787285E+02 -0.12968244492E+01  0.15604076978E+02  0.25294633352E+02  0.00000000000E+00 0. -1.
        -11    1    3    3    0    0  0.27758343298E+02 -0.93943969361E+00 -0.79367226275E+01  0.28885978184E+02  0.00000000000E+00 0.  1.
         11    1    3    3    0    0 -0.78258051047E+02  0.95186502710E+01 -0.10565035756E+02  0.79539595405E+02  0.00000000000E+00 0. -1.
          1    1    1    2  501    0  0.97130106388E+01 -0.30258125356E+02  0.10005825441E+03  0.10498357491E+03  0.00000000000E+00 0. -1.
<scales pt_clust_5="13000.00000" pt_clust_6="13000.00000" pt_clust_7="13000.00000" pt_clust_8="13000.00000" pt_clust_9="31.77887"></scales>
<clustering>
<clus scale="   31.779">  1  9  2 -1</clus>
<clus scale="   81.253">  5  6 -1 -1</clus>
<clus scale="   93.755">  7  8 -1 -1</clus>
<clus scale="   94.831">  1  5  2 -1</clus>
<clus scale="   31.779">  1  5  2 -1</clus>
</clustering>
</event>
<event>
 9    2  0.1723348E-004  0.1061227E+03  0.7546771E-02  0.1272412E+00
         -3   -1    0    0    0  501 -0.00000000000E+00  0.00000000000E+00  0.84705868656E+02  0.84705868656E+02  0.00000000000E+00 0.  1.
         21   -1    0    0  501  502  0.00000000000E+00 -0.00000000000E+00 -0.26782263582E+03  0.26782263582E+03  0.00000000000E+00 0.  1.
         23    2    1    2    0    0 -0.57508064645E+02  0.14370625166E+01 -0.55344081737E+02  0.12237228787E+03  0.92751101379E+02 0.  0.
         24    2    1    2    0    0  0.20367636535E+02  0.69938686699E+02 -0.62680817218E+02  0.12666293043E+03  0.82512741945E+02 0.  0.
        -13    1    4    4    0    0  0.37286788747E+02  0.54684028304E+02 -0.70651577527E+01  0.66562482080E+02  0.00000000000E+00 0.  1.
         14    1    4    4    0    0 -0.16919152211E+02  0.15254658395E+02 -0.55615659466E+02  0.60100448352E+02  0.00000000000E+00 0. -1.
        -13    1    3    3    0    0  0.18073069767E+02  0.15837845763E+02  0.50548184172E+01  0.24556555101E+02  0.00000000000E+00 0. -1.
         13    1    3    3    0    0 -0.75581134411E+02 -0.14400783247E+02 -0.60398900154E+02  0.97815732768E+02  0.00000000000E+00 0.  1.
         -4    1    1    2    0  502  0.37140428110E+02 -0.71375749216E+02 -0.65091868204E+02  0.10349328617E+03  0.00000000000E+00 0.  1.
<scales pt_clust_5="13000.00000" pt_clust_6="13000.00000" pt_clust_7="13000.00000" pt_clust_8="13000.00000" pt_clust_9="80.46061"></scales>
<clustering>
<clus scale="   80.461">  2  9  1 -1</clus>
<clus scale="   82.513">  5  6 -1 -1</clus>
<clus scale="   92.751">  7  8 -1 -1</clus>
<clus scale="   97.302">  2  5  1 -1</clus>
<clus scale="   80.461">  2  5  1 -1</clus>
</clustering>
</event>
<event>
 9    2  0.1723348E-004  0.2080791E+03  0.7546771E-02  0.1144147E+00
          2   -1    0    0  502    0 -0.00000000000E+00  0.00000000000E+00  0.31138352729E+03  0.31138352729E+03  0.00000000000E+00 0. -1.
         21   -1    0    0  501  502  0.00000000000E+00 -0.00000000000E+00 -0.37287028460E+03  0.37287028460E+03  0.00000000000E+00 0.  1.
         24    2    1    2    0    0  0.53444383196E+02  0.20366017678E+03  0.12959986177E+03  0.25991164484E+03  0.80150915455E+02 0.  0.
         23    2    1    2    0    0 -0.15865601788E+03 -0.86674591987E+02 -0.41537503957E+02  0.20727062825E+03  0.92474494840E+02 0.  0.
        -13    1    3    3    0    0  0.70780036438E+02  0.15017408819E+03  0.77336768890E+02  0.18314760753E+03  0.00000000000E+00 0.  1.
         14    1    3    3    0    0 -0.17335653241E+02  0.53486088595E+02  0.52263092876E+02  0.76764037306E+02  0.00000000000E+00 0. -1.
        -13    1    4    4    0    0 -0.12166383863E+03 -0.35163695674E+02  0.78562544854E+01  0.12688694124E+03  0.00000000000E+00 0. -1.
         13    1    4    4    0    0 -0.36992179256E+02 -0.51510896313E+02 -0.49393758442E+02  0.80383687015E+02  0.00000000000E+00 0.  1.
          1    1    1    2  501    0  0.10521163469E+03 -0.11698558480E+03 -0.14954911512E+03  0.21707153880E+03  0.00000000000E+00 0. -1.
<scales pt_clust_5="13000.00000" pt_clust_6="13000.00000" pt_clust_7="13000.00000" pt_clust_8="13000.00000" pt_clust_9="157.33758"></scales>
<clustering>
<clus scale="   80.151">  5  6 -1 -1</clus>
<clus scale="   92.474">  7  8 -1 -1</clus>
<clus scale="  157.338">  2  9  1 -1</clus>
<clus scale="  202.903">  1  5  2 -1</clus>
<clus scale="  157.338">  2  5  1 -1</clus>
</clustering>
</event>
<event>
 9    2  0.1723348E-004  0.1163589E+03  0.7546771E-02  0.1257310E+00
         -1   -1    0    0    0  501 -0.00000000000E+00  0.00000000000E+00  0.93836616042E+02  0.93836616042E+02  0.00000000000E+00 0.  1.
         21   -1    0    0  501  502  0.00000000000E+00 -0.00000000000E+00 -0.33142376972E+03  0.33142376972E+03  0.00000000000E+00 0.  1.
         23    2    1    2    0    0 -0.70404622798E+01 -0.46549967409E+02 -0.13654707938E+03  0.17539090656E+03  0.99500741917E+02 0.  0.
         24    2    1    2    0    0  0.19324777164E+02  0.72573458713E+02 -0.15463875341E+03  0.18903408739E+03  0.78615445156E+02 0.  0.
        -13    1    4    4    0    0  0.38952574264E+02  0.49121195478E+02 -0.14330800032E+03  0.15642051605E+03  0.00000000000E+00 0.  1.
         14    1    4    4    0    0 -0.19627797101E+02  0.23452263235E+02 -0.11330753096E+02  0.32613571341E+02  0.00000000000E+00 0. -1.
        -11    1    3    3    0    0  0.30423899465E+02 -0.88095505471E+01 -0.32043667231E+01  0.31835354649E+02  0.00000000000E+00 0. -1.
         11    1    3    3    0    0 -0.37464361745E+02 -0.37740416862E+02 -0.13334271266E+03  0.14355555192E+03  0.00000000000E+00 0.  1.
         -2    1    1    2    0  502 -0.12284314884E+02 -0.26023491304E+02  0.53598679124E+02  0.60835391801E+02  0.00000000000E+00 0.  1.
<scales pt_clust_5="13000.00000" pt_clust_6="13000.00000" pt_clust_7="13000.00000" pt_clust_8="13000.00000" pt_clust_9="28.77720"></scales>
<clustering>
<clus scale="   28.777">  2  9  1 -1</clus>
<clus scale="   78.615">  5  6 -1 -1</clus>
<clus scale="   99.093">  2  5  1 -1</clus>
<clus scale="   99.501">  7  8 -1 -1</clus>
<clus scale="   28.777">  2  5  1 -1</clus>
</clustering>
</event>
<event>
 9    2  0.1723348E-004  0.3229989E+03  0.7546771E-02  0.1074567E+00
         21   -1    0    0  501  502  0.00000000000E+00  0.00000000000E+00  0.53061121496E+02  0.53061121496E+02  0.00000000000E+00 0. -1.
          2   -1    0    0  502    0 -0.00000000000E+00 -0.00000000000E+00 -0.26288950420E+04  0.26288950420E+04  0.00000000000E+00 0. -1.
         23    2    1    2    0    0 -0.18388041565E+03 -0.21962342929E+03 -0.10770479282E+04  0.11182119696E+04  0.91210259894E+02 0.  0.
         24    2    1    2    0    0  0.15278931532E+03  0.30631755429E+03 -0.12438427420E+04  0.12926748509E+04  0.81783153858E+02 0.  0.
        -13    1    4    4    0    0  0.13249656162E+02  0.32197840053E+02 -0.58541107648E+02  0.68112521442E+02  0.00000000000E+00 0.  1.
         14    1    4    4    0    0  0.13953965916E+03  0.27411971424E+03 -0.11853016344E+04  0.12245623294E+04  0.00000000000E+00 0. -1.
        -11    1    3    3    0    0 -0.27328338091E+02 -0.20864469786E+02 -0.51551379289E+02  0.61965384441E+02  0.00000000000E+00 0.  1.
         11    1    3    3    0    0 -0.15655207756E+03 -0.19875895951E+03 -0.10254965489E+04  0.10562465852E+04  0.00000000000E+00 0. -1.
          1    1    1    2  501    0  0.31091100330E+02 -0.86694124998E+02 -0.25494325036E+03  0.27106934304E+03  0.00000000000E+00 0. -1.
<scales pt_clust_5="13000.00000" pt_clust_6="13000.00000" pt_clust_7="13000.00000" pt_clust_8="13000.00000" pt_clust_9="92.10064"></scales>
<clustering>
<clus scale="   81.783">  5  6 -1 -1</clus>
<clus scale="   91.210">  7  8 -1 -1</clus>
<clus scale="   92.101">  1  9  2 -1</clus>
<clus scale="  320.464">  1  5  2 -1</clus>
<clus scale="   92.101">  1  5  2 -1</clus>
</clustering>
</event>
<event>
 9    2  0.1723348E-004  0.1046342E+03  0.7546771E-02  0.1276384E+00
         -3   -1    0    0    0  501 -0.00000000000E+00  0.00000000000E+00  0.29310669448E+03  0.29310669448E+03  0.00000000000E+00 0.  1.
         21   -1    0    0  501  502  0.00000000000E+00 -0.00000000000E+00 -0.15735110738E+03  0.15735110738E+03  0.00000000000E+00 0.  1.
         23    2    1    2    0    0  0.39332278624E+02 -0.59008980444E+02  0.19419091237E+03  0.22593651018E+03  0.91148824846E+02 0.  0.
         24    2    1    2    0    0 -0.88168498924E+01  0.23498846978E+02  0.56681146763E+02  0.10024754905E+03  0.78783793010E+02 0.  0.
        -13    1    4    4    0    0  0.26446740168E+02 -0.69949763118E+01  0.44208919418E+02  0.51988347879E+02  0.00000000000E+00 0.  1.
         14    1    4    4    0    0 -0.35263590060E+02  0.30493823290E+02  0.12472227345E+02  0.48259201172E+02  0.00000000000E+00 0. -1.
        -13    1    3    3    0    0  0.51885761769E+02 -0.16851673147E+02  0.16333996049E+03  0.17220933149E+03  0.00000000000E+00 0.  1.
         13    1    3    3    0    0 -0.12553483145E+02 -0.42157307297E+02  0.30850951889E+02  0.53727178691E+02  0.00000000000E+00 0. -1.
         -4    1    1    2    0  502 -0.30515428731E+02  0.35510133466E+02 -0.11511647204E+03  0.12427374262E+03  0.00000000000E+00 0.  1.
<scales pt_clust_5="13000.00000" pt_clust_6="13000.00000" pt_clust_7="13000.00000" pt_clust_8="13000.00000" pt_clust_9="46.82052"></scales>
<clustering>
<clus scale="   46.821">  2  9  1 -1</clus>
<clus scale="   78.784">  5  6 -1 -1</clus>
<clus scale="   91.149">  7  8 -1 -1</clus>
<clus scale="   94.059">  2  5  1 -1</clus>
<clus scale="   46.821">  2  5  1 -1</clus>
</clustering>
</event>
<event>
 9    2  0.1723348E-004  0.1587709E+03  0.7546771E-02  0.1191077E+00
         21   -1    0    0  501  502  0.00000000000E+00  0.00000000000E+00  0.93007887808E+02  0.93007887808E+02  0.00000000000E+00 0. -1.
          2   -1    0    0  502    0 -0.00000000000E+00 -0.00000000000E+00 -0.79620197311E+03  0.79620197311E+03  0.00000000000E+00 0. -1.
         23    2    1    2    0    0  0.61717442646E+02 -0.89040351827E+02 -0.10703027896E+03  0.17663510600E+03  0.89483255842E+02 0.  0.
         24    2    1    2    0    0 -0.14795878403E+03  0.91545065598E+02 -0.11677170073E+03  0.22548068446E+03  0.83268290287E+02 0.  0.
        -11    1    4    4    0    0 -0.47170539154E+02  0.17351933281E+02 -0.80983929928E+02  0.95312886113E+02  0.00000000000E+00 0.  1.
         12    1    4    4    0    0 -0.10078824488E+03  0.74193132317E+02 -0.35787770803E+02  0.13016779835E+03  0.00000000000E+00 0. -1.
        -13    1    3    3    0    0  0.33139868347E+02  0.68192233352E+01 -0.53184522882E+02  0.63034483857E+02  0.00000000000E+00 0.  1.
         13    1    3    3    0    0  0.28577574299E+02 -0.95859575162E+02 -0.53845756081E+02  0.11360062214E+03  0.00000000000E+00 0. -1.
          1    1    1    2  501    0  0.86241341383E+02 -0.25047137711E+01 -0.47939210561E+03  0.48709407045E+03  0.00000000000E+00 0. -1.
<scales pt_clust_5="13000.00000" pt_clust_6="13000.00000" pt_clust_7="13000.00000" pt_clust_8="13000.00000" pt_clust_9="86.27775"></scales>
<clustering>
<clus scale="   83.268">  5  6 -1 -1</clus>
<clus scale="   86.278">  1  9  2 -1</clus>
<clus scale="   89.483">  7  8 -1 -1</clus>
<clus scale="  155.353">  1  5  2 -1</clus>
<clus scale="   86.278">  1  5  2 -1</clus>
</clustering>
</event>
<event>
 9    2  0.1723348E-004  0.9449297E+02  0.7546771E-02  0.1299151E+00
         21   -1    0    0  501  502  0.00000000000E+00  0.00000000000E+00  0.36907061883E+03  0.36907061883E+03  0.00000000000E+00 0. -1.
          2   -1    0    0  502    0 -0.00000000000E+00 -0.00000000000E+00 -0.39545969699E+02  0.39545969699E+02  0.00000000000E+00 0. -1.
         24    2    1    2    0    0  0.35284729160E+02  0.94056120215E+01  0.40126713419E+02  0.94930474776E+02  0.77898422718E+02 0.  0.
         23    2    1    2    0    0 -0.77471232378E+01  0.32007649315E+01  0.20325307135E+03  0.22237248861E+03  0.89818983878E+02 0.  0.
        -13    1    3    3    0    0  0.48262639659E+02 -0.12496080153E+02  0.47047483497E+02  0.68548523758E+02  0.00000000000E+00 0.  1.
         14    1    3    3    0    0 -0.12977910498E+02  0.21901692175E+02 -0.69207700786E+01  0.26381951018E+02  0.00000000000E+00 0. -1.
        -13    1    4    4    0    0 -0.14793998297E+02 -0.34188256759E+02  0.39652807010E+02  0.54406289982E+02  0.00000000000E+00 0.  1.
         13    1    4    4    0    0  0.70468750592E+01  0.37389021690E+02  0.16360026434E+03  0.16796619863E+03  0.00000000000E+00 0. -1.
          1    1    1    2  501    0 -0.27537605923E+02 -0.12606376953E+02  0.86144864361E+02  0.91313625136E+02  0.00000000000E+00 0. -1.
<scales pt_clust_5="13000.00000" pt_clust_6="13000.00000" pt_clust_7="13000.00000" pt_clust_8="13000.00000" pt_clust_9="30.28598"></scales>
<clustering>
<clus scale="   30.286">  1  9  2 -1</clus>
<clus scale="   77.898">  5  6 -1 -1</clus>
<clus scale="   83.244">  2  5  1 -1</clus>
<clus scale="   89.819">  7  8 -1 -1</clus>
<clus scale="   30.286">  1  5  2 -1</clus>
</clustering>
</event>
<event>
 9    2  0.1723348E-004  0.1631191E+03  0.7546771E-02  0.1203159E+00
         -1   -1    0    0    0  501 -0.00000000000E+00  0.00000000000E+00  0.71600903831E+03  0.71600903831E+03  0.00000000000E+00 0.  1.
         21   -1    0    0  501  502  0.00000000000E+00 -0.00000000000E+00 -0.77285677632E+02  0.77285677632E+02  0.00000000000E+00 0.  1.
         24    2    1    2    0    0 -0.33876628472E+02  0.66421118568E+02  0.26388008537E+03  0.28590927032E+03  0.80944551712E+02 0.  0.
         23    2    1    2    0    0 -0.90855817947E+02  0.67894254090E+02  0.99674707004E+02  0.17675492146E+03  0.91884958792E+02 0.  0.
        -13    1    3    3    0    0 -0.37770788881E+02  0.95278298327E+01  0.18203608969E+03  0.18615732589E+03  0.00000000000E+00 0.  1.
         14    1    3    3    0    0  0.38941604090E+01  0.56893288735E+02  0.81843995690E+02  0.99751944437E+02  0.00000000000E+00 0. -1.
        -11    1    4    4    0    0 -0.17837521163E+02 -0.13302711655E+02  0.53967962457E+02  0.58375339574E+02  0.00000000000E+00 0. -1.
         11    1    4    4    0    0 -0.73018296784E+02  0.81196965745E+02  0.45706744547E+02  0.11837958189E+03  0.00000000000E+00 0.  1.
         -2    1    1    2    0  502  0.12473244642E+03 -0.13431537266E+03  0.27516856830E+03  0.33063052416E+03  0.00000000000E+00 0.  1.
<scales pt_clust_5="13000.00000" pt_clust_6="13000.00000" pt_clust_7="13000.00000" pt_clust_8="13000.00000" pt_clust_9="134.77770"></scales>
<clustering>
<clus scale="   80.945">  5  6 -1 -1</clus>
<clus scale="   91.885">  7  8 -1 -1</clus>
<clus scale="  110.052">  1  5  2 -1</clus>
<clus scale="  134.778">  2  9  1 -1</clus>
<clus scale="  134.778">  2  5  1 -1</clus>
</clustering>
</event>
<event>
 9    2  0.1723348E-004  0.9981229E+02  0.7546771E-02  0.1285947E+00
         -1   -1    0    0    0  501 -0.00000000000E+00  0.00000000000E+00  0.13380414502E+03  0.13380414502E+03  0.00000000000E+00 0.  1.
         21   -1    0    0  501  502  0.00000000000E+00 -0.00000000000E+00 -0.18198511577E+03  0.18198511577E+03  0.00000000000E+00 0. -1.
         24    2    1    2    0    0 -0.34624280852E+02 -0.29157233999E+02  0.23187372481E+02  0.95572575977E+02  0.80916487302E+02 0.  0.
         23    2    1    2    0    0  0.53173448826E+02 -0.53060308387E+02 -0.66747923926E+02  0.13580611566E+03  0.91352086551E+02 0.  0.
        -13    1    3    3    0    0 -0.46367641512E+01 -0.48201279092E+02  0.33143553270E+02  0.58680133021E+02  0.00000000000E+00 0.  1.
         14    1    3    3    0    0 -0.29987516700E+02  0.19044045093E+02 -0.99561807894E+01  0.36892442956E+02  0.00000000000E+00 0. -1.
        -11    1    4    4    0    0  0.79332302577E+02 -0.37036861037E+02 -0.47818216493E+02  0.99759336085E+02  0.00000000000E+00 0. -1.
         11    1    4    4    0    0 -0.26158853751E+02 -0.16023447350E+02 -0.18929707434E+02  0.36046779580E+02  0.00000000000E+00 0.  1.
         -2    1    1    2    0  502 -0.18549167975E+02  0.82217542386E+02 -0.46204193088E+01  0.84410569143E+02  0.00000000000E+00 0.  1.
<scales pt_clust_5="13000.00000" pt_clust_6="13000.00000" pt_clust_7="13000.00000" pt_clust_8="13000.00000" pt_clust_9="84.28406"></scales>
<clustering>
<clus scale="   80.916">  5  6 -1 -1</clus>
<clus scale="   84.284">  2  9  1 -1</clus>
<clus scale="   90.359">  1  5  2 -1</clus>
<clus scale="   91.352">  7  8 -1 -1</clus>
<clus scale="   84.284">  2  5  1 -1</clus>
</clustering>
</event>
<event>
 9    2  0.1723348E-004  0.9576097E+02  0.7546771E-02  0.1295383E+00
         21   -1    0    0  501  502  0.00000000000E+00  0.00000000000E+00  0.80138381242E+02  0.80138381242E+02  0.00000000000E+00 0. -1.
         -1   -1    0    0    0  501 -0.00000000000E+00 -0.00000000000E+00 -0.26178092990E+03  0.26178092990E+03  0.00000000000E+00 0.  1.
         23    2    1    2    0    0 -0.31263464841E+01 -0.26452620946E+02 -0.19783210643E+03  0.21939978543E+03  0.91045089455E+02 0.  0.
         24    2    1    2    0    0  0.21455277315E+02  0.38784357450E+02 -0.48809743990E+01  0.91991034818E+02  0.80460992216E+02 0.  0.
        -13    1    4    4    0    0 -0.11897746135E+02  0.37153078149E+02 -0.30812096545E+02  0.49712099861E+02  0.00000000000E+00 0.  1.
         14    1    4    4    0    0  0.33353023450E+02  0.16312793005E+01  0.25931122146E+02  0.42278934958E+02  0.00000000000E+00 0. -1.
        -11    1    3    3    0    0  0.27850814163E+02 -0.48941182202E+02 -0.10952478668E+03  0.12315269410E+03  0.00000000000E+00 0.  1.
         11    1    3    3    0    0 -0.30977160647E+02  0.22488561256E+02 -0.88307319745E+02  0.96247091331E+02  0.00000000000E+00 0. -1.
         -2    1    1    2    0  502 -0.18328930830E+02 -0.12331736504E+02  0.21070532170E+02  0.30528490898E+02  0.00000000000E+00 0.  1.
<scales pt_clust_5="13000.00000" pt_clust_6="13000.00000" pt_clust_7="13000.00000" pt_clust_8="13000.00000" pt_clust_9="22.09121"></scales>
<clustering>
<clus scale="   22.091">  1  9  2 -1</clus>
<clus scale="   80.461">  5  6 -1 -1</clus>
<clus scale="   85.761">  1  5  2 -1</clus>
<clus scale="   91.045">  7  8 -1 -1</clus>
<clus scale="   22.091">  1  5  2 -1</clus>
</clustering>
</event>
<event>
 9    2  0.1723348E-004  0.2420748E+03  0.7546771E-02  0.1118867E+00
         21   -1    0    0  501  502  0.00000000000E+00  0.00000000000E+00  0.94136962095E+02  0.94136962095E+02  0.00000000000E+00 0.  1.
          2   -1    0    0  502    0 -0.00000000000E+00 -0.00000000000E+00 -0.19100714914E+04  0.19100714914E+04  0.00000000000E+00 0. -1.
         24    2    1    2    0    0  0.65797230898E+02 -0.20841793417E+03 -0.15009631727E+04  0.15189692501E+04  0.81300837606E+02 0.  0.
         23    2    1    2    0    0 -0.94754919232E+02  0.24412792010E+03 -0.33557611032E+03  0.43485759285E+03  0.88954281264E+02 0.  0.
        -11    1    3    3    0    0 -0.13605418505E+01 -0.46623729108E+02 -0.16154211826E+03  0.16814124765E+03  0.00000000000E+00 0.  1.
         12    1    3    3    0    0  0.67157772749E+02 -0.16179420506E+03 -0.13394210544E+04  0.13508280024E+04  0.00000000000E+00 0. -1.
        -11    1    4    4    0    0 -0.71238216914E+02  0.77284002771E+02 -0.98829873059E+02  0.14427419881E+03  0.00000000000E+00 0.  1.
         11    1    4    4    0    0 -0.23516702318E+02  0.16684391733E+03 -0.23674623726E+03  0.29058339404E+03  0.00000000000E+00 0. -1.
          1    1    1    2  501    0  0.28957688334E+02 -0.35709985930E+02  0.20604753657E+02  0.50381610554E+02  0.00000000000E+00 0. -1.
<scales pt_clust_5="13000.00000" pt_clust_6="13000.00000" pt_clust_7="13000.00000" pt_clust_8="13000.00000" pt_clust_9="45.97555"></scales>
<clustering>
<clus scale="   45.976">  1  9  2 -1</clus>
<clus scale="   81.301">  5  6 -1 -1</clus>
<clus scale="   88.954">  7  8 -1 -1</clus>
<clus scale="  239.368">  2  5  1 -1</clus>
<clus scale="   45.976">  1  5  2 -1</clus>
</clustering>
</event>
<event>
 9    2  0.1723348E-004  0.1067089E+03  0.7546771E-02  0.1270097E+00
          2   -1    0    0  502    0 -0.00000000000E+00  0.00000000000E+00  0.82839851384E+03  0.82839851384E+03  0.00000000000E+00 0. -1.
         21   -1    0    0  501  502  0.00000000000E+00 -0.00000000000E+00 -0.21319183822E+02  0.21319183822E+02  0.00000000000E+00 0.  1.
         23    2    1    2    0    0 -0.12010345690E+02 -0.69179462934E+02  0.58393851479E+03  0.59473236711E+03  0.88274305061E+02 0.  0.
         24    2    1    2    0    0 -0.27393716146E+01  0.40601349580E+02  0.17985686124E+03  0.20106164934E+03  0.80133155142E+02 0.  0.
        -13    1    4    4    0    0 -0.39808081775E+02  0.11957922964E+02  0.66699004498E+02  0.78590282461E+02  0.00000000000E+00 0.  1.
         14    1    4    4    0    0  0.37068710160E+02  0.28643426616E+02  0.11315785674E+03  0.12247136688E+03  0.00000000000E+00 0. -1.
        -11    1    3    3    0    0  0.29883627809E+02  0.22092756184E+01  0.14714242450E+03  0.15016259587E+03  0.00000000000E+00 0.  1.
         11    1    3    3    0    0 -0.41893973499E+02 -0.71388738553E+02  0.43679609029E+03  0.44456977124E+03  0.00000000000E+00 0. -1.
          1    1    1    2  501    0  0.14749717305E+02  0.28578113354E+02  0.43283953979E+02  0.53923681212E+02  0.00000000000E+00 0. -1.
<scales pt_clust_5="13000.00000" pt_clust_6="13000.00000" pt_clust_7="13000.00000" pt_clust_8="13000.00000" pt_clust_9="32.15996"></scales>
<clustering>
<clus scale="   32.160">  2  9  1 -1</clus>
<clus scale="   80.133">  5  6 -1 -1</clus>
<clus scale="   88.274">  7  8 -1 -1</clus>
<clus scale="  100.079">  2  5  1 -1</clus>
<clus scale="   32.160">  2  5  1 -1</clus>
</clustering>
</event>
<event>
 9    2  0.1723348E-004  0.9093879E+02  0.7546771E-02  0.1306228E+00
          2   -1    0    0  502    0 -0.00000000000E+00  0.00000000000E+00  0.52421129334E+03  0.52421129334E+03  0.00000000000E+00 0. -1.
         21   -1    0    0  501  502  0.00000000000E+00 -0.00000000000E+00 -0.24173932142E+02  0.24173932142E+02  0.00000000000E+00 0.  1.
         23    2    1    2    0    0 -0.26001069142E+01 -0.41656444224E+01  0.33892760627E+03  0.35083777059E+03  0.90504728219E+02 0.  0.
         24    2    1    2    0    0 -0.98669567922E+01  0.21858276487E+02  0.92541195099E+02  0.12564401754E+03  0.81531621259E+02 0.  0.
        -11    1    4    4    0    0 -0.25117895609E+02 -0.27298573078E+01 -0.33461237040E+01  0.25486414902E+02  0.00000000000E+00 0.  1.
         12    1    4    4    0    0  0.15250938816E+02  0.24588133794E+02  0.95887318803E+02  0.10015760263E+03  0.00000000000E+00 0. -1.
        -13    1    3    3    0    0 -0.38070663372E+02  0.23875644731E+02  0.15084284625E+03  0.15739436485E+03  0.00000000000E+00 0.  1.
         13    1    3    3    0    0  0.35470556458E+02 -0.28041289154E+02  0.18808476002E+03  0.19344340574E+03  0.00000000000E+00 0. -1.
          1    1    1    2  501    0  0.12467063706E+02 -0.17692632064E+02  0.68568559831E+02  0.71903437359E+02  0.00000000000E+00 0. -1.
<scales pt_clust_5="13000.00000" pt_clust_6="13000.00000" pt_clust_7="13000.00000" pt_clust_8="13000.00000" pt_clust_9="21.64388"></scales>
<clustering>
<clus scale="   21.644">  2  9  1 -1</clus>
<clus scale="   81.532">  5  6 -1 -1</clus>
<clus scale="   82.013">  2  5  1 -1</clus>
<clus scale="   90.505">  7  8 -1 -1</clus>
<clus scale="   21.644">  2  5  1 -1</clus>
</clustering>
</event>
<event>
 9    2  0.1723348E-004  0.2365769E+03  0.7546771E-02  0.1122094E+00
         -1   -1    0    0    0  501 -0.00000000000E+00  0.00000000000E+00  0.85861841459E+03  0.85861841459E+03  0.00000000000E+00 0.  1.
         21   -1    0    0  501  502  0.00000000000E+00 -0.00000000000E+00 -0.42304361377E+02  0.42304361377E+02  0.00000000000E+00 0.  1.
         24    2    1    2    0    0  0.48382451742E+02  0.81698208082E+02  0.22684952807E+03  0.25892453446E+03  0.81029299117E+02 0.  0.
         23    2    1    2    0    0 -0.66087117240E+01  0.54288071490E+02  0.23341029622E+03  0.25857689688E+03  0.96906013447E+02 0.  0.
        -13    1    3    3    0    0  0.51067223643E+02  0.65611879479E+02  0.95732190465E+02  0.12679681522E+03  0.00000000000E+00 0.  1.
         14    1    3    3    0    0 -0.26847719012E+01  0.16086328603E+02  0.13111733761E+03  0.13212771923E+03  0.00000000000E+00 0. -1.
        -13    1    4    4    0    0  0.23828241575E+02  0.46627314720E+02  0.21686425430E+03  0.22309638359E+03  0.00000000000E+00 0.  1.
         13    1    4    4    0    0 -0.30436953299E+02  0.76607567703E+01  0.16546041913E+02  0.35480513292E+02  0.00000000000E+00 0. -1.
         -2    1    1    2    0  502 -0.41773740018E+02 -0.13598627957E+03  0.35605422892E+03  0.38342134463E+03  0.00000000000E+00 0.  1.
<scales pt_clust_5="13000.00000" pt_clust_6="13000.00000" pt_clust_7="13000.00000" pt_clust_8="13000.00000" pt_clust_9="142.25798"></scales>
<clustering>
<clus scale="   81.029">  5  6 -1 -1</clus>
<clus scale="   96.906">  7  8 -1 -1</clus>
<clus scale="  103.453">  5  7 -1 -1</clus>
<clus scale="  142.258">  2  9  1 -1</clus>
<clus scale="  142.258">  2  5  1 -1</clus>
</clustering>
</event>
<event>
 9    2  0.1723348E-004  0.1419534E+03  0.7546771E-02  0.1213399E+00
          2   -1    0    0  502    0 -0.00000000000E+00  0.00000000000E+00  0.63138667307E+03  0.63138667307E+03  0.00000000000E+00 0. -1.
         21   -1    0    0  501  502  0.00000000000E+00 -0.00000000000E+00 -0.59547668870E+02  0.59547668870E+02  0.00000000000E+00 0. -1.
         24    2    1    2    0    0 -0.52046876109E+02  0.13713054899E+03  0.34837816513E+03  0.38644778352E+03  0.80379591120E+02 0.  0.
         23    2    1    2    0    0 -0.70049605381E+01 -0.65197252225E+02  0.11939993175E+03  0.16487928416E+03  0.92892860185E+02 0.  0.
        -13    1    3    3    0    0 -0.64588644299E+02  0.12977070904E+03  0.34012835079E+03  0.36972885323E+03  0.00000000000E+00 0.  1.
         14    1    3    3    0    0  0.12541768190E+02  0.73598399490E+01  0.82498143359E+01  0.16718930289E+02  0.00000000000E+00 0. -1.
        -13    1    4    4    0    0  0.42348579612E+02 -0.36448051312E+02  0.68281313788E+02  0.88228115996E+02  0.00000000000E+00 0.  1.
         13    1    4    4    0    0 -0.49353540150E+02 -0.28749200913E+02  0.51118617965E+02  0.76651168165E+02  0.00000000000E+00 0. -1.
          1    1    1    2  501    0  0.59051836647E+02 -0.71933296764E+02  0.10406090732E+03  0.13960727426E+03  0.00000000000E+00 0. -1.
<scales pt_clust_5="13000.00000" pt_clust_6="13000.00000" pt_clust_7="13000.00000" pt_clust_8="13000.00000" pt_clust_9="93.06728"></scales>
<clustering>
<clus scale="   80.380">  5  6 -1 -1</clus>
<clus scale="   92.893">  7  8 -1 -1</clus>
<clus scale="   93.067">  2  9  1 -1</clus>
<clus scale="  134.099">  1  5  2 -1</clus>
<clus scale="   93.067">  2  5  1 -1</clus>
</clustering>
</event>
<event>
 9    2  0.1723348E-004  0.1341056E+03  0.7546771E-02  0.1224222E+00
          2   -1    0    0  502    0 -0.00000000000E+00  0.00000000000E+00  0.34612908851E+02  0.34612908851E+02  0.00000000000E+00 0. -1.
         21   -1    0    0  501  502  0.00000000000E+00 -0.00000000000E+00 -0.69477678331E+03  0.69477678331E+03  0.00000000000E+00 0.  1.
         24    2    1    2    0    0  0.75232840114E+02  0.68648480644E+02 -0.17159545797E+03  0.21524795767E+03  0.80709900003E+02 0.  0.
         23    2    1    2    0    0 -0.81710494344E+02 -0.41574647826E+02 -0.36303757821E+03  0.38556123913E+03  0.91957216689E+02 0.  0.
        -11    1    3    3    0    0  0.31885273334E+02  0.58106922800E+02 -0.15333018818E+03  0.16704260456E+03  0.00000000000E+00 0.  1.
         12    1    3    3    0    0  0.43347566781E+02  0.10541557843E+02 -0.18265269795E+02  0.48205353108E+02  0.00000000000E+00 0. -1.
        -11    1    4    4    0    0 -0.76986520475E+01 -0.52430690315E+02 -0.11784388085E+03  0.12921078432E+03  0.00000000000E+00 0. -1.
         11    1    4    4    0    0 -0.74011842297E+02  0.10856042489E+02 -0.24519369736E+03  0.25635045481E+03  0.00000000000E+00 0.  1.
          1    1    1    2  501    0  0.64776542302E+01 -0.27073832818E+02 -0.12553083828E+03  0.12858049536E+03  0.00000000000E+00 0. -1.
<scales pt_clust_5="13000.00000" pt_clust_6="13000.00000" pt_clust_7="13000.00000" pt_clust_8="13000.00000" pt_clust_9="27.83797"></scales>
<clustering>
<clus scale="   27.838">  2  9  1 -1</clus>
<clus scale="   80.710">  5  6 -1 -1</clus>
<clus scale="   91.957">  7  8 -1 -1</clus>
<clus scale="  126.658">  1  5  2 -1</clus>
<clus scale="   27.838">  2  5  1 -1</clus>
</clustering>
</event>
<event>
 9    2  0.1723348E-004  0.1329787E+03  0.7546771E-02  0.1225902E+00
         -3   -1    0    0    0  501 -0.00000000000E+00  0.00000000000E+00  0.30206569055E+03  0.30206569055E+03  0.00000000000E+00 0.  1.
         21   -1    0    0  501  502  0.00000000000E+00 -0.00000000000E+00 -0.10865276794E+03  0.10865276794E+03  0.00000000000E+00 0. -1.
         24    2    1    2    0    0  0.34537726826E+02  0.96864214160E+02  0.18521212600E+03  0.22655143456E+03  0.80290038775E+02 0.  0.
         23    2    1    2    0    0 -0.39032967533E+02 -0.60915128622E+02 -0.40412303735E+02  0.12353883358E+03  0.91621305702E+02 0.  0.
        -11    1    3    3    0    0 -0.20852252595E+02  0.57131473148E+02  0.10445565948E+03  0.12087103234E+03  0.00000000000E+00 0.  1.
         12    1    3    3    0    0  0.55389979422E+02  0.39732741011E+02  0.80756466516E+02  0.10568040222E+03  0.00000000000E+00 0. -1.
        -11    1    4    4    0    0 -0.12923439241E+02 -0.61094064074E+02 -0.63226583083E+02  0.88865633150E+02  0.00000000000E+00 0. -1.
         11    1    4    4    0    0 -0.26109528293E+02  0.17893545223E+00  0.22814279348E+02  0.34673200425E+02  0.00000000000E+00 0.  1.
         -4    1    1    2    0  502  0.44952407070E+01 -0.35949085538E+02  0.48613100348E+02  0.60628190353E+02  0.00000000000E+00 0.  1.
<scales pt_clust_5="13000.00000" pt_clust_6="13000.00000" pt_clust_7="13000.00000" pt_clust_8="13000.00000" pt_clust_9="36.22907"></scales>
<clustering>
<clus scale="   36.229">  2  9  1 -1</clus>
<clus scale="   80.290">  5  6 -1 -1</clus>
<clus scale="   91.621">  7  8 -1 -1</clus>
<clus scale="  125.441">  1  5  2 -1</clus>
<clus scale="   36.229">  2  5  1 -1</clus>
</clustering>
</event>
<event>
 9    2  0.1723348E-004  0.2438853E+03  0.7546771E-02  0.1118279E+00
         21   -1    0    0  501  502  0.00000000000E+00  0.00000000000E+00  0.20144206451E+03  0.20144206451E+03  0.00000000000E+00 0.  1.
          2   -1    0    0  502    0 -0.00000000000E+00 -0.00000000000E+00 -0.10756990250E+04  0.10756990250E+04  0.00000000000E+00 0. -1.
         23    2    1    2    0    0  0.28098401827E+03  0.79869894147E+02 -0.15310514507E+03  0.34228719016E+03  0.91586661657E+02 0.  0.
         24    2    1    2    0    0 -0.13093878489E+03 -0.98728900474E+02  0.17964965933E+02  0.18042507523E+03  0.73062347300E+02 0.  0.
        -13    1    4    4    0    0 -0.75139038074E+02 -0.96317313607E+02  0.13956714058E+01  0.12216729448E+03  0.00000000000E+00 0.  1.
         14    1    4    4    0    0 -0.55799746821E+02 -0.24115868676E+01  0.16569294527E+02  0.58257780748E+02  0.00000000000E+00 0. -1.
        -13    1    3    3    0    0  0.26557869810E+02  0.34943665010E+02 -0.42992216757E+02  0.61438675725E+02  0.00000000000E+00 0.  1.
         13    1    3    3    0    0  0.25442614845E+03  0.44926229137E+02 -0.11011292831E+03  0.28084851444E+03  0.00000000000E+00 0. -1.
          1    1    1    2  501    0 -0.15004523337E+03  0.18859006327E+02 -0.73911678138E+03  0.75442882415E+03  0.00000000000E+00 0. -1.
<scales pt_clust_5="13000.00000" pt_clust_6="13000.00000" pt_clust_7="13000.00000" pt_clust_8="13000.00000" pt_clust_9="151.22585"></scales>
<clustering>
<clus scale="   73.062">  5  6 -1 -1</clus>
<clus scale="   91.587">  7  8 -1 -1</clus>
<clus scale="  151.226">  1  9  2 -1</clus>
<clus scale="  237.550">  1  5  2 -1</clus>
<clus scale="  151.226">  1  5  2 -1</clus>
</clustering>
</event>
<event>
 9    2  0.1723348E-004  0.1655613E+03  0.7546771E-02  0.1184943E+00
         21   -1    0    0  501  502  0.00000000000E+00  0.00000000000E+00  0.28314686386E+03  0.28314686386E+03  0.00000000000E+00 0.  1.
         -1   -1    0    0    0  501 -0.00000000000E+00 -0.00000000000E+00 -0.11880494587E+03  0.11880494587E+03  0.00000000000E+00 0.  1.
         24    2    1    2    0    0  0.11152991033E+03  0.88956556175E+02  0.22426559686E+02  0.16344878107E+03  0.76553012151E+02 0.  0.
         23    2    1    2    0    0 -0.10699803439E+03 -0.67581656160E+02  0.14806728331E+03  0.21580345969E+03  0.92905076357E+02 0.  0.
        -11    1    3    3    0    0  0.10072669920E+03  0.72507467259E+02 -0.11066532662E+02  0.12460204206E+03  0.00000000000E+00 0.  1.
         12    1    3    3    0    0  0.10803211132E+02  0.16449088916E+02  0.33493092348E+02  0.38846739013E+02  0.00000000000E+00 0. -1.
        -11    1    4    4    0    0  0.48851747370E+01 -0.41414351957E+02  0.32873091407E+02  0.53100410722E+02  0.00000000000E+00 0. -1.
         11    1    4    4    0    0 -0.11188320912E+03 -0.26167304202E+02  0.11519419191E+03  0.16270304896E+03  0.00000000000E+00 0.  1.
         -2    1    1    2    0  502 -0.45318759477E+01 -0.21374900015E+02 -0.61519250131E+01  0.22699568974E+02  0.00000000000E+00 0.  1.
<scales pt_clust_5="13000.00000" pt_clust_6="13000.00000" pt_clust_7="13000.00000" pt_clust_8="13000.00000" pt_clust_9="21.85005"></scales>
<clustering>
<clus scale="   21.850">  1  9  2 -1</clus>
<clus scale="   76.553">  5  6 -1 -1</clus>
<clus scale="   92.905">  7  8 -1 -1</clus>
<clus scale="  156.970">  2  5  1 -1</clus>
<clus scale="   21.850">  1  5  2 -1</clus>
</clustering>
</event>
<event>
 9    2  0.2067082E-004  0.1489045E+03  0.7546771E-02  0.1204363E+00
         -3   -1    0    0    0  501 -0.00000000000E+00  0.00000000000E+00  0.55976797209E+03  0.55976797209E+03  0.00000000000E+00 0.  1.
         21   -1    0    0  501  502  0.00000000000E+00 -0.00000000000E+00 -0.11627884403E+03  0.11627884403E+03  0.00000000000E+00 0. -1.
         23    2    1    2    0    0  0.11223432039E+03 -0.37798232906E+02  0.48923041509E+03  0.51181637897E+03  0.92651808630E+02 0.  0.
         24    2    1    2    0    0 -0.99248147769E+02  0.19853387942E+02 -0.55504320176E+02  0.14002351756E+03  0.79255940243E+02 0.  0.
        -11    1    4    4    0    0  0.65779919667E+01  0.21430102746E+02 -0.13410494021E+02  0.26122033457E+02  0.00000000000E+00 0.  1.
         12    1    4    4    0    0 -0.10582613974E+03 -0.15767148046E+01 -0.42093826155E+02  0.11390148411E+03  0.00000000000E+00 0. -1.
        -11    1    3    3    0    0  0.21499108168E+01 -0.23567537133E+02  0.24696598358E+02  0.34204866518E+02  0.00000000000E+00 0. -1.
         11    1    3    3    0    0  0.11008440957E+03 -0.14230695772E+02  0.46453381673E+03  0.47761151245E+03  0.00000000000E+00 0.  1.
         -4    1    1    2    0  502 -0.12986172622E+02  0.17944844964E+02  0.97630331458E+01  0.24206919597E+02  0.00000000000E+00 0.  1.
<scales pt_clust_5="13000.00000" pt_clust_6="13000.00000" pt_clust_7="13000.00000" pt_clust_8="13000.00000" pt_clust_9="22.15080"></scales>
<clustering>
<clus scale="   22.151">  2  9  1 -1</clus>
<clus scale="   79.256">  5  6 -1 -1</clus>
<clus scale="   92.652">  7  8 -1 -1</clus>
<clus scale="  140.960">  2  5  1 -1</clus>
<clus scale="   22.151">  2  5  1 -1</clus>
</clustering>
</event>
<event>
 9    2  0.1723348E-004  0.2116320E+03  0.7546771E-02  0.1170103E+00
         -1   -1    0    0    0  501 -0.00000000000E+00  0.00000000000E+00  0.36596213622E+03  0.36596213622E+03  0.00000000000E+00 0.  1.
         21   -1    0    0  501  502  0.00000000000E+00 -0.00000000000E+00 -0.38343807056E+03  0.38343807056E+03  0.00000000000E+00 0.  1.
         23    2    1    2    0    0  0.50362980680E+02  0.68155030257E+01  0.12932698271E+03  0.16662575430E+03  0.91955383928E+02 0.  0.
         24    2    1    2    0    0  0.13145853032E+03 -0.93027452505E+02  0.14266199995E+03  0.23023863831E+03  0.81987390680E+02 0.  0.
        -11    1    4    4    0    0  0.95958694585E+02 -0.80336758617E+02  0.14611107854E+03  0.19238116624E+03  0.00000000000E+00 0.  1.
         12    1    4    4    0    0  0.35499835736E+02 -0.12690693889E+02 -0.34490785957E+01  0.37857472074E+02  0.00000000000E+00 0. -1.
        -11    1    3    3    0    0 -0.18955837549E+02 -0.16664866275E+02  0.11086212412E+02  0.27567111760E+02  0.00000000000E+00 0. -1.
         11    1    3    3    0    0  0.69318818229E+02  0.23480369301E+02  0.11824077030E+03  0.13905864254E+03  0.00000000000E+00 0.  1.
         -2    1    1    2    0  502 -0.18182151100E+03  0.86211949479E+02 -0.28946491700E+03  0.35253581417E+03  0.00000000000E+00 0.  1.
<scales pt_clust_5="13000.00000" pt_clust_6="13000.00000" pt_clust_7="13000.00000" pt_clust_8="13000.00000" pt_clust_9="195.10552"></scales>
<clustering>
<clus scale="   81.987">  5  6 -1 -1</clus>
<clus scale="   91.955">  7  8 -1 -1</clus>
<clus scale="  105.065">  1  7  2 -1</clus>
<clus scale="  195.106">  2  9  1 -1</clus>
<clus scale="  195.106">  2  5  1 -1</clus>
</clustering>
</event>
<event>
 9    2  0.1723348E-004  0.1039529E+03  0.7546771E-02  0.1279792E+00
         21   -1    0    0  501  502  0.00000000000E+00  0.00000000000E+00  0.35394405708E+03  0.35394405708E+03  0.00000000000E+00 0. -1.
          4   -1    0    0  502    0 -0.00000000000E+00 -0.00000000000E+00 -0.63646409810E+02  0.63646409810E+02  0.00000000000E+00 0. -1.
         24    2    1    2    0    0 -0.92334090130E+01  0.45305474714E+02  0.24126591955E+02  0.96830173199E+02  0.81585219993E+02 0.  0.
         23    2    1    2    0    0 -0.33798299651E+02 -0.71379718956E+01  0.23220132959E+03  0.25395888287E+03  0.96873014931E+02 0.  0.
        -11    1    3    3    0    0  0.33016717815E+02  0.51055889214E+01  0.18630796175E+02  0.38252807212E+02  0.00000000000E+00 0.  1.
         12    1    3    3    0    0 -0.42250126828E+02  0.40199885793E+02  0.54957957806E+01  0.58577365987E+02  0.00000000000E+00 0. -1.
        -11    1    4    4    0    0 -0.99964224111E+01 -0.50556380350E+02  0.14197700394E+03  0.15104087428E+03  0.00000000000E+00 0.  1.
         11    1    4    4    0    0 -0.23801877240E+02  0.43418408455E+02  0.90224325656E+02  0.10291800859E+03  0.00000000000E+00 0. -1.
          3    1    1    2  501    0  0.43031708664E+02 -0.38167502819E+02  0.33969725723E+02  0.66801410821E+02  0.00000000000E+00 0. -1.
<scales pt_clust_5="13000.00000" pt_clust_6="13000.00000" pt_clust_7="13000.00000" pt_clust_8="13000.00000" pt_clust_9="57.51947"></scales>
<clustering>
<clus scale="   57.519">  1  9  2 -1</clus>
<clus scale="   81.585">  5  6 -1 -1</clus>
<clus scale="   89.878">  2  5  1 -1</clus>
<clus scale="   96.873">  7  8 -1 -1</clus>
<clus scale="   57.519">  1  5  2 -1</clus>
</clustering>
</event>
<event>
 9    2  0.1723348E-004  0.1156549E+03  0.7546771E-02  0.1254392E+00
          4   -1    0    0  502    0 -0.00000000000E+00  0.00000000000E+00  0.16208241330E+03  0.16208241330E+03  0.00000000000E+00 0. -1.
         21   -1    0    0  501  502  0.00000000000E+00 -0.00000000000E+00 -0.20159281395E+03  0.20159281395E+03  0.00000000000E+00 0. -1.
         23    2    1    2    0    0  0.28483990335E+02 -0.60363058673E+02  0.10155121392E+03  0.15275695685E+03  0.92558102070E+02 0.  0.
         24    2    1    2    0    0 -0.65127820923E+02  0.58968302657E+02 -0.10153704552E+03  0.15700252852E+03  0.81370317510E+02 0.  0.
        -11    1    4    4    0    0 -0.21650479625E+02  0.65410553107E+02 -0.86417303553E+02  0.11052255009E+03  0.00000000000E+00 0.  1.
         12    1    4    4    0    0 -0.43477341298E+02 -0.64422504504E+01 -0.15119741968E+02  0.46479978425E+02  0.00000000000E+00 0. -1.
        -11    1    3    3    0    0  0.44245221638E+02 -0.28197500013E+02  0.86309231470E+01  0.53171716909E+02  0.00000000000E+00 0.  1.
         11    1    3    3    0    0 -0.15761231303E+02 -0.32165558660E+02  0.92920290772E+02  0.99585239937E+02  0.00000000000E+00 0. -1.
          3    1    1    2  501    0  0.36643830588E+02  0.13947560163E+01 -0.39524569051E+02  0.53915741887E+02  0.00000000000E+00 0. -1.
<scales pt_clust_5="13000.00000" pt_clust_6="13000.00000" pt_clust_7="13000.00000" pt_clust_8="13000.00000" pt_clust_9="36.67036"></scales>
<clustering>
<clus scale="   36.670">  2  9  1 -1</clus>
<clus scale="   81.370">  5  6 -1 -1</clus>
<clus scale="   92.558">  7  8 -1 -1</clus>
<clus scale="  106.912">  2  5  1 -1</clus>
<clus scale="   36.670">  2  5  1 -1</clus>
</clustering>
</event>
<event>
 9    2  0.1723348E-004  0.1725061E+03  0.7546771E-02  0.1183096E+00
          2   -1    0    0  502    0 -0.00000000000E+00  0.00000000000E+00  0.37841315867E+03  0.37841315867E+03  0.00000000000E+00 0. -1.
         21   -1    0    0  501  502  0.00000000000E+00 -0.00000000000E+00 -0.36104518610E+03  0.36104518610E+03  0.00000000000E+00 0. -1.
         24    2    1    2    0    0  0.12083601151E+03  0.95819880564E+01 -0.25699682040E+03  0.29488802161E+03  0.78856980819E+02 0.  0.
         23    2    1    2    0    0 -0.79678343055E+02 -0.15036559523E+03  0.20302061654E+03  0.28146309085E+03  0.95108623095E+02 0.  0.
        -13    1    3    3    0    0  0.66098839259E+01 -0.24519977790E+02 -0.46079520107E+02  0.52614086038E+02  0.00000000000E+00 0.  1.
         14    1    3    3    0    0  0.11422612758E+03  0.34101965846E+02 -0.21091730029E+03  0.24227393558E+03  0.00000000000E+00 0. -1.
        -11    1    4    4    0    0 -0.43658423513E+02 -0.57409980523E+02  0.15468346903E+03  0.17067202289E+03  0.00000000000E+00 0. -1.
         11    1    4    4    0    0 -0.36019919542E+02 -0.92955614703E+02  0.48337147517E+02  0.11079106796E+03  0.00000000000E+00 0.  1.
          1    1    1    2  501    0 -0.41157668452E+02  0.14078360717E+03  0.71344176425E+02  0.16310723230E+03  0.00000000000E+00 0. -1.
<scales pt_clust_5="13000.00000" pt_clust_6="13000.00000" pt_clust_7="13000.00000" pt_clust_8="13000.00000" pt_clust_9="143.91905"></scales>
<clustering>
<clus scale="   78.857">  5  6 -1 -1</clus>
<clus scale="   95.109">  7  8 -1 -1</clus>
<clus scale="  144.608">  1  5  2 -1</clus>
<clus scale="  143.919">  2  9  1 -1</clus>
<clus scale="  143.919">  2  5  1 -1</clus>
</clustering>
</event>
<event>
 9    2  0.1723348E-004  0.1143390E+03  0.7546771E-02  0.1258505E+00
         21   -1    0    0  501  502  0.00000000000E+00  0.00000000000E+00  0.10832379158E+03  0.10832379158E+03  0.00000000000E+00 0.  1.
          2   -1    0    0  502    0 -0.00000000000E+00 -0.00000000000E+00 -0.21444841203E+03  0.21444841203E+03  0.00000000000E+00 0. -1.
         24    2    1    2    0    0  0.56586728593E+02 -0.89703430562E+01 -0.98343688582E+02  0.13916077921E+03  0.80073194513E+02 0.  0.
         23    2    1    2    0    0 -0.75961116405E+02 -0.72071560747E+01 -0.52006709844E+02  0.13268993758E+03  0.95288442963E+02 0.  0.
        -11    1    3    3    0    0  0.51545675293E+02 -0.12525059844E+01 -0.12805448267E+02  0.53127252122E+02  0.00000000000E+00 0.  1.
         12    1    3    3    0    0  0.50410532995E+01 -0.77178370718E+01 -0.85538240314E+02  0.86033527090E+02  0.00000000000E+00 0. -1.
        -11    1    4    4    0    0 -0.24042628870E+02 -0.49312232047E+02 -0.28570089956E+02  0.61854622079E+02  0.00000000000E+00 0.  1.
         11    1    4    4    0    0 -0.51918487535E+02  0.42105075972E+02 -0.23436619888E+02  0.70835315502E+02  0.00000000000E+00 0. -1.
          1    1    1    2  501    0  0.19374387812E+02  0.16177499131E+02  0.44225777985E+02  0.50921486817E+02  0.00000000000E+00 0. -1.
<scales pt_clust_5="13000.00000" pt_clust_6="13000.00000" pt_clust_7="13000.00000" pt_clust_8="13000.00000" pt_clust_9="25.24041"></scales>
<clustering>
<clus scale="   25.240">  1  9  2 -1</clus>
<clus scale="   80.073">  5  6 -1 -1</clus>
<clus scale="   95.288">  7  8 -1 -1</clus>
<clus scale="  102.006">  2  5  1 -1</clus>
<clus scale="   25.240">  1  5  2 -1</clus>
</clustering>
</event>
<event>
 9    2  0.1723348E-004  0.1067197E+03  0.7546771E-02  0.1269005E+00
         21   -1    0    0  501  502  0.00000000000E+00  0.00000000000E+00  0.42136447041E+02  0.42136447041E+02  0.00000000000E+00 0.  1.
          2   -1    0    0  502    0 -0.00000000000E+00 -0.00000000000E+00 -0.45903618726E+03  0.45903618726E+03  0.00000000000E+00 0. -1.
         23    2    1    2    0    0 -0.27176598435E+02  0.59979943171E+02 -0.34040627438E+03  0.35749254212E+03  0.87110992117E+02 0.  0.
         24    2    1    2    0    0  0.34001339385E+01 -0.51002562054E+02 -0.59654184090E+02  0.11319279900E+03  0.81493348312E+02 0.  0.
        -13    1    4    4    0    0  0.34531661342E+02 -0.17987344414E+02 -0.88810114103E+00  0.38945717579E+02  0.00000000000E+00 0.  1.
         14    1    4    4    0    0 -0.31131527404E+02 -0.33015217640E+02 -0.58766082949E+02  0.74247081421E+02  0.00000000000E+00 0. -1.
        -13    1    3    3    0    0 -0.17897605777E+02 -0.20649937108E+02 -0.69125877175E+02  0.74331225540E+02  0.00000000000E+00 0.  1.
         13    1    3    3    0    0 -0.92789926576E+01  0.80629880278E+02 -0.27128039721E+03  0.28316131658E+03  0.00000000000E+00 0. -1.
          1    1    1    2  501    0  0.23776464496E+02 -0.89773811164E+01 -0.16839281744E+02  0.30487293178E+02  0.00000000000E+00 0. -1.
<scales pt_clust_5="13000.00000" pt_clust_6="13000.00000" pt_clust_7="13000.00000" pt_clust_8="13000.00000" pt_clust_9="25.41483"></scales>
<clustering>
<clus scale="   25.415">  1  9  2 -1</clus>
<clus scale="   81.493">  5  6 -1 -1</clus>
<clus scale="   87.111">  7  8 -1 -1</clus>
<clus scale="  102.186">  1  5  2 -1</clus>
<clus scale="   25.415">  1  5  2 -1</clus>
</clustering>
</event>
<event>
 9    2  0.1723348E-004  0.1849012E+03  0.7546771E-02  0.1177003E+00
          2   -1    0    0  502    0 -0.00000000000E+00  0.00000000000E+00  0.60924033113E+03  0.60924033113E+03  0.00000000000E+00 0. -1.
         21   -1    0    0  501  502  0.00000000000E+00 -0.00000000000E+00 -0.19126751260E+03  0.19126751260E+03  0.00000000000E+00 0.  1.
         24    2    1    2    0    0  0.55035980752E+01  0.10833607455E+03 -0.71851851849E+02  0.15263695691E+03  0.79801988433E+02 0.  0.
         23    2    1    2    0    0 -0.15088355233E+03  0.32396320529E+02  0.91308228003E+02  0.20092984712E+03  0.90665555837E+02 0.  0.
        -11    1    3    3    0    0  0.17043989912E+02  0.10906841150E+03 -0.81789607135E+02  0.13738979516E+03  0.00000000000E+00 0.  1.
         12    1    3    3    0    0 -0.11540391837E+02 -0.73233694613E+00  0.99377552858E+01  0.15247161745E+02  0.00000000000E+00 0. -1.
        -13    1    4    4    0    0 -0.89841461124E+02  0.30403153009E+02  0.10160390835E+03  0.13899350359E+03  0.00000000000E+00 0.  1.
         13    1    4    4    0    0 -0.61042091208E+02  0.19931675195E+01 -0.10295680345E+02  0.61936343527E+02  0.00000000000E+00 0. -1.
          1    1    1    2  501    0  0.14537995426E+03 -0.14073239508E+03  0.39851644238E+03  0.44694103970E+03  0.00000000000E+00 0. -1.
<scales pt_clust_5="13000.00000" pt_clust_6="13000.00000" pt_clust_7="13000.00000" pt_clust_8="13000.00000" pt_clust_9="161.14666"></scales>
<clustering>
<clus scale="   79.802">  5  6 -1 -1</clus>
<clus scale="   90.666">  7  8 -1 -1</clus>
<clus scale="  134.668">  1  5  2 -1</clus>
<clus scale="  161.147">  2  9  1 -1</clus>
<clus scale="  161.147">  2  5  1 -1</clus>
</clustering>
</event>
<event>
 9    2  0.1723348E-004  0.1517077E+03  0.7546771E-02  0.1199689E+00
          2   -1    0    0  502    0 -0.00000000000E+00  0.00000000000E+00  0.38755932893E+03  0.38755932893E+03  0.00000000000E+00 0. -1.
         21   -1    0    0  501  502  0.00000000000E+00 -0.00000000000E+00 -0.99746258211E+02  0.99746258211E+02  0.00000000000E+00 0. -1.
         24    2    1    2    0    0 -0.63102716068E+02 -0.12233126126E+03  0.18927430174E+03  0.24707886101E+03  0.79223178430E+02 0.  0.
         23    2    1    2    0    0  0.22923772771E+01  0.12093874160E+03  0.21063644077E+02  0.14172682058E+03  0.70791103665E+02 0.  0.
        -13    1    3    3    0    0 -0.39831958566E+02 -0.44364627332E+02  0.26797610321E+02  0.65367553116E+02  0.00000000000E+00 0.  1.
         14    1    3    3    0    0 -0.23270757501E+02 -0.77966633929E+02  0.16247669142E+03  0.18171130789E+03  0.00000000000E+00 0. -1.
        -13    1    4    4    0    0 -0.34074017078E+02  0.52269515997E+02  0.74381993675E+01  0.62836834359E+02  0.00000000000E+00 0.  1.
         13    1    4    4    0    0  0.36366394356E+02  0.68669225599E+02  0.13625444710E+02  0.78889986224E+02  0.00000000000E+00 0. -1.
          1    1    1    2  501    0  0.60810338791E+02  0.13925196637E+01  0.77475124901E+02  0.98499905550E+02  0.00000000000E+00 0. -1.
<scales pt_clust_5="13000.00000" pt_clust_6="13000.00000" pt_clust_7="13000.00000" pt_clust_8="13000.00000" pt_clust_9="60.82631"></scales>
<clustering>
<clus scale="   60.826">  2  9  1 -1</clus>
<clus scale="   70.791">  7  8 -1 -1</clus>
<clus scale="   79.223">  5  6 -1 -1</clus>
<clus scale="  147.480">  2  7  1 -1</clus>
<clus scale="   60.826">  2  5  1 -1</clus>
</clustering>
</event>
<event>
 9    2  0.2055978E-004  0.1460943E+03  0.7546771E-02  0.1207559E+00
         -3   -1    0    0    0  501 -0.00000000000E+00  0.00000000000E+00  0.86777962368E+03  0.86777962368E+03  0.00000000000E+00 0.  1.
         21   -1    0    0  501  502  0.00000000000E+00 -0.00000000000E+00 -0.39740434747E+03  0.39740434747E+03  0.00000000000E+00 0. -1.
         24    2    1    2    0    0  0.73242904696E+02 -0.85700593312E+02  0.80674393656E+03  0.81855641117E+03  0.80558701057E+02 0.  0.
         23    2    1    2    0    0 -0.32916373335E+02  0.16267778492E+03 -0.15284791332E+03  0.24357194753E+03  0.91745624843E+02 0.  0.
        -11    1    3    3    0    0  0.82245101230E+02 -0.93476918814E+02  0.68419926045E+03  0.69543570445E+03  0.00000000000E+00 0.  1.
         12    1    3    3    0    0 -0.90021965335E+01  0.77763255023E+01  0.12254467611E+03  0.12312070672E+03  0.00000000000E+00 0. -1.
        -11    1    4    4    0    0  0.62721076723E+01  0.13220962613E+03 -0.77609423095E+02  0.15343385261E+03  0.00000000000E+00 0.  1.
         11    1    4    4    0    0 -0.39188481007E+02  0.30468158794E+02 -0.75238490223E+02  0.90138094915E+02  0.00000000000E+00 0. -1.
         -4    1    1    2    0  502 -0.40326531362E+02 -0.76977191608E+02 -0.18352074702E+03  0.20305561245E+03  0.00000000000E+00 0.  1.
<scales pt_clust_5="13000.00000" pt_clust_6="13000.00000" pt_clust_7="13000.00000" pt_clust_8="13000.00000" pt_clust_9="86.90062"></scales>
<clustering>
<clus scale="   80.559">  5  6 -1 -1</clus>
<clus scale="   86.901">  2  9  1 -1</clus>
<clus scale="   91.746">  7  8 -1 -1</clus>
<clus scale="  139.341">  1  5  2 -1</clus>
<clus scale="   86.901">  2  5  1 -1</clus>
</clustering>
</event>
<event>
 9    2  0.1723348E-004  0.9475504E+02  0.7546771E-02  0.1297100E+00
          2   -1    0    0  502    0 -0.00000000000E+00  0.00000000000E+00  0.69918339563E+03  0.69918339563E+03  0.00000000000E+00 0. -1.
         21   -1    0    0  501  502  0.00000000000E+00 -0.00000000000E+00 -0.22064723899E+02  0.22064723899E+02  0.00000000000E+00 0.  1.
         24    2    1    2    0    0  0.11548672421E+02  0.26672804815E+02  0.40999335529E+03  0.41930215776E+03  0.82915244502E+02 0.  0.
         23    2    1    2    0    0  0.11047792239E+02 -0.18046522636E+01  0.12398372445E+03  0.15491351438E+03  0.92200447540E+02 0.  0.
        -13    1    3    3    0    0  0.60117484092E+00  0.54700083061E+02  0.20768943457E+03  0.21477281423E+03  0.00000000000E+00 0.  1.
         14    1    3    3    0    0  0.10947497580E+02 -0.28027278246E+02  0.20230392072E+03  0.20452934354E+03  0.00000000000E+00 0. -1.
        -11    1    4    4    0    0  0.96505208151E+01  0.32248163265E+02  0.87986664542E+01  0.34792141603E+02  0.00000000000E+00 0.  1.
         11    1    4    4    0    0  0.13972714240E+01 -0.34052815528E+02  0.11518505800E+03  0.12012137278E+03  0.00000000000E+00 0. -1.
          1    1    1    2  501    0 -0.22596464660E+02 -0.24868152551E+02  0.14314159198E+03  0.14703244738E+03  0.00000000000E+00 0. -1.
<scales pt_clust_5="13000.00000" pt_clust_6="13000.00000" pt_clust_7="13000.00000" pt_clust_8="13000.00000" pt_clust_9="33.60099"></scales>
<clustering>
<clus scale="   33.601">  2  9  1 -1</clus>
<clus scale="   82.915">  5  6 -1 -1</clus>
<clus scale="   85.747">  1  5  2 -1</clus>
<clus scale="   92.200">  7  8 -1 -1</clus>
<clus scale="   33.601">  2  5  1 -1</clus>
</clustering>
</event>
<event>
 9    2  0.1723348E-004  0.1570355E+03  0.7546771E-02  0.1193908E+00
         21   -1    0    0  501  502  0.00000000000E+00  0.00000000000E+00  0.99085224724E+02  0.99085224724E+02  0.00000000000E+00 0.  1.
         -1   -1    0    0    0  501 -0.00000000000E+00 -0.00000000000E+00 -0.49868456531E+03  0.49868456531E+03  0.00000000000E+00 0.  1.
         24    2    1    2    0    0 -0.10436662982E+03 -0.10475716015E+03 -0.28528404203E+03  0.33117671905E+03  0.80153468932E+02 0.  0.
         23    2    1    2    0    0  0.10278506142E+03  0.63319916008E+01 -0.40081884135E+02  0.14330229688E+03  0.91236658674E+02 0.  0.
        -13    1    3    3    0    0 -0.74435282394E+02 -0.83112923573E+02 -0.26819665108E+03  0.29047859299E+03  0.00000000000E+00 0.  1.
         14    1    3    3    0    0 -0.29931347425E+02 -0.21644236580E+02 -0.17087390941E+02  0.40698126062E+02  0.00000000000E+00 0. -1.
        -11    1    4    4    0    0  0.91077840906E+02 -0.29244618986E+02 -0.11826381867E+02  0.96386120120E+02  0.00000000000E+00 0.  1.
         11    1    4    4    0    0  0.11707220510E+02  0.35576610587E+02 -0.28255502268E+02  0.46916176755E+02  0.00000000000E+00 0. -1.
         -2    1    1    2    0  502  0.15815684027E+01  0.98425168552E+02 -0.74233414421E+02  0.12329077411E+03  0.00000000000E+00 0.  1.
<scales pt_clust_5="13000.00000" pt_clust_6="13000.00000" pt_clust_7="13000.00000" pt_clust_8="13000.00000" pt_clust_9="98.43787"></scales>
<clustering>
<clus scale="   80.153">  5  6 -1 -1</clus>
<clus scale="   91.237">  7  8 -1 -1</clus>
<clus scale="   98.438">  1  9  2 -1</clus>
<clus scale="  150.866">  2  5  1 -1</clus>
<clus scale="   98.438">  1  5  2 -1</clus>
</clustering>
</event>
<event>
 9    2  0.1723348E-004  0.1932112E+03  0.7546771E-02  0.1157027E+00
         21   -1    0    0  501  502  0.00000000000E+00  0.00000000000E+00  0.16429427851E+03  0.16429427851E+03  0.00000000000E+00 0. -1.
          2   -1    0    0  502    0 -0.00000000000E+00 -0.00000000000E+00 -0.85983926839E+03  0.85983926839E+03  0.00000000000E+00 0. -1.
         23    2    1    2    0    0 -0.54418984047E+02  0.16235240737E+03 -0.75622424377E+03  0.78097223391E+03  0.93395895399E+02 0.  0.
         24    2    1    2    0    0  0.61022935813E+02 -0.14275421639E+03 -0.48596252914E+01  0.17443689265E+03  0.79385443034E+02 0.  0.
        -11    1    4    4    0    0  0.74015644615E+02 -0.11206962691E+03 -0.23362983101E+02  0.13632221353E+03  0.00000000000E+00 0.  1.
         12    1    4    4    0    0 -0.12992708802E+02 -0.30684589485E+02  0.18503357809E+02  0.38114679116E+02  0.00000000000E+00 0. -1.
        -13    1    3    3    0    0  0.24748714914E+02  0.28154785656E+02 -0.19227731357E+03  0.19589731024E+03  0.00000000000E+00 0.  1.
         13    1    3    3    0    0 -0.79167698960E+02  0.13419762172E+03 -0.56394693019E+03  0.58507492367E+03  0.00000000000E+00 0. -1.
          1    1    1    2  501    0 -0.66039517665E+01 -0.19598190981E+02  0.65538879176E+02  0.68724420349E+02  0.00000000000E+00 0. -1.
<scales pt_clust_5="13000.00000" pt_clust_6="13000.00000" pt_clust_7="13000.00000" pt_clust_8="13000.00000" pt_clust_9="20.68094"></scales>
<clustering>
<clus scale="   20.681">  1  9  2 -1</clus>
<clus scale="   79.385">  5  6 -1 -1</clus>
<clus scale="   93.396">  7  8 -1 -1</clus>
<clus scale="  186.842">  1  5  2 -1</clus>
<clus scale="   20.681">  1  5  2 -1</clus>
</clustering>
</event>
<event>
 9    2  0.1723348E-004  0.1466862E+03  0.7546771E-02  0.1206899E+00
         -1   -1    0    0    0  501 -0.00000000000E+00  0.00000000000E+00  0.83512831073E+03  0.83512831073E+03  0.00000000000E+00 0.  1.
         21   -1    0    0  501  502  0.00000000000E+00 -0.00000000000E+00 -0.34943192890E+02  0.34943192890E+02  0.00000000000E+00 0.  1.
         23    2    1    2    0    0 -0.94821849277E+02 -0.79128735922E+02  0.54333601212E+03  0.56483703906E+03  0.92597617043E+02 0.  0.
         24    2    1    2    0    0  0.69184731633E+02  0.63399903189E+02  0.15179617504E+03  0.19596060572E+03  0.80946929668E+02 0.  0.
        -11    1    4    4    0    0  0.75426368965E+02  0.44525348799E+02  0.70987393747E+02  0.11274242277E+03  0.00000000000E+00 0.  1.
         12    1    4    4    0    0 -0.62416373324E+01  0.18874554390E+02  0.80808781288E+02  0.83218182948E+02  0.00000000000E+00 0. -1.
        -13    1    3    3    0    0  0.75332890830E+01 -0.38323610919E+02  0.86646122037E+02  0.95042096265E+02  0.00000000000E+00 0. -1.
         13    1    3    3    0    0 -0.10235513836E+03 -0.40805125003E+02  0.45668989008E+03  0.46979494280E+03  0.00000000000E+00 0.  1.
         -2    1    1    2    0  502  0.25637117644E+02  0.15728832733E+02  0.10505293069E+03  0.10927385885E+03  0.00000000000E+00 0.  1.
<scales pt_clust_5="13000.00000" pt_clust_6="13000.00000" pt_clust_7="13000.00000" pt_clust_8="13000.00000" pt_clust_9="30.07755"></scales>
<clustering>
<clus scale="   30.078">  2  9  1 -1</clus>
<clus scale="   80.947">  5  6 -1 -1</clus>
<clus scale="   92.598">  7  8 -1 -1</clus>
<clus scale="  139.624">  2  5  1 -1</clus>
<clus scale="   30.078">  2  5  1 -1</clus>
</clustering>
</event>
<event>
 9    2  0.1723348E-004  0.2450652E+03  0.7546771E-02  0.1154385E+00
          2   -1    0    0  502    0 -0.00000000000E+00  0.00000000000E+00  0.21133793918E+03  0.21133793918E+03  0.00000000000E+00 0. -1.
         21   -1    0    0  501  502  0.00000000000E+00 -0.00000000000E+00 -0.46275974156E+03  0.46275974156E+03  0.00000000000E+00 0. -1.
         24    2    1    2    0    0  0.40366619780E+02 -0.42388414943E+02 -0.10118596674E+03  0.14046000648E+03  0.77872792695E+02 0.  0.
         23    2    1    2    0    0 -0.16239483489E+03  0.21159974195E+03 -0.12505353014E+02  0.28365158602E+03  0.95683359072E+02 0.  0.
        -13    1    3    3    0    0 -0.19297762481E+02 -0.31157157020E+02 -0.40434753123E+02  0.54572349505E+02  0.00000000000E+00 0.  1.
         14    1    3    3    0    0  0.59664382261E+02 -0.11231257923E+02 -0.60751213616E+02  0.85887656977E+02  0.00000000000E+00 0. -1.
        -11    1    4    4    0    0 -0.42253116595E+02  0.10039793279E+02  0.18030102266E+02  0.47023482418E+02  0.00000000000E+00 0.  1.
         11    1    4    4    0    0 -0.12014171830E+03  0.20155994867E+03 -0.30535455280E+02  0.23662810360E+03  0.00000000000E+00 0. -1.
          1    1    1    2  501    0  0.12202821511E+03 -0.16921132701E+03 -0.13773048262E+03  0.24998608824E+03  0.00000000000E+00 0. -1.
<scales pt_clust_5="13000.00000" pt_clust_6="13000.00000" pt_clust_7="13000.00000" pt_clust_8="13000.00000" pt_clust_9="225.61395"></scales>
<clustering>
<clus scale="   77.873">  5  6 -1 -1</clus>
<clus scale="   95.683">  7  8 -1 -1</clus>
<clus scale="   97.419">  1  5  2 -1</clus>
<clus scale="  225.614">  2  9  1 -1</clus>
<clus scale="  225.614">  2  5  1 -1</clus>
</clustering>
</event>
<event>
 9    2  0.1723348E-004  0.1370297E+03  0.7546771E-02  0.1219861E+00
          2   -1    0    0  502    0 -0.00000000000E+00  0.00000000000E+00  0.12073841124E+03  0.12073841124E+03  0.00000000000E+00 0. -1.
         21   -1    0    0  501  502  0.00000000000E+00 -0.00000000000E+00 -0.20821343124E+03  0.20821343124E+03  0.00000000000E+00 0.  1.
         24    2    1    2    0    0 -0.99409826806E+02  0.20331349948E+02 -0.90430089094E+01  0.12886402428E+03  0.78920740546E+02 0.  0.
         23    2    1    2    0    0  0.10848091099E+03  0.15172991630E+02 -0.40626777418E+02  0.14743728607E+03  0.89938259690E+02 0.  0.
        -13    1    3    3    0    0 -0.39439989817E+02  0.19161819458E+02 -0.41749575182E+02  0.60545149678E+02  0.00000000000E+00 0.  1.
         14    1    3    3    0    0 -0.59969836990E+02  0.11695304894E+01  0.32706566272E+02  0.68318874606E+02  0.00000000000E+00 0. -1.
        -11    1    4    4    0    0  0.20307406098E+02  0.44403593689E+02 -0.14833009034E+02  0.51030265842E+02  0.00000000000E+00 0.  1.
         11    1    4    4    0    0  0.88173504896E+02 -0.29230602058E+02 -0.25793768384E+02  0.96407020231E+02  0.00000000000E+00 0. -1.
          1    1    1    2  501    0 -0.90710841869E+01 -0.35504341578E+02 -0.37805233677E+02  0.52650532121E+02  0.00000000000E+00 0. -1.
<scales pt_clust_5="13000.00000" pt_clust_6="13000.00000" pt_clust_7="13000.00000" pt_clust_8="13000.00000" pt_clust_9="36.64482"></scales>
<clustering>
<clus scale="   36.645">  2  9  1 -1</clus>
<clus scale="   78.921">  5  6 -1 -1</clus>
<clus scale="   89.938">  7  8 -1 -1</clus>
<clus scale="  130.064">  1  5  2 -1</clus>
<clus scale="   36.645">  2  5  1 -1</clus>
</clustering>
</event>
<event>
 9    2  0.1723348E-004  0.9265529E+02  0.7546771E-02  0.1302099E+00
         21   -1    0    0  501  502  0.00000000000E+00  0.00000000000E+00  0.18531385641E+03  0.18531385641E+03  0.00000000000E+00 0. -1.
          4   -1    0    0  502    0 -0.00000000000E+00 -0.00000000000E+00 -0.11152897685E+03  0.11152897685E+03  0.00000000000E+00 0. -1.
         24    2    1    2    0    0  0.81339161877E+01 -0.15802264831E+02 -0.36233867442E+01  0.82707401256E+02  0.80693947261E+02 0.  0.
         23    2    1    2    0    0  0.69159462198E+02  0.22415383763E+02  0.72200242589E+02  0.13638504168E+03  0.90014020702E+02 0.  0.
        -13    1    3    3    0    0 -0.24763904011E+02  0.13284671089E+02 -0.21410594554E+02  0.35329123779E+02  0.00000000000E+00 0.  1.
         14    1    3    3    0    0  0.32897820199E+02 -0.29086935919E+02  0.17787207810E+02  0.47378277477E+02  0.00000000000E+00 0. -1.
        -13    1    4    4    0    0  0.19250467942E+02 -0.73285651739E+01 -0.19149327069E+02  0.28124457518E+02  0.00000000000E+00 0.  1.
         13    1    4    4    0    0  0.49908994255E+02  0.29743948937E+02  0.91349569657E+02  0.10826058416E+03  0.00000000000E+00 0. -1.
          3    1    1    2  501    0 -0.77293378386E+02 -0.66131189325E+01  0.52080237197E+01  0.77750390323E+02  0.00000000000E+00 0. -1.
<scales pt_clust_5="13000.00000" pt_clust_6="13000.00000" pt_clust_7="13000.00000" pt_clust_8="13000.00000" pt_clust_9="77.57581"></scales>
<clustering>
<clus scale="   77.576">  1  9  2 -1</clus>
<clus scale="   80.694">  5  6 -1 -1</clus>
<clus scale="   83.630">  2  5  1 -1</clus>
<clus scale="   90.014">  7  8 -1 -1</clus>
<clus scale="   77.576">  1  5  2 -1</clus>
</clustering>
</event>
<event>
 9    2  0.1723348E-004  0.2778044E+03  0.7546771E-02  0.1097285E+00
          2   -1    0    0  502    0 -0.00000000000E+00  0.00000000000E+00  0.24090164974E+04  0.24090164974E+04  0.00000000000E+00 0. -1.
         21   -1    0    0  501  502  0.00000000000E+00 -0.00000000000E+00 -0.62974387142E+02  0.62974387142E+02  0.00000000000E+00 0.  1.
         24    2    1    2    0    0  0.11726990224E+03  0.23058050607E+03  0.15972376833E+04  0.16200300600E+04  0.80059844482E+02 0.  0.
         23    2    1    2    0    0 -0.42222171026E+02 -0.28834040170E+03  0.49785307029E+03  0.58373526474E+03  0.89254023579E+02 0.  0.
        -11    1    3    3    0    0  0.17312790919E+02  0.55063806082E+02  0.19643173267E+03  0.20473685811E+03  0.00000000000E+00 0.  1.
         12    1    3    3    0    0  0.99957111322E+02  0.17551669999E+03  0.14008059506E+04  0.14152932019E+04  0.00000000000E+00 0. -1.
        -13    1    4    4    0    0  0.14548368306E+02 -0.17966510118E+03  0.26364096308E+03  0.31937088317E+03  0.00000000000E+00 0.  1.
         13    1    4    4    0    0 -0.56770539331E+02 -0.10867530051E+03  0.23421210721E+03  0.26436438157E+03  0.00000000000E+00 0. -1.
          1    1    1    2  501    0 -0.75047731215E+02  0.57759895626E+02  0.25095135670E+03  0.26822555980E+03  0.00000000000E+00 0. -1.
<scales pt_clust_5="13000.00000" pt_clust_6="13000.00000" pt_clust_7="13000.00000" pt_clust_8="13000.00000" pt_clust_9="94.70147"></scales>
<clustering>
<clus scale="   80.060">  5  6 -1 -1</clus>
<clus scale="   89.254">  7  8 -1 -1</clus>
<clus scale="   94.701">  2  9  1 -1</clus>
<clus scale="  274.988">  1  5  2 -1</clus>
<clus scale="   94.701">  2  5  1 -1</clus>
</clustering>
</event>
<event>
 9    2  0.1723348E-004  0.9085344E+02  0.7546771E-02  0.1306926E+00
         -1   -1    0    0    0  501 -0.00000000000E+00  0.00000000000E+00  0.10954292891E+03  0.10954292891E+03  0.00000000000E+00 0.  1.
         21   -1    0    0  501  502  0.00000000000E+00 -0.00000000000E+00 -0.15097060840E+03  0.15097060840E+03  0.00000000000E+00 0. -1.
         23    2    1    2    0    0 -0.87258294400E+01  0.66304673592E+01  0.48935148201E+02  0.10363550644E+03  0.90694907620E+02 0.  0.
         24    2    1    2    0    0 -0.20862305966E+02  0.36614450548E+01 -0.93346908058E+02  0.12540922165E+03  0.81025833177E+02 0.  0.
        -13    1    4    4    0    0 -0.12488985925E+02  0.27178341144E+02 -0.11931833134E+01  0.29934272718E+02  0.00000000000E+00 0.  1.
         14    1    4    4    0    0 -0.83733200408E+01 -0.23516896089E+02 -0.92153724745E+02  0.95474948937E+02  0.00000000000E+00 0. -1.
        -11    1    3    3    0    0 -0.38898168285E+02  0.29384605403E+02  0.43728179984E+02  0.65487985580E+02  0.00000000000E+00 0.  1.
         11    1    3    3    0    0  0.30172338845E+02 -0.22754138044E+02  0.52069682171E+01  0.38147520857E+02  0.00000000000E+00 0. -1.
         -2    1    1    2    0  502  0.29588135406E+02 -0.10291912414E+02  0.29840803743E+01  0.31468809218E+02  0.00000000000E+00 0.  1.
<scales pt_clust_5="13000.00000" pt_clust_6="13000.00000" pt_clust_7="13000.00000" pt_clust_8="13000.00000" pt_clust_9="31.32702"></scales>
<clustering>
<clus scale="   31.327">  2  9  1 -1</clus>
<clus scale="   81.026">  5  6 -1 -1</clus>
<clus scale="   81.203">  2  5  1 -1</clus>
<clus scale="   90.695">  7  8 -1 -1</clus>
<clus scale="   31.327">  2  5  1 -1</clus>
</clustering>
</event>
<event>
 9    2  0.1723348E-004  0.9324770E+02  0.7546771E-02  0.1302178E+00
          4   -1    0    0  502    0 -0.00000000000E+00  0.00000000000E+00  0.60040700059E+02  0.60040700059E+02  0.00000000000E+00 0. -1.
         21   -1    0    0  501  502  0.00000000000E+00 -0.00000000000E+00 -0.35069542691E+03  0.35069542691E+03  0.00000000000E+00 0. -1.
         24    2    1    2    0    0  0.20436543765E+02  0.25490204582E+02 -0.23504365916E+02  0.90277534184E+02  0.80809498888E+02 0.  0.
         23    2    1    2    0    0  0.19894200121E+02  0.37880183488E+02 -0.14675476591E+03  0.17855202392E+03  0.92266876116E+02 0.  0.
        -11    1    3    3    0    0  0.78714381925E+01 -0.27772533791E+02 -0.20623881089E+02  0.35477001614E+02  0.00000000000E+00 0.  1.
         12    1    3    3    0    0  0.12565105573E+02  0.53262738373E+02 -0.28804848271E+01  0.54800532569E+02  0.00000000000E+00 0. -1.
        -13    1    4    4    0    0  0.48791842334E+02  0.14411442904E+02 -0.12610586112E+03  0.13598169647E+03  0.00000000000E+00 0.  1.
         13    1    4    4    0    0 -0.28897642214E+02  0.23468740584E+02 -0.20648904785E+02  0.42570327447E+02  0.00000000000E+00 0. -1.
          3    1    1    2  501    0 -0.40330743886E+02 -0.63370388070E+02 -0.12039559503E+03  0.14190656887E+03  0.00000000000E+00 0. -1.
<scales pt_clust_5="13000.00000" pt_clust_6="13000.00000" pt_clust_7="13000.00000" pt_clust_8="13000.00000" pt_clust_9="75.11574"></scales>
<clustering>
<clus scale="   75.116">  2  9  1 -1</clus>
<clus scale="   80.809">  5  6 -1 -1</clus>
<clus scale="   81.928">  1  5  2 -1</clus>
<clus scale="   92.267">  7  8 -1 -1</clus>
<clus scale="   75.116">  2  5  1 -1</clus>
</clustering>
</event>
<event>
 9    2  0.1723348E-004  0.1036374E+03  0.7546771E-02  0.1277399E+00
          2   -1    0    0  502    0 -0.00000000000E+00  0.00000000000E+00  0.17805929451E+03  0.17805929451E+03  0.00000000000E+00 0. -1.
         21   -1    0    0  501  502  0.00000000000E+00 -0.00000000000E+00 -0.17169544304E+03  0.17169544304E+03  0.00000000000E+00 0. -1.
         24    2    1    2    0    0 -0.39745710864E+01 -0.48857957427E+02  0.57838638827E+02  0.11153775287E+03  0.81807487161E+02 0.  0.
         23    2    1    2    0    0  0.84872466626E+02  0.23870746419E+02 -0.78285486777E+02  0.14940457665E+03  0.91760350680E+02 0.  0.
        -13    1    3    3    0    0 -0.72589306115E+00 -0.25711746304E+02 -0.18511163686E+02  0.31690440195E+02  0.00000000000E+00 0.  1.
         14    1    3    3    0    0 -0.32486780253E+01 -0.23146211122E+02  0.76349802513E+02  0.79847312679E+02  0.00000000000E+00 0. -1.
        -13    1    4    4    0    0 -0.13207680234E+02  0.15572898109E+02  0.43589169105E+01  0.20879610373E+02  0.00000000000E+00 0.  1.
         13    1    4    4    0    0  0.98080146860E+02  0.82978483098E+01 -0.82644403687E+02  0.12852496627E+03  0.00000000000E+00 0. -1.
          1    1    1    2  501    0 -0.80897895540E+02  0.24987211007E+02  0.26810699421E+02  0.88812408030E+02  0.00000000000E+00 0. -1.
<scales pt_clust_5="13000.00000" pt_clust_6="13000.00000" pt_clust_7="13000.00000" pt_clust_8="13000.00000" pt_clust_9="84.66899"></scales>
<clustering>
<clus scale="   81.807">  5  6 -1 -1</clus>
<clus scale="   84.669">  2  9  1 -1</clus>
<clus scale="   91.760">  7  8 -1 -1</clus>
<clus scale="   94.938">  1  5  2 -1</clus>
<clus scale="   84.669">  2  5  1 -1</clus>
</clustering>
</event>
<event>
 9    2  0.1723348E-004  0.9425013E+02  0.7546771E-02  0.1300532E+00
         -1   -1    0    0    0  501 -0.00000000000E+00  0.00000000000E+00  0.65086102182E+03  0.65086102182E+03  0.00000000000E+00 0.  1.
         21   -1    0    0  501  502  0.00000000000E+00 -0.00000000000E+00 -0.36826764121E+02  0.36826764121E+02  0.00000000000E+00 0.  1.
         24    2    1    2    0    0  0.16846281426E+01 -0.34482566478E+01  0.27235919309E+03  0.28420676005E+03  0.81112415537E+02 0.  0.
         23    2    1    2    0    0 -0.20438050007E+02 -0.63785912527E+02  0.10194765314E+03  0.15379851520E+03  0.93671248366E+02 0.  0.
        -13    1    3    3    0    0 -0.35203896542E+02 -0.20004665125E+02  0.14804003659E+03  0.15347753384E+03  0.00000000000E+00 0.  1.
         14    1    3    3    0    0  0.36888524685E+02  0.16556408477E+02  0.12431915649E+03  0.13072922621E+03  0.00000000000E+00 0. -1.
        -11    1    4    4    0    0  0.27990738446E+02 -0.26159702659E+02  0.79931283236E+02  0.88638713448E+02  0.00000000000E+00 0. -1.
         11    1    4    4    0    0 -0.48428788453E+02 -0.37626209868E+02  0.22016369908E+02  0.65159801749E+02  0.00000000000E+00 0.  1.
         -2    1    1    2    0  502  0.18753421864E+02  0.67234169175E+02  0.23972741147E+03  0.24968251069E+03  0.00000000000E+00 0.  1.
<scales pt_clust_5="13000.00000" pt_clust_6="13000.00000" pt_clust_7="13000.00000" pt_clust_8="13000.00000" pt_clust_9="69.80064"></scales>
<clustering>
<clus scale="   69.801">  2  9  1 -1</clus>
<clus scale="   81.112">  5  6 -1 -1</clus>
<clus scale="   81.780">  1  5  2 -1</clus>
<clus scale="   93.671">  7  8 -1 -1</clus>
<clus scale="   69.801">  2  5  1 -1</clus>
</clustering>
</event>
<event>
 9    2  0.1723348E-004  0.1507240E+03  0.7546771E-02  0.1201399E+00
         21   -1    0    0  501  502  0.00000000000E+00  0.00000000000E+00  0.10239279577E+04  0.10239279577E+04  0.00000000000E+00 0. -1.
         -1   -1    0    0    0  501 -0.00000000000E+00 -0.00000000000E+00 -0.35518583650E+02  0.35518583650E+02  0.00000000000E+00 0.  1.
         23    2    1    2    0    0  0.72973441147E+02  0.10411243626E+03  0.19979955045E+03  0.25331358430E+03  0.89907670068E+02 0.  0.
         24    2    1    2    0    0 -0.70371664710E+02 -0.74189676595E+02  0.71436183802E+03  0.72603986028E+03  0.79779469729E+02 0.  0.
        -13    1    4    4    0    0 -0.31137973724E+02  0.77402212905E+01  0.10061897433E+03  0.10561090109E+03  0.00000000000E+00 0.  1.
         14    1    4    4    0    0 -0.39233690986E+02 -0.81929897885E+02  0.61374286369E+03  0.62042895919E+03  0.00000000000E+00 0. -1.
        -11    1    3    3    0    0  0.61960374320E+02  0.12664921592E+02  0.89971368858E+02  0.10997424898E+03  0.00000000000E+00 0.  1.
         11    1    3    3    0    0  0.11013066828E+02  0.91447514663E+02  0.10982818159E+03  0.14333933532E+03  0.00000000000E+00 0. -1.
         -2    1    1    2    0  502 -0.26017764372E+01 -0.29922759661E+02  0.74247985547E+02  0.80093096732E+02  0.00000000000E+00 0.  1.
<scales pt_clust_5="13000.00000" pt_clust_6="13000.00000" pt_clust_7="13000.00000" pt_clust_8="13000.00000" pt_clust_9="30.03567"></scales>
<clustering>
<clus scale="   30.036">  1  9  2 -1</clus>
<clus scale="   79.779">  5  6 -1 -1</clus>
<clus scale="   89.908">  7  8 -1 -1</clus>
<clus scale="  144.911">  1  5  2 -1</clus>
<clus scale="   30.036">  1  5  2 -1</clus>
</clustering>
</event>
<event>
 9    2  0.1723348E-004  0.1031397E+03  0.7546771E-02  0.1281411E+00
          2   -1    0    0  502    0 -0.00000000000E+00  0.00000000000E+00  0.17535901640E+03  0.17535901640E+03  0.00000000000E+00 0. -1.
         21   -1    0    0  501  502  0.00000000000E+00 -0.00000000000E+00 -0.17664265768E+03  0.17664265768E+03  0.00000000000E+00 0. -1.
         23    2    1    2    0    0  0.34546751115E+02 -0.22617794562E+02  0.13699512824E+03  0.17242046435E+03  0.96208672806E+02 0.  0.
         24    2    1    2    0    0 -0.77909568421E+01  0.14011713379E+02 -0.80871866669E+02  0.11566337454E+03  0.81121700375E+02 0.  0.
        -11    1    4    4    0    0 -0.14908754988E+02  0.45624077849E+02 -0.34580830051E+02  0.59157934902E+02  0.00000000000E+00 0.  1.
         12    1    4    4    0    0  0.71177981457E+01 -0.31612364470E+02 -0.46291036618E+02  0.56505439641E+02  0.00000000000E+00 0. -1.
        -13    1    3    3    0    0  0.55498442642E+02 -0.46186154002E+02  0.84139220405E+02  0.11087220737E+03  0.00000000000E+00 0. -1.
         13    1    3    3    0    0 -0.20951691527E+02  0.23568359439E+02  0.52855907832E+02  0.61548256980E+02  0.00000000000E+00 0.  1.
          1    1    1    2  501    0 -0.26755794273E+02  0.86060811829E+01 -0.57406902844E+02  0.63917835184E+02  0.00000000000E+00 0. -1.
<scales pt_clust_5="13000.00000" pt_clust_6="13000.00000" pt_clust_7="13000.00000" pt_clust_8="13000.00000" pt_clust_9="28.10582"></scales>
<clustering>
<clus scale="   28.106">  2  9  1 -1</clus>
<clus scale="   81.122">  5  6 -1 -1</clus>
<clus scale="   89.232">  2  5  1 -1</clus>
<clus scale="   96.209">  7  8 -1 -1</clus>
<clus scale="   28.106">  2  5  1 -1</clus>
</clustering>
</event>
<event>
 9    2  0.1723348E-004  0.1137763E+03  0.7546771E-02  0.1258390E+00
         21   -1    0    0  501  502  0.00000000000E+00  0.00000000000E+00  0.16095069765E+03  0.16095069765E+03  0.00000000000E+00 0. -1.
          2   -1    0    0  502    0 -0.00000000000E+00 -0.00000000000E+00 -0.22280474981E+03  0.22280474981E+03  0.00000000000E+00 0. -1.
         24    2    1    2    0    0  0.89509202778E+01  0.56559822168E+02 -0.11115106342E+03  0.14823978559E+03  0.79632547829E+02 0.  0.
         23    2    1    2    0    0  0.28151457220E+02 -0.95792630397E+02 -0.30322331335E+02  0.13931254669E+03  0.92302813094E+02 0.  0.
        -13    1    3    3    0    0  0.15209788787E+02  0.13505401434E+02 -0.10170516854E+03  0.10371921158E+03  0.00000000000E+00 0.  1.
         14    1    3    3    0    0 -0.62588685089E+01  0.43054420734E+02 -0.94458948789E+01  0.44520574006E+02  0.00000000000E+00 0. -1.
        -13    1    4    4    0    0  0.26312404897E+02  0.10078490651E+02  0.29262681964E+01  0.28328107435E+02  0.00000000000E+00 0.  1.
         13    1    4    4    0    0  0.18390523229E+01 -0.10587112105E+03 -0.33248599532E+02  0.11098443925E+03  0.00000000000E+00 0. -1.
          1    1    1    2  501    0 -0.37102377498E+02  0.39232808229E+02  0.79619342596E+02  0.96203115194E+02  0.00000000000E+00 0. -1.
<scales pt_clust_5="13000.00000" pt_clust_6="13000.00000" pt_clust_7="13000.00000" pt_clust_8="13000.00000" pt_clust_9="53.99814"></scales>
<clustering>
<clus scale="   53.998">  1  9  2 -1</clus>
<clus scale="   79.633">  5  6 -1 -1</clus>
<clus scale="   92.303">  7  8 -1 -1</clus>
<clus scale="  103.762">  2  5  1 -1</clus>
<clus scale="   53.998">  1  5  2 -1</clus>
</clustering>
</event>
<event>
 9    2  0.1723348E-004  0.1020033E+03  0.7546771E-02  0.1280617E+00
         -1   -1    0    0    0  501 -0.00000000000E+00  0.00000000000E+00  0.67248463457E+02  0.67248463457E+02  0.00000000000E+00 0.  1.
         21   -1    0    0  501  502  0.00000000000E+00 -0.00000000000E+00 -0.21629872331E+03  0.21629872331E+03  0.00000000000E+00 0.  1.
         23    2    1    2    0    0 -0.31130319060E+02  0.48510496022E+02 -0.24438213300E+02  0.11048044724E+03  0.91029324743E+02 0.  0.
         24    2    1    2    0    0  0.16761656476E+02 -0.19450671821E+02 -0.10405623971E+03  0.13468089523E+03  0.81559553441E+02 0.  0.
        -13    1    4    4    0    0 -0.32203120398E+02 -0.10779572473E+02 -0.56220484866E+02  0.65680918573E+02  0.00000000000E+00 0.  1.
         14    1    4    4    0    0  0.48964776874E+02 -0.86710993480E+01 -0.47835754839E+02  0.68999976661E+02  0.00000000000E+00 0. -1.
        -11    1    3    3    0    0  0.18682132394E+02  0.31694690322E+02  0.19790902664E+02  0.41776252749E+02  0.00000000000E+00 0.  1.
         11    1    3    3    0    0 -0.49812451454E+02  0.16815805700E+02 -0.44229115964E+02  0.68704194488E+02  0.00000000000E+00 0. -1.
         -2    1    1    2    0  502  0.14368662584E+02 -0.29059824201E+02 -0.20555806845E+02  0.38385844293E+02  0.00000000000E+00 0.  1.
<scales pt_clust_5="13000.00000" pt_clust_6="13000.00000" pt_clust_7="13000.00000" pt_clust_8="13000.00000" pt_clust_9="32.41808"></scales>
<clustering>
<clus scale="   32.418">  2  9  1 -1</clus>
<clus scale="   81.560">  5  6 -1 -1</clus>
<clus scale="   91.029">  7  8 -1 -1</clus>
<clus scale="   93.650">  2  5  1 -1</clus>
<clus scale="   32.418">  2  5  1 -1</clus>
</clustering>
</event>
<event>
 9    2  0.1723348E-004  0.2891144E+03  0.7546771E-02  0.1121819E+00
         21   -1    0    0  501  502  0.00000000000E+00  0.00000000000E+00  0.37657329335E+03  0.37657329335E+03  0.00000000000E+00 0.  1.
         -3   -1    0    0    0  501 -0.00000000000E+00 -0.00000000000E+00 -0.74558354186E+03  0.74558354186E+03  0.00000000000E+00 0.  1.
         24    2    1    2    0    0  0.92695675763E+02  0.43710185777E+02 -0.50904986726E+03  0.52551523376E+03  0.80817231522E+02 0.  0.
         23    2    1    2    0    0 -0.30398195019E+03  0.54947556365E+02  0.16507734971E+03  0.36211627698E+03  0.91942409565E+02 0.  0.
        -13    1    3    3    0    0  0.98730384015E+02  0.48165314007E+02 -0.36264114657E+03  0.37891448558E+03  0.00000000000E+00 0.  1.
         14    1    3    3    0    0 -0.60347082518E+01 -0.44551282306E+01 -0.14640872069E+03  0.14660074817E+03  0.00000000000E+00 0. -1.
        -13    1    4    4    0    0 -0.27743214120E+03  0.61245830726E+02  0.17429563525E+03  0.33331458596E+03  0.00000000000E+00 0.  1.
         13    1    4    4    0    0 -0.26549808989E+02 -0.62982743611E+01 -0.92182855325E+01  0.28801691017E+02  0.00000000000E+00 0. -1.
         -4    1    1    2    0  502  0.21128627442E+03 -0.98657742141E+02 -0.25037730965E+02  0.23452532447E+03  0.00000000000E+00 0.  1.
<scales pt_clust_5="13000.00000" pt_clust_6="13000.00000" pt_clust_7="13000.00000" pt_clust_8="13000.00000" pt_clust_9="274.10543"></scales>
<clustering>
<clus scale="   80.817">  5  6 -1 -1</clus>
<clus scale="   91.942">  7  8 -1 -1</clus>
<clus scale="  130.516">  2  5  1 -1</clus>
<clus scale="  274.105">  1  9  2 -1</clus>
<clus scale="  274.105">  1  5  2 -1</clus>
</clustering>
</event>
<event>
 9    2  0.1723348E-004  0.1050236E+03  0.7546771E-02  0.1271594E+00
         -1   -1    0    0    0  501 -0.00000000000E+00  0.00000000000E+00  0.92569819244E+02  0.92569819244E+02  0.00000000000E+00 0.  1.
         21   -1    0    0  501  502  0.00000000000E+00 -0.00000000000E+00 -0.19735416149E+03  0.19735416149E+03  0.00000000000E+00 0. -1.
         23    2    1    2    0    0  0.55820088587E+02  0.40812903914E+02  0.10389580656E+02  0.10943473718E+03  0.84181012706E+02 0.  0.
         24    2    1    2    0    0 -0.18601595394E+02 -0.54424249374E+02 -0.74986920172E+02  0.12404918553E+03  0.80356356089E+02 0.  0.
        -11    1    4    4    0    0 -0.40590153285E+02 -0.53106227396E+02 -0.28611380090E+02  0.72707929434E+02  0.00000000000E+00 0.  1.
         12    1    4    4    0    0  0.21988557891E+02 -0.13180219778E+01 -0.46375540083E+02  0.51341256101E+02  0.00000000000E+00 0. -1.
        -13    1    3    3    0    0  0.57275347918E+02  0.26922074233E+00  0.29683417811E+02  0.64510799498E+02  0.00000000000E+00 0. -1.
         13    1    3    3    0    0 -0.14552593314E+01  0.40543683172E+02 -0.19293837155E+02  0.44923937684E+02  0.00000000000E+00 0.  1.
         -2    1    1    2    0  502 -0.37218493193E+02  0.13611345460E+02 -0.40187002734E+02  0.56440058022E+02  0.00000000000E+00 0.  1.
<scales pt_clust_5="13000.00000" pt_clust_6="13000.00000" pt_clust_7="13000.00000" pt_clust_8="13000.00000" pt_clust_9="39.62934"></scales>
<clustering>
<clus scale="   39.629">  2  9  1 -1</clus>
<clus scale="   80.356">  5  6 -1 -1</clus>
<clus scale="   84.181">  7  8 -1 -1</clus>
<clus scale="  101.984">  2  5  1 -1</clus>
<clus scale="   39.629">  2  5  1 -1</clus>
</clustering>
</event>
<event>
 9    2  0.1723348E-004  0.9447953E+02  0.7546771E-02  0.1304784E+00
          4   -1    0    0  502    0 -0.00000000000E+00  0.00000000000E+00  0.99122007437E+02  0.99122007437E+02  0.00000000000E+00 0. -1.
         21   -1    0    0  501  502  0.00000000000E+00 -0.00000000000E+00 -0.51345530624E+03  0.51345530624E+03  0.00000000000E+00 0. -1.
         23    2    1    2    0    0 -0.87713992772E+01 -0.15114699805E+02 -0.47763987661E+01  0.95302253018E+02  0.93564490325E+02 0.  0.
         24    2    1    2    0    0  0.25308150486E+02 -0.55059367343E+02 -0.43146146685E+03  0.44192471967E+03  0.73935269407E+02 0.  0.
        -11    1    4    4    0    0 -0.22959285696E+02 -0.14719346734E+01 -0.86694073130E+02  0.89694803123E+02  0.00000000000E+00 0.  1.
         12    1    4    4    0    0  0.48267436181E+02 -0.53587432670E+02 -0.34476739372E+03  0.35222991654E+03  0.00000000000E+00 0. -1.
        -11    1    3    3    0    0 -0.18596836836E+02 -0.52750199057E+02  0.12211990305E+01  0.55945662637E+02  0.00000000000E+00 0. -1.
         11    1    3    3    0    0  0.98254375593E+01  0.37635499251E+02 -0.59975977966E+01  0.39356590381E+02  0.00000000000E+00 0.  1.
          3    1    1    2  501    0 -0.16536751209E+02  0.70174067149E+02  0.21904566812E+02  0.75350340994E+02  0.00000000000E+00 0. -1.
<scales pt_clust_5="13000.00000" pt_clust_6="13000.00000" pt_clust_7="13000.00000" pt_clust_8="13000.00000" pt_clust_9="72.09625"></scales>
<clustering>
<clus scale="   72.096">  2  9  1 -1</clus>
<clus scale="   73.935">  5  6 -1 -1</clus>
<clus scale="   75.090">  2  5  1 -1</clus>
<clus scale="   93.564">  7  8 -1 -1</clus>
<clus scale="   72.096">  2  5  1 -1</clus>
</clustering>
</event>
<event>
 9    2  0.2182887E-004  0.9938884E+02  0.7546771E-02  0.1286498E+00
         -3   -1    0    0    0  501 -0.00000000000E+00  0.00000000000E+00  0.57187330660E+03  0.57187330660E+03  0.00000000000E+00 0.  1.
         21   -1    0    0  501  502  0.00000000000E+00 -0.00000000000E+00 -0.10302839047E+03  0.10302839047E+03  0.00000000000E+00 0. -1.
         24    2    1    2    0    0 -0.22363472091E+02 -0.38641273589E+02  0.50407224645E+03  0.51230156841E+03  0.79817256569E+02 0.  0.
         23    2    1    2    0    0  0.17172910927E+02 -0.52315177339E+01 -0.62402918397E+02  0.11073225488E+03  0.89695208337E+02 0.  0.
        -13    1    3    3    0    0 -0.47743806129E+02 -0.44623405824E+02  0.36603607189E+03  0.37182405153E+03  0.00000000000E+00 0.  1.
         14    1    3    3    0    0  0.25380334038E+02  0.59821322345E+01  0.13803617456E+03  0.14047751688E+03  0.00000000000E+00 0. -1.
        -13    1    4    4    0    0 -0.14118613843E+02 -0.32188551619E+02  0.88479334643E+00  0.35159934178E+02  0.00000000000E+00 0.  1.
         13    1    4    4    0    0  0.31291524770E+02  0.26957033885E+02 -0.63287711744E+02  0.75572320701E+02  0.00000000000E+00 0. -1.
         -4    1    1    2    0  502  0.51905611640E+01  0.43872791323E+02  0.27175588076E+02  0.51867873785E+02  0.00000000000E+00 0.  1.
<scales pt_clust_5="13000.00000" pt_clust_6="13000.00000" pt_clust_7="13000.00000" pt_clust_8="13000.00000" pt_clust_9="44.17877"></scales>
<clustering>
<clus scale="   44.179">  2  9  1 -1</clus>
<clus scale="   79.817">  5  6 -1 -1</clus>
<clus scale="   89.695">  7  8 -1 -1</clus>
<clus scale="   90.574">  1  5  2 -1</clus>
<clus scale="   44.179">  2  5  1 -1</clus>
</clustering>
</event>
<event>
 9    2  0.1723348E-004  0.2214625E+03  0.7546771E-02  0.1133443E+00
          2   -1    0    0  502    0 -0.00000000000E+00  0.00000000000E+00  0.21756247705E+04  0.21756247705E+04  0.00000000000E+00 0. -1.
         21   -1    0    0  501  502  0.00000000000E+00 -0.00000000000E+00 -0.52294696203E+02  0.52294696203E+02  0.00000000000E+00 0. -1.
         24    2    1    2    0    0  0.21106406718E+03  0.27739576407E+02  0.11885720751E+04  0.12102534490E+04  0.81806530767E+02 0.  0.
         23    2    1    2    0    0 -0.14110956823E+03 -0.14503250408E+03  0.32924753188E+03  0.39694531658E+03  0.90638345238E+02 0.  0.
        -11    1    3    3    0    0  0.71828266852E+02 -0.29302484297E+02  0.41070461867E+03  0.41796676818E+03  0.00000000000E+00 0.  1.
         12    1    3    3    0    0  0.13923580032E+03  0.57042060703E+02  0.77786745648E+03  0.79228668084E+03  0.00000000000E+00 0. -1.
        -13    1    4    4    0    0 -0.95811480079E+02 -0.56836169631E+02  0.23537952740E+03  0.26041065994E+03  0.00000000000E+00 0.  1.
         13    1    4    4    0    0 -0.45298088146E+02 -0.88196334447E+02  0.93868004478E+02  0.13653465664E+03  0.00000000000E+00 0. -1.
          1    1    1    2  501    0 -0.69954498951E+02  0.11729292767E+03  0.60551046729E+03  0.62072070112E+03  0.00000000000E+00 0. -1.
<scales pt_clust_5="13000.00000" pt_clust_6="13000.00000" pt_clust_7="13000.00000" pt_clust_8="13000.00000" pt_clust_9="136.56969"></scales>
<clustering>
<clus scale="   81.807">  5  6 -1 -1</clus>
<clus scale="   90.638">  7  8 -1 -1</clus>
<clus scale="  136.570">  2  9  1 -1</clus>
<clus scale="  217.997">  1  5  2 -1</clus>
<clus scale="  136.570">  2  5  1 -1</clus>
</clustering>
</event>
<event>
 9    2  0.1723348E-004  0.1048247E+03  0.7546771E-02  0.1275931E+00
          2   -1    0    0  502    0 -0.00000000000E+00  0.00000000000E+00  0.43396703534E+03  0.43396703534E+03  0.00000000000E+00 0. -1.
         21   -1    0    0  501  502  0.00000000000E+00 -0.00000000000E+00 -0.10452982866E+03  0.10452982866E+03  0.00000000000E+00 0.  1.
         24    2    1    2    0    0 -0.53564458244E+02 -0.41481938005E+01  0.35812301623E+03  0.37076344506E+03  0.79542936457E+02 0.  0.
         23    2    1    2    0    0  0.90273579875E+01  0.20117864071E+02 -0.59264435928E+02  0.11139838491E+03  0.91712077433E+02 0.  0.
        -11    1    3    3    0    0  0.19488995716E+02 -0.10624706446E+02  0.99269839488E+02  0.10172121889E+03  0.00000000000E+00 0.  1.
         12    1    3    3    0    0 -0.73053453959E+02  0.64765126453E+01  0.25885317674E+03  0.26904222617E+03  0.00000000000E+00 0. -1.
        -13    1    4    4    0    0  0.49041302207E+02 -0.56788405852E+00 -0.34823500099E+02  0.60150211751E+02  0.00000000000E+00 0.  1.
         13    1    4    4    0    0 -0.40013944220E+02  0.20685748129E+02 -0.24440935829E+02  0.51248173157E+02  0.00000000000E+00 0. -1.
          1    1    1    2  501    0  0.44537100256E+02 -0.15969670270E+02  0.30578626376E+02  0.56335034027E+02  0.00000000000E+00 0. -1.
<scales pt_clust_5="13000.00000" pt_clust_6="13000.00000" pt_clust_7="13000.00000" pt_clust_8="13000.00000" pt_clust_9="47.31367"></scales>
<clustering>
<clus scale="   47.314">  2  9  1 -1</clus>
<clus scale="   79.543">  5  6 -1 -1</clus>
<clus scale="   91.712">  7  8 -1 -1</clus>
<clus scale="   94.362">  1  5  2 -1</clus>
<clus scale="   47.314">  2  5  1 -1</clus>
</clustering>
</event>
<event>
 9    2  0.1723348E-004  0.1345888E+03  0.7546771E-02  0.1223884E+00
          2   -1    0    0  502    0 -0.00000000000E+00  0.00000000000E+00  0.88330252338E+03  0.88330252338E+03  0.00000000000E+00 0. -1.
         21   -1    0    0  501  502  0.00000000000E+00 -0.00000000000E+00 -0.12069781932E+03  0.12069781932E+03  0.00000000000E+00 0. -1.
         24    2    1    2    0    0 -0.63092889063E+02 -0.76842436099E+02  0.62242499144E+03  0.63518775218E+03  0.78518392197E+02 0.  0.
         23    2    1    2    0    0  0.69070781755E+00  0.11650742777E+03  0.21665834694E+03  0.26243437238E+03  0.91413908707E+02 0.  0.
        -11    1    3    3    0    0  0.17474862702E+02 -0.25025046807E+02  0.13039923365E+03  0.13392379897E+03  0.00000000000E+00 0.  1.
         12    1    3    3    0    0 -0.80567751765E+02 -0.51817389292E+02  0.49202575779E+03  0.50126395321E+03  0.00000000000E+00 0. -1.
        -13    1    4    4    0    0 -0.27645148643E+02  0.13689730279E+01  0.58935317811E+02  0.65111443050E+02  0.00000000000E+00 0. -1.
         13    1    4    4    0    0  0.28335856460E+02  0.11513845474E+03  0.15772302913E+03  0.19732292933E+03  0.00000000000E+00 0.  1.
          1    1    1    2  501    0  0.62402181245E+02 -0.39664991673E+02 -0.76478634312E+02  0.10637821814E+03  0.00000000000E+00 0. -1.
<scales pt_clust_5="13000.00000" pt_clust_6="13000.00000" pt_clust_7="13000.00000" pt_clust_8="13000.00000" pt_clust_9="73.94149"></scales>
<clustering>
<clus scale="   73.941">  2  9  1 -1</clus>
<clus scale="   78.518">  5  6 -1 -1</clus>
<clus scale="   91.414">  7  8 -1 -1</clus>
<clus scale="  126.185">  1  5  2 -1</clus>
<clus scale="   73.941">  2  5  1 -1</clus>
</clustering>
</event>
<event>
 9    2  0.1723348E-004  0.2443518E+03  0.7546771E-02  0.1156283E+00
         -1   -1    0    0    0  501 -0.00000000000E+00  0.00000000000E+00  0.49141727405E+03  0.49141727405E+03  0.00000000000E+00 0.  1.
         21   -1    0    0  501  502  0.00000000000E+00 -0.00000000000E+00 -0.18498881901E+03  0.18498881901E+03  0.00000000000E+00 0.  1.
         23    2    1    2    0    0  0.14525795479E+02  0.17756167011E+02  0.29565727286E+02  0.98533431052E+02  0.91150560084E+02 0.  0.
         24    2    1    2    0    0  0.22068134235E+03  0.50341419258E+00  0.24598789085E+03  0.33994606503E+03  0.79704306017E+02 0.  0.
        -13    1    4    4    0    0  0.19063278028E+03  0.19990341406E+02  0.23331861403E+03  0.30195702727E+03  0.00000000000E+00 0.  1.
         14    1    4    4    0    0  0.30048562074E+02 -0.19486927214E+02  0.12669276826E+02  0.37989037764E+02  0.00000000000E+00 0. -1.
        -11    1    3    3    0    0  0.69419961902E+01  0.38370051446E+02 -0.20360884085E+02  0.43988836763E+02  0.00000000000E+00 0.  1.
         11    1    3    3    0    0  0.75837992888E+01 -0.20613884435E+02  0.49926611371E+02  0.54544594289E+02  0.00000000000E+00 0. -1.
         -2    1    1    2    0  502 -0.23520713783E+03 -0.18259581203E+02  0.30874836895E+02  0.23792659697E+03  0.00000000000E+00 0.  1.
<scales pt_clust_5="13000.00000" pt_clust_6="13000.00000" pt_clust_7="13000.00000" pt_clust_8="13000.00000" pt_clust_9="230.98704"></scales>
<clustering>
<clus scale="   79.704">  5  6 -1 -1</clus>
<clus scale="   91.151">  7  8 -1 -1</clus>
<clus scale="   93.993">  1  7  2 -1</clus>
<clus scale="  230.987">  2  9  1 -1</clus>
<clus scale="  230.987">  2  5  1 -1</clus>
</clustering>
</event>
<event>
 9    2  0.1723348E-004  0.9393607E+02  0.7546771E-02  0.1301108E+00
         21   -1    0    0  501  502  0.00000000000E+00  0.00000000000E+00  0.10924679318E+03  0.10924679318E+03  0.00000000000E+00 0.  1.
          2   -1    0    0  502    0 -0.00000000000E+00 -0.00000000000E+00 -0.19706664938E+03  0.19706664938E+03  0.00000000000E+00 0. -1.
         24    2    1    2    0    0 -0.25090147061E+02 -0.24625017407E+01 -0.15090136759E+03  0.17188039467E+03  0.78333057749E+02 0.  0.
         23    2    1    2    0    0  0.58697364031E+01  0.11541097330E+02  0.65752629596E+02  0.11300923040E+03  0.90994654364E+02 0.  0.
        -11    1    3    3    0    0  0.28049198827E+02 -0.12812657242E+01 -0.65846681776E+02  0.71583410771E+02  0.00000000000E+00 0.  1.
         12    1    3    3    0    0 -0.53139345888E+02 -0.11812360166E+01 -0.85054685813E+02  0.10029698390E+03  0.00000000000E+00 0. -1.
        -11    1    4    4    0    0 -0.13142467677E+02 -0.27381272925E+02 -0.42703137219E+01  0.30670737568E+02  0.00000000000E+00 0. -1.
         11    1    4    4    0    0  0.19012204080E+02  0.38922370256E+02  0.70022943317E+02  0.82338492828E+02  0.00000000000E+00 0.  1.
          1    1    1    2  501    0  0.19220410658E+02 -0.90785955896E+01 -0.26711182053E+01  0.21423817498E+02  0.00000000000E+00 0. -1.
<scales pt_clust_5="13000.00000" pt_clust_6="13000.00000" pt_clust_7="13000.00000" pt_clust_8="13000.00000" pt_clust_9="21.25665"></scales>
<clustering>
<clus scale="   21.257">  1  9  2 -1</clus>
<clus scale="   78.333">  5  6 -1 -1</clus>
<clus scale="   81.731">  2  5  1 -1</clus>
<clus scale="   90.995">  7  8 -1 -1</clus>
<clus scale="   21.257">  1  5  2 -1</clus>
</clustering>
</event>
<event>
 9    2  0.1723348E-004  0.1324368E+03  0.7546771E-02  0.1227918E+00
         21   -1    0    0  501  502  0.00000000000E+00  0.00000000000E+00  0.89137223957E+02  0.89137223957E+02  0.00000000000E+00 0.  1.
         -1   -1    0    0    0  501 -0.00000000000E+00 -0.00000000000E+00 -0.36037174502E+03  0.36037174502E+03  0.00000000000E+00 0.  1.
         23    2    1    2    0    0  0.36331166580E+02 -0.90924160361E+02 -0.17848417701E+03  0.22459616480E+03  0.94866639020E+02 0.  0.
         24    2    1    2    0    0 -0.23020646590E+02  0.73554403179E+02  0.17973382599E+02  0.11204729992E+03  0.79318059359E+02 0.  0.
        -11    1    4    4    0    0 -0.49546969437E+02  0.26861302716E+02  0.14702059427E+02  0.58245878098E+02  0.00000000000E+00 0.  1.
         12    1    4    4    0    0  0.26526322847E+02  0.46693100463E+02  0.32713231723E+01  0.53801421821E+02  0.00000000000E+00 0. -1.
        -13    1    3    3    0    0  0.33367133964E+02 -0.60547021474E+02 -0.18121379059E+03  0.19395294619E+03  0.00000000000E+00 0.  1.
         13    1    3    3    0    0  0.29640326162E+01 -0.30377138887E+02  0.27296135801E+01  0.30643218607E+02  0.00000000000E+00 0. -1.
         -2    1    1    2    0  502 -0.13310519991E+02  0.17369757182E+02 -0.11072372665E+03  0.11286550426E+03  0.00000000000E+00 0.  1.
<scales pt_clust_5="13000.00000" pt_clust_6="13000.00000" pt_clust_7="13000.00000" pt_clust_8="13000.00000" pt_clust_9="21.88330"></scales>
<clustering>
<clus scale="   21.883">  1  9  2 -1</clus>
<clus scale="   79.318">  5  6 -1 -1</clus>
<clus scale="   94.867">  7  8 -1 -1</clus>
<clus scale="  121.783">  1  5  2 -1</clus>
<clus scale="   21.883">  1  5  2 -1</clus>
</clustering>
</event>
<event>
 9    2  0.1723348E-004  0.1288653E+03  0.7546771E-02  0.1229736E+00
         21   -1    0    0  501  502  0.00000000000E+00  0.00000000000E+00  0.12457259251E+03  0.12457259251E+03  0.00000000000E+00 0. -1.
          2   -1    0    0  502    0 -0.00000000000E+00 -0.00000000000E+00 -0.24118336804E+03  0.24118336804E+03  0.00000000000E+00 0. -1.
         23    2    1    2    0    0  0.99919564604E+02  0.90716866701E+02 -0.79685954743E+02  0.17736968194E+03  0.83046272597E+02 0.  0.
         24    2    1    2    0    0 -0.59500270592E+02 -0.23634227984E+02 -0.28733595257E+01  0.10298544864E+03  0.80615677782E+02 0.  0.
        -13    1    4    4    0    0 -0.17560056406E+02 -0.34315144858E+02  0.29828900926E+02  0.48740620411E+02  0.00000000000E+00 0.  1.
         14    1    4    4    0    0 -0.41940214186E+02  0.10680916874E+02 -0.32702260452E+02  0.54244828232E+02  0.00000000000E+00 0. -1.
        -13    1    3    3    0    0  0.86883947670E+02  0.59597889089E+02 -0.93545165071E+02  0.14089509095E+03  0.00000000000E+00 0. -1.
         13    1    3    3    0    0  0.13035616934E+02  0.31118977613E+02  0.13859210328E+02  0.36474590984E+02  0.00000000000E+00 0.  1.
          1    1    1    2  501    0 -0.40419294012E+02 -0.67082638717E+02 -0.34051461261E+02  0.85400829971E+02  0.00000000000E+00 0. -1.
<scales pt_clust_5="13000.00000" pt_clust_6="13000.00000" pt_clust_7="13000.00000" pt_clust_8="13000.00000" pt_clust_9="78.31862"></scales>
<clustering>
<clus scale="   78.319">  1  9  2 -1</clus>
<clus scale="   80.616">  5  6 -1 -1</clus>
<clus scale="   83.046">  7  8 -1 -1</clus>
<clus scale="  127.313">  1  5  2 -1</clus>
<clus scale="   78.319">  1  5  2 -1</clus>
</clustering>
</event>
<event>
 9    2  0.1723348E-004  0.1132548E+03  0.7546771E-02  0.1256842E+00
         21   -1    0    0  501  502  0.00000000000E+00  0.00000000000E+00  0.46604449281E+02  0.46604449281E+02  0.00000000000E+00 0.  1.
          2   -1    0    0  502    0 -0.00000000000E+00 -0.00000000000E+00 -0.11227099399E+04  0.11227099399E+04  0.00000000000E+00 0. -1.
         24    2    1    2    0    0  0.35100546682E+02 -0.58451506202E+02 -0.54783814834E+03  0.55793838206E+03  0.80746358744E+02 0.  0.
         23    2    1    2    0    0 -0.18613818152E+02  0.11079451627E+03 -0.86877831416E+02  0.16658807650E+03  0.87074281960E+02 0.  0.
        -13    1    3    3    0    0 -0.11100882156E+02 -0.56130826431E+02 -0.24536005877E+03  0.25194336209E+03  0.00000000000E+00 0.  1.
         14    1    3    3    0    0  0.46201428838E+02 -0.23206797713E+01 -0.30247808956E+03  0.30599501997E+03  0.00000000000E+00 0. -1.
        -13    1    4    4    0    0  0.11346003738E+02  0.10030655576E+03 -0.37094495667E+02  0.10754598337E+03  0.00000000000E+00 0.  1.
         13    1    4    4    0    0 -0.29959821890E+02  0.10487960508E+02 -0.49783335749E+02  0.59042093134E+02  0.00000000000E+00 0. -1.
          1    1    1    2  501    0 -0.16486728530E+02 -0.52343010068E+02 -0.44138951083E+03  0.44478793058E+03  0.00000000000E+00 0. -1.
<scales pt_clust_5="13000.00000" pt_clust_6="13000.00000" pt_clust_7="13000.00000" pt_clust_8="13000.00000" pt_clust_9="54.87810"></scales>
<clustering>
<clus scale="   54.878">  1  9  2 -1</clus>
<clus scale="   80.746">  5  6 -1 -1</clus>
<clus scale="   87.074">  7  8 -1 -1</clus>
<clus scale="  108.465">  2  5  1 -1</clus>
<clus scale="   54.878">  1  5  2 -1</clus>
</clustering>
</event>
<event>
 9    2  0.1723348E-004  0.9870891E+02  0.7546771E-02  0.1289090E+00
          2   -1    0    0  502    0 -0.00000000000E+00  0.00000000000E+00  0.59201070487E+03  0.59201070487E+03  0.00000000000E+00 0. -1.
         21   -1    0    0  501  502  0.00000000000E+00 -0.00000000000E+00 -0.23539873454E+02  0.23539873454E+02  0.00000000000E+00 0.  1.
         24    2    1    2    0    0  0.11326742704E+02 -0.39971296843E+02  0.28420691658E+03  0.29841458029E+03  0.80942514318E+02 0.  0.
         23    2    1    2    0    0  0.21812961976E+02  0.24441233471E+02  0.16053860832E+03  0.18811129356E+03  0.92412308691E+02 0.  0.
        -13    1    3    3    0    0  0.11725196749E+02 -0.55734856351E+02  0.27346921446E+03  0.27933718998E+03  0.00000000000E+00 0.  1.
         14    1    3    3    0    0 -0.39845404497E+00  0.15763559508E+02  0.10737702125E+02  0.19077390306E+02  0.00000000000E+00 0. -1.
        -13    1    4    4    0    0  0.44954389543E+02  0.23028745160E+02  0.37502709051E+02  0.62910042354E+02  0.00000000000E+00 0.  1.
         13    1    4    4    0    0 -0.23141427567E+02  0.14124883107E+01  0.12303589927E+03  0.12520125120E+03  0.00000000000E+00 0. -1.
          1    1    1    2  501    0 -0.33139704680E+02  0.15530063372E+02  0.12372530651E+03  0.12902470448E+03  0.00000000000E+00 0. -1.
<scales pt_clust_5="13000.00000" pt_clust_6="13000.00000" pt_clust_7="13000.00000" pt_clust_8="13000.00000" pt_clust_9="36.59815"></scales>
<clustering>
<clus scale="   36.598">  2  9  1 -1</clus>
<clus scale="   80.943">  5  6 -1 -1</clus>
<clus scale="   88.063">  1  5  2 -1</clus>
<clus scale="   92.412">  7  8 -1 -1</clus>
<clus scale="   36.598">  2  5  1 -1</clus>
</clustering>
</event>
<event>
 9    2  0.1723348E-004  0.1058556E+03  0.7546771E-02  0.1273042E+00
         21   -1    0    0  501  502  0.00000000000E+00  0.00000000000E+00  0.32017599350E+03  0.32017599350E+03  0.00000000000E+00 0. -1.
          2   -1    0    0  502    0 -0.00000000000E+00 -0.00000000000E+00 -0.85085950194E+02  0.85085950194E+02  0.00000000000E+00 0. -1.
         23    2    1    2    0    0  0.55664005004E+02  0.11540342386E+02 -0.30336367303E+02  0.11278561949E+03  0.92566947816E+02 0.  0.
         24    2    1    2    0    0 -0.29428014582E+02 -0.65823996373E+01  0.14689149683E+03  0.17097145116E+03  0.82126665836E+02 0.  0.
        -13    1    4    4    0    0 -0.43675539822E+02  0.49482069634E+01  0.31360443585E+02  0.53995508635E+02  0.00000000000E+00 0.  1.
         14    1    4    4    0    0  0.14247525240E+02 -0.11530606601E+02  0.11553105325E+03  0.11697594252E+03  0.00000000000E+00 0. -1.
        -11    1    3    3    0    0  0.26555734563E+02 -0.62147857315E+01  0.31809571005E+02  0.41900828242E+02  0.00000000000E+00 0.  1.
         11    1    3    3    0    0  0.29108270441E+02  0.17755128118E+02 -0.62145938308E+02  0.70884791251E+02  0.00000000000E+00 0. -1.
          1    1    1    2  501    0 -0.26235990421E+02 -0.49579427487E+01  0.11853491378E+03  0.12150487305E+03  0.00000000000E+00 0. -1.
<scales pt_clust_5="13000.00000" pt_clust_6="13000.00000" pt_clust_7="13000.00000" pt_clust_8="13000.00000" pt_clust_9="26.70034"></scales>
<clustering>
<clus scale="   26.700">  1  9  2 -1</clus>
<clus scale="   82.127">  5  6 -1 -1</clus>
<clus scale="   92.567">  7  8 -1 -1</clus>
<clus scale="   96.858">  1  5  2 -1</clus>
<clus scale="   26.700">  1  5  2 -1</clus>
</clustering>
</event>
<event>
 9    2  0.1723348E-004  0.1019295E+03  0.7546771E-02  0.1281484E+00
          2   -1    0    0  502    0 -0.00000000000E+00  0.00000000000E+00  0.22183714884E+03  0.22183714884E+03  0.00000000000E+00 0. -1.
         21   -1    0    0  501  502  0.00000000000E+00 -0.00000000000E+00 -0.14088048354E+03  0.14088048354E+03  0.00000000000E+00 0.  1.
         24    2    1    2    0    0 -0.42333415367E+02 -0.61595582296E+01  0.16845167540E+03  0.19145973537E+03  0.80316904243E+02 0.  0.
         23    2    1    2    0    0  0.63385523740E+02  0.27235391740E+02 -0.54095872563E+02  0.12650430036E+03  0.91200237929E+02 0.  0.
        -13    1    3    3    0    0  0.93148109274E+01  0.26520020018E+02  0.71787952715E+02  0.77094664662E+02  0.00000000000E+00 0.  1.
         14    1    3    3    0    0 -0.51648226295E+02 -0.32679578247E+02  0.96663722685E+02  0.11436507070E+03  0.00000000000E+00 0. -1.
        -13    1    4    4    0    0  0.18104326718E+02  0.55799863733E+02 -0.16032927557E+02  0.60814851842E+02  0.00000000000E+00 0.  1.
         13    1    4    4    0    0  0.45281197022E+02 -0.28564471993E+02 -0.38062945006E+02  0.65689448518E+02  0.00000000000E+00 0. -1.
          1    1    1    2  501    0 -0.21052108372E+02 -0.21075833510E+02 -0.33399137543E+02  0.44753596657E+02  0.00000000000E+00 0. -1.
<scales pt_clust_5="13000.00000" pt_clust_6="13000.00000" pt_clust_7="13000.00000" pt_clust_8="13000.00000" pt_clust_9="29.78896"></scales>
<clustering>
<clus scale="   29.789">  2  9  1 -1</clus>
<clus scale="   80.317">  5  6 -1 -1</clus>
<clus scale="   91.200">  7  8 -1 -1</clus>
<clus scale="   92.320">  1  5  2 -1</clus>
<clus scale="   29.789">  2  5  1 -1</clus>
</clustering>
</event>
<event>
 9    2  0.1723348E-004  0.1161573E+03  0.7546771E-02  0.1258801E+00
          2   -1    0    0  502    0 -0.00000000000E+00  0.00000000000E+00  0.39431294523E+03  0.39431294523E+03  0.00000000000E+00 0. -1.
         21   -1    0    0  501  502  0.00000000000E+00 -0.00000000000E+00 -0.96755087915E+02  0.96755087915E+02  0.00000000000E+00 0.  1.
         24    2    1    2    0    0  0.57130374283E+02  0.22477592921E+02  0.22839292289E+03  0.25002913156E+03  0.81130250539E+02 0.  0.
         23    2    1    2    0    0 -0.39355223163E+02  0.38379514764E+01  0.13096078806E+03  0.17156090939E+03  0.10353189924E+03 0.  0.
        -13    1    3    3    0    0  0.20190480328E+02  0.27622002392E+02  0.22880912084E+02  0.41160255706E+02  0.00000000000E+00 0.  1.
         14    1    3    3    0    0  0.36939893954E+02 -0.51444094714E+01  0.20551201081E+03  0.20886887585E+03  0.00000000000E+00 0. -1.
        -11    1    4    4    0    0 -0.71879457955E+02 -0.11768966525E+02  0.71848508922E+02  0.10231018172E+03  0.00000000000E+00 0.  1.
         11    1    4    4    0    0  0.32524234792E+02  0.15606918001E+02  0.59112279136E+02  0.69250727671E+02  0.00000000000E+00 0. -1.
          1    1    1    2  501    0 -0.17775151120E+02 -0.26315544397E+02 -0.61795853629E+02  0.69477992199E+02  0.00000000000E+00 0. -1.
<scales pt_clust_5="13000.00000" pt_clust_6="13000.00000" pt_clust_7="13000.00000" pt_clust_8="13000.00000" pt_clust_9="31.75632"></scales>
<clustering>
<clus scale="   31.756">  2  9  1 -1</clus>
<clus scale="   81.130">  5  6 -1 -1</clus>
<clus scale="   96.725">  1  5  2 -1</clus>
<clus scale="  103.532">  7  8 -1 -1</clus>
<clus scale="   31.756">  2  5  1 -1</clus>
</clustering>
</event>
<event>
 9    2  0.1723348E-004  0.9570046E+02  0.7546771E-02  0.1299154E+00
          2   -1    0    0  502    0 -0.00000000000E+00  0.00000000000E+00  0.51727378307E+03  0.51727378307E+03  0.00000000000E+00 0. -1.
         21   -1    0    0  501  502  0.00000000000E+00 -0.00000000000E+00 -0.19786707487E+03  0.19786707487E+03  0.00000000000E+00 0.  1.
         24    2    1    2    0    0 -0.84015831146E+01 -0.16410944499E+02  0.41335388636E+03  0.42101304791E+03  0.77785894893E+02 0.  0.
         23    2    1    2    0    0 -0.38135229146E+02  0.78820462639E+02 -0.15061335550E+03  0.19783825450E+03  0.93747698942E+02 0.  0.
        -11    1    3    3    0    0 -0.40668062019E+02  0.46380107416E+01  0.23598297986E+03  0.23950651181E+03  0.00000000000E+00 0.  1.
         12    1    3    3    0    0  0.32266478905E+02 -0.21048955240E+02  0.17737090649E+03  0.18150653610E+03  0.00000000000E+00 0. -1.
        -11    1    4    4    0    0  0.24523614062E+02  0.49735761457E+02 -0.43943901880E+02  0.70753940715E+02  0.00000000000E+00 0.  1.
         11    1    4    4    0    0 -0.62658843208E+02  0.29084701182E+02 -0.10666945362E+03  0.12708431379E+03  0.00000000000E+00 0. -1.
          1    1    1    2  501    0  0.46536812261E+02 -0.62409518140E+02  0.56666177337E+02  0.96289555528E+02  0.00000000000E+00 0. -1.
<scales pt_clust_5="13000.00000" pt_clust_6="13000.00000" pt_clust_7="13000.00000" pt_clust_8="13000.00000" pt_clust_9="77.85004"></scales>
<clustering>
<clus scale="   77.786">  5  6 -1 -1</clus>
<clus scale="   77.850">  2  9  1 -1</clus>
<clus scale="   80.129">  1  5  2 -1</clus>
<clus scale="   93.748">  7  8 -1 -1</clus>
<clus scale="   77.850">  2  5  1 -1</clus>
</clustering>
</event>
<event>
 9    2  0.1723348E-004  0.2873405E+03  0.7546771E-02  0.1155090E+00
          2   -1    0    0  502    0 -0.00000000000E+00  0.00000000000E+00  0.61099147468E+03  0.61099147468E+03  0.00000000000E+00 0. -1.
         21   -1    0    0  501  502  0.00000000000E+00 -0.00000000000E+00 -0.29863169581E+03  0.29863169581E+03  0.00000000000E+00 0.  1.
         24    2    1    2    0    0 -0.57937390129E+01  0.25030479422E+02  0.11065406075E+03  0.12561001000E+03  0.53604674618E+02 0.  0.
         23    2    1    2    0    0 -0.24771836372E+03 -0.11253733552E+03 -0.16321412537E+03  0.33114195554E+03  0.94800339568E+02 0.  0.
        -13    1    3    3    0    0  0.34913204897E+01  0.30245848924E+02  0.25278339381E+02  0.39572656441E+02  0.00000000000E+00 0.  1.
         14    1    3    3    0    0 -0.92850595026E+01 -0.52153695026E+01  0.85375721364E+02  0.86037353559E+02  0.00000000000E+00 0. -1.
        -11    1    4    4    0    0 -0.17057625109E+03 -0.11620072955E+03 -0.91561049974E+02  0.22579258814E+03  0.00000000000E+00 0. -1.
         11    1    4    4    0    0 -0.77142112633E+02  0.36633940295E+01 -0.71653075401E+02  0.10534936740E+03  0.00000000000E+00 0.  1.
          1    1    1    2  501    0  0.25351210274E+03  0.87506856103E+02  0.36491984350E+03  0.45287120496E+03  0.00000000000E+00 0. -1.
<scales pt_clust_5="13000.00000" pt_clust_6="13000.00000" pt_clust_7="13000.00000" pt_clust_8="13000.00000" pt_clust_9="271.25175"></scales>
<clustering>
<clus scale="   53.605">  5  6 -1 -1</clus>
<clus scale="   59.444">  1  5  2 -1</clus>
<clus scale="   94.800">  7  8 -1 -1</clus>
<clus scale="  271.252">  2  9  1 -1</clus>
<clus scale="  271.252">  2  5  1 -1</clus>
</clustering>
</event>
<event>
 9    2  0.1723348E-004  0.1135867E+03  0.7546771E-02  0.1258009E+00
         21   -1    0    0  501  502  0.00000000000E+00  0.00000000000E+00  0.88521615241E+03  0.88521615241E+03  0.00000000000E+00 0. -1.
          2   -1    0    0  502    0 -0.00000000000E+00 -0.00000000000E+00 -0.13490230162E+03  0.13490230162E+03  0.00000000000E+00 0. -1.
         23    2    1    2    0    0  0.51633350769E+02  0.17751016950E+02 -0.61436904783E+02  0.12298532580E+03  0.91486586884E+02 0.  0.
         24    2    1    2    0    0 -0.11036665151E+03 -0.82916553795E+02  0.12016788776E+03  0.20000831095E+03  0.80666291236E+02 0.  0.
        -13    1    4    4    0    0 -0.87807872673E+02 -0.69188442458E+02  0.13033562836E+03  0.17171091722E+03  0.00000000000E+00 0.  1.
         14    1    4    4    0    0 -0.22558778835E+02 -0.13728111338E+02 -0.10167740591E+02  0.28297393734E+02  0.00000000000E+00 0. -1.
        -13    1    3    3    0    0 -0.20707784271E+02 -0.13318315787E+02 -0.27211283463E+01  0.24770837779E+02  0.00000000000E+00 0.  1.
         13    1    3    3    0    0  0.72341135040E+02  0.31069332737E+02 -0.58715776436E+02  0.98214488025E+02  0.00000000000E+00 0. -1.
          1    1    1    2  501    0  0.58733300739E+02  0.65165536846E+02  0.69158286781E+03  0.69712481727E+03  0.00000000000E+00 0. -1.
<scales pt_clust_5="13000.00000" pt_clust_6="13000.00000" pt_clust_7="13000.00000" pt_clust_8="13000.00000" pt_clust_9="87.72769"></scales>
<clustering>
<clus scale="   80.666">  5  6 -1 -1</clus>
<clus scale="   87.728">  1  9  2 -1</clus>
<clus scale="   91.487">  7  8 -1 -1</clus>
<clus scale="  105.068">  1  5  2 -1</clus>
<clus scale="   87.728">  1  5  2 -1</clus>
</clustering>
</event>
<event>
 9    2  0.1723348E-004  0.1052670E+03  0.7546771E-02  0.1274437E+00
         21   -1    0    0  501  502  0.00000000000E+00  0.00000000000E+00  0.19118498420E+03  0.19118498420E+03  0.00000000000E+00 0. -1.
          4   -1    0    0  502    0 -0.00000000000E+00 -0.00000000000E+00 -0.15806316090E+03  0.15806316090E+03  0.00000000000E+00 0. -1.
         24    2    1    2    0    0  0.35000410852E+02  0.16587437262E+02 -0.90305908570E+02  0.14092439402E+03  0.10101661186E+03 0.  0.
         23    2    1    2    0    0  0.16619593795E+02 -0.32088178947E+02  0.33834199952E+02  0.10376802990E+03  0.91198622885E+02 0.  0.
        -11    1    3    3    0    0  0.12681707404E+02 -0.24872870979E+02  0.10368948981E+02  0.29782553893E+02  0.00000000000E+00 0.  1.
         12    1    3    3    0    0  0.22318703447E+02  0.41460308242E+02 -0.10067485755E+03  0.11114184012E+03  0.00000000000E+00 0. -1.
        -13    1    4    4    0    0  0.45774960316E+02 -0.20339884645E+02  0.47921828658E+02  0.69322143369E+02  0.00000000000E+00 0. -1.
         13    1    4    4    0    0 -0.29155366522E+02 -0.11748294302E+02 -0.14087628707E+02  0.34445886526E+02  0.00000000000E+00 0.  1.
          3    1    1    2  501    0 -0.51620004646E+02  0.15500741685E+02  0.89593531911E+02  0.10455572119E+03  0.00000000000E+00 0. -1.
<scales pt_clust_5="13000.00000" pt_clust_6="13000.00000" pt_clust_7="13000.00000" pt_clust_8="13000.00000" pt_clust_9="53.89710"></scales>
<clustering>
<clus scale="   53.897">  1  9  2 -1</clus>
<clus scale="   91.199">  7  8 -1 -1</clus>
<clus scale="   95.885">  1  7  2 -1</clus>
<clus scale="  101.017">  5  6 -1 -1</clus>
<clus scale="   53.897">  1  5  2 -1</clus>
</clustering>
</event>
<event>
 9    2  0.1723348E-004  0.2813187E+03  0.7546771E-02  0.1095589E+00
          2   -1    0    0  502    0 -0.00000000000E+00  0.00000000000E+00  0.47902448682E+03  0.47902448682E+03  0.00000000000E+00 0. -1.
         21   -1    0    0  501  502  0.00000000000E+00 -0.00000000000E+00 -0.27254264203E+03  0.27254264203E+03  0.00000000000E+00 0. -1.
         23    2    1    2    0    0 -0.23501964148E+03  0.11075182630E+03  0.13658813670E+03  0.30758959876E+03  0.91950221707E+02 0.  0.
         24    2    1    2    0    0  0.17953153762E+03 -0.23300530988E+03  0.43737300288E+02  0.30719667767E+03  0.77031161897E+02 0.  0.
        -13    1    4    4    0    0 -0.27922254871E+01 -0.23388704327E+02  0.14940257174E+02  0.27893355799E+02  0.00000000000E+00 0.  1.
         14    1    4    4    0    0  0.18232376310E+03 -0.20961660556E+03  0.28797043114E+02  0.27930332187E+03  0.00000000000E+00 0. -1.
        -11    1    3    3    0    0 -0.67421662964E+02  0.70305999289E+02  0.19947292416E+02  0.99430924001E+02  0.00000000000E+00 0.  1.
         11    1    3    3    0    0 -0.16759797851E+03  0.40445827013E+02  0.11664084428E+03  0.20815867476E+03  0.00000000000E+00 0. -1.
          1    1    1    2  501    0  0.55488103861E+02  0.12225348358E+03  0.26156407801E+02  0.13678085241E+03  0.00000000000E+00 0. -1.
<scales pt_clust_5="13000.00000" pt_clust_6="13000.00000" pt_clust_7="13000.00000" pt_clust_8="13000.00000" pt_clust_9="134.25663"></scales>
<clustering>
<clus scale="   77.031">  5  6 -1 -1</clus>
<clus scale="   91.950">  7  8 -1 -1</clus>
<clus scale="  134.257">  2  9  1 -1</clus>
<clus scale="  276.802">  2  5  1 -1</clus>
<clus scale="  134.257">  2  5  1 -1</clus>
</clustering>
</event>
<event>
 9    2  0.1723348E-004  0.1680273E+03  0.7546771E-02  0.1192326E+00
         -1   -1    0    0    0  501 -0.00000000000E+00  0.00000000000E+00  0.18151917245E+03  0.18151917245E+03  0.00000000000E+00 0.  1.
         21   -1    0    0  501  502  0.00000000000E+00 -0.00000000000E+00 -0.42311917545E+03  0.42311917545E+03  0.00000000000E+00 0.  1.
         23    2    1    2    0    0  0.12894334527E+02 -0.89492813443E+02 -0.12497483257E+03  0.17854284093E+03  0.89908896948E+02 0.  0.
         24    2    1    2    0    0  0.14473103834E+03  0.10623920061E+02 -0.17442253948E+03  0.24060535526E+03  0.80048570023E+02 0.  0.
        -13    1    4    4    0    0  0.13657673369E+03 -0.95221579679E+01 -0.17025868776E+03  0.21847630635E+03  0.00000000000E+00 0.  1.
         14    1    4    4    0    0  0.81543046515E+01  0.20146078029E+02 -0.41638517141E+01  0.22129048904E+02  0.00000000000E+00 0. -1.
        -11    1    3    3    0    0 -0.24322787117E+02 -0.17643851664E+02 -0.46721419397E+00  0.30051984357E+02  0.00000000000E+00 0. -1.
         11    1    3    3    0    0  0.37217121644E+02 -0.71848961779E+02 -0.12450761837E+03  0.14849085657E+03  0.00000000000E+00 0.  1.
         -2    1    1    2    0  502 -0.15762537287E+03  0.78868893382E+02  0.57797369045E+02  0.18549015172E+03  0.00000000000E+00 0.  1.
<scales pt_clust_5="13000.00000" pt_clust_6="13000.00000" pt_clust_7="13000.00000" pt_clust_8="13000.00000" pt_clust_9="147.73426"></scales>
<clustering>
<clus scale="   80.049">  5  6 -1 -1</clus>
<clus scale="   89.909">  7  8 -1 -1</clus>
<clus scale="  127.510">  1  7  2 -1</clus>
<clus scale="  147.734">  2  9  1 -1</clus>
<clus scale="  147.734">  2  5  1 -1</clus>
</clustering>
</event>
<event>
 9    2  0.1723348E-004  0.1848111E+03  0.7546771E-02  0.1167025E+00
         -3   -1    0    0    0  501 -0.00000000000E+00  0.00000000000E+00  0.45617306428E+03  0.45617306428E+03  0.00000000000E+00 0.  1.
         21   -1    0    0  501  502  0.00000000000E+00 -0.00000000000E+00 -0.12581543210E+03  0.12581543210E+03  0.00000000000E+00 0.  1.
         24    2    1    2    0    0 -0.66874915312E+02  0.13077258815E+03  0.15849464512E+03  0.22310526126E+03  0.55512890014E+02 0.  0.
         23    2    1    2    0    0  0.58593311446E+02 -0.18814310128E+03  0.49198143999E+02  0.22321221957E+03  0.92586364474E+02 0.  0.
        -13    1    3    3    0    0 -0.75975839978E+02  0.12351258511E+03  0.14236355033E+03  0.20321187811E+03  0.00000000000E+00 0.  1.
         14    1    3    3    0    0  0.91009246660E+01  0.72600030400E+01  0.16131094787E+02  0.19893383145E+02  0.00000000000E+00 0. -1.
        -13    1    4    4    0    0  0.70024936544E+02 -0.15642090134E+03  0.10235753536E+02  0.17168506273E+03  0.00000000000E+00 0.  1.
         13    1    4    4    0    0 -0.11431625098E+02 -0.31722199941E+02  0.38962390463E+02  0.51527156840E+02  0.00000000000E+00 0. -1.
         -4    1    1    2    0  502  0.82816038659E+01  0.57370513122E+02  0.12266484307E+03  0.13567101556E+03  0.00000000000E+00 0.  1.
<scales pt_clust_5="13000.00000" pt_clust_6="13000.00000" pt_clust_7="13000.00000" pt_clust_8="13000.00000" pt_clust_9="57.96520"></scales>
<clustering>
<clus scale="   55.513">  5  6 -1 -1</clus>
<clus scale="   57.965">  2  9  1 -1</clus>
<clus scale="   92.586">  7  8 -1 -1</clus>
<clus scale="  169.306">  1  5  2 -1</clus>
<clus scale="   57.965">  2  5  1 -1</clus>
</clustering>
</event>
<event>
 9    2  0.1723348E-004  0.1589654E+03  0.7546771E-02  0.1191380E+00
         21   -1    0    0  501  502  0.00000000000E+00  0.00000000000E+00  0.32681909321E+02  0.32681909321E+02  0.00000000000E+00 0. -1.
          2   -1    0    0  502    0 -0.00000000000E+00 -0.00000000000E+00 -0.12220656672E+04  0.12220656672E+04  0.00000000000E+00 0. -1.
         24    2    1    2    0    0  0.52563759085E+01 -0.14528894810E+03 -0.77340618663E+03  0.79103386794E+03  0.80255484380E+02 0.  0.
         23    2    1    2    0    0  0.30450917470E+02  0.99257382338E+02 -0.22058805020E+03  0.25982407966E+03  0.89834170318E+02 0.  0.
        -11    1    3    3    0    0  0.37228844695E+02 -0.94257835359E+02 -0.39125533351E+03  0.40416736930E+03  0.00000000000E+00 0.  1.
         12    1    3    3    0    0 -0.31972468786E+02 -0.51031112745E+02 -0.38215085312E+03  0.38686649864E+03  0.00000000000E+00 0. -1.
        -11    1    4    4    0    0  0.53108892910E+02  0.89199835390E+02 -0.13256296855E+03  0.16837489650E+03  0.00000000000E+00 0. -1.
         11    1    4    4    0    0 -0.22657975440E+02  0.10057546947E+02 -0.88025081647E+02  0.91449183160E+02  0.00000000000E+00 0.  1.
          1    1    1    2  501    0 -0.35707293378E+02  0.46031565766E+02 -0.19538952101E+03  0.20388962889E+03  0.00000000000E+00 0. -1.
<scales pt_clust_5="13000.00000" pt_clust_6="13000.00000" pt_clust_7="13000.00000" pt_clust_8="13000.00000" pt_clust_9="58.25735"></scales>
<clustering>
<clus scale="   58.257">  1  9  2 -1</clus>
<clus scale="   80.255">  5  6 -1 -1</clus>
<clus scale="   89.834">  7  8 -1 -1</clus>
<clus scale="  153.756">  2  5  1 -1</clus>
<clus scale="   58.257">  1  5  2 -1</clus>
</clustering>
</event>
<event>
 9    2  0.1723348E-004  0.1297148E+03  0.7546771E-02  0.1231057E+00
         -1   -1    0    0    0  501 -0.00000000000E+00  0.00000000000E+00  0.81757150381E+03  0.81757150381E+03  0.00000000000E+00 0.  1.
         21   -1    0    0  501  502  0.00000000000E+00 -0.00000000000E+00 -0.25292378222E+02  0.25292378222E+02  0.00000000000E+00 0.  1.
         23    2    1    2    0    0 -0.34176719721E+02 -0.67087877304E+02  0.44574584275E+03  0.46498066897E+03  0.10885235292E+03 0.  0.
         24    2    1    2    0    0  0.51082046758E+02  0.44510327394E+02  0.30469860984E+03  0.32742852342E+03  0.98882002222E+02 0.  0.
        -11    1    4    4    0    0  0.18103042762E+02 -0.14474834503E+02  0.10283736833E+02  0.25357370415E+02  0.00000000000E+00 0.  1.
         12    1    4    4    0    0  0.32979003996E+02  0.58985161896E+02  0.29441487301E+03  0.30207115300E+03  0.00000000000E+00 0. -1.
        -11    1    3    3    0    0  0.39627523417E+02 -0.29956834681E+02  0.17418125525E+03  0.18112664695E+03  0.00000000000E+00 0.  1.
         11    1    3    3    0    0 -0.73804243138E+02 -0.37131042623E+02  0.27156458750E+03  0.28385402202E+03  0.00000000000E+00 0. -1.
         -2    1    1    2    0  502 -0.16905327038E+02  0.22577549910E+02  0.41834672997E+02  0.50454689643E+02  0.00000000000E+00 0.  1.
<scales pt_clust_5="13000.00000" pt_clust_6="13000.00000" pt_clust_7="13000.00000" pt_clust_8="13000.00000" pt_clust_9="28.20524"></scales>
<clustering>
<clus scale="   28.205">  2  9  1 -1</clus>
<clus scale="   98.882">  5  6 -1 -1</clus>
<clus scale="  108.852">  7  8 -1 -1</clus>
<clus scale="  121.469">  2  5  1 -1</clus>
<clus scale="   28.205">  2  5  1 -1</clus>
</clustering>
</event>
<event>
 9    2  0.1723348E-004  0.1790059E+03  0.7546771E-02  0.1170036E+00
         21   -1    0    0  501  502  0.00000000000E+00  0.00000000000E+00  0.63719476283E+02  0.63719476283E+02  0.00000000000E+00 0. -1.
          2   -1    0    0  502    0 -0.00000000000E+00 -0.00000000000E+00 -0.10669768468E+04  0.10669768468E+04  0.00000000000E+00 0. -1.
         23    2    1    2    0    0  0.60565051099E+02 -0.13763046996E+03 -0.75803411018E+03  0.77807971028E+03  0.90454694076E+02 0.  0.
         24    2    1    2    0    0 -0.28315305691E+02  0.16943286766E+03 -0.24183886378E+03  0.30719753403E+03  0.79843820701E+02 0.  0.
        -13    1    4    4    0    0 -0.53001355900E+02  0.99972496268E+02 -0.12112938826E+03  0.16575877786E+03  0.00000000000E+00 0.  1.
         14    1    4    4    0    0  0.24686050209E+02  0.69460371391E+02 -0.12070947551E+03  0.14143875617E+03  0.00000000000E+00 0. -1.
        -11    1    3    3    0    0 -0.23176523720E+02 -0.38860699431E+02 -0.16654454584E+03  0.17258154873E+03  0.00000000000E+00 0.  1.
         11    1    3    3    0    0  0.83741574819E+02 -0.98769770530E+02 -0.59148956434E+03  0.60549816155E+03  0.00000000000E+00 0. -1.
          1    1    1    2  501    0 -0.32249745408E+02 -0.31802397698E+02 -0.33843965871E+01  0.45419078794E+02  0.00000000000E+00 0. -1.
<scales pt_clust_5="13000.00000" pt_clust_6="13000.00000" pt_clust_7="13000.00000" pt_clust_8="13000.00000" pt_clust_9="45.29281"></scales>
<clustering>
<clus scale="   45.293">  1  9  2 -1</clus>
<clus scale="   79.844">  5  6 -1 -1</clus>
<clus scale="   90.455">  7  8 -1 -1</clus>
<clus scale="  173.885">  1  5  2 -1</clus>
<clus scale="   45.293">  1  5  2 -1</clus>
</clustering>
</event>
<event>
 9    2  0.1723348E-004  0.3962408E+03  0.7546771E-02  0.1063306E+00
          2   -1    0    0  502    0 -0.00000000000E+00  0.00000000000E+00  0.87130790631E+03  0.87130790631E+03  0.00000000000E+00 0. -1.
         21   -1    0    0  501  502  0.00000000000E+00 -0.00000000000E+00 -0.49690504073E+03  0.49690504073E+03  0.00000000000E+00 0. -1.
         23    2    1    2    0    0 -0.19128500295E+03 -0.10938190870E+03 -0.71613769396E+02  0.24721495107E+03  0.86211053575E+02 0.  0.
         24    2    1    2    0    0  0.41514753299E+03 -0.19921384255E+03  0.55376446766E+03  0.72482206852E+03  0.81720965234E+02 0.  0.
        -11    1    4    4    0    0  0.17575141783E+03 -0.11682294319E+03  0.20833539637E+03  0.29654645219E+03  0.00000000000E+00 0.  1.
         12    1    4    4    0    0  0.23939611516E+03 -0.82390899357E+02  0.34542907129E+03  0.42827561633E+03  0.00000000000E+00 0. -1.
        -13    1    3    3    0    0 -0.11592830933E+03 -0.10535048266E+03 -0.70404611049E+02  0.17174081157E+03  0.00000000000E+00 0. -1.
         13    1    3    3    0    0 -0.75356693621E+02 -0.40314260439E+01 -0.12091583479E+01  0.75474139501E+02  0.00000000000E+00 0.  1.
          1    1    1    2  501    0 -0.22386253004E+03  0.30859575125E+03 -0.10774783268E+03  0.39617592745E+03  0.00000000000E+00 0. -1.
<scales pt_clust_5="13000.00000" pt_clust_6="13000.00000" pt_clust_7="13000.00000" pt_clust_8="13000.00000" pt_clust_9="387.72210"></scales>
<clustering>
<clus scale="   81.721">  5  6 -1 -1</clus>
<clus scale="   86.211">  7  8 -1 -1</clus>
<clus scale="  236.615">  1  7  2 -1</clus>
<clus scale="  387.722">  2  9  1 -1</clus>
<clus scale="  387.722">  2  5  1 -1</clus>
</clustering>
</event>
<event>
 9    2  0.1723348E-004  0.1634776E+03  0.7546771E-02  0.1186752E+00
         -1   -1    0    0    0  501 -0.00000000000E+00  0.00000000000E+00  0.55188322475E+02  0.55188322475E+02  0.00000000000E+00 0.  1.
         21   -1    0    0  501  502  0.00000000000E+00 -0.00000000000E+00 -0.56103013597E+03  0.56103013597E+03  0.00000000000E+00 0.  1.
         23    2    1    2    0    0 -0.13421007328E+03 -0.51194582463E+02 -0.19025819830E+03  0.25461965985E+03  0.89441378099E+02 0.  0.
         24    2    1    2    0    0  0.11400447701E+03  0.61108750732E+02 -0.24322492607E+03  0.28582059101E+03  0.76182316772E+02 0.  0.
        -13    1    4    4    0    0  0.68941279174E+02  0.74124092689E+02 -0.18662152906E+03  0.21230844590E+03  0.00000000000E+00 0.  1.
         14    1    4    4    0    0  0.45063197840E+02 -0.13015341958E+02 -0.56603397004E+02  0.73512145107E+02  0.00000000000E+00 0. -1.
        -13    1    3    3    0    0 -0.59999645643E+02 -0.68774794067E+02 -0.85655559176E+02  0.12516710668E+03  0.00000000000E+00 0. -1.
         13    1    3    3    0    0 -0.74210427640E+02  0.17580211603E+02 -0.10460263912E+03  0.12945255317E+03  0.00000000000E+00 0.  1.
         -2    1    1    2    0  502  0.20205596269E+02 -0.99141682681E+01 -0.72358689123E+02  0.75778207584E+02  0.00000000000E+00 0.  1.
<scales pt_clust_5="13000.00000" pt_clust_6="13000.00000" pt_clust_7="13000.00000" pt_clust_8="13000.00000" pt_clust_9="22.50682"></scales>
<clustering>
<clus scale="   22.507">  2  9  1 -1</clus>
<clus scale="   76.182">  5  6 -1 -1</clus>
<clus scale="   89.441">  7  8 -1 -1</clus>
<clus scale="  156.617">  2  5  1 -1</clus>
<clus scale="   22.507">  2  5  1 -1</clus>
</clustering>
</event>
<event>
 9    2  0.1723348E-004  0.1838579E+03  0.7546771E-02  0.1165630E+00
         -1   -1    0    0    0  501 -0.00000000000E+00  0.00000000000E+00  0.93399253868E+03  0.93399253868E+03  0.00000000000E+00 0.  1.
         21   -1    0    0  501  502  0.00000000000E+00 -0.00000000000E+00 -0.11805166703E+03  0.11805166703E+03  0.00000000000E+00 0.  1.
         23    2    1    2    0    0 -0.13776825251E+03 -0.67203490062E+02  0.19046232896E+03  0.26039254564E+03  0.89621306600E+02 0.  0.
         24    2    1    2    0    0 -0.58451313618E+02  0.15427688268E+03  0.71191453612E+02  0.19724601496E+03  0.81362489857E+02 0.  0.
        -13    1    4    4    0    0 -0.63076117911E+02  0.16251348346E+03  0.65540141250E+02  0.18623839312E+03  0.00000000000E+00 0.  1.
         14    1    4    4    0    0  0.46248042926E+01 -0.82366007779E+01  0.56513123618E+01  0.11007621838E+02  0.00000000000E+00 0. -1.
        -11    1    3    3    0    0 -0.69669447713E+02 -0.72651985181E+02  0.15106836041E+03  0.18153179449E+03  0.00000000000E+00 0.  1.
         11    1    3    3    0    0 -0.68098804794E+02  0.54484951186E+01  0.39393968556E+02  0.78860751151E+02  0.00000000000E+00 0. -1.
         -2    1    1    2    0  502  0.19621956613E+03 -0.87073392617E+02  0.55428708907E+03  0.59440564511E+03  0.00000000000E+00 0.  1.
<scales pt_clust_5="13000.00000" pt_clust_6="13000.00000" pt_clust_7="13000.00000" pt_clust_8="13000.00000" pt_clust_9="164.87544"></scales>
<clustering>
<clus scale="   81.362">  5  6 -1 -1</clus>
<clus scale="   89.621">  7  8 -1 -1</clus>
<clus scale="  177.562">  1  7  2 -1</clus>
<clus scale="  164.875">  2  9  1 -1</clus>
<clus scale="  164.875">  2  5  1 -1</clus>
</clustering>
</event>
<event>
 9    2  0.1723348E-004  0.2545595E+03  0.7546771E-02  0.1110997E+00
          2   -1    0    0  502    0 -0.00000000000E+00  0.00000000000E+00  0.58089480334E+03  0.58089480334E+03  0.00000000000E+00 0. -1.
         21   -1    0    0  501  502  0.00000000000E+00 -0.00000000000E+00 -0.19606878524E+03  0.19606878524E+03  0.00000000000E+00 0. -1.
         23    2    1    2    0    0 -0.23355110464E+03  0.70518689691E+02  0.13789006948E+03  0.29523571450E+03  0.92905606806E+02 0.  0.
         24    2    1    2    0    0  0.16253270818E+03 -0.19043643827E+03  0.10817110868E+03  0.28505667674E+03  0.82905982630E+02 0.  0.
        -13    1    4    4    0    0  0.10499897346E+03 -0.65157756592E+02  0.32410703796E+02  0.12775277450E+03  0.00000000000E+00 0.  1.
         14    1    4    4    0    0  0.57533734715E+02 -0.12527868168E+03  0.75760404884E+02  0.15730390224E+03  0.00000000000E+00 0. -1.
        -13    1    3    3    0    0 -0.30606605609E+02 -0.18382185676E+02  0.38175773226E+02  0.52269099079E+02  0.00000000000E+00 0.  1.
         13    1    3    3    0    0 -0.20294449903E+03  0.88900875367E+02  0.99714296258E+02  0.24296661542E+03  0.00000000000E+00 0. -1.
          1    1    1    2  501    0  0.71018396465E+02  0.11991774858E+03  0.13876483994E+03  0.19667119734E+03  0.00000000000E+00 0. -1.
<scales pt_clust_5="13000.00000" pt_clust_6="13000.00000" pt_clust_7="13000.00000" pt_clust_8="13000.00000" pt_clust_9="139.36965"></scales>
<clustering>
<clus scale="   82.906">  5  6 -1 -1</clus>
<clus scale="   92.906">  7  8 -1 -1</clus>
<clus scale="  139.370">  2  9  1 -1</clus>
<clus scale="  251.083">  2  5  1 -1</clus>
<clus scale="  139.370">  2  5  1 -1</clus>
</clustering>
</event>
<event>
 9    2  0.4270875E-004  0.1378566E+03  0.7546771E-02  0.1218826E+00
         21   -1    0    0  501  502  0.00000000000E+00  0.00000000000E+00  0.15669498979E+03  0.15669498979E+03  0.00000000000E+00 0. -1.
         -3   -1    0    0    0  501 -0.00000000000E+00 -0.00000000000E+00 -0.44693850104E+03  0.44693850104E+03  0.00000000000E+00 0.  1.
         23    2    1    2    0    0 -0.50049758519E+02  0.89034633273E+02 -0.22360119510E+03  0.26208287972E+03  0.90872422345E+02 0.  0.
         24    2    1    2    0    0  0.82188368467E+02 -0.84472968493E+02  0.98735007059E+02  0.17301765271E+03  0.79346683696E+02 0.  0.
        -11    1    4    4    0    0 -0.82696315866E+01 -0.26082343428E+02  0.64706172814E+00  0.27369584106E+02  0.00000000000E+00 0.  1.
         12    1    4    4    0    0  0.90458000054E+02 -0.58390625065E+02  0.98087945331E+02  0.14564806861E+03  0.00000000000E+00 0. -1.
        -11    1    3    3    0    0  0.23130612386E+02  0.46556043055E+01 -0.26079157815E+02  0.35168485227E+02  0.00000000000E+00 0. -1.
         11    1    3    3    0    0 -0.73180370905E+02  0.84379028967E+02 -0.19752203729E+03  0.22691439450E+03  0.00000000000E+00 0.  1.
         -4    1    1    2    0  502 -0.32138609948E+02 -0.45616647791E+01 -0.16537732320E+03  0.16853295839E+03  0.00000000000E+00 0.  1.
<scales pt_clust_5="13000.00000" pt_clust_6="13000.00000" pt_clust_7="13000.00000" pt_clust_8="13000.00000" pt_clust_9="32.46075"></scales>
<clustering>
<clus scale="   32.461">  1  9  2 -1</clus>
<clus scale="   79.347">  5  6 -1 -1</clus>
<clus scale="   90.872">  7  8 -1 -1</clus>
<clus scale="  130.547">  1  5  2 -1</clus>
<clus scale="   32.461">  1  5  2 -1</clus>
</clustering>
</event>
<event>
 9    2  0.1723348E-004  0.1575534E+03  0.7546771E-02  0.1215662E+00
          2   -1    0    0  502    0 -0.00000000000E+00  0.00000000000E+00  0.85169902532E+03  0.85169902532E+03  0.00000000000E+00 0. -1.
         21   -1    0    0  501  502  0.00000000000E+00 -0.00000000000E+00 -0.85381255826E+02  0.85381255826E+02  0.00000000000E+00 0.  1.
         24    2    1    2    0    0 -0.27726691712E+02 -0.35457283853E+02  0.14258142388E+03  0.17049743629E+03  0.81938543652E+02 0.  0.
         23    2    1    2    0    0  0.15185222366E+03  0.45856066447E+02  0.61487466347E+03  0.64170766009E+03  0.92498608552E+02 0.  0.
        -11    1    3    3    0    0 -0.18643662628E+02  0.24105410235E+02  0.29755694694E+02  0.42591763588E+02  0.00000000000E+00 0.  1.
         12    1    3    3    0    0 -0.90830290834E+01 -0.59562694088E+02  0.11282572918E+03  0.12790567270E+03  0.00000000000E+00 0. -1.
        -13    1    4    4    0    0  0.35880482354E+02  0.51178832791E+02  0.14885274623E+03  0.16144293728E+03  0.00000000000E+00 0. -1.
         13    1    4    4    0    0  0.11597174130E+03 -0.53227663443E+01  0.46602191724E+03  0.48026472280E+03  0.00000000000E+00 0.  1.
          1    1    1    2  501    0 -0.12412553194E+03 -0.10398782594E+02  0.88616821511E+01  0.12487518477E+03  0.00000000000E+00 0. -1.
<scales pt_clust_5="13000.00000" pt_clust_6="13000.00000" pt_clust_7="13000.00000" pt_clust_8="13000.00000" pt_clust_9="127.54241"></scales>
<clustering>
<clus scale="   81.939">  5  6 -1 -1</clus>
<clus scale="   92.499">  7  8 -1 -1</clus>
<clus scale="   93.488">  1  5  2 -1</clus>
<clus scale="  127.542">  2  9  1 -1</clus>
<clus scale="  127.542">  2  5  1 -1</clus>
</clustering>
</event>
<event>
 9    2  0.1723348E-004  0.1155003E+03  0.7546771E-02  0.1252979E+00
          2   -1    0    0  502    0 -0.00000000000E+00  0.00000000000E+00  0.27277338140E+03  0.27277338140E+03  0.00000000000E+00 0. -1.
         21   -1    0    0  501  502  0.00000000000E+00 -0.00000000000E+00 -0.25389311052E+03  0.25389311052E+03  0.00000000000E+00 0.  1.
         23    2    1    2    0    0 -0.26845167967E+02  0.61972418060E+02  0.23246798227E+03  0.25924590060E+03  0.92767615863E+02 0.  0.
         24    2    1    2    0    0  0.27474821113E+02 -0.86310955232E+02 -0.20752481890E+03  0.24233036374E+03  0.86330805287E+02 0.  0.
        -13    1    4    4    0    0 -0.28741201220E+01 -0.71059175496E+02 -0.19244944924E+03  0.20516933860E+03  0.00000000000E+00 0.  1.
         14    1    4    4    0    0  0.30348941235E+02 -0.15251779736E+02 -0.15075369668E+02  0.37161025145E+02  0.00000000000E+00 0. -1.
        -11    1    3    3    0    0 -0.34221863095E+02 -0.57228675377E+01  0.30813913705E+02  0.46404573098E+02  0.00000000000E+00 0. -1.
         11    1    3    3    0    0  0.73766951287E+01  0.67695285598E+02  0.20165406857E+03  0.21284132750E+03  0.00000000000E+00 0.  1.
          1    1    1    2  501    0 -0.62965314627E+00  0.24338537172E+02 -0.60628924824E+01  0.25090227580E+02  0.00000000000E+00 0. -1.
<scales pt_clust_5="13000.00000" pt_clust_6="13000.00000" pt_clust_7="13000.00000" pt_clust_8="13000.00000" pt_clust_9="24.34668"></scales>
<clustering>
<clus scale="   24.347">  2  9  1 -1</clus>
<clus scale="   86.331">  5  6 -1 -1</clus>
<clus scale="   92.768">  7  8 -1 -1</clus>
<clus scale="  110.397">  2  5  1 -1</clus>
<clus scale="   24.347">  2  5  1 -1</clus>
</clustering>
</event>
<event>
 9    2  0.1723348E-004  0.9576590E+02  0.7546771E-02  0.1297184E+00
          2   -1    0    0  502    0 -0.00000000000E+00  0.00000000000E+00  0.36839770516E+03  0.36839770516E+03  0.00000000000E+00 0. -1.
         21   -1    0    0  501  502  0.00000000000E+00 -0.00000000000E+00 -0.36897508349E+02  0.36897508349E+02  0.00000000000E+00 0. -1.
         24    2    1    2    0    0 -0.88203998215E+01 -0.23908823652E+02  0.21472192257E+03  0.23065306198E+03  0.80286360395E+02 0.  0.
         23    2    1    2    0    0  0.16509774970E+02 -0.18170595768E+01  0.61328056435E+02  0.11303310826E+03  0.93485178943E+02 0.  0.
        -13    1    3    3    0    0  0.11910235477E+02  0.24288210743E+02  0.11305651323E+03  0.11624777879E+03  0.00000000000E+00 0.  1.
         14    1    3    3    0    0 -0.20730635298E+02 -0.48197034395E+02  0.10166540934E+03  0.11440528319E+03  0.00000000000E+00 0. -1.
        -11    1    4    4    0    0  0.30718277698E+02 -0.41244979287E+02  0.23367626877E+02  0.56487227645E+02  0.00000000000E+00 0. -1.
         11    1    4    4    0    0 -0.14208502728E+02  0.39427919710E+02  0.37960429558E+02  0.56545880617E+02  0.00000000000E+00 0.  1.
          1    1    1    2  501    0 -0.76893751483E+01  0.25725883229E+02  0.55450217803E+02  0.61609043269E+02  0.00000000000E+00 0. -1.
<scales pt_clust_5="13000.00000" pt_clust_6="13000.00000" pt_clust_7="13000.00000" pt_clust_8="13000.00000" pt_clust_9="26.85048"></scales>
<clustering>
<clus scale="   26.850">  2  9  1 -1</clus>
<clus scale="   80.286">  5  6 -1 -1</clus>
<clus scale="   82.931">  1  5  2 -1</clus>
<clus scale="   93.485">  7  8 -1 -1</clus>
<clus scale="   26.850">  2  5  1 -1</clus>
</clustering>
</event>
<event>
 9    2  0.1723348E-004  0.1294647E+03  0.7546771E-02  0.1229230E+00
         21   -1    0    0  501  502  0.00000000000E+00  0.00000000000E+00  0.20440453906E+03  0.20440453906E+03  0.00000000000E+00 0. -1.
         -3   -1    0    0    0  501 -0.00000000000E+00 -0.00000000000E+00 -0.11460370631E+03  0.11460370631E+03  0.00000000000E+00 0.  1.
         23    2    1    2    0    0  0.49001158007E+02 -0.79703618354E+02  0.41844190065E+02  0.13437101400E+03  0.86895643707E+02 0.  0.
         24    2    1    2    0    0 -0.19138797866E+02  0.10048914353E+03  0.62066785479E+02  0.14561294740E+03  0.82984836206E+02 0.  0.
        -13    1    4    4    0    0  0.28626487066E+02  0.36182255076E+02  0.32847569432E+01  0.46253875214E+02  0.00000000000E+00 0.  1.
         14    1    4    4    0    0 -0.47765284932E+02  0.64306888455E+02  0.58782028535E+02  0.99359072188E+02  0.00000000000E+00 0. -1.
        -11    1    3    3    0    0  0.57053595472E+02 -0.35940862101E+02  0.56025747602E+02  0.87668367837E+02  0.00000000000E+00 0. -1.
         11    1    3    3    0    0 -0.80524374648E+01 -0.43762756253E+02 -0.14181557538E+02  0.46702646158E+02  0.00000000000E+00 0.  1.
         -4    1    1    2    0  502 -0.29862360141E+02 -0.20785525177E+02 -0.14110142795E+02  0.39024283975E+02  0.00000000000E+00 0.  1.
<scales pt_clust_5="13000.00000" pt_clust_6="13000.00000" pt_clust_7="13000.00000" pt_clust_8="13000.00000" pt_clust_9="36.38406"></scales>
<clustering>
<clus scale="   36.384">  1  9  2 -1</clus>
<clus scale="   82.985">  5  6 -1 -1</clus>
<clus scale="   86.896">  7  8 -1 -1</clus>
<clus scale="  126.873">  1  5  2 -1</clus>
<clus scale="   36.384">  1  5  2 -1</clus>
</clustering>
</event>
<event>
 9    2  0.1723348E-004  0.1097175E+03  0.7546771E-02  0.1265592E+00
         21   -1    0    0  501  502  0.00000000000E+00  0.00000000000E+00  0.13858082066E+02  0.13858082066E+02  0.00000000000E+00 0. -1.
          2   -1    0    0  502    0 -0.00000000000E+00 -0.00000000000E+00 -0.18208245538E+04  0.18208245538E+04  0.00000000000E+00 0. -1.
         24    2    1    2    0    0 -0.68346590796E+02 -0.55796942328E+02 -0.10522972882E+04  0.10590261430E+04  0.80138839450E+02 0.  0.
         23    2    1    2    0    0  0.21031987002E+02 -0.12739394104E+02 -0.35591933271E+03  0.36830241508E+03  0.91451959622E+02 0.  0.
        -13    1    3    3    0    0 -0.19264908862E+02 -0.49470773864E+02 -0.27028625244E+03  0.27545081673E+03  0.00000000000E+00 0.  1.
         14    1    3    3    0    0 -0.49081681933E+02 -0.63261684646E+01 -0.78201103572E+03  0.78357532624E+03  0.00000000000E+00 0. -1.
        -11    1    4    4    0    0  0.34953943970E+02 -0.44289191307E+02 -0.16732923654E+03  0.17658534500E+03  0.00000000000E+00 0. -1.
         11    1    4    4    0    0 -0.13921956968E+02  0.31549797203E+02 -0.18859009617E+03  0.19171707009E+03  0.00000000000E+00 0.  1.
          1    1    1    2  501    0  0.47314603794E+02  0.68536336433E+02 -0.39874985085E+03  0.40735407780E+03  0.00000000000E+00 0. -1.
<scales pt_clust_5="13000.00000" pt_clust_6="13000.00000" pt_clust_7="13000.00000" pt_clust_8="13000.00000" pt_clust_9="83.28206"></scales>
<clustering>
<clus scale="   80.139">  5  6 -1 -1</clus>
<clus scale="   83.282">  1  9  2 -1</clus>
<clus scale="   91.452">  7  8 -1 -1</clus>
<clus scale="  100.482">  2  5  1 -1</clus>
<clus scale="   83.282">  1  5  2 -1</clus>
</clustering>
</event>
<event>
 9    2  0.1723348E-004  0.1276707E+03  0.7546771E-02  0.1234421E+00
          2   -1    0    0  502    0 -0.00000000000E+00  0.00000000000E+00  0.65468896905E+03  0.65468896905E+03  0.00000000000E+00 0. -1.
         21   -1    0    0  501  502  0.00000000000E+00 -0.00000000000E+00 -0.26705103625E+03  0.26705103625E+03  0.00000000000E+00 0. -1.
         24    2    1    2    0    0  0.26245102471E+02 -0.89278780257E+02  0.53494740956E+03  0.54901773228E+03  0.81192569569E+02 0.  0.
         23    2    1    2    0    0 -0.55024523042E+02  0.43748666693E+02  0.78267658887E+02  0.14080355790E+03  0.93585103074E+02 0.  0.
        -11    1    3    3    0    0  0.17617117261E+02  0.11554206534E+02  0.66258212390E+02  0.69527068242E+02  0.00000000000E+00 0.  1.
         12    1    3    3    0    0  0.86279852104E+01 -0.10083298679E+03  0.46868919717E+03  0.47949066404E+03  0.00000000000E+00 0. -1.
        -11    1    4    4    0    0 -0.66255934154E+02 -0.19438221091E+01  0.28016246883E+02  0.71962054893E+02  0.00000000000E+00 0. -1.
         11    1    4    4    0    0  0.11231411111E+02  0.45692488802E+02  0.50251412005E+02  0.68841503012E+02  0.00000000000E+00 0.  1.
          1    1    1    2  501    0  0.28779420571E+02  0.45530113564E+02 -0.22557713565E+03  0.23191871511E+03  0.00000000000E+00 0. -1.
<scales pt_clust_5="13000.00000" pt_clust_6="13000.00000" pt_clust_7="13000.00000" pt_clust_8="13000.00000" pt_clust_9="53.86322"></scales>
<clustering>
<clus scale="   53.863">  2  9  1 -1</clus>
<clus scale="   81.193">  5  6 -1 -1</clus>
<clus scale="   93.585">  7  8 -1 -1</clus>
<clus scale="  118.886">  1  5  2 -1</clus>
<clus scale="   53.863">  2  5  1 -1</clus>
</clustering>
</event>
<event>
 9    2  0.1723348E-004  0.1524195E+03  0.7546771E-02  0.1220536E+00
         21   -1    0    0  501  502  0.00000000000E+00  0.00000000000E+00  0.10547975427E+04  0.10547975427E+04  0.00000000000E+00 0. -1.
          2   -1    0    0  502    0 -0.00000000000E+00 -0.00000000000E+00 -0.23362115333E+03  0.23362115333E+03  0.00000000000E+00 0. -1.
         23    2    1    2    0    0 -0.48127880006E+01  0.33657398584E+02  0.26756024587E+03  0.28332179462E+03  0.86756963588E+02 0.  0.
         24    2    1    2    0    0  0.10439930024E+03 -0.11475949008E+03 -0.18540713381E+03  0.25499662340E+03  0.81108065113E+02 0.  0.
        -13    1    4    4    0    0  0.62714059995E+02 -0.12517445678E+02 -0.57217796125E+02  0.85811514150E+02  0.00000000000E+00 0.  1.
         14    1    4    4    0    0  0.41685240248E+02 -0.10224204440E+03 -0.12818933768E+03  0.16918510925E+03  0.00000000000E+00 0. -1.
        -11    1    3    3    0    0 -0.39173530016E+02 -0.57583371388E+01  0.92476019252E+02  0.10059591462E+03  0.00000000000E+00 0. -1.
         11    1    3    3    0    0  0.34360742016E+02  0.39415735723E+02  0.17508422662E+03  0.18272588001E+03  0.00000000000E+00 0.  1.
          1    1    1    2  501    0 -0.99586512243E+02  0.81102091495E+02  0.73902327726E+03  0.75010027796E+03  0.00000000000E+00 0. -1.
<scales pt_clust_5="13000.00000" pt_clust_6="13000.00000" pt_clust_7="13000.00000" pt_clust_8="13000.00000" pt_clust_9="129.04721"></scales>
<clustering>
<clus scale="   81.108">  5  6 -1 -1</clus>
<clus scale="   86.757">  7  8 -1 -1</clus>
<clus scale="   93.181">  2  7  1 -1</clus>
<clus scale="  129.047">  1  9  2 -1</clus>
<clus scale="  129.047">  1  5  2 -1</clus>
</clustering>
</event>
<event>
 9    2  0.2085221E-004  0.1206498E+03  0.7546771E-02  0.1245662E+00
          2   -1    0    0  502    0 -0.00000000000E+00  0.00000000000E+00  0.12815449491E+04  0.12815449491E+04  0.00000000000E+00 0. -1.
         21   -1    0    0  501  502  0.00000000000E+00 -0.00000000000E+00 -0.90608923632E+02  0.90608923632E+02  0.00000000000E+00 0. -1.
         24    2    1    2    0    0 -0.65357602932E+02 -0.21580053446E+02  0.12258219642E+04  0.12318186305E+04  0.10000167793E+03 0.  0.
         23    2    1    2    0    0  0.39038681405E+02  0.22566049380E+02 -0.48087912985E+01  0.10035659010E+03  0.89526953889E+02 0.  0.
        -13    1    3    3    0    0  0.36185229914E+01 -0.27929006861E+02  0.10062749799E+03  0.10449409784E+03  0.00000000000E+00 0.  1.
         14    1    3    3    0    0 -0.68976125924E+02  0.63489534150E+01  0.11251944662E+04  0.11273245327E+04  0.00000000000E+00 0. -1.
        -11    1    4    4    0    0  0.22435316252E+02 -0.25486604126E+02  0.24317453732E+02  0.41764206698E+02  0.00000000000E+00 0.  1.
         11    1    4    4    0    0  0.16603365153E+02  0.48052653506E+02 -0.29126245030E+02  0.58592383403E+02  0.00000000000E+00 0. -1.
          1    1    1    2  501    0  0.26318921528E+02 -0.98599593444E+00 -0.30077147500E+02  0.39978652055E+02  0.00000000000E+00 0. -1.
<scales pt_clust_5="13000.00000" pt_clust_6="13000.00000" pt_clust_7="13000.00000" pt_clust_8="13000.00000" pt_clust_9="26.33738"></scales>
<clustering>
<clus scale="   26.337">  2  9  1 -1</clus>
<clus scale="   89.527">  7  8 -1 -1</clus>
<clus scale="  100.002">  5  6 -1 -1</clus>
<clus scale="  112.121">  2  7  1 -1</clus>
<clus scale="   26.337">  2  5  1 -1</clus>
</clustering>
</event>
<event>
 9    2  0.1723348E-004  0.2023219E+03  0.7546771E-02  0.1150836E+00
         21   -1    0    0  501  502  0.00000000000E+00  0.00000000000E+00  0.50829107730E+03  0.50829107730E+03  0.00000000000E+00 0.  1.
         -3   -1    0    0    0  501 -0.00000000000E+00 -0.00000000000E+00 -0.97985173955E+02  0.97985173955E+02  0.00000000000E+00 0.  1.
         24    2    1    2    0    0  0.11507184037E+03 -0.16178124585E+03  0.11994844522E+03  0.23810675331E+03  0.53781934785E+02 0.  0.
         23    2    1    2    0    0 -0.96428455614E+02  0.11868773699E+03  0.24403933143E+03  0.30221500482E+03  0.91615980552E+02 0.  0.
        -13    1    3    3    0    0  0.11687616334E+03 -0.14701977577E+03  0.12063242385E+03  0.22321969830E+03  0.00000000000E+00 0.  1.
         14    1    3    3    0    0 -0.18043229719E+01 -0.14761470079E+02 -0.68397863031E+00  0.14887055016E+02  0.00000000000E+00 0. -1.
        -11    1    4    4    0    0 -0.14560207951E+02  0.90306968514E+02  0.11923632692E+03  0.15028190136E+03  0.00000000000E+00 0. -1.
         11    1    4    4    0    0 -0.81868247663E+02  0.28380768472E+02  0.12480300451E+03  0.15193310347E+03  0.00000000000E+00 0.  1.
         -4    1    1    2    0  502 -0.18643384758E+02  0.43093508864E+02  0.46318126696E+02  0.65954493115E+02  0.00000000000E+00 0.  1.
<scales pt_clust_5="13000.00000" pt_clust_6="13000.00000" pt_clust_7="13000.00000" pt_clust_8="13000.00000" pt_clust_9="46.95345"></scales>
<clustering>
<clus scale="   46.953">  1  9  2 -1</clus>
<clus scale="   53.782">  5  6 -1 -1</clus>
<clus scale="   91.616">  7  8 -1 -1</clus>
<clus scale="  188.237">  2  5  1 -1</clus>
<clus scale="   46.953">  1  5  2 -1</clus>
</clustering>
</event>
<event>
 9    2  0.1723348E-004  0.9634127E+02  0.7546771E-02  0.1293251E+00
         21   -1    0    0  501  502  0.00000000000E+00  0.00000000000E+00  0.44886177440E+03  0.44886177440E+03  0.00000000000E+00 0.  1.
          2   -1    0    0  502    0 -0.00000000000E+00 -0.00000000000E+00 -0.37775291436E+02  0.37775291436E+02  0.00000000000E+00 0. -1.
         24    2    1    2    0    0 -0.28516008605E+02 -0.25924862698E+02  0.38756690163E+02  0.97262368928E+02  0.80452632800E+02 0.  0.
         23    2    1    2    0    0  0.95393027959E+01  0.16943715144E+02  0.28088809094E+03  0.29555379724E+03  0.89865675607E+02 0.  0.
        -13    1    3    3    0    0 -0.11710526959E+02 -0.16807295395E+02  0.63080762540E+02  0.66323481685E+02  0.00000000000E+00 0.  1.
         14    1    3    3    0    0 -0.16805481646E+02 -0.91175673036E+01 -0.24324072377E+02  0.30938887244E+02  0.00000000000E+00 0. -1.
        -11    1    4    4    0    0 -0.15021474853E+02  0.46012091678E+02  0.20527588114E+03  0.21090506079E+03  0.00000000000E+00 0.  1.
         11    1    4    4    0    0  0.24560777649E+02 -0.29068376533E+02  0.75612209800E+02  0.84648736457E+02  0.00000000000E+00 0. -1.
          1    1    1    2  501    0  0.18976705809E+02  0.89811475538E+01  0.91441701859E+02  0.93820899663E+02  0.00000000000E+00 0. -1.
<scales pt_clust_5="13000.00000" pt_clust_6="13000.00000" pt_clust_7="13000.00000" pt_clust_8="13000.00000" pt_clust_9="20.99467"></scales>
<clustering>
<clus scale="   20.995">  1  9  2 -1</clus>
<clus scale="   80.453">  5  6 -1 -1</clus>
<clus scale="   87.627">  2  5  1 -1</clus>
<clus scale="   89.866">  7  8 -1 -1</clus>
<clus scale="   20.995">  1  5  2 -1</clus>
</clustering>
</event>
<event>
 9    2  0.1723348E-004  0.1411592E+03  0.7546771E-02  0.1224721E+00
         21   -1    0    0  501  502  0.00000000000E+00  0.00000000000E+00  0.16078028706E+03  0.16078028706E+03  0.00000000000E+00 0. -1.
          2   -1    0    0  502    0 -0.00000000000E+00 -0.00000000000E+00 -0.23366794828E+03  0.23366794828E+03  0.00000000000E+00 0. -1.
         23    2    1    2    0    0  0.47147947124E+02  0.35251577338E+02 -0.35928861143E+02  0.11332650840E+03  0.89924478433E+02 0.  0.
         24    2    1    2    0    0 -0.41505033016E+02  0.98742102806E+02  0.17430753313E+02  0.13640002049E+03  0.82634519407E+02 0.  0.
        -13    1    4    4    0    0  0.18393636466E+02  0.44157337487E+02 -0.13428414412E+02  0.49684188934E+02  0.00000000000E+00 0.  1.
         14    1    4    4    0    0 -0.59898669482E+02  0.54584765319E+02  0.30859167725E+02  0.86715831561E+02  0.00000000000E+00 0. -1.
        -11    1    3    3    0    0 -0.18937670559E+02 -0.15010819708E+02 -0.46886396751E+01  0.24615917950E+02  0.00000000000E+00 0.  1.
         11    1    3    3    0    0  0.66085617684E+02  0.50262397046E+02 -0.31240221468E+02  0.88710590455E+02  0.00000000000E+00 0. -1.
          1    1    1    2  501    0 -0.56429141083E+01 -0.13399368014E+03 -0.54389553393E+02  0.14472170645E+03  0.00000000000E+00 0. -1.
<scales pt_clust_5="13000.00000" pt_clust_6="13000.00000" pt_clust_7="13000.00000" pt_clust_8="13000.00000" pt_clust_9="114.44418"></scales>
<clustering>
<clus scale="   82.635">  5  6 -1 -1</clus>
<clus scale="   89.924">  7  8 -1 -1</clus>
<clus scale="  107.480">  2  7  1 -1</clus>
<clus scale="  114.444">  1  9  2 -1</clus>
<clus scale="  114.444">  1  5  2 -1</clus>
</clustering>
</event>
<event>
 9    2  0.1723348E-004  0.1534047E+03  0.7546771E-02  0.1198125E+00
         -1   -1    0    0    0  501 -0.00000000000E+00  0.00000000000E+00  0.31089542908E+03  0.31089542908E+03  0.00000000000E+00 0.  1.
         21   -1    0    0  501  502  0.00000000000E+00 -0.00000000000E+00 -0.22629095691E+03  0.22629095691E+03  0.00000000000E+00 0.  1.
         24    2    1    2    0    0 -0.44879556056E+02 -0.15064146807E+03  0.13690272438E+03  0.22392316150E+03  0.81805866906E+02 0.  0.
         23    2    1    2    0    0 -0.52306806580E+02  0.93162315185E+02  0.60768301403E+02  0.15347246241E+03  0.91900986279E+02 0.  0.
        -11    1    3    3    0    0 -0.61340783826E+02 -0.64783091058E+02  0.60249661164E+02  0.10765482951E+03  0.00000000000E+00 0.  1.
         12    1    3    3    0    0  0.16461227770E+02 -0.85858377008E+02  0.76653063216E+02  0.11626833198E+03  0.00000000000E+00 0. -1.
        -13    1    4    4    0    0 -0.37001842099E+02 -0.84335467287E+01  0.12495511872E+02  0.39954960219E+02  0.00000000000E+00 0.  1.
         13    1    4    4    0    0 -0.15304964481E+02  0.10159586191E+03  0.48272789530E+02  0.11351750220E+03  0.00000000000E+00 0. -1.
         -2    1    1    2    0  502  0.97186362636E+02  0.57479152881E+02 -0.11306655362E+03  0.15979076208E+03  0.00000000000E+00 0.  1.
<scales pt_clust_5="13000.00000" pt_clust_6="13000.00000" pt_clust_7="13000.00000" pt_clust_8="13000.00000" pt_clust_9="112.91166"></scales>
<clustering>
<clus scale="   81.806">  5  6 -1 -1</clus>
<clus scale="   91.901">  7  8 -1 -1</clus>
<clus scale="  112.912">  2  9  1 -1</clus>
<clus scale="  147.579">  1  5  2 -1</clus>
<clus scale="  112.912">  2  5  1 -1</clus>
</clustering>
</event>
<event>
 9    2  0.1723348E-004  0.1056750E+03  0.7546771E-02  0.1273826E+00
          2   -1    0    0  502    0 -0.00000000000E+00  0.00000000000E+00  0.34330146442E+03  0.34330146442E+03  0.00000000000E+00 0. -1.
         21   -1    0    0  501  502  0.00000000000E+00 -0.00000000000E+00 -0.15022132549E+03  0.15022132549E+03  0.00000000000E+00 0. -1.
         24    2    1    2    0    0 -0.55367355286E+02  0.18075687770E+02  0.26210124453E+03  0.28032648787E+03  0.80582894597E+02 0.  0.
         23    2    1    2    0    0  0.98399831381E+01 -0.42184153871E+02  0.26132045162E+02  0.10499241184E+03  0.92001057894E+02 0.  0.
        -11    1    3    3    0    0  0.43538289591E+01  0.21673117018E+02  0.16612970396E+02  0.27652678229E+02  0.00000000000E+00 0.  1.
         12    1    3    3    0    0 -0.59721184245E+02 -0.35974292474E+01  0.24548827413E+03  0.25267380965E+03  0.00000000000E+00 0. -1.
        -11    1    4    4    0    0 -0.32661054741E+02  0.75076889783E+01 -0.25090619150E+01  0.33606625571E+02  0.00000000000E+00 0. -1.
         11    1    4    4    0    0  0.42501037879E+02 -0.49691842849E+02  0.28641107077E+02  0.71385786268E+02  0.00000000000E+00 0.  1.
          1    1    1    2  501    0  0.45527372148E+02  0.24108466101E+02 -0.95153150759E+02  0.10820389019E+03  0.00000000000E+00 0. -1.
<scales pt_clust_5="13000.00000" pt_clust_6="13000.00000" pt_clust_7="13000.00000" pt_clust_8="13000.00000" pt_clust_9="51.51660"></scales>
<clustering>
<clus scale="   51.517">  2  9  1 -1</clus>
<clus scale="   80.583">  5  6 -1 -1</clus>
<clus scale="   92.001">  7  8 -1 -1</clus>
<clus scale="   95.899">  1  5  2 -1</clus>
<clus scale="   51.517">  2  5  1 -1</clus>
</clustering>
</event>
<event>
 9    2  0.1723348E-004  0.1094997E+03  0.7546771E-02  0.1266470E+00
         21   -1    0    0  501  502  0.00000000000E+00  0.00000000000E+00  0.53640305794E+02  0.53640305794E+02  0.00000000000E+00 0. -1.
          2   -1    0    0  502    0 -0.00000000000E+00 -0.00000000000E+00 -0.75965365992E+03  0.75965365992E+03  0.00000000000E+00 0. -1.
         24    2    1    2    0    0  0.45542155818E+02  0.64817677846E+02 -0.57705829759E+03  0.58760668878E+03  0.77523690376E+02 0.  0.
         23    2    1    2    0    0 -0.18116765970E+02 -0.53237290704E+01 -0.13101089635E+03  0.16014409707E+03  0.90142762126E+02 0.  0.
        -13    1    3    3    0    0 -0.20983972522E+02  0.56603761843E+01 -0.12241769824E+03  0.12433205461E+03  0.00000000000E+00 0.  1.
         14    1    3    3    0    0  0.66526128341E+02  0.59157301662E+02 -0.45464059935E+03  0.46327463417E+03  0.00000000000E+00 0. -1.
        -13    1    4    4    0    0 -0.35085627382E+02 -0.38662680425E+02 -0.57527853389E+02  0.77686923108E+02  0.00000000000E+00 0.  1.
         13    1    4    4    0    0  0.16968861412E+02  0.33338951355E+02 -0.73483042962E+02  0.82457173964E+02  0.00000000000E+00 0. -1.
          1    1    1    2  501    0 -0.27425389849E+02 -0.59493948776E+02  0.20558398098E+01  0.65543179863E+02  0.00000000000E+00 0. -1.
<scales pt_clust_5="13000.00000" pt_clust_6="13000.00000" pt_clust_7="13000.00000" pt_clust_8="13000.00000" pt_clust_9="65.51093"></scales>
<clustering>
<clus scale="   65.511">  1  9  2 -1</clus>
<clus scale="   77.524">  5  6 -1 -1</clus>
<clus scale="   90.143">  7  8 -1 -1</clus>
<clus scale="   99.370">  2  5  1 -1</clus>
<clus scale="   65.511">  1  5  2 -1</clus>
</clustering>
</event>
<event>
 9    2  0.1723348E-004  0.1212272E+03  0.7546771E-02  0.1242683E+00
         -1   -1    0    0    0  501 -0.00000000000E+00  0.00000000000E+00  0.62260042271E+02  0.62260042271E+02  0.00000000000E+00 0.  1.
         21   -1    0    0  501  502  0.00000000000E+00 -0.00000000000E+00 -0.88832585603E+03  0.88832585603E+03  0.00000000000E+00 0.  1.
         23    2    1    2    0    0 -0.85749286538E+02  0.74875265397E+01 -0.14539380609E+02  0.12445551746E+03  0.88706138697E+02 0.  0.
         24    2    1    2    0    0  0.53769203967E+02 -0.39377994433E+02 -0.49313581308E+03  0.50455252935E+03  0.83358088904E+02 0.  0.
        -11    1    4    4    0    0  0.66213396748E+02 -0.41637494320E+02 -0.27113073425E+03  0.28218747296E+03  0.00000000000E+00 0.  1.
         12    1    4    4    0    0 -0.12444192781E+02  0.22594998862E+01 -0.22200507883E+03  0.22236505638E+03  0.00000000000E+00 0. -1.
        -13    1    3    3    0    0 -0.49918701617E+02 -0.64990640866E+01  0.35312047053E+02  0.61490285999E+02  0.00000000000E+00 0.  1.
         13    1    3    3    0    0 -0.35830584921E+02  0.13986590626E+02 -0.49851427662E+02  0.62965231462E+02  0.00000000000E+00 0. -1.
         -2    1    1    2    0  502  0.31980082571E+02  0.31890467894E+02 -0.31839062007E+03  0.32157785149E+03  0.00000000000E+00 0.  1.
<scales pt_clust_5="13000.00000" pt_clust_6="13000.00000" pt_clust_7="13000.00000" pt_clust_8="13000.00000" pt_clust_9="45.16334"></scales>
<clustering>
<clus scale="   45.163">  2  9  1 -1</clus>
<clus scale="   83.358">  5  6 -1 -1</clus>
<clus scale="   88.706">  7  8 -1 -1</clus>
<clus scale="  117.370">  2  5  1 -1</clus>
<clus scale="   45.163">  2  5  1 -1</clus>
</clustering>
</event>
<event>
 9    2  0.1723348E-004  0.1381596E+03  0.7546771E-02  0.1218237E+00
         21   -1    0    0  501  502  0.00000000000E+00  0.00000000000E+00  0.11393545945E+03  0.11393545945E+03  0.00000000000E+00 0.  1.
         -1   -1    0    0    0  501 -0.00000000000E+00 -0.00000000000E+00 -0.37969401399E+03  0.37969401399E+03  0.00000000000E+00 0.  1.
         23    2    1    2    0    0  0.10557586885E+03  0.23185892184E+02 -0.25671992102E+03  0.29326332101E+03  0.91730081867E+02 0.  0.
         24    2    1    2    0    0 -0.67947648536E+02 -0.61952906391E+02  0.38426449530E+02  0.12845163051E+03  0.81044332342E+02 0.  0.
        -11    1    4    4    0    0 -0.19690404808E+02 -0.66863862493E+02  0.39139497724E+02  0.79939905123E+02  0.00000000000E+00 0.  1.
         12    1    4    4    0    0 -0.48257243729E+02  0.49109561017E+01 -0.71304819403E+00  0.48511725385E+02  0.00000000000E+00 0. -1.
        -11    1    3    3    0    0  0.43179859514E+02  0.43094187822E+02 -0.58570143659E+02  0.84569917937E+02  0.00000000000E+00 0. -1.
         11    1    3    3    0    0  0.62396009334E+02 -0.19908295638E+02 -0.19814977736E+03  0.20869340307E+03  0.00000000000E+00 0.  1.
         -2    1    1    2    0  502 -0.37628220312E+02  0.38767014207E+02 -0.47465083047E+02  0.71914521920E+02  0.00000000000E+00 0.  1.
<scales pt_clust_5="13000.00000" pt_clust_6="13000.00000" pt_clust_7="13000.00000" pt_clust_8="13000.00000" pt_clust_9="54.02562"></scales>
<clustering>
<clus scale="   54.026">  1  9  2 -1</clus>
<clus scale="   81.044">  5  6 -1 -1</clus>
<clus scale="   91.730">  7  8 -1 -1</clus>
<clus scale="  131.308">  1  5  2 -1</clus>
<clus scale="   54.026">  1  5  2 -1</clus>
</clustering>
</event>
<event>
 9    2  0.1723348E-004  0.1201282E+03  0.7546771E-02  0.1250076E+00
         21   -1    0    0  501  502  0.00000000000E+00  0.00000000000E+00  0.53662577865E+02  0.53662577865E+02  0.00000000000E+00 0.  1.
         -1   -1    0    0    0  501 -0.00000000000E+00 -0.00000000000E+00 -0.34275027454E+03  0.34275027454E+03  0.00000000000E+00 0.  1.
         24    2    1    2    0    0  0.64994406272E+01  0.65398857625E+02 -0.14735062897E+03  0.17984532326E+03  0.79453628843E+02 0.  0.
         23    2    1    2    0    0  0.14229900985E+02 -0.69165122485E+02 -0.15042817867E+03  0.19377661506E+03  0.99671637681E+02 0.  0.
        -11    1    3    3    0    0  0.21172661961E+02  0.72260152117E+02 -0.77169084712E+02  0.10781873137E+03  0.00000000000E+00 0.  1.
         12    1    3    3    0    0 -0.14673221334E+02 -0.68612944919E+01 -0.70181544254E+02  0.72026591897E+02  0.00000000000E+00 0. -1.
        -11    1    4    4    0    0 -0.25301626900E+02 -0.62891643441E+02 -0.13465158335E+03  0.15075337488E+03  0.00000000000E+00 0. -1.
         11    1    4    4    0    0  0.39531527885E+02 -0.62734790445E+01 -0.15776595316E+02  0.43023240185E+02  0.00000000000E+00 0.  1.
         -2    1    1    2    0  502 -0.20729341613E+02  0.37662648605E+01  0.86911109588E+01  0.22790914075E+02  0.00000000000E+00 0.  1.
<scales pt_clust_5="13000.00000" pt_clust_6="13000.00000" pt_clust_7="13000.00000" pt_clust_8="13000.00000" pt_clust_9="21.06871"></scales>
<clustering>
<clus scale="   21.069">  1  9  2 -1</clus>
<clus scale="   79.454">  5  6 -1 -1</clus>
<clus scale="   99.672">  7  8 -1 -1</clus>
<clus scale="  103.967">  2  5  1 -1</clus>
<clus scale="   21.069">  1  5  2 -1</clus>
</clustering>
</event>
<event>
 9    2  0.3541811E-004  0.6242523E+03  0.7546771E-02  0.9856971E-01
         21   -1    0    0  501  502  0.00000000000E+00  0.00000000000E+00  0.50950206947E+03  0.50950206947E+03  0.00000000000E+00 0. -1.
          2   -1    0    0  502    0 -0.00000000000E+00 -0.00000000000E+00 -0.17782096200E+04  0.17782096200E+04  0.00000000000E+00 0. -1.
         23    2    1    2    0    0 -0.83135590032E+02 -0.47731198353E+03 -0.38113677807E+03  0.62299238259E+03  0.90088896173E+02 0.  0.
         24    2    1    2    0    0  0.49840902680E+02  0.93347220245E+03 -0.48901280717E+03  0.10580570176E+04  0.80601852419E+02 0.  0.
        -11    1    4    4    0    0  0.61654210617E+01  0.66491004572E+02 -0.59906716619E+02  0.89709981618E+02  0.00000000000E+00 0.  1.
         12    1    4    4    0    0  0.43675481618E+02  0.86698119788E+03 -0.42910609055E+03  0.96834703599E+03  0.00000000000E+00 0. -1.
        -11    1    3    3    0    0 -0.95267325176E+02 -0.42762620666E+03 -0.36223287193E+03  0.56846520507E+03  0.00000000000E+00 0.  1.
         11    1    3    3    0    0  0.12131735144E+02 -0.49685776866E+02 -0.18903906140E+02  0.54527177515E+02  0.00000000000E+00 0. -1.
          1    1    1    2  501    0  0.33294687351E+02 -0.45616021892E+03 -0.39855796528E+03  0.60666228927E+03  0.00000000000E+00 0. -1.
<scales pt_clust_5="13000.00000" pt_clust_6="13000.00000" pt_clust_7="13000.00000" pt_clust_8="13000.00000" pt_clust_9="457.37391"></scales>
<clustering>
<clus scale="   80.602">  5  6 -1 -1</clus>
<clus scale="   90.089">  7  8 -1 -1</clus>
<clus scale="  457.374">  1  9  2 -1</clus>
<clus scale="  622.954">  1  5  2 -1</clus>
<clus scale="  457.374">  1  5  2 -1</clus>
</clustering>
</event>
<event>
 9    2  0.1723348E-004  0.1099445E+03  0.7546771E-02  0.1269532E+00
         -1   -1    0    0    0  501 -0.00000000000E+00  0.00000000000E+00  0.99383683727E+03  0.99383683727E+03  0.00000000000E+00 0.  1.
         21   -1    0    0  501  502  0.00000000000E+00 -0.00000000000E+00 -0.18233032231E+02  0.18233032231E+02  0.00000000000E+00 0. -1.
         24    2    1    2    0    0 -0.33243400066E+02 -0.58329999157E+02  0.45848219818E+03  0.47003691691E+03  0.78874994504E+02 0.  0.
         23    2    1    2    0    0  0.14286531316E+02  0.97265465923E+01  0.24088896731E+03  0.26091708747E+03  0.98749791267E+02 0.  0.
        -13    1    3    3    0    0 -0.22545463982E+02  0.14927889854E+02  0.81962979333E+02  0.86307993968E+02  0.00000000000E+00 0.  1.
         14    1    3    3    0    0 -0.10697936085E+02 -0.73257889011E+02  0.37651921885E+03  0.38372892294E+03  0.00000000000E+00 0. -1.
        -13    1    4    4    0    0 -0.26954689403E+02 -0.18045835609E+02  0.29789118297E+02  0.44040879107E+02  0.00000000000E+00 0. -1.
         13    1    4    4    0    0  0.41241220719E+02  0.27772382201E+02  0.21109984901E+03  0.21687620836E+03  0.00000000000E+00 0.  1.
         -2    1    1    2    0  502  0.18956868750E+02  0.48603452565E+02  0.27623263955E+03  0.28111586512E+03  0.00000000000E+00 0.  1.
<scales pt_clust_5="13000.00000" pt_clust_6="13000.00000" pt_clust_7="13000.00000" pt_clust_8="13000.00000" pt_clust_9="52.16954"></scales>
<clustering>
<clus scale="   52.170">  2  9  1 -1</clus>
<clus scale="   78.875">  5  6 -1 -1</clus>
<clus scale="   92.507">  1  5  2 -1</clus>
<clus scale="   98.750">  7  8 -1 -1</clus>
<clus scale="   52.170">  2  5  1 -1</clus>
</clustering>
</event>
<event>
 9    2  0.1723348E-004  0.1655993E+03  0.7546771E-02  0.1184214E+00
         -3   -1    0    0    0  501 -0.00000000000E+00  0.00000000000E+00  0.13474139926E+03  0.13474139926E+03  0.00000000000E+00 0.  1.
         21   -1    0    0  501  502  0.00000000000E+00 -0.00000000000E+00 -0.26631856006E+03  0.26631856006E+03  0.00000000000E+00 0. -1.
         24    2    1    2    0    0 -0.10961786142E+03 -0.94374297958E+02 -0.53743155553E+02  0.17339931752E+03  0.79097489772E+02 0.  0.
         23    2    1    2    0    0  0.12524722949E+03  0.50915176664E+02 -0.79861839149E+02  0.18143203075E+03  0.90886988735E+02 0.  0.
        -11    1    3    3    0    0 -0.13214754314E+02 -0.61510631430E+02 -0.17659549302E+02  0.65345598108E+02  0.00000000000E+00 0.  1.
         12    1    3    3    0    0 -0.96403107110E+02 -0.32863666528E+02 -0.36083606251E+02  0.10805371941E+03  0.00000000000E+00 0. -1.
        -11    1    4    4    0    0  0.72860372760E+02  0.60787701351E+02 -0.85627986185E+02  0.12781209087E+03  0.00000000000E+00 0.  1.
         11    1    4    4    0    0  0.52386856725E+02 -0.98725246866E+01  0.57661470360E+01  0.53619939881E+02  0.00000000000E+00 0. -1.
         -4    1    1    2    0  502 -0.15629368061E+02  0.43459121294E+02  0.20278339008E+01  0.46228611054E+02  0.00000000000E+00 0.  1.
<scales pt_clust_5="13000.00000" pt_clust_6="13000.00000" pt_clust_7="13000.00000" pt_clust_8="13000.00000" pt_clust_9="46.18414"></scales>
<clustering>
<clus scale="   46.184">  2  9  1 -1</clus>
<clus scale="   79.097">  5  6 -1 -1</clus>
<clus scale="   90.887">  7  8 -1 -1</clus>
<clus scale="  159.434">  1  5  2 -1</clus>
<clus scale="   46.184">  2  5  1 -1</clus>
</clustering>
</event>
<event>
 9    2  0.1723348E-004  0.1088002E+03  0.7546771E-02  0.1267219E+00
          4   -1    0    0  502    0 -0.00000000000E+00  0.00000000000E+00  0.29995805950E+03  0.29995805950E+03  0.00000000000E+00 0. -1.
         21   -1    0    0  501  502  0.00000000000E+00 -0.00000000000E+00 -0.93683969983E+02  0.93683969983E+02  0.00000000000E+00 0. -1.
         24    2    1    2    0    0  0.53268382923E+02 -0.34849278215E+02  0.17878309870E+03  0.20599939359E+03  0.80127154997E+02 0.  0.
         23    2    1    2    0    0 -0.67769877945E+00  0.64397926633E+02 -0.16826827092E+02  0.11278963551E+03  0.91053871627E+02 0.  0.
        -11    1    3    3    0    0  0.26052258959E+02 -0.25503368848E+02  0.14532491358E+02  0.39247105938E+02  0.00000000000E+00 0.  1.
         12    1    3    3    0    0  0.27216123964E+02 -0.93459093675E+01  0.16425060734E+03  0.16675228765E+03  0.00000000000E+00 0. -1.
        -13    1    4    4    0    0 -0.24758840283E+02 -0.46988585674E+01  0.18765016075E+02  0.31419822919E+02  0.00000000000E+00 0.  1.
         13    1    4    4    0    0  0.24081141503E+02  0.69096785200E+02 -0.35591843167E+02  0.81369812591E+02  0.00000000000E+00 0. -1.
          3    1    1    2  501    0 -0.52590684144E+02 -0.29548648418E+02  0.44317817912E+02  0.74853000384E+02  0.00000000000E+00 0. -1.
<scales pt_clust_5="13000.00000" pt_clust_6="13000.00000" pt_clust_7="13000.00000" pt_clust_8="13000.00000" pt_clust_9="60.32335"></scales>
<clustering>
<clus scale="   60.323">  2  9  1 -1</clus>
<clus scale="   80.127">  5  6 -1 -1</clus>
<clus scale="   91.054">  7  8 -1 -1</clus>
<clus scale="   99.835">  1  5  2 -1</clus>
<clus scale="   60.323">  2  5  1 -1</clus>
</clustering>
</event>
<event>
 9    2  0.1723348E-004  0.1699037E+03  0.7546771E-02  0.1179176E+00
          2   -1    0    0  502    0 -0.00000000000E+00  0.00000000000E+00  0.64754182131E+03  0.64754182131E+03  0.00000000000E+00 0. -1.
         21   -1    0    0  501  502  0.00000000000E+00 -0.00000000000E+00 -0.12556336326E+03  0.12556336326E+03  0.00000000000E+00 0.  1.
         23    2    1    2    0    0  0.12421680515E+03 -0.85295082192E+02  0.48497220918E+03  0.51550111636E+03  0.88534126547E+02 0.  0.
         24    2    1    2    0    0 -0.88550028471E+02  0.57988841362E+02 -0.64107488074E+02  0.14696168237E+03  0.79272648453E+02 0.  0.
        -11    1    4    4    0    0 -0.55487019348E+02 -0.99808763655E+01 -0.32135218353E+02  0.64892984735E+02  0.00000000000E+00 0.  1.
         12    1    4    4    0    0 -0.33063009122E+02  0.67969717728E+02 -0.31972269721E+02  0.82068697634E+02  0.00000000000E+00 0. -1.
        -13    1    3    3    0    0  0.34809750760E+02  0.58077093289E+00  0.37479975076E+02  0.51154712144E+02  0.00000000000E+00 0.  1.
         13    1    3    3    0    0  0.89407054392E+02 -0.85875853124E+02  0.44749223411E+03  0.46434640422E+03  0.00000000000E+00 0. -1.
          1    1    1    2  501    0 -0.35666776682E+02  0.27306240829E+02  0.10111373693E+03  0.11064238584E+03  0.00000000000E+00 0. -1.
<scales pt_clust_5="13000.00000" pt_clust_6="13000.00000" pt_clust_7="13000.00000" pt_clust_8="13000.00000" pt_clust_9="44.91939"></scales>
<clustering>
<clus scale="   44.919">  2  9  1 -1</clus>
<clus scale="   79.273">  5  6 -1 -1</clus>
<clus scale="   88.534">  7  8 -1 -1</clus>
<clus scale="  165.267">  2  5  1 -1</clus>
<clus scale="   44.919">  2  5  1 -1</clus>
</clustering>
</event>
<event>
 9    2  0.1723348E-004  0.1322124E+03  0.7546771E-02  0.1226420E+00
          2   -1    0    0  502    0 -0.00000000000E+00  0.00000000000E+00  0.91486194097E+03  0.91486194097E+03  0.00000000000E+00 0. -1.
         21   -1    0    0  501  502  0.00000000000E+00 -0.00000000000E+00 -0.26905297753E+02  0.26905297753E+02  0.00000000000E+00 0.  1.
         23    2    1    2    0    0 -0.10041883556E+03  0.30665476837E+02  0.64027360786E+03  0.65507711510E+03  0.90285213603E+02 0.  0.
         24    2    1    2    0    0  0.79039634361E+02 -0.18420561703E+02  0.22739453225E+03  0.25477411591E+03  0.81332625335E+02 0.  0.
        -11    1    4    4    0    0  0.19520772083E+02 -0.29387261397E+02  0.24261236789E+02  0.42816810784E+02  0.00000000000E+00 0.  1.
         12    1    4    4    0    0  0.59518862277E+02  0.10966699694E+02  0.20313329546E+03  0.21195730512E+03  0.00000000000E+00 0. -1.
        -13    1    3    3    0    0 -0.81589239787E+02  0.61617125850E+02  0.47029793253E+03  0.48128330491E+03  0.00000000000E+00 0. -1.
         13    1    3    3    0    0 -0.18829595775E+02 -0.30951649013E+02  0.16997567534E+03  0.17379381019E+03  0.00000000000E+00 0.  1.
          1    1    1    2  501    0  0.21379201202E+02 -0.12244915134E+02  0.20288503104E+02  0.31916007721E+02  0.00000000000E+00 0. -1.
<scales pt_clust_5="13000.00000" pt_clust_6="13000.00000" pt_clust_7="13000.00000" pt_clust_8="13000.00000" pt_clust_9="24.63754"></scales>
<clustering>
<clus scale="   24.638">  2  9  1 -1</clus>
<clus scale="   81.333">  5  6 -1 -1</clus>
<clus scale="   90.285">  7  8 -1 -1</clus>
<clus scale="  126.268">  2  5  1 -1</clus>
<clus scale="   24.638">  2  5  1 -1</clus>
</clustering>
</event>
<event>
 9    2  0.1723348E-004  0.9036806E+02  0.7546771E-02  0.1306160E+00
         21   -1    0    0  501  502  0.00000000000E+00  0.00000000000E+00  0.76628928195E+03  0.76628928195E+03  0.00000000000E+00 0. -1.
         -3   -1    0    0    0  501 -0.00000000000E+00 -0.00000000000E+00 -0.59133101780E+02  0.59133101780E+02  0.00000000000E+00 0.  1.
         23    2    1    2    0    0 -0.88059366461E+01 -0.16695135800E+02 -0.16497124356E+02  0.92241526319E+02  0.88769769551E+02 0.  0.
         24    2    1    2    0    0  0.99729749924E+01 -0.16827059395E+02  0.51179635190E+03  0.51868501147E+03  0.81951358429E+02 0.  0.
        -13    1    4    4    0    0  0.32444507520E+02 -0.71077437876E+01  0.86085264905E+02  0.92270466151E+02  0.00000000000E+00 0.  1.
         14    1    4    4    0    0 -0.22471532527E+02 -0.97193156071E+01  0.42571108699E+03  0.42641454532E+03  0.00000000000E+00 0. -1.
        -13    1    3    3    0    0 -0.34401739441E+02 -0.96806500794E+01  0.24552953811E+02  0.43359453449E+02  0.00000000000E+00 0. -1.
         13    1    3    3    0    0  0.25595802795E+02 -0.70144857206E+01 -0.41050078167E+02  0.48882072871E+02  0.00000000000E+00 0.  1.
         -4    1    1    2    0  502 -0.11670383463E+01  0.33522195195E+02  0.21185695263E+03  0.21449584595E+03  0.00000000000E+00 0.  1.
<scales pt_clust_5="13000.00000" pt_clust_6="13000.00000" pt_clust_7="13000.00000" pt_clust_8="13000.00000" pt_clust_9="33.54250"></scales>
<clustering>
<clus scale="   33.543">  1  9  2 -1</clus>
<clus scale="   81.951">  5  6 -1 -1</clus>
<clus scale="   83.680">  1  5  2 -1</clus>
<clus scale="   88.770">  7  8 -1 -1</clus>
<clus scale="   33.543">  1  5  2 -1</clus>
</clustering>
</event>
<event>
 9    2  0.1723348E-004  0.1299575E+03  0.7546771E-02  0.1231547E+00
          2   -1    0    0  502    0 -0.00000000000E+00  0.00000000000E+00  0.11454493495E+04  0.11454493495E+04  0.00000000000E+00 0. -1.
         21   -1    0    0  501  502  0.00000000000E+00 -0.00000000000E+00 -0.46476424904E+02  0.46476424904E+02  0.00000000000E+00 0. -1.
         24    2    1    2    0    0 -0.10253896107E+03  0.37135162770E+01  0.54718828123E+03  0.56261914964E+03  0.81223541456E+02 0.  0.
         23    2    1    2    0    0  0.16461092803E+02 -0.10107646356E+03  0.14029470370E+03  0.19778268179E+03  0.94593690431E+02 0.  0.
        -13    1    3    3    0    0 -0.10607695179E+03  0.53339729262E+01  0.35878514646E+03  0.37417583071E+03  0.00000000000E+00 0.  1.
         14    1    3    3    0    0  0.35379907170E+01 -0.16204566492E+01  0.18840313477E+03  0.18844331893E+03  0.00000000000E+00 0. -1.
        -11    1    4    4    0    0  0.10369988280E+02  0.17580820393E+02  0.17082869854E+02  0.26616655407E+02  0.00000000000E+00 0.  1.
         11    1    4    4    0    0  0.60911045234E+01 -0.11865728395E+03  0.12321183384E+03  0.17116602639E+03  0.00000000000E+00 0. -1.
          1    1    1    2  501    0  0.86077868271E+02  0.97362947284E+02  0.41148993971E+03  0.43152394302E+03  0.00000000000E+00 0. -1.
<scales pt_clust_5="13000.00000" pt_clust_6="13000.00000" pt_clust_7="13000.00000" pt_clust_8="13000.00000" pt_clust_9="129.95753"></scales>
<clustering>
<clus scale="   81.224">  5  6 -1 -1</clus>
<clus scale="   94.594">  7  8 -1 -1</clus>
<clus scale="  129.958">  2  9  1 -1</clus>
<clus scale="  119.579">  1  5  2 -1</clus>
<clus scale="  129.958">  2  5  1 -1</clus>
</clustering>
</event>
<event>
 9    2  0.1723348E-004  0.2043929E+03  0.7546771E-02  0.1165806E+00
         21   -1    0    0  501  502  0.00000000000E+00  0.00000000000E+00  0.45623710491E+03  0.45623710491E+03  0.00000000000E+00 0. -1.
         -1   -1    0    0    0  501 -0.00000000000E+00 -0.00000000000E+00 -0.19659267713E+03  0.19659267713E+03  0.00000000000E+00 0.  1.
         24    2    1    2    0    0 -0.79775467907E+02 -0.62266361452E+02 -0.26016425791E+02  0.13132155304E+03  0.79544143927E+02 0.  0.
         23    2    1    2    0    0 -0.15610878369E+03  0.41840447099E+02  0.19151835899E+03  0.26671143268E+03  0.91296939364E+02 0.  0.
        -13    1    3    3    0    0 -0.67253645104E+02 -0.21513856111E+02 -0.45963660466E+02  0.84252933883E+02  0.00000000000E+00 0.  1.
         14    1    3    3    0    0 -0.12521822803E+02 -0.40752505341E+02  0.19947234676E+02  0.47068619154E+02  0.00000000000E+00 0. -1.
        -11    1    4    4    0    0 -0.97044080717E+02  0.70510192057E+02  0.12230692463E+03  0.17131323533E+03  0.00000000000E+00 0. -1.
         11    1    4    4    0    0 -0.59064702971E+02 -0.28669744958E+02  0.69211434358E+02  0.95398197356E+02  0.00000000000E+00 0.  1.
         -2    1    1    2    0  502  0.23588425159E+03  0.20425914353E+02  0.94142494589E+02  0.25479679632E+03  0.00000000000E+00 0.  1.
<scales pt_clust_5="13000.00000" pt_clust_6="13000.00000" pt_clust_7="13000.00000" pt_clust_8="13000.00000" pt_clust_9="182.86975"></scales>
<clustering>
<clus scale="   79.544">  5  6 -1 -1</clus>
<clus scale="   91.297">  7  8 -1 -1</clus>
<clus scale="  128.719">  2  5  1 -1</clus>
<clus scale="  182.870">  1  9  2 -1</clus>
<clus scale="  182.870">  1  5  2 -1</clus>
</clustering>
</event>
<event>
 9    2  0.1723348E-004  0.1328023E+03  0.7546771E-02  0.1223808E+00
         21   -1    0    0  501  502  0.00000000000E+00  0.00000000000E+00  0.52343564807E+02  0.52343564807E+02  0.00000000000E+00 0. -1.
         -1   -1    0    0    0  501 -0.00000000000E+00 -0.00000000000E+00 -0.49531193745E+03  0.49531193745E+03  0.00000000000E+00 0.  1.
         24    2    1    2    0    0 -0.33032741323E+02 -0.90902594120E+02 -0.26346855111E+03  0.29426642194E+03  0.88445497585E+02 0.  0.
         23    2    1    2    0    0  0.55465581757E+02  0.84180907644E+02 -0.94094286389E+02  0.16483108331E+03  0.90292277212E+02 0.  0.
        -11    1    3    3    0    0 -0.63225027726E+02 -0.66676626143E+02 -0.19630518708E+03  0.21674617201E+03  0.00000000000E+00 0.  1.
         12    1    3    3    0    0  0.30192286403E+02 -0.24225967977E+02 -0.67163364025E+02  0.77520249934E+02  0.00000000000E+00 0. -1.
        -11    1    4    4    0    0  0.15339307797E+02  0.81752956593E+02 -0.92783771195E+02  0.12461006570E+03  0.00000000000E+00 0.  1.
         11    1    4    4    0    0  0.40126273960E+02  0.24279510507E+01 -0.13105151939E+01  0.40221017619E+02  0.00000000000E+00 0. -1.
         -2    1    1    2    0  502 -0.22432840435E+02  0.67216864761E+01 -0.85405535143E+02  0.88557996997E+02  0.00000000000E+00 0.  1.
<scales pt_clust_5="13000.00000" pt_clust_6="13000.00000" pt_clust_7="13000.00000" pt_clust_8="13000.00000" pt_clust_9="23.41824"></scales>
<clustering>
<clus scale="   23.418">  1  9  2 -1</clus>
<clus scale="   88.445">  5  6 -1 -1</clus>
<clus scale="   90.292">  7  8 -1 -1</clus>
<clus scale="  131.554">  2  5  1 -1</clus>
<clus scale="   23.418">  1  5  2 -1</clus>
</clustering>
</event>
<event>
 9    2  0.1723348E-004  0.1941731E+03  0.7546771E-02  0.1155994E+00
          2   -1    0    0  502    0 -0.00000000000E+00  0.00000000000E+00  0.19701542408E+04  0.19701542408E+04  0.00000000000E+00 0. -1.
         21   -1    0    0  501  502  0.00000000000E+00 -0.00000000000E+00 -0.23371862461E+02  0.23371862461E+02  0.00000000000E+00 0. -1.
         23    2    1    2    0    0 -0.51806848901E+02 -0.16379550513E+03  0.10033623015E+04  0.10202447513E+04  0.68194775694E+02 0.  0.
         24    2    1    2    0    0  0.82908448771E+02  0.16414649640E+03  0.71857192587E+03  0.74629209294E+03  0.82391699659E+02 0.  0.
        -11    1    4    4    0    0 -0.11049457826E+02  0.41128467443E+02  0.22573488741E+03  0.22971695790E+03  0.00000000000E+00 0.  1.
         12    1    4    4    0    0  0.93957906597E+02  0.12301802895E+03  0.49283703846E+03  0.51657513503E+03  0.00000000000E+00 0. -1.
        -11    1    3    3    0    0 -0.20116915118E+02 -0.23301410269E+01  0.11643265146E+03  0.11818071821E+03  0.00000000000E+00 0.  1.
         11    1    3    3    0    0 -0.31689933783E+02 -0.16146536410E+03  0.88692964999E+03  0.90206403306E+03  0.00000000000E+00 0. -1.
          1    1    1    2  501    0 -0.31101599869E+02 -0.35099126618E+00  0.22484815098E+03  0.22698925901E+03  0.00000000000E+00 0. -1.
<scales pt_clust_5="13000.00000" pt_clust_6="13000.00000" pt_clust_7="13000.00000" pt_clust_8="13000.00000" pt_clust_9="31.10360"></scales>
<clustering>
<clus scale="   31.104">  2  9  1 -1</clus>
<clus scale="   68.195">  7  8 -1 -1</clus>
<clus scale="   82.392">  5  6 -1 -1</clus>
<clus scale="  188.588">  1  7  2 -1</clus>
<clus scale="   31.104">  2  5  1 -1</clus>
</clustering>
</event>
<event>
 9    2  0.1723348E-004  0.2166767E+03  0.7546771E-02  0.1165258E+00
         21   -1    0    0  501  502  0.00000000000E+00  0.00000000000E+00  0.14534053402E+03  0.14534053402E+03  0.00000000000E+00 0. -1.
          2   -1    0    0  502    0 -0.00000000000E+00 -0.00000000000E+00 -0.69943702958E+03  0.69943702958E+03  0.00000000000E+00 0. -1.
         23    2    1    2    0    0 -0.43300969846E+02 -0.46643569582E+02 -0.10283254168E+03  0.15015702440E+03  0.89005639020E+02 0.  0.
         24    2    1    2    0    0 -0.71816269785E+02  0.18782332289E+03 -0.15326106307E+02  0.22215307094E+03  0.93176822058E+02 0.  0.
        -11    1    4    4    0    0 -0.59606477396E+02  0.88423502534E+02  0.32071402649E+02  0.11135628772E+03  0.00000000000E+00 0.  1.
         12    1    4    4    0    0 -0.12209792389E+02  0.99399820352E+02 -0.47397508956E+02  0.11079678322E+03  0.00000000000E+00 0. -1.
        -13    1    3    3    0    0  0.20072186198E+02  0.73517159458E+00  0.39843141102E+00  0.20089596403E+02  0.00000000000E+00 0.  1.
         13    1    3    3    0    0 -0.63373156044E+02 -0.47378741177E+02 -0.10323097309E+03  0.13006742800E+03  0.00000000000E+00 0. -1.
          1    1    1    2  501    0  0.11511723963E+03 -0.14117975330E+03 -0.43593784758E+03  0.47246746825E+03  0.00000000000E+00 0. -1.
<scales pt_clust_5="13000.00000" pt_clust_6="13000.00000" pt_clust_7="13000.00000" pt_clust_8="13000.00000" pt_clust_9="195.61925"></scales>
<clustering>
<clus scale="   89.006">  7  8 -1 -1</clus>
<clus scale="   93.177">  5  6 -1 -1</clus>
<clus scale="  109.419">  2  7  1 -1</clus>
<clus scale="  195.619">  1  9  2 -1</clus>
<clus scale="  195.619">  1  5  2 -1</clus>
</clustering>
</event>
<event>
 9    2  0.1723348E-004  0.9836170E+02  0.7546771E-02  0.1290390E+00
         -3   -1    0    0    0  501 -0.00000000000E+00  0.00000000000E+00  0.22740509402E+03  0.22740509402E+03  0.00000000000E+00 0.  1.
         21   -1    0    0  501  502  0.00000000000E+00 -0.00000000000E+00 -0.10664939590E+03  0.10664939590E+03  0.00000000000E+00 0. -1.
         23    2    1    2    0    0 -0.30589299977E+02 -0.24583634563E+02  0.74435523480E+02  0.12471969474E+03  0.92055932670E+02 0.  0.
         24    2    1    2    0    0  0.28973186226E+02 -0.69063783869E+01 -0.56298615313E+02  0.10198094667E+03  0.79645689242E+02 0.  0.
        -11    1    4    4    0    0 -0.24782060854E+02 -0.27918143417E+01 -0.37199118303E+02  0.44785256168E+02  0.00000000000E+00 0.  1.
         12    1    4    4    0    0  0.53755247080E+02 -0.41145640452E+01 -0.19099497010E+02  0.57195690501E+02  0.00000000000E+00 0. -1.
        -13    1    3    3    0    0 -0.45054845680E+02 -0.73648759971E+00 -0.18038128290E+00  0.45061225801E+02  0.00000000000E+00 0. -1.
         13    1    3    3    0    0  0.14465545703E+02 -0.23847146963E+02  0.74615904763E+02  0.79658468943E+02  0.00000000000E+00 0.  1.
         -4    1    1    2    0  502  0.16161137516E+01  0.31490012950E+02  0.10261878995E+03  0.10735384851E+03  0.00000000000E+00 0.  1.
<scales pt_clust_5="13000.00000" pt_clust_6="13000.00000" pt_clust_7="13000.00000" pt_clust_8="13000.00000" pt_clust_9="31.53147"></scales>
<clustering>
<clus scale="   31.531">  2  9  1 -1</clus>
<clus scale="   79.646">  5  6 -1 -1</clus>
<clus scale="   86.857">  2  5  1 -1</clus>
<clus scale="   92.056">  7  8 -1 -1</clus>
<clus scale="   31.531">  2  5  1 -1</clus>
</clustering>
</event>
<event>
 9    2  0.1723348E-004  0.1101937E+03  0.7546771E-02  0.1265855E+00
         21   -1    0    0  501  502  0.00000000000E+00  0.00000000000E+00  0.21979972875E+03  0.21979972875E+03  0.00000000000E+00 0. -1.
          2   -1    0    0  502    0 -0.00000000000E+00 -0.00000000000E+00 -0.11506766212E+03  0.11506766212E+03  0.00000000000E+00 0. -1.
         24    2    1    2    0    0  0.26960176174E+02 -0.20387312587E+02 -0.78790701382E+00  0.88006169182E+02  0.81252516285E+02 0.  0.
         23    2    1    2    0    0 -0.93053012000E+02  0.58870949333E+02  0.56178606327E+02  0.15584570777E+03  0.94906254292E+02 0.  0.
        -11    1    3    3    0    0  0.63278085600E+01 -0.29255945351E+02  0.34814194196E+02  0.45912739159E+02  0.00000000000E+00 0.  1.
         12    1    3    3    0    0  0.20632367614E+02  0.88686327641E+01 -0.35602101210E+02  0.42093430022E+02  0.00000000000E+00 0. -1.
        -11    1    4    4    0    0 -0.20586783792E+02 -0.23322095364E+02 -0.30997495510E+01  0.31262505440E+02  0.00000000000E+00 0.  1.
         11    1    4    4    0    0 -0.72466228207E+02  0.82193044697E+02  0.59278355878E+02  0.12458320233E+03  0.00000000000E+00 0. -1.
          1    1    1    2  501    0  0.66092835825E+02 -0.38483636746E+02  0.49341367325E+02  0.91015513920E+02  0.00000000000E+00 0. -1.
<scales pt_clust_5="13000.00000" pt_clust_6="13000.00000" pt_clust_7="13000.00000" pt_clust_8="13000.00000" pt_clust_9="76.48041"></scales>
<clustering>
<clus scale="   76.480">  1  9  2 -1</clus>
<clus scale="   81.253">  5  6 -1 -1</clus>
<clus scale="   94.906">  7  8 -1 -1</clus>
<clus scale="   98.678">  2  5  1 -1</clus>
<clus scale="   76.480">  1  5  2 -1</clus>
</clustering>
</event>
<event>
 9    2  0.1723348E-004  0.1677863E+03  0.7546771E-02  0.1197404E+00
          2   -1    0    0  502    0 -0.00000000000E+00  0.00000000000E+00  0.54256517837E+03  0.54256517837E+03  0.00000000000E+00 0. -1.
         21   -1    0    0  501  502  0.00000000000E+00 -0.00000000000E+00 -0.92006781846E+02  0.92006781846E+02  0.00000000000E+00 0.  1.
         23    2    1    2    0    0 -0.50400752616E+02  0.48185864307E+02  0.87352277570E+02  0.14407620136E+03  0.90914344410E+02 0.  0.
         24    2    1    2    0    0  0.82016558562E+02 -0.16908503905E+03  0.23331320986E+03  0.31025054401E+03  0.80646635736E+02 0.  0.
        -11    1    4    4    0    0  0.72835742581E+02 -0.17757208629E+03  0.22089722730E+03  0.29263027228E+03  0.00000000000E+00 0.  1.
         12    1    4    4    0    0  0.91808159807E+01  0.84870472396E+01  0.12415982557E+02  0.17620271728E+02  0.00000000000E+00 0. -1.
        -13    1    3    3    0    0 -0.22218124679E+02  0.65362986370E+02  0.24808546705E+02  0.73358224086E+02  0.00000000000E+00 0.  1.
         13    1    3    3    0    0 -0.28182627937E+02 -0.17177122063E+02  0.62543730865E+02  0.70717977278E+02  0.00000000000E+00 0. -1.
          1    1    1    2  501    0 -0.31615805946E+02  0.12089917474E+03  0.12989290909E+03  0.18024521484E+03  0.00000000000E+00 0. -1.
<scales pt_clust_5="13000.00000" pt_clust_6="13000.00000" pt_clust_7="13000.00000" pt_clust_8="13000.00000" pt_clust_9="147.13383"></scales>
<clustering>
<clus scale="   80.647">  5  6 -1 -1</clus>
<clus scale="   90.914">  7  8 -1 -1</clus>
<clus scale="  114.575">  1  7  2 -1</clus>
<clus scale="  147.134">  2  9  1 -1</clus>
<clus scale="  147.134">  2  5  1 -1</clus>
</clustering>
</event>
<event>
 9    2  0.1723348E-004  0.1015654E+03  0.7546771E-02  0.1280666E+00
          2   -1    0    0  502    0 -0.00000000000E+00  0.00000000000E+00  0.19985140214E+03  0.19985140214E+03  0.00000000000E+00 0. -1.
         21   -1    0    0  501  502  0.00000000000E+00 -0.00000000000E+00 -0.48148930010E+03  0.48148930010E+03  0.00000000000E+00 0. -1.
         23    2    1    2    0    0 -0.93022622665E+01 -0.45391731072E+02  0.88058236545E+02  0.13296518230E+03  0.88196061977E+02 0.  0.
         24    2    1    2    0    0  0.64253684758E+02  0.11670567029E+03 -0.41814391111E+03  0.44613793477E+03  0.80286841767E+02 0.  0.
        -13    1    4    4    0    0 -0.51042935152E+01  0.73515319877E+02 -0.18860003158E+03  0.20248587107E+03  0.00000000000E+00 0.  1.
         14    1    4    4    0    0  0.69357978273E+02  0.43190350416E+02 -0.22954387953E+03  0.24365206370E+03  0.00000000000E+00 0. -1.
        -13    1    3    3    0    0 -0.34039919035E+02  0.74474402348E+01  0.11466650022E+02  0.36683300243E+02  0.00000000000E+00 0. -1.
         13    1    3    3    0    0  0.24737656769E+02 -0.52839171307E+02  0.76591586523E+02  0.96281882059E+02  0.00000000000E+00 0.  1.
          1    1    1    2  501    0 -0.54951422492E+02 -0.71313939221E+02  0.48447776603E+02  0.10223758516E+03  0.00000000000E+00 0. -1.
<scales pt_clust_5="13000.00000" pt_clust_6="13000.00000" pt_clust_7="13000.00000" pt_clust_8="13000.00000" pt_clust_9="90.02969"></scales>
<clustering>
<clus scale="   80.287">  5  6 -1 -1</clus>
<clus scale="   88.196">  7  8 -1 -1</clus>
<clus scale="   90.030">  2  9  1 -1</clus>
<clus scale="   94.778">  2  5  1 -1</clus>
<clus scale="   90.030">  2  5  1 -1</clus>
</clustering>
</event>
<event>
 9    2  0.1723348E-004  0.1207612E+03  0.7546771E-02  0.1245059E+00
         21   -1    0    0  501  502  0.00000000000E+00  0.00000000000E+00  0.17057647823E+03  0.17057647823E+03  0.00000000000E+00 0. -1.
          2   -1    0    0  502    0 -0.00000000000E+00 -0.00000000000E+00 -0.45797820917E+03  0.45797820917E+03  0.00000000000E+00 0. -1.
         23    2    1    2    0    0 -0.57149312051E+02 -0.62917435301E+02 -0.26426776066E+03  0.29230374390E+03  0.91538963521E+02 0.  0.
         24    2    1    2    0    0  0.26860709165E+02 -0.72476435587E+01  0.13534712058E+03  0.16030551470E+03  0.81271083157E+02 0.  0.
        -11    1    4    4    0    0 -0.22852592065E+02  0.18759124058E+02  0.52400348541E+02  0.60165955712E+02  0.00000000000E+00 0.  1.
         12    1    4    4    0    0  0.49713301230E+02 -0.26006767617E+02  0.82946772042E+02  0.10013955898E+03  0.00000000000E+00 0. -1.
        -11    1    3    3    0    0 -0.42627034802E+02 -0.83776916996E+02 -0.16563115925E+03  0.19044504938E+03  0.00000000000E+00 0. -1.
         11    1    3    3    0    0 -0.14522277248E+02  0.20859481695E+02 -0.98636601401E+02  0.10185869452E+03  0.00000000000E+00 0.  1.
          1    1    1    2  501    0  0.30288602886E+02  0.70165078859E+02 -0.15848109086E+03  0.17594542880E+03  0.00000000000E+00 0. -1.
<scales pt_clust_5="13000.00000" pt_clust_6="13000.00000" pt_clust_7="13000.00000" pt_clust_8="13000.00000" pt_clust_9="76.42345"></scales>
<clustering>
<clus scale="   76.423">  1  9  2 -1</clus>
<clus scale="   81.271">  5  6 -1 -1</clus>
<clus scale="   91.539">  7  8 -1 -1</clus>
<clus scale="  113.176">  1  5  2 -1</clus>
<clus scale="   76.423">  1  5  2 -1</clus>
</clustering>
</event>
<event>
 9    2  0.1723348E-004  0.4383202E+03  0.7546771E-02  0.1089513E+00
          2   -1    0    0  502    0 -0.00000000000E+00  0.00000000000E+00  0.21459439919E+04  0.21459439919E+04  0.00000000000E+00 0. -1.
         21   -1    0    0  501  502  0.00000000000E+00 -0.00000000000E+00 -0.15476473819E+03  0.15476473819E+03  0.00000000000E+00 0. -1.
         24    2    1    2    0    0 -0.17619566567E+01  0.39707964748E+02  0.13344490995E+03  0.15868331401E+03  0.76111912319E+02 0.  0.
         23    2    1    2    0    0 -0.42525186799E+03  0.64813148842E+01  0.15595156193E+04  0.16191404731E+04  0.92982503869E+02 0.  0.
        -11    1    3    3    0    0  0.42985518091E+00  0.59047932098E+02  0.12335431849E+03  0.13675939072E+03  0.00000000000E+00 0.  1.
         12    1    3    3    0    0 -0.21918118376E+01 -0.19339967349E+02  0.10090591462E+02  0.21923923286E+02  0.00000000000E+00 0. -1.
        -11    1    4    4    0    0 -0.40086675642E+03 -0.16687112185E+02  0.14166701518E+04  0.14723881740E+04  0.00000000000E+00 0. -1.
         11    1    4    4    0    0 -0.24385111564E+02  0.23168427070E+02  0.14284546750E+03  0.14675229901E+03  0.00000000000E+00 0.  1.
          1    1    1    2  501    0  0.42701382464E+03 -0.46189279633E+02  0.29821872443E+03  0.52288494298E+03  0.00000000000E+00 0. -1.
<scales pt_clust_5="13000.00000" pt_clust_6="13000.00000" pt_clust_7="13000.00000" pt_clust_8="13000.00000" pt_clust_9="428.34436"></scales>
<clustering>
<clus scale="   76.112">  5  6 -1 -1</clus>
<clus scale="   85.865">  1  5  2 -1</clus>
<clus scale="   92.983">  7  8 -1 -1</clus>
<clus scale="  428.344">  2  9  1 -1</clus>
<clus scale="  428.344">  2  5  1 -1</clus>
</clustering>
</event>
<event>
 9    2  0.1723348E-004  0.1072248E+03  0.7546771E-02  0.1269516E+00
         -3   -1    0    0    0  501 -0.00000000000E+00  0.00000000000E+00  0.41163058516E+03  0.41163058516E+03  0.00000000000E+00 0.  1.
         21   -1    0    0  501  502  0.00000000000E+00 -0.00000000000E+00 -0.15774583195E+03  0.15774583195E+03  0.00000000000E+00 0. -1.
         23    2    1    2    0    0 -0.57083033884E+02 -0.19155340053E+02  0.37716610351E+03  0.39229720458E+03  0.89540087530E+02 0.  0.
         24    2    1    2    0    0  0.30942809150E+02  0.24133479314E+02 -0.12080862742E+03  0.15035455017E+03  0.80448020709E+02 0.  0.
        -13    1    4    4    0    0  0.47225971009E+02 -0.12694873994E+02 -0.59707899801E+02  0.77178270660E+02  0.00000000000E+00 0.  1.
         14    1    4    4    0    0 -0.16283161859E+02  0.36828353308E+02 -0.61100727619E+02  0.73176279511E+02  0.00000000000E+00 0. -1.
        -11    1    3    3    0    0 -0.32403985517E+01 -0.41445308316E+02  0.23504282439E+03  0.23869089438E+03  0.00000000000E+00 0.  1.
         11    1    3    3    0    0 -0.53842635332E+02  0.22289968263E+02  0.14212327912E+03  0.15360631020E+03  0.00000000000E+00 0. -1.
         -4    1    1    2    0  502  0.26140224734E+02 -0.49781392618E+01 -0.24727228754E+01  0.26724662356E+02  0.00000000000E+00 0.  1.
<scales pt_clust_5="13000.00000" pt_clust_6="13000.00000" pt_clust_7="13000.00000" pt_clust_8="13000.00000" pt_clust_9="26.61002"></scales>
<clustering>
<clus scale="   26.610">  2  9  1 -1</clus>
<clus scale="   80.448">  5  6 -1 -1</clus>
<clus scale="   89.540">  7  8 -1 -1</clus>
<clus scale="   99.758">  2  5  1 -1</clus>
<clus scale="   26.610">  2  5  1 -1</clus>
</clustering>
</event>
<event>
 9    2  0.1723348E-004  0.1657445E+03  0.7546771E-02  0.1184100E+00
         21   -1    0    0  501  502  0.00000000000E+00  0.00000000000E+00  0.19039357597E+03  0.19039357597E+03  0.00000000000E+00 0.  1.
          2   -1    0    0  502    0 -0.00000000000E+00 -0.00000000000E+00 -0.25432967334E+03  0.25432967334E+03  0.00000000000E+00 0. -1.
         24    2    1    2    0    0 -0.13198833481E+03  0.22689247414E+02 -0.15187127742E+03  0.21797805338E+03  0.80708267089E+02 0.  0.
         23    2    1    2    0    0  0.15219207853E+03 -0.35087957241E+01  0.61904739699E+02  0.18861823943E+03  0.92573770758E+02 0.  0.
        -13    1    3    3    0    0 -0.30147930619E+02  0.12193151129E+02  0.26386239980E+01  0.32627181792E+02  0.00000000000E+00 0.  1.
         14    1    3    3    0    0 -0.10184040419E+03  0.10496096285E+02 -0.15450990141E+03  0.18535087159E+03  0.00000000000E+00 0. -1.
        -13    1    4    4    0    0  0.69132627469E+02  0.27979181267E+02  0.66149608203E+02  0.99689143996E+02  0.00000000000E+00 0.  1.
         13    1    4    4    0    0  0.83059451064E+02 -0.31487976991E+02 -0.42448685037E+01  0.88929095433E+02  0.00000000000E+00 0. -1.
          1    1    1    2  501    0 -0.20203743722E+02 -0.19180451690E+02  0.26030440348E+02  0.38126956502E+02  0.00000000000E+00 0. -1.
<scales pt_clust_5="13000.00000" pt_clust_6="13000.00000" pt_clust_7="13000.00000" pt_clust_8="13000.00000" pt_clust_9="27.85823"></scales>
<clustering>
<clus scale="   27.858">  1  9  2 -1</clus>
<clus scale="   80.708">  5  6 -1 -1</clus>
<clus scale="   92.574">  7  8 -1 -1</clus>
<clus scale="  159.421">  2  5  1 -1</clus>
<clus scale="   27.858">  1  5  2 -1</clus>
</clustering>
</event>
<event>
 9    2  0.1723348E-004  0.1065421E+03  0.7546771E-02  0.1280810E+00
         -3   -1    0    0    0  501 -0.00000000000E+00  0.00000000000E+00  0.29418905013E+02  0.29418905013E+02  0.00000000000E+00 0.  1.
         21   -1    0    0  501  502  0.00000000000E+00 -0.00000000000E+00 -0.58055644368E+03  0.58055644368E+03  0.00000000000E+00 0. -1.
         23    2    1    2    0    0  0.31711273234E+02 -0.17709532799E+02 -0.10676875364E+03  0.15263027027E+03  0.10284551641E+03 0.  0.
         24    2    1    2    0    0 -0.30076340802E+01  0.10593237949E+02 -0.29558555754E+03  0.30565134311E+03  0.77010773057E+02 0.  0.
        -13    1    4    4    0    0 -0.11292790302E+02  0.35279271020E+02 -0.76207679957E+02  0.84733491377E+02  0.00000000000E+00 0.  1.
         14    1    4    4    0    0  0.82851562221E+01 -0.24686033070E+02 -0.21937787758E+03  0.22091785173E+03  0.00000000000E+00 0. -1.
        -11    1    3    3    0    0  0.67612467665E+02 -0.61067978925E+01 -0.85986917079E+02  0.10955587010E+03  0.00000000000E+00 0.  1.
         11    1    3    3    0    0 -0.35901194431E+02 -0.11602734906E+02 -0.20781836565E+02  0.43074400169E+02  0.00000000000E+00 0. -1.
         -4    1    1    2    0  502 -0.28703639154E+02  0.71162948496E+01 -0.14878322749E+03  0.15169373532E+03  0.00000000000E+00 0.  1.
<scales pt_clust_5="13000.00000" pt_clust_6="13000.00000" pt_clust_7="13000.00000" pt_clust_8="13000.00000" pt_clust_9="29.57263"></scales>
<clustering>
<clus scale="   29.573">  2  9  1 -1</clus>
<clus scale="   77.011">  5  6 -1 -1</clus>
<clus scale="   81.882">  2  5  1 -1</clus>
<clus scale="  102.846">  7  8 -1 -1</clus>
<clus scale="   29.573">  2  5  1 -1</clus>
</clustering>
</event>
<event>
 9    2  0.1723348E-004  0.2534393E+03  0.7546771E-02  0.1111732E+00
         21   -1    0    0  501  502  0.00000000000E+00  0.00000000000E+00  0.11439851916E+03  0.11439851916E+03  0.00000000000E+00 0.  1.
          2   -1    0    0  502    0 -0.00000000000E+00 -0.00000000000E+00 -0.68409896634E+03  0.68409896634E+03  0.00000000000E+00 0. -1.
         23    2    1    2    0    0  0.39520857035E+02 -0.24582928792E+03 -0.27824488213E+03  0.38400636750E+03  0.89703617057E+02 0.  0.
         24    2    1    2    0    0  0.32058246844E+01  0.22623977720E+03 -0.20154939615E+03  0.31303946711E+03  0.78592841792E+02 0.  0.
        -13    1    4    4    0    0  0.35822975935E+02  0.13595969262E+03 -0.95324243091E+02  0.16986769835E+03  0.00000000000E+00 0.  1.
         14    1    4    4    0    0 -0.32617151251E+02  0.90280084578E+02 -0.10622515305E+03  0.14317176876E+03  0.00000000000E+00 0. -1.
        -11    1    3    3    0    0  0.62929886282E+01 -0.16933693218E+03 -0.23595680144E+03  0.29049993193E+03  0.00000000000E+00 0. -1.
         11    1    3    3    0    0  0.33227868407E+02 -0.76492355738E+02 -0.42288080689E+02  0.93506435573E+02  0.00000000000E+00 0.  1.
          1    1    1    2  501    0 -0.42726681720E+02  0.19589510723E+02 -0.89906168907E+02  0.10145165089E+03  0.00000000000E+00 0. -1.
<scales pt_clust_5="13000.00000" pt_clust_6="13000.00000" pt_clust_7="13000.00000" pt_clust_8="13000.00000" pt_clust_9="47.00341"></scales>
<clustering>
<clus scale="   47.003">  1  9  2 -1</clus>
<clus scale="   78.593">  5  6 -1 -1</clus>
<clus scale="   89.704">  7  8 -1 -1</clus>
<clus scale="  249.723">  1  5  2 -1</clus>
<clus scale="   47.003">  1  5  2 -1</clus>
</clustering>
</event>
<event>
 9    2  0.1723348E-004  0.1250507E+03  0.7546771E-02  0.1236680E+00
         -1   -1    0    0    0  501 -0.00000000000E+00  0.00000000000E+00  0.21736063032E+03  0.21736063032E+03  0.00000000000E+00 0.  1.
         21   -1    0    0  501  502  0.00000000000E+00 -0.00000000000E+00 -0.16301218201E+03  0.16301218201E+03  0.00000000000E+00 0.  1.
         23    2    1    2    0    0 -0.26211483365E+02 -0.36890181584E+02 -0.45797315822E+01  0.10167016622E+03  0.90928111167E+02 0.  0.
         24    2    1    2    0    0  0.92718277297E+02  0.11177463573E+03  0.13742727020E+02  0.16882744298E+03  0.84991733835E+02 0.  0.
        -13    1    4    4    0    0  0.56729656650E+02  0.62263586896E+02  0.49736489417E+02  0.97819868004E+02  0.00000000000E+00 0.  1.
         14    1    4    4    0    0  0.35988620648E+02  0.49511048834E+02 -0.35993762397E+02  0.71007574978E+02  0.00000000000E+00 0. -1.
        -13    1    3    3    0    0 -0.53245725565E+02 -0.28852718097E+01 -0.17873981998E+02  0.56239766329E+02  0.00000000000E+00 0.  1.
         13    1    3    3    0    0  0.27034242200E+02 -0.34004909774E+02  0.13294250415E+02  0.45430399890E+02  0.00000000000E+00 0. -1.
         -2    1    1    2    0  502 -0.66506793933E+02 -0.74884454146E+02  0.45185452870E+02  0.10987520313E+03  0.00000000000E+00 0.  1.
<scales pt_clust_5="13000.00000" pt_clust_6="13000.00000" pt_clust_7="13000.00000" pt_clust_8="13000.00000" pt_clust_9="100.15411"></scales>
<clustering>
<clus scale="   84.992">  5  6 -1 -1</clus>
<clus scale="   90.928">  7  8 -1 -1</clus>
<clus scale="  100.154">  2  9  1 -1</clus>
<clus scale="  120.803">  2  5  1 -1</clus>
<clus scale="  100.154">  2  5  1 -1</clus>
</clustering>
</event>
<event>
 9    2  0.1723348E-004  0.1299199E+03  0.7546771E-02  0.1245009E+00
          2   -1    0    0  502    0 -0.00000000000E+00  0.00000000000E+00  0.40255260354E+03  0.40255260354E+03  0.00000000000E+00 0. -1.
         21   -1    0    0  501  502  0.00000000000E+00 -0.00000000000E+00 -0.13583604088E+03  0.13583604088E+03  0.00000000000E+00 0.  1.
         23    2    1    2    0    0 -0.25653213464E+01  0.45703515361E+02  0.32237441546E+03  0.34803822847E+03  0.12292254693E+03 0.  0.
         24    2    1    2    0    0  0.54335028105E+02 -0.18658190197E+02  0.13358893439E+02  0.99935464687E+02  0.80673500778E+02 0.  0.
        -11    1    4    4    0    0  0.66700828888E+02  0.76828709896E+01  0.20060325400E+02  0.70074558408E+02  0.00000000000E+00 0.  1.
         12    1    4    4    0    0 -0.12365800783E+02 -0.26341061187E+02 -0.67014319614E+01  0.29860906279E+02  0.00000000000E+00 0. -1.
        -13    1    3    3    0    0  0.33239720845E+02 -0.31666729710E+02  0.11448107083E+03  0.12334332731E+03  0.00000000000E+00 0.  1.
         13    1    3    3    0    0 -0.35805042191E+02  0.77370245071E+02  0.20789334462E+03  0.22469490116E+03  0.00000000000E+00 0. -1.
          1    1    1    2  501    0 -0.51769706758E+02 -0.27045325164E+02 -0.69016746233E+02  0.90414951262E+02  0.00000000000E+00 0. -1.
<scales pt_clust_5="13000.00000" pt_clust_6="13000.00000" pt_clust_7="13000.00000" pt_clust_8="13000.00000" pt_clust_9="58.40849"></scales>
<clustering>
<clus scale="   58.408">  2  9  1 -1</clus>
<clus scale="   80.674">  5  6 -1 -1</clus>
<clus scale="   90.980">  2  5  1 -1</clus>
<clus scale="  122.923">  7  8 -1 -1</clus>
<clus scale="   58.408">  2  5  1 -1</clus>
</clustering>
</event>
<event>
 9    2  0.1723348E-004  0.1150217E+03  0.7546771E-02  0.1251830E+00
         21   -1    0    0  501  502  0.00000000000E+00  0.00000000000E+00  0.84717104210E+02  0.84717104210E+02  0.00000000000E+00 0. -1.
          2   -1    0    0  502    0 -0.00000000000E+00 -0.00000000000E+00 -0.16537934501E+04  0.16537934501E+04  0.00000000000E+00 0. -1.
         24    2    1    2    0    0  0.28204241530E+02  0.78675996143E+02 -0.13455097978E+04  0.13511260242E+04  0.90330092654E+02 0.  0.
         23    2    1    2    0    0  0.67112617235E+02 -0.32363503175E+02 -0.25205056688E+03  0.27765080739E+03  0.89492920670E+02 0.  0.
        -13    1    3    3    0    0 -0.19526535489E+02  0.41776894238E+02 -0.26877742477E+03  0.27270478277E+03  0.00000000000E+00 0.  1.
         14    1    3    3    0    0  0.47730777020E+02  0.36899101905E+02 -0.10767323731E+04  0.10784212414E+04  0.00000000000E+00 0. -1.
        -13    1    4    4    0    0  0.71409923059E+02 -0.56755055686E+02 -0.20783434964E+03  0.22697054951E+03  0.00000000000E+00 0.  1.
         13    1    4    4    0    0 -0.42973058242E+01  0.24391552511E+02 -0.44216217242E+02  0.50680257876E+02  0.00000000000E+00 0. -1.
          1    1    1    2  501    0 -0.95316858765E+02 -0.46312492968E+02  0.28484018825E+02  0.10973372270E+03  0.00000000000E+00 0. -1.
<scales pt_clust_5="13000.00000" pt_clust_6="13000.00000" pt_clust_7="13000.00000" pt_clust_8="13000.00000" pt_clust_9="105.97240"></scales>
<clustering>
<clus scale="   89.493">  7  8 -1 -1</clus>
<clus scale="   90.330">  5  6 -1 -1</clus>
<clus scale="  105.972">  1  9  2 -1</clus>
<clus scale="  114.365">  1  7  2 -1</clus>
<clus scale="  105.972">  1  5  2 -1</clus>
</clustering>
</event>
<event>
 9    2  0.1723348E-004  0.1045112E+03  0.7546771E-02  0.1281732E+00
         21   -1    0    0  501  502  0.00000000000E+00  0.00000000000E+00  0.24393181054E+02  0.24393181054E+02  0.00000000000E+00 0. -1.
          2   -1    0    0  502    0 -0.00000000000E+00 -0.00000000000E+00 -0.68914634016E+03  0.68914634016E+03  0.00000000000E+00 0. -1.
         23    2    1    2    0    0  0.11908139074E+02  0.40850191436E+02 -0.35382696788E+03  0.37002430315E+03  0.99568668779E+02 0.  0.
         24    2    1    2    0    0 -0.11025955270E+02 -0.85137866705E+01 -0.91655234675E+02  0.12187096773E+03  0.79106222757E+02 0.  0.
        -13    1    4    4    0    0  0.30523918225E+02 -0.20511053448E+02 -0.47401881990E+02  0.59994594036E+02  0.00000000000E+00 0.  1.
         14    1    4    4    0    0 -0.41549873495E+02  0.11997266778E+02 -0.44253352685E+02  0.61876373694E+02  0.00000000000E+00 0. -1.
        -11    1    3    3    0    0 -0.52737892620E+01  0.69500327374E+02 -0.28660748261E+03  0.29496094224E+03  0.00000000000E+00 0.  1.
         11    1    3    3    0    0  0.17181928336E+02 -0.28650135938E+02 -0.67219485270E+02  0.75063360906E+02  0.00000000000E+00 0. -1.
          1    1    1    2  501    0 -0.88218380372E+00 -0.32336404765E+02 -0.21927095654E+03  0.22164425033E+03  0.00000000000E+00 0. -1.
<scales pt_clust_5="13000.00000" pt_clust_6="13000.00000" pt_clust_7="13000.00000" pt_clust_8="13000.00000" pt_clust_9="32.34845"></scales>
<clustering>
<clus scale="   32.348">  1  9  2 -1</clus>
<clus scale="   79.106">  5  6 -1 -1</clus>
<clus scale="   85.244">  1  5  2 -1</clus>
<clus scale="   99.569">  7  8 -1 -1</clus>
<clus scale="   32.348">  1  5  2 -1</clus>
</clustering>
</event>
<event>
 9    2  0.1723348E-004  0.2464894E+03  0.7546771E-02  0.1116440E+00
          2   -1    0    0  502    0 -0.00000000000E+00  0.00000000000E+00  0.21641050434E+04  0.21641050434E+04  0.00000000000E+00 0. -1.
         21   -1    0    0  501  502  0.00000000000E+00 -0.00000000000E+00 -0.38690205569E+02  0.38690205569E+02  0.00000000000E+00 0. -1.
         24    2    1    2    0    0  0.40451939651E+02 -0.23858449742E+03  0.94931571993E+03  0.98337697600E+03  0.85270270280E+02 0.  0.
         23    2    1    2    0    0  0.16353811732E+02  0.20922905774E+03  0.66697940575E+03  0.70629887504E+03  0.99761352365E+02 0.  0.
        -13    1    3    3    0    0  0.18007878165E+02 -0.47092050850E+02  0.94722609714E+02  0.10730478890E+03  0.00000000000E+00 0.  1.
         14    1    3    3    0    0  0.22444061486E+02 -0.19149244657E+03  0.85459311022E+03  0.87607218710E+03  0.00000000000E+00 0. -1.
        -11    1    4    4    0    0  0.70932194292E+01  0.15265382860E+03  0.59482888184E+03  0.61414566987E+03  0.00000000000E+00 0. -1.
         11    1    4    4    0    0  0.92605923025E+01  0.56575229147E+02  0.72150523909E+02  0.92153205170E+02  0.00000000000E+00 0.  1.
          1    1    1    2  501    0 -0.56805751383E+02  0.29355439675E+02  0.50911971212E+03  0.51311939790E+03  0.00000000000E+00 0. -1.
<scales pt_clust_5="13000.00000" pt_clust_6="13000.00000" pt_clust_7="13000.00000" pt_clust_8="13000.00000" pt_clust_9="63.94247"></scales>
<clustering>
<clus scale="   63.942">  2  9  1 -1</clus>
<clus scale="   85.270">  5  6 -1 -1</clus>
<clus scale="   99.761">  7  8 -1 -1</clus>
<clus scale="  240.989">  1  5  2 -1</clus>
<clus scale="   63.942">  2  5  1 -1</clus>
</clustering>
</event>
<event>
 9    2  0.1723348E-004  0.2202244E+03  0.7546771E-02  0.1134740E+00
         21   -1    0    0  501  502  0.00000000000E+00  0.00000000000E+00  0.97286997362E+02  0.97286997362E+02  0.00000000000E+00 0. -1.
         -1   -1    0    0    0  501 -0.00000000000E+00 -0.00000000000E+00 -0.84833105918E+03  0.84833105918E+03  0.00000000000E+00 0.  1.
         24    2    1    2    0    0  0.20259895608E+03  0.16769058032E+02 -0.64664225198E+03  0.68259035354E+03  0.80348306730E+02 0.  0.
         23    2    1    2    0    0 -0.18549362811E+03 -0.56555772258E+01 -0.11740803718E+03  0.23883548007E+03  0.93903502185E+02 0.  0.
        -13    1    3    3    0    0  0.15773649899E+03  0.12231909454E+02 -0.58624287374E+03  0.60721588396E+03  0.00000000000E+00 0.  1.
         14    1    3    3    0    0  0.44862457091E+02  0.45371485786E+01 -0.60399378241E+02  0.75374469586E+02  0.00000000000E+00 0. -1.
        -13    1    4    4    0    0 -0.10824860542E+03 -0.49405867065E+02 -0.72659907555E+02  0.13942081065E+03  0.00000000000E+00 0. -1.
         13    1    4    4    0    0 -0.77245022690E+02  0.43750289839E+02 -0.44748129627E+02  0.99414669423E+02  0.00000000000E+00 0.  1.
         -2    1    1    2    0  502 -0.17105327969E+02 -0.11113480807E+02  0.13006227341E+02  0.24192222929E+02  0.00000000000E+00 0.  1.
<scales pt_clust_5="13000.00000" pt_clust_6="13000.00000" pt_clust_7="13000.00000" pt_clust_8="13000.00000" pt_clust_9="20.39857"></scales>
<clustering>
<clus scale="   20.399">  1  9  2 -1</clus>
<clus scale="   80.348">  5  6 -1 -1</clus>
<clus scale="   93.904">  7  8 -1 -1</clus>
<clus scale="  214.795">  2  5  1 -1</clus>
<clus scale="   20.399">  1  5  2 -1</clus>
</clustering>
</event>
<event>
 9    2  0.1723348E-004  0.1168774E+03  0.7546771E-02  0.1252388E+00
         21   -1    0    0  501  502  0.00000000000E+00  0.00000000000E+00  0.34336182525E+03  0.34336182525E+03  0.00000000000E+00 0. -1.
          4   -1    0    0  502    0 -0.00000000000E+00 -0.00000000000E+00 -0.15300135601E+03  0.15300135601E+03  0.00000000000E+00 0. -1.
         23    2    1    2    0    0  0.12549181956E+01  0.75481418960E+02 -0.11652925914E+03  0.16590431886E+03  0.90808344072E+02 0.  0.
         24    2    1    2    0    0 -0.11876346424E+02 -0.55745483019E+02  0.21654658448E+03  0.23737714799E+03  0.78783758864E+02 0.  0.
        -13    1    4    4    0    0  0.55821654748E+01 -0.61587896204E+02  0.20815112692E+03  0.21714308916E+03  0.00000000000E+00 0.  1.
         14    1    4    4    0    0 -0.17458511899E+02  0.58424131850E+01  0.83954575562E+01  0.20234058839E+02  0.00000000000E+00 0. -1.
        -13    1    3    3    0    0 -0.15727082599E+02  0.58591329984E+02 -0.12623944482E+03  0.14005956770E+03  0.00000000000E+00 0. -1.
         13    1    3    3    0    0  0.16982000795E+02  0.16890088976E+02  0.97101856789E+01  0.25844751160E+02  0.00000000000E+00 0.  1.
          3    1    1    2  501    0  0.10621428228E+02 -0.19735935941E+02  0.90343143903E+02  0.93081714399E+02  0.00000000000E+00 0. -1.
<scales pt_clust_5="13000.00000" pt_clust_6="13000.00000" pt_clust_7="13000.00000" pt_clust_8="13000.00000" pt_clust_9="22.41254"></scales>
<clustering>
<clus scale="   22.413">  1  9  2 -1</clus>
<clus scale="   78.784">  5  6 -1 -1</clus>
<clus scale="   90.808">  7  8 -1 -1</clus>
<clus scale="  107.801">  1  5  2 -1</clus>
<clus scale="   22.413">  1  5  2 -1</clus>
</clustering>
</event>
<event>
 9    2  0.1723348E-004  0.9550293E+02  0.7546771E-02  0.1292645E+00
         -1   -1    0    0    0  501 -0.00000000000E+00  0.00000000000E+00  0.17992150424E+03  0.17992150424E+03  0.00000000000E+00 0.  1.
         21   -1    0    0  501  502  0.00000000000E+00 -0.00000000000E+00 -0.32985588721E+03  0.32985588721E+03  0.00000000000E+00 0.  1.
         23    2    1    2    0    0 -0.23489843983E+02 -0.14955655607E+02  0.10274345723E+03  0.14040008876E+03  0.91545193839E+02 0.  0.
         24    2    1    2    0    0  0.40694154659E+02 -0.73027623512E+02 -0.22830203079E+02  0.12266495600E+03  0.86812586871E+02 0.  0.
        -11    1    4    4    0    0 -0.11986185430E+02 -0.66335559820E+02 -0.13481469868E+02  0.68744637373E+02  0.00000000000E+00 0.  1.
         12    1    4    4    0    0  0.52680340090E+02 -0.66920636924E+01 -0.93487332105E+01  0.53920318629E+02  0.00000000000E+00 0. -1.
        -13    1    3    3    0    0 -0.58775133765E+02 -0.13755520614E+02  0.63515233927E+02  0.87623716180E+02  0.00000000000E+00 0.  1.
         13    1    3    3    0    0  0.35285289783E+02 -0.12001349931E+01  0.39228223308E+02  0.52776372582E+02  0.00000000000E+00 0. -1.
         -2    1    1    2    0  502 -0.17204310677E+02  0.87983279120E+02 -0.22984763713E+03  0.24671234668E+03  0.00000000000E+00 0.  1.
<scales pt_clust_5="13000.00000" pt_clust_6="13000.00000" pt_clust_7="13000.00000" pt_clust_8="13000.00000" pt_clust_9="89.64957"></scales>
<clustering>
<clus scale="   86.813">  5  6 -1 -1</clus>
<clus scale="   89.650">  2  9  1 -1</clus>
<clus scale="   90.976">  2  5  1 -1</clus>
<clus scale="   91.545">  7  8 -1 -1</clus>
<clus scale="   89.650">  2  5  1 -1</clus>
</clustering>
</event>
<event>
 9    2  0.1723348E-004  0.9173773E+02  0.7546771E-02  0.1305254E+00
         21   -1    0    0  501  502  0.00000000000E+00  0.00000000000E+00  0.70519446437E+02  0.70519446437E+02  0.00000000000E+00 0.  1.
          2   -1    0    0  502    0 -0.00000000000E+00 -0.00000000000E+00 -0.52052250868E+03  0.52052250868E+03  0.00000000000E+00 0. -1.
         24    2    1    2    0    0 -0.14845545344E+02 -0.61480881485E+01 -0.45801158860E+03  0.46524778749E+03  0.80141744885E+02 0.  0.
         23    2    1    2    0    0 -0.10410910613E+02 -0.46032708481E+01 -0.11490773968E+02  0.92123661227E+02  0.90692634261E+02 0.  0.
        -11    1    3    3    0    0 -0.16605863586E+02  0.35728165303E+02 -0.19832324107E+03  0.20219882406E+03  0.00000000000E+00 0.  1.
         12    1    3    3    0    0  0.17603182415E+01 -0.41876253452E+02 -0.25968834753E+03  0.26304896344E+03  0.00000000000E+00 0. -1.
        -11    1    4    4    0    0  0.12755148554E+02  0.16255330237E+02  0.32316456267E+02  0.38357305972E+02  0.00000000000E+00 0.  1.
         11    1    4    4    0    0 -0.23166059167E+02 -0.20858601085E+02 -0.43807230235E+02  0.53766355255E+02  0.00000000000E+00 0. -1.
          1    1    1    2  501    0  0.25256455958E+02  0.10751358997E+02  0.19499300324E+02  0.33670506396E+02  0.00000000000E+00 0. -1.
<scales pt_clust_5="13000.00000" pt_clust_6="13000.00000" pt_clust_7="13000.00000" pt_clust_8="13000.00000" pt_clust_9="27.44960"></scales>
<clustering>
<clus scale="   27.450">  1  9  2 -1</clus>
<clus scale="   80.142">  5  6 -1 -1</clus>
<clus scale="   81.323">  2  5  1 -1</clus>
<clus scale="   90.693">  7  8 -1 -1</clus>
<clus scale="   27.450">  1  5  2 -1</clus>
</clustering>
</event>
<event>
 9    2  0.1723348E-004  0.1159389E+03  0.7546771E-02  0.1255486E+00
          4   -1    0    0  502    0 -0.00000000000E+00  0.00000000000E+00  0.10005563196E+03  0.10005563196E+03  0.00000000000E+00 0. -1.
         21   -1    0    0  501  502  0.00000000000E+00 -0.00000000000E+00 -0.27742180717E+03  0.27742180717E+03  0.00000000000E+00 0. -1.
         24    2    1    2    0    0 -0.75541042564E+01 -0.73193749279E+02  0.39058722898E+02  0.11599274927E+03  0.80711490039E+02 0.  0.
         23    2    1    2    0    0 -0.70271243038E+01  0.29577725933E+02 -0.15584706526E+03  0.18542784565E+03  0.95765107672E+02 0.  0.
        -13    1    3    3    0    0  0.25798117625E+02 -0.39682261269E+02  0.48512710081E+02  0.67776897035E+02  0.00000000000E+00 0.  1.
         14    1    3    3    0    0 -0.33352221881E+02 -0.33511488011E+02 -0.94539871825E+01  0.48215852235E+02  0.00000000000E+00 0. -1.
        -13    1    4    4    0    0  0.23216502059E+02  0.30476367770E+02 -0.14637480312E+02  0.41013056339E+02  0.00000000000E+00 0. -1.
         13    1    4    4    0    0 -0.30243626363E+02 -0.89864183742E+00 -0.14120958495E+03  0.14441478932E+03  0.00000000000E+00 0.  1.
          3    1    1    2  501    0  0.14581228560E+02  0.43616023347E+02 -0.60577832846E+02  0.76056844210E+02  0.00000000000E+00 0. -1.
<scales pt_clust_5="13000.00000" pt_clust_6="13000.00000" pt_clust_7="13000.00000" pt_clust_8="13000.00000" pt_clust_9="45.98880"></scales>
<clustering>
<clus scale="   45.989">  2  9  1 -1</clus>
<clus scale="   80.711">  5  6 -1 -1</clus>
<clus scale="   95.765">  7  8 -1 -1</clus>
<clus scale="  103.852">  1  5  2 -1</clus>
<clus scale="   45.989">  2  5  1 -1</clus>
</clustering>
</event>
<event>
 9    2  0.1723348E-004  0.9690477E+02  0.7546771E-02  0.1292874E+00
         21   -1    0    0  501  502  0.00000000000E+00  0.00000000000E+00  0.37143582580E+03  0.37143582580E+03  0.00000000000E+00 0. -1.
          4   -1    0    0  502    0 -0.00000000000E+00 -0.00000000000E+00 -0.68528461768E+02  0.68528461768E+02  0.00000000000E+00 0. -1.
         23    2    1    2    0    0  0.14101707397E+02 -0.53830448494E+02  0.23629409700E+02  0.10953343281E+03  0.91338100282E+02 0.  0.
         24    2    1    2    0    0 -0.23780638805E+02 -0.74873133374E+01  0.62329211599E+02  0.10477557208E+03  0.80445082155E+02 0.  0.
        -13    1    4    4    0    0 -0.53515001707E+02 -0.10179820597E+01  0.35688615819E+02  0.64331710643E+02  0.00000000000E+00 0.  1.
         14    1    4    4    0    0  0.29734362901E+02 -0.64693312777E+01  0.26640595781E+02  0.40443861436E+02  0.00000000000E+00 0. -1.
        -13    1    3    3    0    0 -0.13117806228E+02 -0.47369295423E+02  0.50692845802E+02  0.70609429998E+02  0.00000000000E+00 0.  1.
         13    1    3    3    0    0  0.27219513625E+02 -0.64611530709E+01 -0.27063436103E+02  0.38924002809E+02  0.00000000000E+00 0. -1.
          3    1    1    2  501    0  0.96789314084E+01  0.61317761831E+02  0.21694874273E+03  0.22565528268E+03  0.00000000000E+00 0. -1.
<scales pt_clust_5="13000.00000" pt_clust_6="13000.00000" pt_clust_7="13000.00000" pt_clust_8="13000.00000" pt_clust_9="62.07697"></scales>
<clustering>
<clus scale="   62.077">  1  9  2 -1</clus>
<clus scale="   80.445">  5  6 -1 -1</clus>
<clus scale="   86.714">  1  5  2 -1</clus>
<clus scale="   91.338">  7  8 -1 -1</clus>
<clus scale="   62.077">  1  5  2 -1</clus>
</clustering>
</event>
<event>
 9    2  0.1723348E-004  0.1046209E+03  0.7546771E-02  0.1275036E+00
         -1   -1    0    0    0  501 -0.00000000000E+00  0.00000000000E+00  0.61392830221E+02  0.61392830221E+02  0.00000000000E+00 0.  1.
         21   -1    0    0  501  502  0.00000000000E+00 -0.00000000000E+00 -0.43261142762E+03  0.43261142762E+03  0.00000000000E+00 0.  1.
         23    2    1    2    0    0 -0.63075088686E+01  0.43443844075E+02 -0.34700441922E+02  0.10593394226E+03  0.89948469678E+02 0.  0.
         24    2    1    2    0    0  0.35673400992E+02 -0.89552086845E+02 -0.29103574638E+03  0.31695790310E+03  0.80425983792E+02 0.  0.
        -13    1    4    4    0    0 -0.24021326205E+02 -0.19697375189E+02 -0.10448575300E+03  0.10900588646E+03  0.00000000000E+00 0.  1.
         14    1    4    4    0    0  0.59694727197E+02 -0.69854711656E+02 -0.18654999338E+03  0.20795201664E+03  0.00000000000E+00 0. -1.
        -11    1    3    3    0    0 -0.47383509546E+02  0.15067520642E+02 -0.12335145711E+02  0.51228731927E+02  0.00000000000E+00 0. -1.
         11    1    3    3    0    0  0.41076000677E+02  0.28376323433E+02 -0.22365296211E+02  0.54705210335E+02  0.00000000000E+00 0.  1.
         -2    1    1    2    0  502 -0.29365892124E+02  0.46108242770E+02 -0.45482409097E+02  0.71112412481E+02  0.00000000000E+00 0.  1.
<scales pt_clust_5="13000.00000" pt_clust_6="13000.00000" pt_clust_7="13000.00000" pt_clust_8="13000.00000" pt_clust_9="54.66561"></scales>
<clustering>
<clus scale="   54.666">  2  9  1 -1</clus>
<clus scale="   80.426">  5  6 -1 -1</clus>
<clus scale="   89.948">  7  8 -1 -1</clus>
<clus scale="   96.556">  2  5  1 -1</clus>
<clus scale="   54.666">  2  5  1 -1</clus>
</clustering>
</event>
<event>
 9    2  0.1723348E-004  0.1052296E+03  0.7546771E-02  0.1272640E+00
         21   -1    0    0  501  502  0.00000000000E+00  0.00000000000E+00  0.72998772790E+03  0.72998772790E+03  0.00000000000E+00 0. -1.
          4   -1    0    0  502    0 -0.00000000000E+00 -0.00000000000E+00 -0.22738596172E+02  0.22738596172E+02  0.00000000000E+00 0. -1.
         23    2    1    2    0    0 -0.59077846238E+02 -0.15950219589E+02  0.17942346584E+03  0.20869878315E+03  0.87280012449E+02 0.  0.
         24    2    1    2    0    0  0.54987999647E+02 -0.55267133079E+01  0.49573051533E+03  0.50519348137E+03  0.80109207505E+02 0.  0.
        -11    1    4    4    0    0  0.52199510320E+02  0.27492104655E+02  0.23175691002E+03  0.23914821771E+03  0.00000000000E+00 0.  1.
         12    1    4    4    0    0  0.27884893273E+01 -0.33018817963E+02  0.26397360531E+03  0.26604526366E+03  0.00000000000E+00 0. -1.
        -13    1    3    3    0    0 -0.71448280952E+02 -0.33840023371E+02  0.10672597096E+03  0.13281730652E+03  0.00000000000E+00 0. -1.
         13    1    3    3    0    0  0.12370434715E+02  0.17889803781E+02  0.72697494876E+02  0.75881476631E+02  0.00000000000E+00 0.  1.
          3    1    1    2  501    0  0.40898465906E+01  0.21476932897E+02  0.32095150564E+02  0.38834059555E+02  0.00000000000E+00 0. -1.
<scales pt_clust_5="13000.00000" pt_clust_6="13000.00000" pt_clust_7="13000.00000" pt_clust_8="13000.00000" pt_clust_9="21.86289"></scales>
<clustering>
<clus scale="   21.863">  1  9  2 -1</clus>
<clus scale="   80.109">  5  6 -1 -1</clus>
<clus scale="   87.280">  7  8 -1 -1</clus>
<clus scale="   99.363">  1  5  2 -1</clus>
<clus scale="   21.863">  1  5  2 -1</clus>
</clustering>
</event>
<event>
 9    2  0.1723348E-004  0.1342978E+03  0.7546771E-02  0.1242606E+00
         -1   -1    0    0    0  501 -0.00000000000E+00  0.00000000000E+00  0.91772061786E+03  0.91772061786E+03  0.00000000000E+00 0.  1.
         21   -1    0    0  501  502  0.00000000000E+00 -0.00000000000E+00 -0.48175295534E+02  0.48175295534E+02  0.00000000000E+00 0.  1.
         24    2    1    2    0    0  0.23540223340E+02 -0.18240106244E+02  0.59928001998E+02  0.10520007847E+03  0.81171716102E+02 0.  0.
         23    2    1    2    0    0  0.69240080358E+02  0.56646246243E+02  0.70171954617E+03  0.71330130989E+03  0.91572109667E+02 0.  0.
        -11    1    3    3    0    0  0.51965769950E+02 -0.62316381278E+00  0.28321939030E+02  0.59185824401E+02  0.00000000000E+00 0.  1.
         12    1    3    3    0    0 -0.28425546610E+02 -0.17616942431E+02  0.31606062968E+02  0.46014254064E+02  0.00000000000E+00 0. -1.
        -11    1    4    4    0    0  0.16160062677E+02  0.71152420516E+02  0.39284921266E+03  0.39956766443E+03  0.00000000000E+00 0.  1.
         11    1    4    4    0    0  0.53080017681E+02 -0.14506174273E+02  0.30887033350E+03  0.31373364545E+03  0.00000000000E+00 0. -1.
         -2    1    1    2    0  502 -0.92780303698E+02 -0.38406139998E+02  0.10789777416E+03  0.14739452504E+03  0.00000000000E+00 0.  1.
<scales pt_clust_5="13000.00000" pt_clust_6="13000.00000" pt_clust_7="13000.00000" pt_clust_8="13000.00000" pt_clust_9="98.23667"></scales>
<clustering>
<clus scale="   81.172">  5  6 -1 -1</clus>
<clus scale="   86.462">  1  5  2 -1</clus>
<clus scale="   91.572">  7  8 -1 -1</clus>
<clus scale="   98.237">  2  9  1 -1</clus>
<clus scale="   98.237">  2  5  1 -1</clus>
</clustering>
</event>
<event>
 9    2  0.1723348E-004  0.2151463E+03  0.7546771E-02  0.1138501E+00
          2   -1    0    0  502    0 -0.00000000000E+00  0.00000000000E+00  0.11859375752E+04  0.11859375752E+04  0.00000000000E+00 0. -1.
         21   -1    0    0  501  502  0.00000000000E+00 -0.00000000000E+00 -0.58155429636E+02  0.58155429636E+02  0.00000000000E+00 0. -1.
         23    2    1    2    0    0  0.14151844855E+03  0.14034568713E+03  0.67799199705E+03  0.71268169472E+03  0.92291206239E+02 0.  0.
         24    2    1    2    0    0 -0.14772350729E+03 -0.11012039161E+03  0.21387941405E+03  0.29349126918E+03  0.80274442231E+02 0.  0.
        -13    1    4    4    0    0 -0.58192848295E+02 -0.37147361779E+02  0.14078966281E+03  0.15680581377E+03  0.00000000000E+00 0.  1.
         14    1    4    4    0    0 -0.89530658998E+02 -0.72973029833E+02  0.73089751248E+02  0.13668545541E+03  0.00000000000E+00 0. -1.
        -13    1    3    3    0    0  0.97876345496E+02  0.13936378348E+03  0.59522804888E+03  0.61911103473E+03  0.00000000000E+00 0. -1.
         13    1    3    3    0    0  0.43642103058E+02  0.98190365060E+00  0.82763948173E+02  0.93570659992E+02  0.00000000000E+00 0.  1.
          1    1    1    2  501    0  0.62050587399E+01 -0.30225295515E+02  0.23591073443E+03  0.23792004090E+03  0.00000000000E+00 0. -1.
<scales pt_clust_5="13000.00000" pt_clust_6="13000.00000" pt_clust_7="13000.00000" pt_clust_8="13000.00000" pt_clust_9="30.85567"></scales>
<clustering>
<clus scale="   30.856">  2  9  1 -1</clus>
<clus scale="   80.274">  5  6 -1 -1</clus>
<clus scale="   92.291">  7  8 -1 -1</clus>
<clus scale="  210.272">  2  5  1 -1</clus>
<clus scale="   30.856">  2  5  1 -1</clus>
</clustering>
</event>
<event>
 9    2  0.1723348E-004  0.1523478E+03  0.7546771E-02  0.1199219E+00
          4   -1    0    0  502    0 -0.00000000000E+00  0.00000000000E+00  0.19236772789E+03  0.19236772789E+03  0.00000000000E+00 0. -1.
         21   -1    0    0  501  502  0.00000000000E+00 -0.00000000000E+00 -0.21045236172E+03  0.21045236172E+03  0.00000000000E+00 0.  1.
         24    2    1    2    0    0 -0.71639945992E+02  0.11834821549E+03  0.96167616803E+01  0.16112082380E+03  0.82029603099E+02 0.  0.
         23    2    1    2    0    0  0.11117860813E+03 -0.39770839441E+02 -0.35834803642E+02  0.15335979469E+03  0.91064213053E+02 0.  0.
        -13    1    3    3    0    0 -0.40210055906E+02  0.11475099519E+03  0.27664774578E+02  0.12469955591E+03  0.00000000000E+00 0.  1.
         14    1    3    3    0    0 -0.31429890086E+02  0.35972203006E+01 -0.18048012897E+02  0.36421267883E+02  0.00000000000E+00 0. -1.
        -13    1    4    4    0    0  0.19023390854E+02 -0.52515223353E+02 -0.17557186260E+02  0.58549063808E+02  0.00000000000E+00 0.  1.
         13    1    4    4    0    0  0.92155217281E+02  0.12744383912E+02 -0.18277617382E+02  0.94810730883E+02  0.00000000000E+00 0. -1.
          3    1    1    2  501    0 -0.39538662143E+02 -0.78577376045E+02  0.81334081241E+01  0.88339471121E+02  0.00000000000E+00 0. -1.
<scales pt_clust_5="13000.00000" pt_clust_6="13000.00000" pt_clust_7="13000.00000" pt_clust_8="13000.00000" pt_clust_9="87.96430"></scales>
<clustering>
<clus scale="   82.030">  5  6 -1 -1</clus>
<clus scale="   87.964">  2  9  1 -1</clus>
<clus scale="   91.064">  7  8 -1 -1</clus>
<clus scale="  147.126">  1  5  2 -1</clus>
<clus scale="   87.964">  2  5  1 -1</clus>
</clustering>
</event>
<event>
 9    2  0.1723348E-004  0.1230684E+03  0.7546771E-02  0.1245207E+00
         21   -1    0    0  501  502  0.00000000000E+00  0.00000000000E+00  0.10502060850E+03  0.10502060850E+03  0.00000000000E+00 0.  1.
         -1   -1    0    0    0  501 -0.00000000000E+00 -0.00000000000E+00 -0.17356031455E+03  0.17356031455E+03  0.00000000000E+00 0.  1.
         23    2    1    2    0    0 -0.30297653083E+02  0.57229716857E+02 -0.72613467326E+02  0.14025470084E+03  0.10102216191E+03 0.  0.
         24    2    1    2    0    0  0.22392423014E+02 -0.76472137167E+02 -0.95961765370E+01  0.11343384183E+03  0.80160722902E+02 0.  0.
        -11    1    4    4    0    0  0.28897491209E+02 -0.68826956197E+02 -0.37674084456E+02  0.83615498187E+02  0.00000000000E+00 0.  1.
         12    1    4    4    0    0 -0.65050681954E+01 -0.76451809700E+01  0.28077907919E+02  0.29818343640E+02  0.00000000000E+00 0. -1.
        -13    1    3    3    0    0  0.31892863606E+02  0.22989315298E+02 -0.87212431224E+00  0.39324597489E+02  0.00000000000E+00 0.  1.
         13    1    3    3    0    0 -0.62190516689E+02  0.34240401559E+02 -0.71741343014E+02  0.10093010335E+03  0.00000000000E+00 0. -1.
         -2    1    1    2    0  502  0.79052300694E+01  0.19242420310E+02  0.13669937811E+02  0.24892380392E+02  0.00000000000E+00 0.  1.
<scales pt_clust_5="13000.00000" pt_clust_6="13000.00000" pt_clust_7="13000.00000" pt_clust_8="13000.00000" pt_clust_9="20.80297"></scales>
<clustering>
<clus scale="   20.803">  1  9  2 -1</clus>
<clus scale="   80.161">  5  6 -1 -1</clus>
<clus scale="  101.022">  7  8 -1 -1</clus>
<clus scale="  106.612">  1  5  2 -1</clus>
<clus scale="   20.803">  1  5  2 -1</clus>
</clustering>
</event>
<event>
 9    2  0.1723348E-004  0.9064342E+02  0.7546771E-02  0.1308218E+00
          2   -1    0    0  502    0 -0.00000000000E+00  0.00000000000E+00  0.58260895215E+03  0.58260895215E+03  0.00000000000E+00 0. -1.
         21   -1    0    0  501  502  0.00000000000E+00 -0.00000000000E+00 -0.35595154186E+02  0.35595154186E+02  0.00000000000E+00 0. -1.
         24    2    1    2    0    0 -0.47434020011E+01  0.64415740584E+01  0.33925041389E+03  0.34809948228E+03  0.77578428059E+02 0.  0.
         23    2    1    2    0    0  0.54545144221E+02 -0.40871284000E+02  0.14156897992E+03  0.18039778153E+03  0.88633790910E+02 0.  0.
        -11    1    3    3    0    0  0.73691930890E+01  0.40426889369E+02  0.15533410332E+03  0.16067769617E+03  0.00000000000E+00 0.  1.
         12    1    3    3    0    0 -0.12112595090E+02 -0.33985315311E+02  0.18391631057E+03  0.18742178611E+03  0.00000000000E+00 0. -1.
        -11    1    4    4    0    0  0.51600835567E+02 -0.61292181541E+02  0.13783608128E+03  0.15943074688E+03  0.00000000000E+00 0. -1.
         11    1    4    4    0    0  0.29443086534E+01  0.20420897541E+02  0.37328986492E+01  0.20967034653E+02  0.00000000000E+00 0.  1.
          1    1    1    2  501    0 -0.49801742220E+02  0.34429709942E+02  0.66194404147E+02  0.89706842522E+02  0.00000000000E+00 0. -1.
<scales pt_clust_5="13000.00000" pt_clust_6="13000.00000" pt_clust_7="13000.00000" pt_clust_8="13000.00000" pt_clust_9="60.54435"></scales>
<clustering>
<clus scale="   60.544">  2  9  1 -1</clus>
<clus scale="   77.578">  5  6 -1 -1</clus>
<clus scale="   79.867">  1  5  2 -1</clus>
<clus scale="   88.634">  7  8 -1 -1</clus>
<clus scale="   60.544">  2  5  1 -1</clus>
</clustering>
</event>
<event>
 9    2  0.1723348E-004  0.9284447E+02  0.7546771E-02  0.1302403E+00
         -1   -1    0    0    0  501 -0.00000000000E+00  0.00000000000E+00  0.69695022223E+02  0.69695022223E+02  0.00000000000E+00 0.  1.
         21   -1    0    0  501  502  0.00000000000E+00 -0.00000000000E+00 -0.35216444374E+03  0.35216444374E+03  0.00000000000E+00 0. -1.
         24    2    1    2    0    0 -0.25607451364E+01 -0.15563652127E+02 -0.41021097884E+01  0.82927478512E+02  0.81310237390E+02 0.  0.
         23    2    1    2    0    0  0.41869433937E+02 -0.62673920968E+01 -0.27602496775E+03  0.29390694905E+03  0.91647052224E+02 0.  0.
        -11    1    3    3    0    0 -0.39401528688E+02 -0.22208505786E+02 -0.48188336826E+01  0.45485375125E+02  0.00000000000E+00 0.  1.
         12    1    3    3    0    0  0.36840783552E+02  0.66448536588E+01  0.71672389422E+00  0.37442103387E+02  0.00000000000E+00 0. -1.
        -11    1    4    4    0    0  0.57488002455E+02  0.66528758387E+01 -0.26414894915E+03  0.27041412411E+03  0.00000000000E+00 0. -1.
         11    1    4    4    0    0 -0.15618568518E+02 -0.12920267936E+02 -0.11876018600E+02  0.23492824944E+02  0.00000000000E+00 0.  1.
         -2    1    1    2    0  502 -0.39308688801E+02  0.21831044224E+02 -0.23423439801E+01  0.45025038395E+02  0.00000000000E+00 0.  1.
<scales pt_clust_5="13000.00000" pt_clust_6="13000.00000" pt_clust_7="13000.00000" pt_clust_8="13000.00000" pt_clust_9="44.96409"></scales>
<clustering>
<clus scale="   44.964">  2  9  1 -1</clus>
<clus scale="   81.310">  5  6 -1 -1</clus>
<clus scale="   82.658">  1  5  2 -1</clus>
<clus scale="   91.647">  7  8 -1 -1</clus>
<clus scale="   44.964">  2  5  1 -1</clus>
</clustering>
</event>
<event>
 9    2  0.1723348E-004  0.1057514E+03  0.7546771E-02  0.1273883E+00
         21   -1    0    0  501  502  0.00000000000E+00  0.00000000000E+00  0.19545707135E+03  0.19545707135E+03  0.00000000000E+00 0. -1.
          2   -1    0    0  502    0 -0.00000000000E+00 -0.00000000000E+00 -0.49952022042E+03  0.49952022042E+03  0.00000000000E+00 0. -1.
         24    2    1    2    0    0 -0.15863089696E+02 -0.27515943734E+02 -0.42777968814E+03  0.44083660459E+03  0.10164981843E+03 0.  0.
         23    2    1    2    0    0 -0.85241691194E+01  0.21748097967E+02 -0.29803066065E+02  0.98589166473E+02  0.91027247430E+02 0.  0.
        -11    1    3    3    0    0  0.34598122383E+02 -0.37094879818E+02 -0.14990174667E+03  0.15825167878E+03  0.00000000000E+00 0.  1.
         12    1    3    3    0    0 -0.50461212078E+02  0.95789360845E+01 -0.27787794146E+03  0.28258492581E+03  0.00000000000E+00 0. -1.
        -13    1    4    4    0    0  0.33457232645E+02 -0.90542375316E+01  0.62990045264E+01  0.35228441515E+02  0.00000000000E+00 0.  1.
         13    1    4    4    0    0 -0.41981401764E+02  0.30802335499E+02 -0.36102070592E+02  0.63360724959E+02  0.00000000000E+00 0. -1.
          1    1    1    2  501    0  0.24387258815E+02  0.57678457664E+01  0.15351960513E+03  0.15555152071E+03  0.00000000000E+00 0. -1.
<scales pt_clust_5="13000.00000" pt_clust_6="13000.00000" pt_clust_7="13000.00000" pt_clust_8="13000.00000" pt_clust_9="25.06006"></scales>
<clustering>
<clus scale="   25.060">  1  9  2 -1</clus>
<clus scale="   91.027">  7  8 -1 -1</clus>
<clus scale="   95.586">  1  7  2 -1</clus>
<clus scale="  101.650">  5  6 -1 -1</clus>
<clus scale="   25.060">  1  5  2 -1</clus>
</clustering>
</event>
<event>
 9    2  0.1956322E-004  0.2036373E+03  0.7546771E-02  0.1147768E+00
         21   -1    0    0  501  502  0.00000000000E+00  0.00000000000E+00  0.17645722255E+03  0.17645722255E+03  0.00000000000E+00 0. -1.
         -1   -1    0    0    0  501 -0.00000000000E+00 -0.00000000000E+00 -0.10704320032E+04  0.10704320032E+04  0.00000000000E+00 0.  1.
         24    2    1    2    0    0 -0.31430402873E+02 -0.15299538073E+03 -0.13063678184E+03  0.21868355960E+03  0.79756339682E+02 0.  0.
         23    2    1    2    0    0 -0.23878689591E+02  0.26208694652E+03 -0.25000414835E+02  0.27980573740E+03  0.91686807042E+02 0.  0.
        -13    1    3    3    0    0  0.24457949799E+02 -0.38449071663E+02 -0.51016122933E+02  0.68404438593E+02  0.00000000000E+00 0.  1.
         14    1    3    3    0    0 -0.55888352672E+02 -0.11454630907E+03 -0.79620658907E+02  0.15027912100E+03  0.00000000000E+00 0. -1.
        -11    1    4    4    0    0 -0.27535253353E+02  0.21410111665E+02 -0.17405812589E+02  0.38981346444E+02  0.00000000000E+00 0.  1.
         11    1    4    4    0    0  0.36565637614E+01  0.24067683486E+03 -0.75946022454E+01  0.24082439096E+03  0.00000000000E+00 0. -1.
         -2    1    1    2    0  502  0.55309092464E+02 -0.10909156579E+03 -0.73833758399E+03  0.74839992876E+03  0.00000000000E+00 0.  1.
<scales pt_clust_5="13000.00000" pt_clust_6="13000.00000" pt_clust_7="13000.00000" pt_clust_8="13000.00000" pt_clust_9="122.31141"></scales>
<clustering>
<clus scale="   79.756">  5  6 -1 -1</clus>
<clus scale="   91.687">  7  8 -1 -1</clus>
<clus scale="  122.311">  1  9  2 -1</clus>
<clus scale="  198.552">  2  5  1 -1</clus>
<clus scale="  122.311">  1  5  2 -1</clus>
</clustering>
</event>
<event>
 9    2  0.1723348E-004  0.1710713E+03  0.7546771E-02  0.1201174E+00
          2   -1    0    0  502    0 -0.00000000000E+00  0.00000000000E+00  0.50095720971E+03  0.50095720971E+03  0.00000000000E+00 0. -1.
         21   -1    0    0  501  502  0.00000000000E+00 -0.00000000000E+00 -0.11974116554E+03  0.11974116554E+03  0.00000000000E+00 0.  1.
         24    2    1    2    0    0  0.32262105346E+02  0.49860596785E+02  0.56061649701E+02  0.11428769838E+03  0.79949026762E+02 0.  0.
         23    2    1    2    0    0  0.48316806779E+02 -0.15109179483E+03  0.26468362245E+02  0.18090482073E+03  0.82841630126E+02 0.  0.
        -13    1    3    3    0    0  0.39804352746E+02  0.44371646474E+02  0.22266760461E+01  0.59650545635E+02  0.00000000000E+00 0.  1.
         14    1    3    3    0    0 -0.75422474002E+01  0.54889503107E+01  0.53834973655E+02  0.54637152742E+02  0.00000000000E+00 0. -1.
        -11    1    4    4    0    0  0.71141964932E+02 -0.12784374569E+03  0.23633042816E+02  0.14820163022E+03  0.00000000000E+00 0.  1.
         11    1    4    4    0    0 -0.22825158154E+02 -0.23248049142E+02  0.28353194284E+01  0.32703190516E+02  0.00000000000E+00 0. -1.
          1    1    1    2  501    0 -0.80578912124E+02  0.10123119804E+03  0.29868603222E+03  0.32550585614E+03  0.00000000000E+00 0. -1.
<scales pt_clust_5="13000.00000" pt_clust_6="13000.00000" pt_clust_7="13000.00000" pt_clust_8="13000.00000" pt_clust_9="149.67526"></scales>
<clustering>
<clus scale="   79.949">  5  6 -1 -1</clus>
<clus scale="   82.842">  7  8 -1 -1</clus>
<clus scale="   99.593">  1  5  2 -1</clus>
<clus scale="  149.675">  2  9  1 -1</clus>
<clus scale="  149.675">  2  5  1 -1</clus>
</clustering>
</event>
<event>
 9    2  0.1723348E-004  0.1131174E+03  0.7546771E-02  0.1258870E+00
         -3   -1    0    0    0  501 -0.00000000000E+00  0.00000000000E+00  0.50004801720E+03  0.50004801720E+03  0.00000000000E+00 0.  1.
         21   -1    0    0  501  502  0.00000000000E+00 -0.00000000000E+00 -0.85632329534E+02  0.85632329534E+02  0.00000000000E+00 0.  1.
         24    2    1    2    0    0 -0.34516647148E+02  0.61530985091E+02  0.37512010973E+03  0.38994668096E+03  0.79786315964E+02 0.  0.
         23    2    1    2    0    0 -0.36119532987E+02 -0.69571798452E+02  0.16014414724E+02  0.12092633201E+03  0.90674475412E+02 0.  0.
        -11    1    3    3    0    0 -0.48376399801E+02  0.67295319569E+02  0.35661439437E+03  0.36611850863E+03  0.00000000000E+00 0.  1.
         12    1    3    3    0    0  0.13859752653E+02 -0.57643344777E+01  0.18505715359E+02  0.23828172329E+02  0.00000000000E+00 0. -1.
        -13    1    4    4    0    0 -0.65765044822E+02 -0.53243291714E+02  0.19706725849E+02  0.86880632345E+02  0.00000000000E+00 0.  1.
         13    1    4    4    0    0  0.29645511834E+02 -0.16328506738E+02 -0.36923111251E+01  0.34045699664E+02  0.00000000000E+00 0. -1.
         -4    1    1    2    0  502  0.70636180136E+02  0.80408133612E+01  0.23281163210E+02  0.74807333759E+02  0.00000000000E+00 0.  1.
<scales pt_clust_5="13000.00000" pt_clust_6="13000.00000" pt_clust_7="13000.00000" pt_clust_8="13000.00000" pt_clust_9="71.09237"></scales>
<clustering>
<clus scale="   71.092">  2  9  1 -1</clus>
<clus scale="   79.786">  5  6 -1 -1</clus>
<clus scale="   90.674">  7  8 -1 -1</clus>
<clus scale="  104.592">  1  5  2 -1</clus>
<clus scale="   71.092">  2  5  1 -1</clus>
</clustering>
</event>
<event>
 9    2  0.1723348E-004  0.2446313E+03  0.7546771E-02  0.1117456E+00
          2   -1    0    0  502    0 -0.00000000000E+00  0.00000000000E+00  0.46667559627E+03  0.46667559627E+03  0.00000000000E+00 0. -1.
         21   -1    0    0  501  502  0.00000000000E+00 -0.00000000000E+00 -0.14339624262E+03  0.14339624262E+03  0.00000000000E+00 0.  1.
         23    2    1    2    0    0 -0.16119944770E+03 -0.14686766302E+03  0.14137945430E+03  0.27545752346E+03  0.91287045940E+02 0.  0.
         24    2    1    2    0    0  0.18649361242E+03  0.14613130038E+03  0.14175473477E+03  0.28715937641E+03  0.78942246023E+02 0.  0.
        -13    1    4    4    0    0  0.64136147646E+02  0.88710403190E+02  0.35006809738E+02  0.11492805487E+03  0.00000000000E+00 0.  1.
         14    1    4    4    0    0  0.12235746477E+03  0.57420897193E+02  0.10674792504E+03  0.17223132154E+03  0.00000000000E+00 0. -1.
        -11    1    3    3    0    0 -0.12224042781E+03 -0.10045510058E+03  0.14518927501E+03  0.21474141427E+03  0.00000000000E+00 0. -1.
         11    1    3    3    0    0 -0.38959019885E+02 -0.46412562434E+02 -0.38098207054E+01  0.60716109196E+02  0.00000000000E+00 0.  1.
          1    1    1    2  501    0 -0.25294164723E+02  0.73636263257E+00  0.40145164572E+02  0.47454939020E+02  0.00000000000E+00 0. -1.
<scales pt_clust_5="13000.00000" pt_clust_6="13000.00000" pt_clust_7="13000.00000" pt_clust_8="13000.00000" pt_clust_9="25.30489"></scales>
<clustering>
<clus scale="   25.305">  2  9  1 -1</clus>
<clus scale="   78.942">  5  6 -1 -1</clus>
<clus scale="   91.287">  7  8 -1 -1</clus>
<clus scale="  240.298">  2  5  1 -1</clus>
<clus scale="   25.305">  2  5  1 -1</clus>
</clustering>
</event>
<event>
 9    2  0.1723348E-004  0.1405753E+03  0.7546771E-02  0.1216874E+00
         -1   -1    0    0    0  501 -0.00000000000E+00  0.00000000000E+00  0.44821093754E+02  0.44821093754E+02  0.00000000000E+00 0.  1.
         21   -1    0    0  501  502  0.00000000000E+00 -0.00000000000E+00 -0.74277981193E+03  0.74277981193E+03  0.00000000000E+00 0.  1.
         24    2    1    2    0    0 -0.10829767354E+03  0.27045772218E+02 -0.17504729386E+03  0.22333141148E+03  0.82313451969E+02 0.  0.
         23    2    1    2    0    0  0.56693768222E+02 -0.41081942903E+02 -0.48098952792E+03  0.49631787517E+03  0.10039222014E+03 0.  0.
        -11    1    3    3    0    0 -0.97481427604E+02  0.52258633317E+02 -0.14841155554E+03  0.18509344479E+03  0.00000000000E+00 0.  1.
         12    1    3    3    0    0 -0.10816245936E+02 -0.25212861099E+02 -0.26635738318E+02  0.38237966692E+02  0.00000000000E+00 0. -1.
        -11    1    4    4    0    0  0.77430108795E+02 -0.35294429523E+01 -0.26468625979E+03  0.27580191232E+03  0.00000000000E+00 0. -1.
         11    1    4    4    0    0 -0.20736340573E+02 -0.37552499951E+02 -0.21630326812E+03  0.22051596286E+03  0.00000000000E+00 0.  1.
         -2    1    1    2    0  502  0.51603905319E+02  0.14036170685E+02 -0.41921896400E+02  0.67951619035E+02  0.00000000000E+00 0.  1.
<scales pt_clust_5="13000.00000" pt_clust_6="13000.00000" pt_clust_7="13000.00000" pt_clust_8="13000.00000" pt_clust_9="53.47878"></scales>
<clustering>
<clus scale="   53.479">  2  9  1 -1</clus>
<clus scale="   82.313">  5  6 -1 -1</clus>
<clus scale="  100.392">  7  8 -1 -1</clus>
<clus scale="  128.290">  1  5  2 -1</clus>
<clus scale="   53.479">  2  5  1 -1</clus>
</clustering>
</event>
<event>
 9    2  0.1723348E-004  0.9627163E+02  0.7546771E-02  0.1293132E+00
         21   -1    0    0  501  502  0.00000000000E+00  0.00000000000E+00  0.20551063514E+03  0.20551063514E+03  0.00000000000E+00 0. -1.
          2   -1    0    0  502    0 -0.00000000000E+00 -0.00000000000E+00 -0.15004415789E+03  0.15004415789E+03  0.00000000000E+00 0. -1.
         24    2    1    2    0    0  0.26224703885E+02  0.54480286242E+00 -0.73299091445E+02  0.11349670638E+03  0.82587611955E+02 0.  0.
         23    2    1    2    0    0 -0.40899059266E+02  0.76841346180E+02  0.81204539363E+02  0.15004719446E+03  0.91338150961E+02 0.  0.
        -11    1    3    3    0    0  0.21359102441E+02 -0.34509716311E+02 -0.11334790194E+02  0.42137978662E+02  0.00000000000E+00 0.  1.
         12    1    3    3    0    0  0.48656014438E+01  0.35054519174E+02 -0.61964301251E+02  0.71358727717E+02  0.00000000000E+00 0. -1.
        -11    1    4    4    0    0 -0.68019360922E+02  0.36613233554E+02  0.43926818513E+02  0.88863534232E+02  0.00000000000E+00 0.  1.
         11    1    4    4    0    0  0.27120301656E+02  0.40228112626E+02  0.37277720850E+02  0.61183660230E+02  0.00000000000E+00 0. -1.
          1    1    1    2  501    0  0.14674355381E+02 -0.77386149043E+02  0.47561029334E+02  0.92010892186E+02  0.00000000000E+00 0. -1.
<scales pt_clust_5="13000.00000" pt_clust_6="13000.00000" pt_clust_7="13000.00000" pt_clust_8="13000.00000" pt_clust_9="78.76517"></scales>
<clustering>
<clus scale="   78.765">  1  9  2 -1</clus>
<clus scale="   82.588">  5  6 -1 -1</clus>
<clus scale="   88.013">  2  5  1 -1</clus>
<clus scale="   91.338">  7  8 -1 -1</clus>
<clus scale="   78.765">  1  5  2 -1</clus>
</clustering>
</event>
<event>
 9    2  0.1723348E-004  0.3930431E+03  0.7546771E-02  0.1046216E+00
         21   -1    0    0  501  502  0.00000000000E+00  0.00000000000E+00  0.42792428376E+03  0.42792428376E+03  0.00000000000E+00 0.  1.
          2   -1    0    0  502    0 -0.00000000000E+00 -0.00000000000E+00 -0.36115542764E+03  0.36115542764E+03  0.00000000000E+00 0. -1.
         24    2    1    2    0    0  0.37074419952E+02 -0.22956237873E+03  0.16886307891E+03  0.29825146508E+03  0.79785955297E+02 0.  0.
         23    2    1    2    0    0 -0.80851955186E+02 -0.72934353771E+02  0.47637550844E+02  0.15047497425E+03  0.92287176839E+02 0.  0.
        -11    1    3    3    0    0  0.26618373856E+02 -0.23089147115E+03  0.16954549925E+03  0.28768921702E+03  0.00000000000E+00 0.  1.
         12    1    3    3    0    0  0.10456046097E+02  0.13290924186E+01 -0.68242033466E+00  0.10562248063E+02  0.00000000000E+00 0. -1.
        -13    1    4    4    0    0 -0.15961538591E+02  0.16779400322E+02  0.30715214649E+02  0.38467432983E+02  0.00000000000E+00 0.  1.
         13    1    4    4    0    0 -0.64890416595E+02 -0.89713754093E+02  0.16922336195E+02  0.11200754127E+03  0.00000000000E+00 0. -1.
          1    1    1    2  501    0  0.43777535234E+02  0.30249673250E+03 -0.14973177364E+03  0.34035327206E+03  0.00000000000E+00 0. -1.
<scales pt_clust_5="13000.00000" pt_clust_6="13000.00000" pt_clust_7="13000.00000" pt_clust_8="13000.00000" pt_clust_9="305.64823"></scales>
<clustering>
<clus scale="   79.786">  5  6 -1 -1</clus>
<clus scale="   92.287">  7  8 -1 -1</clus>
<clus scale="  142.206">  5  7 -1 -1</clus>
<clus scale="  305.648">  1  9  2 -1</clus>
<clus scale="  305.648">  1  5  2 -1</clus>
</clustering>
</event>
<event>
 9    2  0.1723348E-004  0.1263989E+03  0.7546771E-02  0.1237047E+00
         21   -1    0    0  501  502  0.00000000000E+00  0.00000000000E+00  0.70585251417E+02  0.70585251417E+02  0.00000000000E+00 0.  1.
          2   -1    0    0  502    0 -0.00000000000E+00 -0.00000000000E+00 -0.58140718176E+03  0.58140718176E+03  0.00000000000E+00 0. -1.
         24    2    1    2    0    0  0.82088782859E+02  0.18348502008E+02 -0.21965193833E+03  0.24844988895E+03  0.80032103000E+02 0.  0.
         23    2    1    2    0    0  0.46217630810E+02 -0.63064381602E+02 -0.54300579570E+02  0.13046899328E+03  0.89221183812E+02 0.  0.
        -13    1    3    3    0    0  0.94692512010E+02  0.23335362763E+01 -0.19206067121E+03  0.21414812315E+03  0.00000000000E+00 0.  1.
         14    1    3    3    0    0 -0.12603729151E+02  0.16014965732E+02 -0.27591267117E+02  0.34301765800E+02  0.00000000000E+00 0. -1.
        -13    1    4    4    0    0  0.66229218850E+02 -0.17089012721E+02 -0.33863672424E+02  0.76322290947E+02  0.00000000000E+00 0.  1.
         13    1    4    4    0    0 -0.20011588041E+02 -0.45975368881E+02 -0.20436907146E+02  0.54146702331E+02  0.00000000000E+00 0. -1.
          1    1    1    2  501    0 -0.12830641367E+03  0.44715879593E+02 -0.23686941245E+03  0.27307355095E+03  0.00000000000E+00 0. -1.
<scales pt_clust_5="13000.00000" pt_clust_6="13000.00000" pt_clust_7="13000.00000" pt_clust_8="13000.00000" pt_clust_9="89.53369"></scales>
<clustering>
<clus scale="   80.032">  5  6 -1 -1</clus>
<clus scale="   89.221">  7  8 -1 -1</clus>
<clus scale="  116.105">  2  5  1 -1</clus>
<clus scale="   89.534">  1  9  2 -1</clus>
<clus scale="   89.534">  1  5  2 -1</clus>
</clustering>
</event>
<event>
 9    2  0.1723348E-004  0.1151219E+03  0.7546771E-02  0.1256622E+00
          2   -1    0    0  502    0 -0.00000000000E+00  0.00000000000E+00  0.10071060001E+04  0.10071060001E+04  0.00000000000E+00 0. -1.
         21   -1    0    0  501  502  0.00000000000E+00 -0.00000000000E+00 -0.15441726125E+02  0.15441726125E+02  0.00000000000E+00 0.  1.
         24    2    1    2    0    0  0.65535817080E+02 -0.17788939247E+02  0.57859323446E+03  0.58812785218E+03  0.80702229660E+02 0.  0.
         23    2    1    2    0    0 -0.52192484137E+02  0.33609022508E+02  0.36068166101E+03  0.37809078254E+03  0.94909206429E+02 0.  0.
        -11    1    3    3    0    0  0.64726286635E+02  0.16885948238E+02  0.29898860034E+03  0.30638017325E+03  0.00000000000E+00 0.  1.
         12    1    3    3    0    0  0.80953044513E+00 -0.34674887485E+02  0.27960463412E+03  0.28174767893E+03  0.00000000000E+00 0. -1.
        -11    1    4    4    0    0  0.22942820995E+02  0.18851160327E+02  0.50366146006E+02  0.58467836837E+02  0.00000000000E+00 0.  1.
         11    1    4    4    0    0 -0.75135305132E+02  0.14757862181E+02  0.31031551500E+03  0.31962294571E+03  0.00000000000E+00 0. -1.
          1    1    1    2  501    0 -0.13343332942E+02 -0.15820083261E+02  0.52389378541E+02  0.56329091528E+02  0.00000000000E+00 0. -1.
<scales pt_clust_5="13000.00000" pt_clust_6="13000.00000" pt_clust_7="13000.00000" pt_clust_8="13000.00000" pt_clust_9="20.69588"></scales>
<clustering>
<clus scale="   20.696">  2  9  1 -1</clus>
<clus scale="   80.702">  5  6 -1 -1</clus>
<clus scale="   94.909">  7  8 -1 -1</clus>
<clus scale="  103.722">  1  5  2 -1</clus>
<clus scale="   20.696">  2  5  1 -1</clus>
</clustering>
</event>
<event>
 9    2  0.1723348E-004  0.1185279E+03  0.7546771E-02  0.1248508E+00
          2   -1    0    0  502    0 -0.00000000000E+00  0.00000000000E+00  0.69688113830E+03  0.69688113830E+03  0.00000000000E+00 0. -1.
         21   -1    0    0  501  502  0.00000000000E+00 -0.00000000000E+00 -0.68069812910E+02  0.68069812910E+02  0.00000000000E+00 0.  1.
         24    2    1    2    0    0 -0.43483059157E+01  0.91020865028E+02  0.36470002622E+03  0.38433018499E+03  0.79999227100E+02 0.  0.
         23    2    1    2    0    0 -0.57539329066E+02 -0.11654419655E+02  0.10043595484E+02  0.10734524578E+03  0.89305812207E+02 0.  0.
        -11    1    3    3    0    0  0.28603602754E+02  0.82193392131E+02  0.26941618340E+03  0.28312364733E+03  0.00000000000E+00 0.  1.
         12    1    3    3    0    0 -0.32951908670E+02  0.88274728974E+01  0.95283842815E+02  0.10120653766E+03  0.00000000000E+00 0. -1.
        -13    1    4    4    0    0 -0.66369544455E+02  0.23233934376E+02  0.13971528420E+01  0.70332667900E+02  0.00000000000E+00 0.  1.
         13    1    4    4    0    0  0.88302153889E+01 -0.34888354032E+02  0.86464426417E+01  0.37012577879E+02  0.00000000000E+00 0. -1.
          1    1    1    2  501    0  0.61887634982E+02 -0.79366445373E+02  0.25406770369E+03  0.27327552044E+03  0.00000000000E+00 0. -1.
<scales pt_clust_5="13000.00000" pt_clust_6="13000.00000" pt_clust_7="13000.00000" pt_clust_8="13000.00000" pt_clust_9="100.64354"></scales>
<clustering>
<clus scale="   79.999">  5  6 -1 -1</clus>
<clus scale="   89.306">  7  8 -1 -1</clus>
<clus scale="  100.644">  2  9  1 -1</clus>
<clus scale="  111.684">  1  5  2 -1</clus>
<clus scale="  100.644">  2  5  1 -1</clus>
</clustering>
</event>
<event>
 9    2  0.1723348E-004  0.1898080E+03  0.7546771E-02  0.1199637E+00
         21   -1    0    0  501  502  0.00000000000E+00  0.00000000000E+00  0.15741489509E+03  0.15741489509E+03  0.00000000000E+00 0. -1.
          2   -1    0    0  502    0 -0.00000000000E+00 -0.00000000000E+00 -0.39435501878E+03  0.39435501878E+03  0.00000000000E+00 0. -1.
         24    2    1    2    0    0 -0.21694640437E+01 -0.34969104425E+02 -0.16884407296E+03  0.18491043444E+03  0.66753299191E+02 0.  0.
         23    2    1    2    0    0 -0.15782294502E+03 -0.22611548346E+02 -0.67381358662E+02  0.19681944498E+03  0.93692488130E+02 0.  0.
        -11    1    3    3    0    0 -0.29890848084E+02 -0.59030853310E+01 -0.10629447719E+03  0.11057497500E+03  0.00000000000E+00 0.  1.
         12    1    3    3    0    0  0.27721384040E+02 -0.29066019095E+02 -0.62549595774E+02  0.74335459443E+02  0.00000000000E+00 0. -1.
        -11    1    4    4    0    0 -0.47260072829E+01 -0.22708435514E+02  0.10022322432E+02  0.25267669764E+02  0.00000000000E+00 0.  1.
         11    1    4    4    0    0 -0.15309693774E+03  0.96887168621E-01 -0.77403681094E+02  0.17155177521E+03  0.00000000000E+00 0. -1.
          1    1    1    2  501    0  0.15999240906E+03  0.57580652771E+02 -0.71469207235E+00  0.17004003445E+03  0.00000000000E+00 0. -1.
<scales pt_clust_5="13000.00000" pt_clust_6="13000.00000" pt_clust_7="13000.00000" pt_clust_8="13000.00000" pt_clust_9="165.07214"></scales>
<clustering>
<clus scale="   66.753">  5  6 -1 -1</clus>
<clus scale="   75.389">  2  5  1 -1</clus>
<clus scale="   93.692">  7  8 -1 -1</clus>
<clus scale="  165.072">  1  9  2 -1</clus>
<clus scale="  165.072">  1  5  2 -1</clus>
</clustering>
</event>
<event>
 9    2  0.1723348E-004  0.9682252E+02  0.7546771E-02  0.1292589E+00
         21   -1    0    0  501  502  0.00000000000E+00  0.00000000000E+00  0.21339211220E+02  0.21339211220E+02  0.00000000000E+00 0.  1.
          2   -1    0    0  502    0 -0.00000000000E+00 -0.00000000000E+00 -0.11482356381E+04  0.11482356381E+04  0.00000000000E+00 0. -1.
         24    2    1    2    0    0  0.10048912644E+02  0.18867611150E+02 -0.70210301157E+03  0.70721523700E+03  0.82144903670E+02 0.  0.
         23    2    1    2    0    0 -0.15526400414E+02 -0.77125942009E+02 -0.24547817610E+03  0.27373832243E+03  0.92106754270E+02 0.  0.
        -13    1    3    3    0    0  0.24277145606E+02  0.43129604717E+02 -0.29336199159E+03  0.29750764816E+03  0.00000000000E+00 0.  1.
         14    1    3    3    0    0 -0.14228232962E+02 -0.24261993567E+02 -0.40874101998E+03  0.40970758885E+03  0.00000000000E+00 0. -1.
        -13    1    4    4    0    0 -0.43634355029E+02 -0.81141565075E+02 -0.17533463464E+03  0.19806601078E+03  0.00000000000E+00 0. -1.
         13    1    4    4    0    0  0.28107954615E+02  0.40156230664E+01 -0.70143541466E+02  0.75672311651E+02  0.00000000000E+00 0.  1.
          1    1    1    2  501    0  0.54774877697E+01  0.58258330859E+02 -0.17931523919E+03  0.18862128987E+03  0.00000000000E+00 0. -1.
<scales pt_clust_5="13000.00000" pt_clust_6="13000.00000" pt_clust_7="13000.00000" pt_clust_8="13000.00000" pt_clust_9="58.51526"></scales>
<clustering>
<clus scale="   58.515">  1  9  2 -1</clus>
<clus scale="   82.145">  5  6 -1 -1</clus>
<clus scale="   87.400">  2  5  1 -1</clus>
<clus scale="   92.107">  7  8 -1 -1</clus>
<clus scale="   58.515">  1  5  2 -1</clus>
</clustering>
</event>
<event>
 9    2  0.1723348E-004  0.1197330E+03  0.7546771E-02  0.1245969E+00
         -3   -1    0    0    0  501 -0.00000000000E+00  0.00000000000E+00  0.29831260385E+03  0.29831260385E+03  0.00000000000E+00 0.  1.
         21   -1    0    0  501  502  0.00000000000E+00 -0.00000000000E+00 -0.80555827809E+02  0.80555827809E+02  0.00000000000E+00 0. -1.
         23    2    1    2    0    0  0.10258965596E+03 -0.91254529963E+01  0.17165228530E+03  0.21924499095E+03  0.89420062642E+02 0.  0.
         24    2    1    2    0    0 -0.45010817838E+02  0.16109777686E+02  0.32986218740E+02  0.10015754753E+03  0.81596231783E+02 0.  0.
        -13    1    4    4    0    0 -0.26202289408E+02  0.49219015608E+02  0.13443171279E+02  0.57356693783E+02  0.00000000000E+00 0.  1.
         14    1    4    4    0    0 -0.18808528431E+02 -0.33109237923E+02  0.19543047461E+02  0.42800853749E+02  0.00000000000E+00 0. -1.
        -13    1    3    3    0    0  0.71184665905E+02 -0.44244114124E+02  0.78396238720E+02  0.11476396882E+03  0.00000000000E+00 0.  1.
         13    1    3    3    0    0  0.31404990059E+02  0.35118661128E+02  0.93256046583E+02  0.10448102212E+03  0.00000000000E+00 0. -1.
         -4    1    1    2    0  502 -0.57578838126E+02 -0.69843246893E+01  0.13118271998E+02  0.59465893179E+02  0.00000000000E+00 0.  1.
<scales pt_clust_5="13000.00000" pt_clust_6="13000.00000" pt_clust_7="13000.00000" pt_clust_8="13000.00000" pt_clust_9="58.00089"></scales>
<clustering>
<clus scale="   58.001">  2  9  1 -1</clus>
<clus scale="   81.596">  5  6 -1 -1</clus>
<clus scale="   89.420">  7  8 -1 -1</clus>
<clus scale="  114.009">  2  5  1 -1</clus>
<clus scale="   58.001">  2  5  1 -1</clus>
</clustering>
</event>
<event>
 9    2  0.1723348E-004  0.1123071E+03  0.7546771E-02  0.1258619E+00
          2   -1    0    0  502    0 -0.00000000000E+00  0.00000000000E+00  0.33024073735E+03  0.33024073735E+03  0.00000000000E+00 0. -1.
         21   -1    0    0  501  502  0.00000000000E+00 -0.00000000000E+00 -0.92825555574E+02  0.92825555574E+02  0.00000000000E+00 0.  1.
         23    2    1    2    0    0  0.34664000989E+02  0.52297815549E+02  0.13237319202E+03  0.17009272338E+03  0.86441992727E+02 0.  0.
         24    2    1    2    0    0 -0.10736054164E+03 -0.39855031549E+02  0.21144239308E+02  0.14126662067E+03  0.79965428889E+02 0.  0.
        -13    1    4    4    0    0 -0.69964486497E+02  0.81784673607E+01 -0.12760381626E+02  0.71587317581E+02  0.00000000000E+00 0.  1.
         14    1    4    4    0    0 -0.37396055144E+02 -0.48033498910E+02  0.33904620934E+02  0.69679303086E+02  0.00000000000E+00 0. -1.
        -11    1    3    3    0    0  0.15991552637E+01  0.67819726125E+02  0.67840322237E+02  0.95939469826E+02  0.00000000000E+00 0. -1.
         11    1    3    3    0    0  0.33064845725E+02 -0.15521910576E+02  0.64532869783E+02  0.74153253557E+02  0.00000000000E+00 0.  1.
          1    1    1    2  501    0  0.72696540653E+02 -0.12442784000E+02  0.83897750449E+02  0.11170694888E+03  0.00000000000E+00 0. -1.
<scales pt_clust_5="13000.00000" pt_clust_6="13000.00000" pt_clust_7="13000.00000" pt_clust_8="13000.00000" pt_clust_9="73.75375"></scales>
<clustering>
<clus scale="   73.754">  2  9  1 -1</clus>
<clus scale="   79.965">  5  6 -1 -1</clus>
<clus scale="   86.442">  7  8 -1 -1</clus>
<clus scale="  107.402">  2  5  1 -1</clus>
<clus scale="   73.754">  2  5  1 -1</clus>
</clustering>
</event>
<event>
 9    2  0.1723348E-004  0.1340465E+03  0.7546771E-02  0.1240539E+00
         -1   -1    0    0    0  501 -0.00000000000E+00  0.00000000000E+00  0.31402528648E+03  0.31402528648E+03  0.00000000000E+00 0.  1.
         21   -1    0    0  501  502  0.00000000000E+00 -0.00000000000E+00 -0.11588305678E+03  0.11588305678E+03  0.00000000000E+00 0.  1.
         24    2    1    2    0    0  0.40226637792E+02  0.25241031513E+02  0.79461626356E+02  0.12056084142E+03  0.77236483360E+02 0.  0.
         23    2    1    2    0    0  0.56946437805E+02 -0.58660189794E+02  0.15737922845E+03  0.19954299216E+03  0.91461847390E+02 0.  0.
        -13    1    3    3    0    0  0.49610928033E+02  0.45849730687E+02  0.64635320276E+02  0.93494206299E+02  0.00000000000E+00 0.  1.
         14    1    3    3    0    0 -0.93842902407E+01 -0.20608699174E+02  0.14826306080E+02  0.27066635124E+02  0.00000000000E+00 0. -1.
        -11    1    4    4    0    0  0.82079038012E+02 -0.48928241103E+02  0.12696448365E+03  0.15890538495E+03  0.00000000000E+00 0.  1.
         11    1    4    4    0    0 -0.25132600206E+02 -0.97319486912E+01  0.30414744797E+02  0.40637607207E+02  0.00000000000E+00 0. -1.
         -2    1    1    2    0  502 -0.97173075597E+02  0.33419158281E+02 -0.38698625105E+02  0.10980450968E+03  0.00000000000E+00 0.  1.
<scales pt_clust_5="13000.00000" pt_clust_6="13000.00000" pt_clust_7="13000.00000" pt_clust_8="13000.00000" pt_clust_9="97.99596"></scales>
<clustering>
<clus scale="   77.236">  5  6 -1 -1</clus>
<clus scale="   90.668">  1  5  2 -1</clus>
<clus scale="   91.462">  7  8 -1 -1</clus>
<clus scale="   97.996">  2  9  1 -1</clus>
<clus scale="   97.996">  2  5  1 -1</clus>
</clustering>
</event>
<event>
 9    2  0.1723348E-004  0.2216961E+03  0.7546771E-02  0.1169670E+00
          2   -1    0    0  502    0 -0.00000000000E+00  0.00000000000E+00  0.12170631647E+04  0.12170631647E+04  0.00000000000E+00 0. -1.
         21   -1    0    0  501  502  0.00000000000E+00 -0.00000000000E+00 -0.85179164296E+02  0.85179164296E+02  0.00000000000E+00 0.  1.
         24    2    1    2    0    0 -0.10546033378E+02 -0.44878021957E+02  0.20203106131E+03  0.22211873432E+03  0.79968285750E+02 0.  0.
         23    2    1    2    0    0  0.90029706584E+02  0.19152961644E+03  0.13210681015E+03  0.26512468013E+03  0.89721483970E+02 0.  0.
        -11    1    3    3    0    0  0.33302415925E+02 -0.32216082596E+02  0.92392700250E+02  0.10336023386E+03  0.00000000000E+00 0.  1.
         12    1    3    3    0    0 -0.43848449303E+02 -0.12661939362E+02  0.10963836106E+03  0.11875850046E+03  0.00000000000E+00 0. -1.
        -11    1    4    4    0    0  0.65337080891E+02  0.18808056656E+03  0.95476491284E+02  0.22081438822E+03  0.00000000000E+00 0.  1.
         11    1    4    4    0    0  0.24692625693E+02  0.34490498753E+01  0.36630318871E+02  0.44310291911E+02  0.00000000000E+00 0. -1.
          1    1    1    2  501    0 -0.79483673206E+02 -0.14665159448E+03  0.79774612899E+03  0.81499891459E+03  0.00000000000E+00 0. -1.
<scales pt_clust_5="13000.00000" pt_clust_6="13000.00000" pt_clust_7="13000.00000" pt_clust_8="13000.00000" pt_clust_9="202.72954"></scales>
<clustering>
<clus scale="   79.968">  5  6 -1 -1</clus>
<clus scale="   89.721">  7  8 -1 -1</clus>
<clus scale="   92.305">  1  5  2 -1</clus>
<clus scale="  202.730">  2  9  1 -1</clus>
<clus scale="  202.730">  2  5  1 -1</clus>
</clustering>
</event>
<event>
 9    2  0.1723348E-004  0.1142563E+03  0.7546771E-02  0.1255630E+00
         21   -1    0    0  501  502  0.00000000000E+00  0.00000000000E+00  0.15749154380E+03  0.15749154380E+03  0.00000000000E+00 0. -1.
          2   -1    0    0  502    0 -0.00000000000E+00 -0.00000000000E+00 -0.31822909049E+03  0.31822909049E+03  0.00000000000E+00 0. -1.
         24    2    1    2    0    0 -0.12904857725E+02  0.84038543243E+02 -0.18121723671E+03  0.21742574360E+03  0.84883773459E+02 0.  0.
         23    2    1    2    0    0 -0.10009537561E+02 -0.45116345542E+02 -0.91178811908E+02  0.13784727536E+03  0.92480376873E+02 0.  0.
        -11    1    3    3    0    0  0.10219830004E+02  0.66858956437E+02 -0.52765366357E+02  0.85783150257E+02  0.00000000000E+00 0.  1.
         12    1    3    3    0    0 -0.23124687729E+02  0.17179586807E+02 -0.12845187036E+03  0.13164259335E+03  0.00000000000E+00 0. -1.
        -11    1    4    4    0    0 -0.17467279016E+02  0.16491295009E+02 -0.67120253019E+02  0.71289529474E+02  0.00000000000E+00 0. -1.
         11    1    4    4    0    0  0.74577414548E+01 -0.61607640552E+02 -0.24058558889E+02  0.66557745889E+02  0.00000000000E+00 0.  1.
          1    1    1    2  501    0  0.22914395286E+02 -0.38922197701E+02  0.11165850193E+03  0.12044761533E+03  0.00000000000E+00 0. -1.
<scales pt_clust_5="13000.00000" pt_clust_6="13000.00000" pt_clust_7="13000.00000" pt_clust_8="13000.00000" pt_clust_9="45.16644"></scales>
<clustering>
<clus scale="   45.166">  1  9  2 -1</clus>
<clus scale="   84.884">  5  6 -1 -1</clus>
<clus scale="   92.480">  7  8 -1 -1</clus>
<clus scale="  108.200">  2  5  1 -1</clus>
<clus scale="   45.166">  1  5  2 -1</clus>
</clustering>
</event>
<event>
 9    2  0.1723348E-004  0.2189336E+03  0.7546771E-02  0.1135736E+00
          2   -1    0    0  502    0 -0.00000000000E+00  0.00000000000E+00  0.57494745277E+03  0.57494745277E+03  0.00000000000E+00 0. -1.
         21   -1    0    0  501  502  0.00000000000E+00 -0.00000000000E+00 -0.29906160416E+03  0.29906160416E+03  0.00000000000E+00 0.  1.
         24    2    1    2    0    0  0.19209745840E+03  0.55116392756E+02  0.48526811534E+03  0.53000674882E+03  0.74045659987E+02 0.  0.
         23    2    1    2    0    0 -0.18321816269E+03 -0.96898732184E+02 -0.19729838287E+03  0.29961057431E+03  0.88778290781E+02 0.  0.
        -13    1    3    3    0    0  0.11579927511E+02  0.24231562777E+02  0.36567555928E+02  0.45370138884E+02  0.00000000000E+00 0.  1.
         14    1    3    3    0    0  0.18051753089E+03  0.30884829978E+02  0.44870055941E+03  0.48463660994E+03  0.00000000000E+00 0. -1.
        -11    1    4    4    0    0 -0.16333029733E+03 -0.71444641700E+02 -0.19911156284E+03  0.26725743640E+03  0.00000000000E+00 0.  1.
         11    1    4    4    0    0 -0.19887865360E+02 -0.25454090484E+02  0.18131799671E+01  0.32353137908E+02  0.00000000000E+00 0. -1.
          1    1    1    2  501    0 -0.88792957142E+01  0.41782339429E+02 -0.12083883848E+02  0.44391733796E+02  0.00000000000E+00 0. -1.
<scales pt_clust_5="13000.00000" pt_clust_6="13000.00000" pt_clust_7="13000.00000" pt_clust_8="13000.00000" pt_clust_9="42.71540"></scales>
<clustering>
<clus scale="   42.715">  2  9  1 -1</clus>
<clus scale="   74.046">  5  6 -1 -1</clus>
<clus scale="   88.778">  7  8 -1 -1</clus>
<clus scale="  213.385">  1  5  2 -1</clus>
<clus scale="   42.715">  2  5  1 -1</clus>
</clustering>
</event>
<event>
 9    2  0.1723348E-004  0.9437986E+02  0.7546771E-02  0.1300464E+00
         21   -1    0    0  501  502  0.00000000000E+00  0.00000000000E+00  0.68885795291E+03  0.68885795291E+03  0.00000000000E+00 0. -1.
         -1   -1    0    0    0  501 -0.00000000000E+00 -0.00000000000E+00 -0.20216269595E+02  0.20216269595E+02  0.00000000000E+00 0.  1.
         23    2    1    2    0    0 -0.13567797575E+02  0.15902175414E+01  0.14441981465E+03  0.17212252965E+03  0.92641612825E+02 0.  0.
         24    2    1    2    0    0  0.24330140382E+02  0.22854212465E+02  0.33831162710E+03  0.34913269462E+03  0.79527420803E+02 0.  0.
        -13    1    4    4    0    0  0.27309878625E+02  0.48249523799E+01  0.32284789027E+02  0.42560747626E+02  0.00000000000E+00 0.  1.
         14    1    4    4    0    0 -0.29797382436E+01  0.18029260085E+02  0.30602683808E+03  0.30657194699E+03  0.00000000000E+00 0. -1.
        -11    1    3    3    0    0  0.33893879049E+02 -0.70092801684E+01  0.10260896762E+03  0.10828908201E+03  0.00000000000E+00 0. -1.
         11    1    3    3    0    0 -0.47461676624E+02  0.85994977098E+01  0.41810847027E+02  0.63833447643E+02  0.00000000000E+00 0.  1.
         -2    1    1    2    0  502 -0.10762342806E+02 -0.24444430006E+02  0.18591024156E+03  0.18781899824E+03  0.00000000000E+00 0.  1.
<scales pt_clust_5="13000.00000" pt_clust_6="13000.00000" pt_clust_7="13000.00000" pt_clust_8="13000.00000" pt_clust_9="26.70877"></scales>
<clustering>
<clus scale="   26.709">  1  9  2 -1</clus>
<clus scale="   79.527">  5  6 -1 -1</clus>
<clus scale="   81.546">  1  5  2 -1</clus>
<clus scale="   92.642">  7  8 -1 -1</clus>
<clus scale="   26.709">  1  5  2 -1</clus>
</clustering>
</event>
<event>
 9    2  0.1723348E-004  0.1470047E+03  0.7546771E-02  0.1231569E+00
          2   -1    0    0  502    0 -0.00000000000E+00  0.00000000000E+00  0.28656763343E+03  0.28656763343E+03  0.00000000000E+00 0. -1.
         21   -1    0    0  501  502  0.00000000000E+00 -0.00000000000E+00 -0.19896423382E+03  0.19896423382E+03  0.00000000000E+00 0. -1.
         24    2    1    2    0    0 -0.14108584135E+02  0.19604889477E+02  0.14975570177E+03  0.17101448908E+03  0.78966964125E+02 0.  0.
         23    2    1    2    0    0 -0.10569739628E+02 -0.10291090372E+03 -0.13436738206E+03  0.20153981651E+03  0.10890973683E+03 0.  0.
        -13    1    3    3    0    0  0.22356951041E+02  0.36073927228E+02  0.81799787152E+02  0.92154037696E+02  0.00000000000E+00 0.  1.
         14    1    3    3    0    0 -0.36465535176E+02 -0.16469037751E+02  0.67955914620E+02  0.78860451381E+02  0.00000000000E+00 0. -1.
        -13    1    4    4    0    0  0.10628729831E+02 -0.50212450300E+02 -0.13532316520E+03  0.14472946867E+03  0.00000000000E+00 0. -1.
         13    1    4    4    0    0 -0.21198469459E+02 -0.52698453420E+02  0.95578313581E+00  0.56810347839E+02  0.00000000000E+00 0.  1.
          1    1    1    2  501    0  0.24678323763E+02  0.83306014243E+02  0.72215079901E+02  0.11297756166E+03  0.00000000000E+00 0. -1.
<scales pt_clust_5="13000.00000" pt_clust_6="13000.00000" pt_clust_7="13000.00000" pt_clust_8="13000.00000" pt_clust_9="98.73737"></scales>
<clustering>
<clus scale="   78.967">  5  6 -1 -1</clus>
<clus scale="   82.578">  1  5  2 -1</clus>
<clus scale="   98.737">  2  9  1 -1</clus>
<clus scale="  108.910">  7  8 -1 -1</clus>
<clus scale="   98.737">  2  5  1 -1</clus>
</clustering>
</event>
<event>
 9    2  0.1723348E-004  0.1380651E+03  0.7546771E-02  0.1228911E+00
         21   -1    0    0  501  502  0.00000000000E+00  0.00000000000E+00  0.13952911180E+03  0.13952911180E+03  0.00000000000E+00 0. -1.
          2   -1    0    0  502    0 -0.00000000000E+00 -0.00000000000E+00 -0.53826238773E+03  0.53826238773E+03  0.00000000000E+00 0. -1.
         23    2    1    2    0    0  0.23589808296E+01  0.51853165869E+02 -0.17856357257E+02  0.10680459548E+03  0.91619083815E+02 0.  0.
         24    2    1    2    0    0  0.38057278550E+02  0.57147848334E+02 -0.43145752536E+03  0.44420720183E+03  0.80313192861E+02 0.  0.
        -13    1    4    4    0    0  0.31971972920E+02 -0.95240834278E+01 -0.84451426774E+02  0.90801754948E+02  0.00000000000E+00 0.  1.
         14    1    4    4    0    0  0.60853056309E+01  0.66671931761E+02 -0.34700609859E+03  0.35340544689E+03  0.00000000000E+00 0. -1.
        -11    1    3    3    0    0  0.17495957151E+02  0.35804205164E+02 -0.52391211630E+02  0.65824681390E+02  0.00000000000E+00 0. -1.
         11    1    3    3    0    0 -0.15136976321E+02  0.16048960705E+02  0.34534854374E+02  0.40979914086E+02  0.00000000000E+00 0.  1.
          1    1    1    2  501    0 -0.40416259380E+02 -0.10900101420E+03  0.50580606691E+02  0.12677970221E+03  0.00000000000E+00 0. -1.
<scales pt_clust_5="13000.00000" pt_clust_6="13000.00000" pt_clust_7="13000.00000" pt_clust_8="13000.00000" pt_clust_9="112.30216"></scales>
<clustering>
<clus scale="   80.313">  5  6 -1 -1</clus>
<clus scale="   91.619">  7  8 -1 -1</clus>
<clus scale="  105.301">  2  7  1 -1</clus>
<clus scale="  112.302">  1  9  2 -1</clus>
<clus scale="  112.302">  1  5  2 -1</clus>
</clustering>
</event>
<event>
 9    2  0.1723348E-004  0.1173520E+03  0.7546771E-02  0.1258082E+00
         21   -1    0    0  501  502  0.00000000000E+00  0.00000000000E+00  0.51889914389E+02  0.51889914389E+02  0.00000000000E+00 0. -1.
          2   -1    0    0  502    0 -0.00000000000E+00 -0.00000000000E+00 -0.10899664552E+04  0.10899664552E+04  0.00000000000E+00 0. -1.
         24    2    1    2    0    0 -0.70346855542E+02  0.18768897106E+02 -0.71113620914E+03  0.71756289685E+03  0.62296479859E+02 0.  0.
         23    2    1    2    0    0  0.77657319914E+02  0.55294736280E+02 -0.32351965412E+03  0.34979135392E+03  0.92740808063E+02 0.  0.
        -11    1    3    3    0    0 -0.31610745919E+01  0.27003826739E+02 -0.16121256299E+03  0.16348911131E+03  0.00000000000E+00 0.  1.
         12    1    3    3    0    0 -0.67185780950E+02 -0.82349296330E+01 -0.54992364615E+03  0.55407378554E+03  0.00000000000E+00 0. -1.
        -11    1    4    4    0    0  0.56980874817E+01  0.60241961377E+02 -0.16048067716E+03  0.17150979521E+03  0.00000000000E+00 0. -1.
         11    1    4    4    0    0  0.71959232432E+02 -0.49472250969E+01 -0.16303897696E+03  0.17828155871E+03  0.00000000000E+00 0.  1.
          1    1    1    2  501    0 -0.73104643718E+01 -0.74063633386E+02 -0.34206775969E+01  0.74502118862E+02  0.00000000000E+00 0. -1.
<scales pt_clust_5="13000.00000" pt_clust_6="13000.00000" pt_clust_7="13000.00000" pt_clust_8="13000.00000" pt_clust_9="74.42355"></scales>
<clustering>
<clus scale="   62.296">  5  6 -1 -1</clus>
<clus scale="   74.424">  1  9  2 -1</clus>
<clus scale="   92.741">  7  8 -1 -1</clus>
<clus scale="   95.139">  2  5  1 -1</clus>
<clus scale="   74.424">  1  5  2 -1</clus>
</clustering>
</event>
<event>
 9    2  0.1723348E-004  0.2354639E+03  0.7546771E-02  0.1123280E+00
         21   -1    0    0  501  502  0.00000000000E+00  0.00000000000E+00  0.48737318318E+02  0.48737318318E+02  0.00000000000E+00 0.  1.
         -3   -1    0    0    0  501 -0.00000000000E+00 -0.00000000000E+00 -0.13888645462E+04  0.13888645462E+04  0.00000000000E+00 0.  1.
         23    2    1    2    0    0 -0.70579636899E+02 -0.18940905033E+03 -0.62864506093E+03  0.66630003688E+03  0.88903616415E+02 0.  0.
         24    2    1    2    0    0  0.84842189713E+02  0.22571361931E+03 -0.56586039447E+03  0.62054658640E+03  0.82068537018E+02 0.  0.
        -11    1    4    4    0    0  0.57468114731E+02  0.21889905245E+03 -0.49530372673E+03  0.54455960288E+03  0.00000000000E+00 0.  1.
         12    1    4    4    0    0  0.27374074982E+02  0.68145668627E+01 -0.70556667737E+02  0.75986983523E+02  0.00000000000E+00 0. -1.
        -13    1    3    3    0    0  0.11709312019E+00 -0.10534626328E+03 -0.23333117339E+03  0.25601032279E+03  0.00000000000E+00 0.  1.
         13    1    3    3    0    0 -0.70696730019E+02 -0.84062787053E+02 -0.39531388754E+03  0.41028971409E+03  0.00000000000E+00 0. -1.
         -4    1    1    2    0  502 -0.14262552814E+02 -0.36304568981E+02 -0.14562177249E+03  0.15075524126E+03  0.00000000000E+00 0.  1.
<scales pt_clust_5="13000.00000" pt_clust_6="13000.00000" pt_clust_7="13000.00000" pt_clust_8="13000.00000" pt_clust_9="39.00569"></scales>
<clustering>
<clus scale="   39.006">  1  9  2 -1</clus>
<clus scale="   82.069">  5  6 -1 -1</clus>
<clus scale="   88.904">  7  8 -1 -1</clus>
<clus scale="  232.969">  1  5  2 -1</clus>
<clus scale="   39.006">  1  5  2 -1</clus>
</clustering>
</event>
<event>
 9    2  0.1723348E-004  0.2421567E+03  0.7546771E-02  0.1119931E+00
         -1   -1    0    0    0  501 -0.00000000000E+00  0.00000000000E+00  0.49368460642E+03  0.49368460642E+03  0.00000000000E+00 0.  1.
         21   -1    0    0  501  502  0.00000000000E+00 -0.00000000000E+00 -0.13459103444E+03  0.13459103444E+03  0.00000000000E+00 0.  1.
         23    2    1    2    0    0  0.19461742433E+03  0.13565028850E+03  0.23482180517E+03  0.34601892483E+03  0.91163992547E+02 0.  0.
         24    2    1    2    0    0 -0.17980179581E+03 -0.10802669029E+03  0.12268508934E+03  0.25087067499E+03  0.62337892446E+02 0.  0.
        -11    1    4    4    0    0 -0.16553112230E+03 -0.93720275202E+02  0.12883976447E+03  0.22974709431E+03  0.00000000000E+00 0.  1.
         12    1    4    4    0    0 -0.14270673503E+02 -0.14306415083E+02 -0.61546751318E+01  0.21123580680E+02  0.00000000000E+00 0. -1.
        -11    1    3    3    0    0  0.12990230842E+02  0.46075116376E+02  0.23507768543E+02  0.53331769409E+02  0.00000000000E+00 0. -1.
         11    1    3    3    0    0  0.18162719348E+03  0.89575172120E+02  0.21131403663E+03  0.29268715542E+03  0.00000000000E+00 0.  1.
         -2    1    1    2    0  502 -0.14815628519E+02 -0.27623598211E+02  0.15866774640E+01  0.31386041036E+02  0.00000000000E+00 0.  1.
<scales pt_clust_5="13000.00000" pt_clust_6="13000.00000" pt_clust_7="13000.00000" pt_clust_8="13000.00000" pt_clust_9="31.34591"></scales>
<clustering>
<clus scale="   31.346">  2  9  1 -1</clus>
<clus scale="   62.338">  5  6 -1 -1</clus>
<clus scale="   91.164">  7  8 -1 -1</clus>
<clus scale="  232.841">  2  5  1 -1</clus>
<clus scale="   31.346">  2  5  1 -1</clus>
</clustering>
</event>
<event>
 9    2  0.1723348E-004  0.1205838E+03  0.7546771E-02  0.1249609E+00
         21   -1    0    0  501  502  0.00000000000E+00  0.00000000000E+00  0.44847565029E+02  0.44847565029E+02  0.00000000000E+00 0. -1.
          2   -1    0    0  502    0 -0.00000000000E+00 -0.00000000000E+00 -0.52989629442E+03  0.52989629442E+03  0.00000000000E+00 0. -1.
         24    2    1    2    0    0 -0.40530374387E+02 -0.29878523919E+02 -0.11349630342E+03  0.14127547752E+03  0.67393710538E+02 0.  0.
         23    2    1    2    0    0  0.70879065511E+02  0.92553211526E+02 -0.29456916010E+03  0.32966287752E+03  0.91195854312E+02 0.  0.
        -11    1    3    3    0    0 -0.11837205058E+02 -0.40738428906E+02 -0.98247092181E+02  0.10701509303E+03  0.00000000000E+00 0.  1.
         12    1    3    3    0    0 -0.28693169329E+02  0.10859904987E+02 -0.15249211237E+02  0.34260384496E+02  0.00000000000E+00 0. -1.
        -13    1    4    4    0    0  0.20087751076E+02  0.62408676783E+02 -0.24156427953E+03  0.25030313987E+03  0.00000000000E+00 0. -1.
         13    1    4    4    0    0  0.50791314435E+02  0.30144534743E+02 -0.53004880565E+02  0.79359737655E+02  0.00000000000E+00 0.  1.
          1    1    1    2  501    0 -0.30348691124E+02 -0.62674687607E+02 -0.76983265870E+02  0.10380550440E+03  0.00000000000E+00 0. -1.
<scales pt_clust_5="13000.00000" pt_clust_6="13000.00000" pt_clust_7="13000.00000" pt_clust_8="13000.00000" pt_clust_9="69.63591"></scales>
<clustering>
<clus scale="   67.394">  5  6 -1 -1</clus>
<clus scale="   69.636">  1  9  2 -1</clus>
<clus scale="   91.196">  7  8 -1 -1</clus>
<clus scale="  103.758">  2  5  1 -1</clus>
<clus scale="   69.636">  1  5  2 -1</clus>
</clustering>
</event>
<event>
 9    2  0.1723348E-004  0.1137507E+03  0.7546771E-02  0.1260781E+00
          2   -1    0    0  502    0 -0.00000000000E+00  0.00000000000E+00  0.10507340496E+03  0.10507340496E+03  0.00000000000E+00 0. -1.
         21   -1    0    0  501  502  0.00000000000E+00 -0.00000000000E+00 -0.22465309957E+03  0.22465309957E+03  0.00000000000E+00 0.  1.
         23    2    1    2    0    0 -0.18636135406E+02  0.41757377754E+02 -0.38297341167E+02  0.11420933422E+03  0.97396619767E+02 0.  0.
         24    2    1    2    0    0  0.52570158186E+02 -0.65290538841E+02 -0.11430493396E+03  0.16264167130E+03  0.79750983207E+02 0.  0.
        -13    1    4    4    0    0  0.63336109453E+02 -0.28179937318E+02 -0.43101424488E+02  0.81629066029E+02  0.00000000000E+00 0.  1.
         14    1    4    4    0    0 -0.10765951267E+02 -0.37110601523E+02 -0.71203509468E+02  0.81012605270E+02  0.00000000000E+00 0. -1.
        -13    1    3    3    0    0  0.54431823635E+01  0.31328965010E+02 -0.67702607809E+02  0.74798231176E+02  0.00000000000E+00 0.  1.
         13    1    3    3    0    0 -0.24079317770E+02  0.10428412744E+02  0.29405266642E+02  0.39411103041E+02  0.00000000000E+00 0. -1.
          1    1    1    2  501    0 -0.33934022780E+02  0.23533161087E+02  0.33022580510E+02  0.52875499018E+02  0.00000000000E+00 0. -1.
<scales pt_clust_5="13000.00000" pt_clust_6="13000.00000" pt_clust_7="13000.00000" pt_clust_8="13000.00000" pt_clust_9="41.29563"></scales>
<clustering>
<clus scale="   41.296">  2  9  1 -1</clus>
<clus scale="   79.751">  5  6 -1 -1</clus>
<clus scale="   97.397">  7  8 -1 -1</clus>
<clus scale="   99.062">  2  5  1 -1</clus>
<clus scale="   41.296">  2  5  1 -1</clus>
</clustering>
</event>
<event>
 9    2  0.1723348E-004  0.1012726E+03  0.7546771E-02  0.1283238E+00
         21   -1    0    0  501  502  0.00000000000E+00  0.00000000000E+00  0.29274228842E+02  0.29274228842E+02  0.00000000000E+00 0.  1.
          2   -1    0    0  502    0 -0.00000000000E+00 -0.00000000000E+00 -0.60728864799E+03  0.60728864799E+03  0.00000000000E+00 0. -1.
         24    2    1    2    0    0  0.40272079659E+02 -0.13612457830E+02 -0.38956055830E+03  0.40000884800E+03  0.80265250814E+02 0.  0.
         23    2    1    2    0    0 -0.30404512888E+02  0.40342027571E+02 -0.17740639620E+03  0.20599449272E+03  0.91699443960E+02 0.  0.
        -11    1    3    3    0    0 -0.98685900009E+01  0.25402652478E+02 -0.12270652604E+03  0.12569636174E+03  0.00000000000E+00 0.  1.
         12    1    3    3    0    0  0.50140669659E+02 -0.39015110308E+02 -0.26685403226E+03  0.27431248626E+03  0.00000000000E+00 0. -1.
        -13    1    4    4    0    0  0.14860589834E+02 -0.21167677393E+02 -0.66359298043E+02  0.71221233724E+02  0.00000000000E+00 0. -1.
         13    1    4    4    0    0 -0.45265102722E+02  0.61509704964E+02 -0.11104709816E+03  0.13477325899E+03  0.00000000000E+00 0.  1.
          1    1    1    2  501    0 -0.98675667701E+01 -0.26729569741E+02 -0.11047464645E+02  0.30559536116E+02  0.00000000000E+00 0. -1.
<scales pt_clust_5="13000.00000" pt_clust_6="13000.00000" pt_clust_7="13000.00000" pt_clust_8="13000.00000" pt_clust_9="28.49278"></scales>
<clustering>
<clus scale="   28.493">  1  9  2 -1</clus>
<clus scale="   80.265">  5  6 -1 -1</clus>
<clus scale="   91.049">  2  5  1 -1</clus>
<clus scale="   91.699">  7  8 -1 -1</clus>
<clus scale="   28.493">  1  5  2 -1</clus>
</clustering>
</event>
<event>
 9    2  0.1723348E-004  0.1076222E+03  0.7546771E-02  0.1269229E+00
         21   -1    0    0  501  502  0.00000000000E+00  0.00000000000E+00  0.20177803075E+03  0.20177803075E+03  0.00000000000E+00 0. -1.
          2   -1    0    0  502    0 -0.00000000000E+00 -0.00000000000E+00 -0.25542781791E+03  0.25542781791E+03  0.00000000000E+00 0. -1.
         24    2    1    2    0    0 -0.25175989048E+02  0.46801727156E+02 -0.15484657277E+03  0.18262179385E+03  0.80926055134E+02 0.  0.
         23    2    1    2    0    0  0.82575666668E+02 -0.78186331440E+02  0.13702700791E+03  0.19999503949E+03  0.91048183814E+02 0.  0.
        -11    1    3    3    0    0  0.25808292580E+02 -0.24305732734E+01 -0.43060478440E+02  0.50261122707E+02  0.00000000000E+00 0.  1.
         12    1    3    3    0    0 -0.50984281628E+02  0.49232300429E+02 -0.11178609433E+03  0.13236067114E+03  0.00000000000E+00 0. -1.
        -13    1    4    4    0    0 -0.18261813774E+02 -0.21444209445E+02  0.15312372648E+02  0.32059580739E+02  0.00000000000E+00 0.  1.
         13    1    4    4    0    0  0.10083748044E+03 -0.56742121995E+02  0.12171463526E+03  0.16793545875E+03  0.00000000000E+00 0. -1.
          1    1    1    2  501    0 -0.57399677620E+02  0.31384604284E+02 -0.35830222302E+02  0.74589015325E+02  0.00000000000E+00 0. -1.
<scales pt_clust_5="13000.00000" pt_clust_6="13000.00000" pt_clust_7="13000.00000" pt_clust_8="13000.00000" pt_clust_9="65.41957"></scales>
<clustering>
<clus scale="   65.420">  1  9  2 -1</clus>
<clus scale="   80.926">  5  6 -1 -1</clus>
<clus scale="   91.048">  7  8 -1 -1</clus>
<clus scale="   99.206">  2  5  1 -1</clus>
<clus scale="   65.420">  1  5  2 -1</clus>
</clustering>
</event>
<event>
 9    2  0.1723348E-004  0.9481391E+02  0.7546771E-02  0.1296649E+00
         21   -1    0    0  501  502  0.00000000000E+00  0.00000000000E+00  0.38794106647E+02  0.38794106647E+02  0.00000000000E+00 0.  1.
          2   -1    0    0  502    0 -0.00000000000E+00 -0.00000000000E+00 -0.63802461854E+03  0.63802461854E+03  0.00000000000E+00 0. -1.
         23    2    1    2    0    0 -0.17546727851E+02  0.22805379937E+02 -0.32887259644E+03  0.34241393280E+03  0.90896334759E+02 0.  0.
         24    2    1    2    0    0  0.31544637119E+02  0.38254355409E+01 -0.31098863883E+02  0.93261607631E+02  0.81981034606E+02 0.  0.
        -11    1    4    4    0    0  0.26272357547E+01  0.22144313797E+02  0.21191582280E+02  0.30762902347E+02  0.00000000000E+00 0.  1.
         12    1    4    4    0    0  0.28917401364E+02 -0.18318878256E+02 -0.52290446163E+02  0.62498705284E+02  0.00000000000E+00 0. -1.
        -13    1    3    3    0    0  0.16921873327E+02  0.43505011965E+02 -0.10428599835E+03  0.11425675173E+03  0.00000000000E+00 0. -1.
         13    1    3    3    0    0 -0.34468601179E+02 -0.20699632028E+02 -0.22458659809E+03  0.22815718107E+03  0.00000000000E+00 0.  1.
          1    1    1    2  501    0 -0.13997909267E+02 -0.26630815478E+02 -0.23925905157E+03  0.24114318475E+03  0.00000000000E+00 0. -1.
<scales pt_clust_5="13000.00000" pt_clust_6="13000.00000" pt_clust_7="13000.00000" pt_clust_8="13000.00000" pt_clust_9="30.08559"></scales>
<clustering>
<clus scale="   30.086">  1  9  2 -1</clus>
<clus scale="   81.981">  5  6 -1 -1</clus>
<clus scale="   86.304">  1  5  2 -1</clus>
<clus scale="   90.896">  7  8 -1 -1</clus>
<clus scale="   30.086">  1  5  2 -1</clus>
</clustering>
</event>
<event>
 9    2  0.1723348E-004  0.2276922E+03  0.7546771E-02  0.1169726E+00
          2   -1    0    0  502    0 -0.00000000000E+00  0.00000000000E+00  0.53482604901E+03  0.53482604901E+03  0.00000000000E+00 0. -1.
         21   -1    0    0  501  502  0.00000000000E+00 -0.00000000000E+00 -0.13533493842E+03  0.13533493842E+03  0.00000000000E+00 0. -1.
         24    2    1    2    0    0  0.11481669442E+02  0.33290562638E+02  0.10089858837E+03  0.13199126279E+03  0.77466625226E+02 0.  0.
         23    2    1    2    0    0  0.14553938365E+03 -0.15640256437E+03  0.92119038108E+02  0.25104000531E+03  0.94295772698E+02 0.  0.
        -13    1    3    3    0    0 -0.75962690108E+01  0.42799188892E+02  0.19132648824E+02  0.47492442807E+02  0.00000000000E+00 0.  1.
         14    1    3    3    0    0  0.19077938452E+02 -0.95086262540E+01  0.81765939542E+02  0.84498819980E+02  0.00000000000E+00 0. -1.
        -13    1    4    4    0    0 -0.59317672968E+00 -0.56506756456E+02  0.22918121569E+02  0.60980371269E+02  0.00000000000E+00 0.  1.
         13    1    4    4    0    0  0.14613256038E+03 -0.99895807916E+02  0.69200916539E+02  0.19005963404E+03  0.00000000000E+00 0. -1.
          1    1    1    2  501    0 -0.15702105309E+03  0.12311200173E+03  0.20647348412E+03  0.28712971934E+03  0.00000000000E+00 0. -1.
<scales pt_clust_5="13000.00000" pt_clust_6="13000.00000" pt_clust_7="13000.00000" pt_clust_8="13000.00000" pt_clust_9="207.24884"></scales>
<clustering>
<clus scale="   77.467">  5  6 -1 -1</clus>
<clus scale="   85.095">  1  5  2 -1</clus>
<clus scale="   94.296">  7  8 -1 -1</clus>
<clus scale="  207.249">  2  9  1 -1</clus>
<clus scale="  207.249">  2  5  1 -1</clus>
</clustering>
</event>
<event>
 9    2  0.1723348E-004  0.4246504E+03  0.7546771E-02  0.1035563E+00
         -1   -1    0    0    0  501 -0.00000000000E+00  0.00000000000E+00  0.12040317845E+03  0.12040317845E+03  0.00000000000E+00 0.  1.
         21   -1    0    0  501  502  0.00000000000E+00 -0.00000000000E+00 -0.12999293389E+04  0.12999293389E+04  0.00000000000E+00 0.  1.
         24    2    1    2    0    0  0.28625375874E+03  0.59076029756E+02 -0.59819532227E+03  0.67068408823E+03  0.80921634556E+02 0.  0.
         23    2    1    2    0    0  0.60438157432E+02  0.37153378462E+02 -0.13202656918E+03  0.17403596411E+03  0.88455397966E+02 0.  0.
        -13    1    3    3    0    0  0.23109499584E+03  0.41234347086E+02 -0.53865024901E+03  0.58757915146E+03  0.00000000000E+00 0.  1.
         14    1    3    3    0    0  0.55158762900E+02  0.17841682671E+02 -0.59545073261E+02  0.83104936766E+02  0.00000000000E+00 0. -1.
        -11    1    4    4    0    0  0.14644849152E+02 -0.19439875363E+02 -0.82427406744E+02  0.85945667391E+02  0.00000000000E+00 0. -1.
         11    1    4    4    0    0  0.45793308279E+02  0.56593253824E+02 -0.49599162437E+02  0.88090296719E+02  0.00000000000E+00 0.  1.
         -2    1    1    2    0  502 -0.34669191617E+03 -0.96229408218E+02 -0.44930426901E+03  0.57561246502E+03  0.00000000000E+00 0.  1.
<scales pt_clust_5="13000.00000" pt_clust_6="13000.00000" pt_clust_7="13000.00000" pt_clust_8="13000.00000" pt_clust_9="359.79927"></scales>
<clustering>
<clus scale="   80.922">  5  6 -1 -1</clus>
<clus scale="   88.455">  7  8 -1 -1</clus>
<clus scale="  100.287">  5  7 -1 -1</clus>
<clus scale="  359.799">  2  9  1 -1</clus>
<clus scale="  359.799">  2  5  1 -1</clus>
</clustering>
</event>
<event>
 9    2  0.1723348E-004  0.1647603E+03  0.7546771E-02  0.1186118E+00
         21   -1    0    0  501  502  0.00000000000E+00  0.00000000000E+00  0.14095238521E+03  0.14095238521E+03  0.00000000000E+00 0.  1.
         -3   -1    0    0    0  501 -0.00000000000E+00 -0.00000000000E+00 -0.30453379831E+03  0.30453379831E+03  0.00000000000E+00 0.  1.
         23    2    1    2    0    0  0.80641716417E+02 -0.98991000771E+02 -0.14740909190E+03  0.21761163556E+03  0.96556091979E+02 0.  0.
         24    2    1    2    0    0 -0.12024606375E+03  0.93537544254E+02  0.21455386631E+02  0.17297382926E+03  0.79064682141E+02 0.  0.
        -13    1    4    4    0    0 -0.12520402580E+03  0.62388335490E+02  0.14175789164E+02  0.14060336227E+03  0.00000000000E+00 0.  1.
         14    1    4    4    0    0  0.49579620517E+01  0.31149208764E+02  0.72795974662E+01  0.32370466996E+02  0.00000000000E+00 0. -1.
        -13    1    3    3    0    0  0.86772593282E+02 -0.68841757544E+02 -0.15030535920E+03  0.18670932363E+03  0.00000000000E+00 0.  1.
         13    1    3    3    0    0 -0.61308768644E+01 -0.30149243227E+02  0.28962673065E+01  0.30902311929E+02  0.00000000000E+00 0. -1.
         -4    1    1    2    0  502  0.39604347332E+02  0.54534565170E+01 -0.37627707843E+02  0.54900718694E+02  0.00000000000E+00 0.  1.
<scales pt_clust_5="13000.00000" pt_clust_6="13000.00000" pt_clust_7="13000.00000" pt_clust_8="13000.00000" pt_clust_9="39.97807"></scales>
<clustering>
<clus scale="   39.978">  1  9  2 -1</clus>
<clus scale="   79.065">  5  6 -1 -1</clus>
<clus scale="   96.556">  7  8 -1 -1</clus>
<clus scale="  155.158">  1  5  2 -1</clus>
<clus scale="   39.978">  1  5  2 -1</clus>
</clustering>
</event>
<event>
 9    2  0.1723348E-004  0.1062844E+03  0.7546771E-02  0.1273662E+00
         21   -1    0    0  501  502  0.00000000000E+00  0.00000000000E+00  0.18173610774E+02  0.18173610774E+02  0.00000000000E+00 0.  1.
          2   -1    0    0  502    0 -0.00000000000E+00 -0.00000000000E+00 -0.76810150462E+03  0.76810150462E+03  0.00000000000E+00 0. -1.
         24    2    1    2    0    0 -0.61171893517E+02  0.44178640403E+01 -0.36534666009E+03  0.37888378841E+03  0.79455805349E+02 0.  0.
         23    2    1    2    0    0  0.36252612715E+02 -0.21931697104E+02 -0.32071968692E+03  0.33663822056E+03  0.93107049661E+02 0.  0.
        -11    1    3    3    0    0 -0.48520042922E+02 -0.32906343719E+02 -0.17694408617E+03  0.18640341105E+03  0.00000000000E+00 0.  1.
         12    1    3    3    0    0 -0.12651850595E+02  0.37324207759E+02 -0.18840257392E+03  0.19248037735E+03  0.00000000000E+00 0. -1.
        -13    1    4    4    0    0  0.41214557577E+02  0.28777951892E+02 -0.18363912186E+03  0.19039468834E+03  0.00000000000E+00 0. -1.
         13    1    4    4    0    0 -0.49619448624E+01 -0.50709648996E+02 -0.13708056506E+03  0.14624353222E+03  0.00000000000E+00 0.  1.
          1    1    1    2  501    0  0.24919280803E+02  0.17513833064E+02 -0.63861546841E+02  0.70753106428E+02  0.00000000000E+00 0. -1.
<scales pt_clust_5="13000.00000" pt_clust_6="13000.00000" pt_clust_7="13000.00000" pt_clust_8="13000.00000" pt_clust_9="30.45825"></scales>
<clustering>
<clus scale="   30.458">  1  9  2 -1</clus>
<clus scale="   79.456">  5  6 -1 -1</clus>
<clus scale="   93.107">  7  8 -1 -1</clus>
<clus scale="   94.555">  2  5  1 -1</clus>
<clus scale="   30.458">  1  5  2 -1</clus>
</clustering>
</event>
<event>
 9    2  0.1723348E-004  0.1038285E+03  0.7546771E-02  0.1277808E+00
          2   -1    0    0  502    0 -0.00000000000E+00  0.00000000000E+00  0.63113375591E+03  0.63113375591E+03  0.00000000000E+00 0. -1.
         21   -1    0    0  501  502  0.00000000000E+00 -0.00000000000E+00 -0.23343831015E+02  0.23343831015E+02  0.00000000000E+00 0. -1.
         24    2    1    2    0    0 -0.31013757983E+02 -0.35631329188E+02  0.30647470122E+03  0.32016686505E+03  0.79678316895E+02 0.  0.
         23    2    1    2    0    0  0.50552899272E+02  0.25561312320E+02  0.16988135376E+03  0.20105140534E+03  0.91394840788E+02 0.  0.
        -13    1    3    3    0    0 -0.90954787327E+01 -0.24673559548E+02  0.21028097443E+02  0.33670360203E+02  0.00000000000E+00 0.  1.
         14    1    3    3    0    0 -0.21918279250E+02 -0.10957769640E+02  0.28544660378E+03  0.28649650485E+03  0.00000000000E+00 0. -1.
        -13    1    4    4    0    0  0.19646724898E+02 -0.16830088281E+02  0.13636535036E+03  0.13879753042E+03  0.00000000000E+00 0.  1.
         13    1    4    4    0    0  0.30906174374E+02  0.42391400601E+02  0.33516003398E+02  0.62253874925E+02  0.00000000000E+00 0. -1.
          1    1    1    2  501    0 -0.19539141289E+02  0.10070016868E+02  0.13143386991E+03  0.13325931653E+03  0.00000000000E+00 0. -1.
<scales pt_clust_5="13000.00000" pt_clust_6="13000.00000" pt_clust_7="13000.00000" pt_clust_8="13000.00000" pt_clust_9="21.98144"></scales>
<clustering>
<clus scale="   21.981">  2  9  1 -1</clus>
<clus scale="   79.678">  5  6 -1 -1</clus>
<clus scale="   91.395">  7  8 -1 -1</clus>
<clus scale="   93.680">  1  5  2 -1</clus>
<clus scale="   21.981">  2  5  1 -1</clus>
</clustering>
</event>
<event>
 9    2  0.1723348E-004  0.1286490E+03  0.7546771E-02  0.1245430E+00
          2   -1    0    0  502    0 -0.00000000000E+00  0.00000000000E+00  0.43230520107E+03  0.43230520107E+03  0.00000000000E+00 0. -1.
         21   -1    0    0  501  502  0.00000000000E+00 -0.00000000000E+00 -0.78165594192E+02  0.78165594192E+02  0.00000000000E+00 0.  1.
         24    2    1    2    0    0  0.46599621422E+02 -0.65318669878E+01  0.19757934232E+01  0.92933388751E+02  0.80115672512E+02 0.  0.
         23    2    1    2    0    0  0.21754598038E+02 -0.69796665363E+02  0.16952007670E+03  0.20811658915E+03  0.96076122129E+02 0.  0.
        -13    1    3    3    0    0  0.28315727255E+02 -0.95591385325E+01 -0.38310565010E+02  0.48588650227E+02  0.00000000000E+00 0.  1.
         14    1    3    3    0    0  0.18283894167E+02  0.30272715447E+01  0.40286358433E+02  0.44344738524E+02  0.00000000000E+00 0. -1.
        -13    1    4    4    0    0  0.41253920916E+02 -0.77118026997E+02  0.88352116011E+02  0.12431883398E+03  0.00000000000E+00 0.  1.
         13    1    4    4    0    0 -0.19499322879E+02  0.73213616339E+01  0.81167960686E+02  0.83797755166E+02  0.00000000000E+00 0. -1.
          1    1    1    2  501    0 -0.68354219460E+02  0.76328532351E+02  0.18264373676E+03  0.20942081737E+03  0.00000000000E+00 0. -1.
<scales pt_clust_5="13000.00000" pt_clust_6="13000.00000" pt_clust_7="13000.00000" pt_clust_8="13000.00000" pt_clust_9="85.55667"></scales>
<clustering>
<clus scale="   80.116">  5  6 -1 -1</clus>
<clus scale="   92.912">  1  5  2 -1</clus>
<clus scale="   85.557">  2  9  1 -1</clus>
<clus scale="   96.076">  7  8 -1 -1</clus>
<clus scale="   85.557">  2  5  1 -1</clus>
</clustering>
</event>
<event>
 9    2  0.1723348E-004  0.1028347E+03  0.7546771E-02  0.1278844E+00
         -1   -1    0    0    0  501 -0.00000000000E+00  0.00000000000E+00  0.33686294207E+03  0.33686294207E+03  0.00000000000E+00 0.  1.
         21   -1    0    0  501  502  0.00000000000E+00 -0.00000000000E+00 -0.35983231909E+02  0.35983231909E+02  0.00000000000E+00 0. -1.
         24    2    1    2    0    0  0.38981755728E+02  0.18107105390E+02  0.11949061160E+03  0.15090473837E+03  0.81527843434E+02 0.  0.
         23    2    1    2    0    0 -0.38054506298E+02 -0.39576135467E+02  0.14746382795E+03  0.18178296166E+03  0.91022242612E+02 0.  0.
        -13    1    3    3    0    0  0.40894261032E+02  0.39193041316E+02  0.11647601183E+03  0.12951871063E+03  0.00000000000E+00 0.  1.
         14    1    3    3    0    0 -0.19125053048E+01 -0.21085935926E+02  0.30145997757E+01  0.21386027733E+02  0.00000000000E+00 0. -1.
        -13    1    4    4    0    0 -0.59919864672E+02 -0.74806556642E+00  0.10074655172E+03  0.11722123301E+03  0.00000000000E+00 0. -1.
         13    1    4    4    0    0  0.21865358373E+02 -0.38828069901E+02  0.46717276231E+02  0.64561728659E+02  0.00000000000E+00 0.  1.
         -2    1    1    2    0  502 -0.92724942912E+00  0.21469030077E+02  0.33925270609E+02  0.40158473948E+02  0.00000000000E+00 0.  1.
<scales pt_clust_5="13000.00000" pt_clust_6="13000.00000" pt_clust_7="13000.00000" pt_clust_8="13000.00000" pt_clust_9="21.48906"></scales>
<clustering>
<clus scale="   21.489">  2  9  1 -1</clus>
<clus scale="   81.528">  5  6 -1 -1</clus>
<clus scale="   91.022">  7  8 -1 -1</clus>
<clus scale="   94.534">  1  5  2 -1</clus>
<clus scale="   21.489">  2  5  1 -1</clus>
</clustering>
</event>
<event>
 9    2  0.1723348E-004  0.1464867E+03  0.7546771E-02  0.1209235E+00
          2   -1    0    0  502    0 -0.00000000000E+00  0.00000000000E+00  0.10361447352E+03  0.10361447352E+03  0.00000000000E+00 0. -1.
         21   -1    0    0  501  502  0.00000000000E+00 -0.00000000000E+00 -0.48217013277E+03  0.48217013277E+03  0.00000000000E+00 0. -1.
         23    2    1    2    0    0 -0.51388882376E+02 -0.75852091718E+02 -0.46260225857E+02  0.14376126921E+03  0.10066249042E+03 0.  0.
         24    2    1    2    0    0 -0.33576136241E+01  0.16619166780E+03 -0.23044924311E+03  0.29528866394E+03  0.80359177355E+02 0.  0.
        -13    1    4    4    0    0  0.14684297698E+02  0.32436222753E+02 -0.10556555035E+03  0.11140835950E+03  0.00000000000E+00 0.  1.
         14    1    4    4    0    0 -0.18041911322E+02  0.13375544505E+03 -0.12488369276E+03  0.18388030444E+03  0.00000000000E+00 0. -1.
        -11    1    3    3    0    0 -0.50700923934E+02 -0.65798955504E+01  0.12825818181E+02  0.52710343627E+02  0.00000000000E+00 0.  1.
         11    1    3    3    0    0 -0.68795844147E+00 -0.69272196167E+02 -0.59086044038E+02  0.91050925579E+02  0.00000000000E+00 0. -1.
          1    1    1    2  501    0  0.54746496000E+02 -0.90339576081E+02 -0.10184619028E+03  0.14673467315E+03  0.00000000000E+00 0. -1.
<scales pt_clust_5="13000.00000" pt_clust_6="13000.00000" pt_clust_7="13000.00000" pt_clust_8="13000.00000" pt_clust_9="105.63341"></scales>
<clustering>
<clus scale="   80.359">  5  6 -1 -1</clus>
<clus scale="  100.662">  7  8 -1 -1</clus>
<clus scale="  105.633">  2  9  1 -1</clus>
<clus scale="  133.353">  2  5  1 -1</clus>
<clus scale="  105.633">  2  5  1 -1</clus>
</clustering>
</event>
<event>
 9    2  0.1723348E-004  0.1597196E+03  0.7546771E-02  0.1191061E+00
         21   -1    0    0  501  502  0.00000000000E+00  0.00000000000E+00  0.14006459876E+04  0.14006459876E+04  0.00000000000E+00 0. -1.
          4   -1    0    0  502    0 -0.00000000000E+00 -0.00000000000E+00 -0.50593087439E+02  0.50593087439E+02  0.00000000000E+00 0. -1.
         24    2    1    2    0    0 -0.13009856045E+03  0.49683498755E+02  0.16344288884E+03  0.22934599396E+03  0.80572461495E+02 0.  0.
         23    2    1    2    0    0  0.38109799569E+02 -0.12489671984E+03  0.84776404092E+03  0.86281711083E+03  0.93262801935E+02 0.  0.
        -11    1    3    3    0    0  0.72096473726E+00  0.28316381718E+02  0.29883698434E+02  0.41174903714E+02  0.00000000000E+00 0.  1.
         12    1    3    3    0    0 -0.13081952519E+03  0.21367117037E+02  0.13355919041E+03  0.18817109024E+03  0.00000000000E+00 0. -1.
        -11    1    4    4    0    0  0.67378920021E+02 -0.82066171338E+02  0.63524101052E+03  0.64405428093E+03  0.00000000000E+00 0. -1.
         11    1    4    4    0    0 -0.29269120453E+02 -0.42830548498E+02  0.21252303040E+03  0.21876282990E+03  0.00000000000E+00 0.  1.
          3    1    1    2  501    0  0.91988760881E+02  0.75213221081E+02  0.33884597044E+03  0.35907597028E+03  0.00000000000E+00 0. -1.
<scales pt_clust_5="13000.00000" pt_clust_6="13000.00000" pt_clust_7="13000.00000" pt_clust_8="13000.00000" pt_clust_9="118.82323"></scales>
<clustering>
<clus scale="   80.572">  5  6 -1 -1</clus>
<clus scale="   93.263">  7  8 -1 -1</clus>
<clus scale="  118.823">  1  9  2 -1</clus>
<clus scale="  152.657">  2  5  1 -1</clus>
<clus scale="  118.823">  1  5  2 -1</clus>
</clustering>
</event>
<event>
 9    2  0.2229774E-004  0.1552861E+03  0.7546771E-02  0.1196342E+00
         -3   -1    0    0    0  501 -0.00000000000E+00  0.00000000000E+00  0.69026550519E+03  0.69026550519E+03  0.00000000000E+00 0.  1.
         21   -1    0    0  501  502  0.00000000000E+00 -0.00000000000E+00 -0.23013324272E+03  0.23013324272E+03  0.00000000000E+00 0. -1.
         23    2    1    2    0    0  0.81138061293E+02 -0.74709248566E+02  0.19161682057E+03  0.23989507457E+03  0.93100934843E+02 0.  0.
         24    2    1    2    0    0 -0.13632775820E+03  0.19950759300E+03 -0.11059109614E+03  0.27758644040E+03  0.80220346714E+02 0.  0.
        -11    1    4    4    0    0 -0.59607973933E+02  0.13628801789E+03 -0.35308364022E+02  0.15288628109E+03  0.00000000000E+00 0.  1.
         12    1    4    4    0    0 -0.76719784270E+02  0.63219575108E+02 -0.75282732118E+02  0.12470015930E+03  0.00000000000E+00 0. -1.
        -13    1    3    3    0    0  0.57389741181E+02 -0.91252683932E+02  0.11324200454E+03  0.15634700608E+03  0.00000000000E+00 0.  1.
         13    1    3    3    0    0  0.23748320112E+02  0.16543435366E+02  0.78374816030E+02  0.83548068497E+02  0.00000000000E+00 0. -1.
         -4    1    1    2    0  502  0.55189696909E+02 -0.12479834443E+03  0.37910653804E+03  0.40291723295E+03  0.00000000000E+00 0.  1.
<scales pt_clust_5="13000.00000" pt_clust_6="13000.00000" pt_clust_7="13000.00000" pt_clust_8="13000.00000" pt_clust_9="136.45713"></scales>
<clustering>
<clus scale="   80.220">  5  6 -1 -1</clus>
<clus scale="   93.101">  7  8 -1 -1</clus>
<clus scale="  136.457">  2  9  1 -1</clus>
<clus scale="  147.923">  2  5  1 -1</clus>
<clus scale="  136.457">  2  5  1 -1</clus>
</clustering>
</event>
<event>
 9    2  0.1723348E-004  0.1722097E+03  0.7546771E-02  0.1209961E+00
         21   -1    0    0  501  502  0.00000000000E+00  0.00000000000E+00  0.44279386336E+02  0.44279386336E+02  0.00000000000E+00 0. -1.
          2   -1    0    0  502    0 -0.00000000000E+00 -0.00000000000E+00 -0.97212570168E+03  0.97212570168E+03  0.00000000000E+00 0. -1.
         24    2    1    2    0    0  0.40854529569E+01 -0.60894939374E+01 -0.15767957955E+03  0.17718260598E+03  0.80480141592E+02 0.  0.
         23    2    1    2    0    0 -0.10843333595E+03 -0.92553389610E+02 -0.28104672394E+03  0.32946049331E+03  0.96088695176E+02 0.  0.
        -13    1    3    3    0    0  0.46339751218E+01  0.37141204190E+02 -0.78571550015E+02  0.87031208459E+02  0.00000000000E+00 0.  1.
         14    1    3    3    0    0 -0.54852216491E+00 -0.43230698127E+02 -0.79108029539E+02  0.90151397520E+02  0.00000000000E+00 0. -1.
        -13    1    4    4    0    0 -0.94115526673E+02 -0.29894026149E+02 -0.11599738675E+03  0.15233771330E+03  0.00000000000E+00 0. -1.
         13    1    4    4    0    0 -0.14317809279E+02 -0.62659363461E+02 -0.16504933719E+03  0.17712278001E+03  0.00000000000E+00 0.  1.
          1    1    1    2  501    0  0.10434788300E+03  0.98642883548E+02 -0.48912001184E+03  0.50976198872E+03  0.00000000000E+00 0. -1.
<scales pt_clust_5="13000.00000" pt_clust_6="13000.00000" pt_clust_7="13000.00000" pt_clust_8="13000.00000" pt_clust_9="142.90968"></scales>
<clustering>
<clus scale="   80.480">  5  6 -1 -1</clus>
<clus scale="   80.814">  2  5  1 -1</clus>
<clus scale="   96.089">  7  8 -1 -1</clus>
<clus scale="  142.910">  1  9  2 -1</clus>
<clus scale="  142.910">  1  5  2 -1</clus>
</clustering>
</event>
<event>
 9    2  0.1723348E-004  0.1253923E+03  0.7546771E-02  0.1256028E+00
          2   -1    0    0  502    0 -0.00000000000E+00  0.00000000000E+00  0.16847862910E+03  0.16847862910E+03  0.00000000000E+00 0. -1.
         21   -1    0    0  501  502  0.00000000000E+00 -0.00000000000E+00 -0.46680677408E+03  0.46680677408E+03  0.00000000000E+00 0.  1.
         24    2    1    2    0    0  0.46831222113E+01  0.94349797763E+00  0.13145251434E+03  0.15451684686E+03  0.81073242293E+02 0.  0.
         23    2    1    2    0    0 -0.70742507768E+02  0.55652787138E+02 -0.28570020220E+03  0.31246478323E+03  0.88926374606E+02 0.  0.
        -11    1    3    3    0    0 -0.57060075187E+01  0.26351860641E+02  0.81087926610E+01  0.28155489686E+02  0.00000000000E+00 0.  1.
         12    1    3    3    0    0  0.10389129730E+02 -0.25408362664E+02  0.12334372168E+03  0.12636135718E+03  0.00000000000E+00 0. -1.
        -11    1    4    4    0    0 -0.16746096075E+02 -0.24190331570E+02 -0.53549295209E+02  0.61099352636E+02  0.00000000000E+00 0. -1.
         11    1    4    4    0    0 -0.53996411693E+02  0.79843118708E+02 -0.23215090699E+03  0.25136543059E+03  0.00000000000E+00 0.  1.
          1    1    1    2  501    0  0.66059385557E+02 -0.56596285115E+02 -0.14408045713E+03  0.16830377309E+03  0.00000000000E+00 0. -1.
<scales pt_clust_5="13000.00000" pt_clust_6="13000.00000" pt_clust_7="13000.00000" pt_clust_8="13000.00000" pt_clust_9="88.40446"></scales>
<clustering>
<clus scale="   81.073">  5  6 -1 -1</clus>
<clus scale="   81.214">  1  5  2 -1</clus>
<clus scale="   88.404">  2  9  1 -1</clus>
<clus scale="   88.926">  7  8 -1 -1</clus>
<clus scale="   88.404">  2  5  1 -1</clus>
</clustering>
</event>
<event>
 9    2  0.1723348E-004  0.1560622E+03  0.7546771E-02  0.1218248E+00
          2   -1    0    0  502    0 -0.00000000000E+00  0.00000000000E+00  0.89298494639E+03  0.89298494639E+03  0.00000000000E+00 0. -1.
         21   -1    0    0  501  502  0.00000000000E+00 -0.00000000000E+00 -0.73168977080E+02  0.73168977080E+02  0.00000000000E+00 0.  1.
         24    2    1    2    0    0 -0.39700753425E+02 -0.51343733056E+01  0.51752207198E+03  0.52547639464E+03  0.81815858657E+02 0.  0.
         23    2    1    2    0    0  0.35696775284E+02 -0.12247190168E+03  0.62682177922E+02  0.16917583577E+03  0.91748468715E+02 0.  0.
        -13    1    3    3    0    0 -0.27629352046E+02  0.36837646826E+02  0.22013587070E+03  0.22490041104E+03  0.00000000000E+00 0.  1.
         14    1    3    3    0    0 -0.12071401379E+02 -0.41972020132E+02  0.29738620129E+03  0.30057598361E+03  0.00000000000E+00 0. -1.
        -13    1    4    4    0    0 -0.29364808016E+02 -0.32584686573E+02  0.50924765487E+01  0.44158657886E+02  0.00000000000E+00 0.  1.
         13    1    4    4    0    0  0.65061583300E+02 -0.89887215107E+02  0.57589701373E+02  0.12501717788E+03  0.00000000000E+00 0. -1.
          1    1    1    2  501    0  0.40039781407E+01  0.12760627499E+03  0.23961171941E+03  0.27150169306E+03  0.00000000000E+00 0. -1.
<scales pt_clust_5="13000.00000" pt_clust_6="13000.00000" pt_clust_7="13000.00000" pt_clust_8="13000.00000" pt_clust_9="126.24442"></scales>
<clustering>
<clus scale="   81.816">  5  6 -1 -1</clus>
<clus scale="   91.084">  1  5  2 -1</clus>
<clus scale="   91.748">  7  8 -1 -1</clus>
<clus scale="  126.244">  2  9  1 -1</clus>
<clus scale="  126.244">  2  5  1 -1</clus>
</clustering>
</event>
<event>
 9    2  0.1723348E-004  0.1932077E+03  0.7546771E-02  0.1179452E+00
         21   -1    0    0  501  502  0.00000000000E+00  0.00000000000E+00  0.11346373747E+03  0.11346373747E+03  0.00000000000E+00 0. -1.
          2   -1    0    0  502    0 -0.00000000000E+00 -0.00000000000E+00 -0.56706354253E+03  0.56706354253E+03  0.00000000000E+00 0. -1.
         23    2    1    2    0    0 -0.47409339395E+02 -0.48414679516E+02 -0.62210577853E+02  0.12784939560E+03  0.88790119405E+02 0.  0.
         24    2    1    2    0    0 -0.13963927710E+03  0.99479328316E+02 -0.13497667981E+03  0.23120910249E+03  0.76443969738E+02 0.  0.
        -13    1    4    4    0    0 -0.41937397304E+02  0.52603039823E+02 -0.13853825026E+02  0.68685905098E+02  0.00000000000E+00 0.  1.
         14    1    4    4    0    0 -0.97701879792E+02  0.46876288493E+02 -0.12112285479E+03  0.16252319739E+03  0.00000000000E+00 0. -1.
        -13    1    3    3    0    0 -0.39710270333E+02 -0.12855164544E+02 -0.77782319581E+02  0.88273722391E+02  0.00000000000E+00 0.  1.
         13    1    3    3    0    0 -0.76990690625E+01 -0.35559514972E+02  0.15571741729E+02  0.39575673209E+02  0.00000000000E+00 0. -1.
          1    1    1    2  501    0  0.18704861649E+03 -0.51064648800E+02 -0.25641254739E+03  0.32146878192E+03  0.00000000000E+00 0. -1.
<scales pt_clust_5="13000.00000" pt_clust_6="13000.00000" pt_clust_7="13000.00000" pt_clust_8="13000.00000" pt_clust_9="177.44167"></scales>
<clustering>
<clus scale="   76.444">  5  6 -1 -1</clus>
<clus scale="   88.790">  7  8 -1 -1</clus>
<clus scale="  111.693">  2  7  1 -1</clus>
<clus scale="  177.442">  1  9  2 -1</clus>
<clus scale="  177.442">  1  5  2 -1</clus>
</clustering>
</event>
<event>
 9    2  0.1723348E-004  0.1590931E+03  0.7546771E-02  0.1208284E+00
         21   -1    0    0  501  502  0.00000000000E+00  0.00000000000E+00  0.33203240113E+03  0.33203240113E+03  0.00000000000E+00 0. -1.
          2   -1    0    0  502    0 -0.00000000000E+00 -0.00000000000E+00 -0.33730782043E+03  0.33730782043E+03  0.00000000000E+00 0. -1.
         24    2    1    2    0    0 -0.35612041023E+00  0.69955466283E+02  0.15544410042E+03  0.18827956542E+03  0.79952687981E+02 0.  0.
         23    2    1    2    0    0  0.78916396299E+02  0.93677031324E+02  0.85461928594E+02  0.17519693368E+03  0.91580786892E+02 0.  0.
        -11    1    3    3    0    0  0.18373733295E+02  0.74322899719E+02  0.81269603034E+02  0.11165229901E+03  0.00000000000E+00 0.  1.
         12    1    3    3    0    0 -0.18729853705E+02 -0.43674334351E+01  0.74174497390E+02  0.76627266411E+02  0.00000000000E+00 0. -1.
        -11    1    4    4    0    0  0.80794742001E+02  0.70409255050E+02  0.24521930715E+02  0.10993897679E+03  0.00000000000E+00 0. -1.
         11    1    4    4    0    0 -0.18783457018E+01  0.23267776274E+02  0.60939997879E+02  0.65257956885E+02  0.00000000000E+00 0.  1.
          1    1    1    2  501    0 -0.78560275889E+02 -0.16363249761E+03 -0.24618144831E+03  0.30586372246E+03  0.00000000000E+00 0. -1.
<scales pt_clust_5="13000.00000" pt_clust_6="13000.00000" pt_clust_7="13000.00000" pt_clust_8="13000.00000" pt_clust_9="130.09069"></scales>
<clustering>
<clus scale="   79.953">  5  6 -1 -1</clus>
<clus scale="   91.581">  7  8 -1 -1</clus>
<clus scale="  106.237">  2  5  1 -1</clus>
<clus scale="  130.091">  1  9  2 -1</clus>
<clus scale="  130.091">  1  5  2 -1</clus>
</clustering>
</event>
<event>
 9    2  0.1723348E-004  0.1146775E+03  0.7546771E-02  0.1256505E+00
          2   -1    0    0  502    0 -0.00000000000E+00  0.00000000000E+00  0.87338875660E+02  0.87338875660E+02  0.00000000000E+00 0. -1.
         21   -1    0    0  501  502  0.00000000000E+00 -0.00000000000E+00 -0.26669392345E+03  0.26669392345E+03  0.00000000000E+00 0. -1.
         24    2    1    2    0    0  0.14596411358E+02 -0.54266526838E+02 -0.32486742668E+01  0.98367464593E+02  0.80670273623E+02 0.  0.
         23    2    1    2    0    0 -0.88073215508E+01  0.99282078775E+02 -0.10774174293E+03  0.17360659828E+03  0.92717138209E+02 0.  0.
        -11    1    3    3    0    0 -0.26731185943E+02 -0.49047128058E+02  0.43364867354E+01  0.56026620368E+02  0.00000000000E+00 0.  1.
         12    1    3    3    0    0  0.41327597301E+02 -0.52193987800E+01 -0.75851610023E+01  0.42340844225E+02  0.00000000000E+00 0. -1.
        -13    1    4    4    0    0 -0.19432856712E+02 -0.12872772413E+02 -0.15363927448E+02  0.27917637010E+02  0.00000000000E+00 0.  1.
         13    1    4    4    0    0  0.10625535161E+02  0.11215485119E+03 -0.92377815486E+02  0.14568896127E+03  0.00000000000E+00 0. -1.
          1    1    1    2  501    0 -0.57890898068E+01 -0.45015551937E+02 -0.68364630585E+02  0.82058736232E+02  0.00000000000E+00 0. -1.
<scales pt_clust_5="13000.00000" pt_clust_6="13000.00000" pt_clust_7="13000.00000" pt_clust_8="13000.00000" pt_clust_9="45.38627"></scales>
<clustering>
<clus scale="   45.386">  2  9  1 -1</clus>
<clus scale="   80.670">  5  6 -1 -1</clus>
<clus scale="   92.717">  7  8 -1 -1</clus>
<clus scale="  105.177">  1  5  2 -1</clus>
<clus scale="   45.386">  2  5  1 -1</clus>
</clustering>
</event>
<event>
 9    2  0.1723348E-004  0.1031035E+03  0.7546771E-02  0.1278713E+00
         21   -1    0    0  501  502  0.00000000000E+00  0.00000000000E+00  0.34876978547E+02  0.34876978547E+02  0.00000000000E+00 0. -1.
          4   -1    0    0  502    0 -0.00000000000E+00 -0.00000000000E+00 -0.49490182648E+03  0.49490182648E+03  0.00000000000E+00 0. -1.
         23    2    1    2    0    0 -0.30021600718E+01 -0.50040841199E+02 -0.35295964224E+03  0.36805096396E+03  0.91476249758E+02 0.  0.
         24    2    1    2    0    0 -0.22270036959E+02  0.39738446229E+02 -0.74119977795E+02  0.11894687186E+03  0.81114046638E+02 0.  0.
        -11    1    4    4    0    0 -0.37803192346E+01  0.29170736435E+02 -0.88493185153E+02  0.93253774702E+02  0.00000000000E+00 0.  1.
         12    1    4    4    0    0 -0.18489717724E+02  0.10567709793E+02  0.14373207358E+02  0.25693097157E+02  0.00000000000E+00 0. -1.
        -11    1    3    3    0    0 -0.39147426644E+02 -0.68230719625E+01 -0.22135531383E+03  0.22489386449E+03  0.00000000000E+00 0. -1.
         11    1    3    3    0    0  0.36145266572E+02 -0.43217769237E+02 -0.13160432841E+03  0.14315709948E+03  0.00000000000E+00 0.  1.
          3    1    1    2  501    0  0.25272197031E+02  0.10302394971E+02 -0.32945227893E+02  0.42780969201E+02  0.00000000000E+00 0. -1.
<scales pt_clust_5="13000.00000" pt_clust_6="13000.00000" pt_clust_7="13000.00000" pt_clust_8="13000.00000" pt_clust_9="27.29145"></scales>
<clustering>
<clus scale="   27.291">  1  9  2 -1</clus>
<clus scale="   81.114">  5  6 -1 -1</clus>
<clus scale="   91.476">  7  8 -1 -1</clus>
<clus scale="   94.032">  1  5  2 -1</clus>
<clus scale="   27.291">  1  5  2 -1</clus>
</clustering>
</event>
<event>
 9    2  0.1723348E-004  0.1253925E+03  0.7546771E-02  0.1236990E+00
         -1   -1    0    0    0  501 -0.00000000000E+00  0.00000000000E+00  0.65120173259E+03  0.65120173259E+03  0.00000000000E+00 0.  1.
         21   -1    0    0  501  502  0.00000000000E+00 -0.00000000000E+00 -0.58218874788E+02  0.58218874788E+02  0.00000000000E+00 0. -1.
         24    2    1    2    0    0  0.25308545768E+02  0.73905050216E+02  0.36082663889E+03  0.37842516548E+03  0.83109948874E+02 0.  0.
         23    2    1    2    0    0 -0.74696414235E+02 -0.76721820438E+02  0.24238189273E+03  0.28048148194E+03  0.91951551131E+02 0.  0.
        -11    1    3    3    0    0  0.35708988900E+02  0.43477605587E+02  0.32680261204E+03  0.33161028530E+03  0.00000000000E+00 0.  1.
         12    1    3    3    0    0 -0.10400443132E+02  0.30427444630E+02  0.34024026845E+02  0.46814880186E+02  0.00000000000E+00 0. -1.
        -11    1    4    4    0    0 -0.83893578625E+02 -0.23848473888E+02  0.15815690507E+03  0.18061143060E+03  0.00000000000E+00 0.  1.
         11    1    4    4    0    0  0.91971643903E+01 -0.52873346549E+02  0.84224987662E+02  0.99870051341E+02  0.00000000000E+00 0. -1.
         -2    1    1    2    0  502  0.49387868467E+02  0.28167702214E+01 -0.10225673813E+02  0.50513959963E+02  0.00000000000E+00 0.  1.
<scales pt_clust_5="13000.00000" pt_clust_6="13000.00000" pt_clust_7="13000.00000" pt_clust_8="13000.00000" pt_clust_9="49.46813"></scales>
<clustering>
<clus scale="   49.468">  2  9  1 -1</clus>
<clus scale="   83.110">  5  6 -1 -1</clus>
<clus scale="   91.952">  7  8 -1 -1</clus>
<clus scale="  119.061">  1  5  2 -1</clus>
<clus scale="   49.468">  2  5  1 -1</clus>
</clustering>
</event>
<event>
 9    2  0.1723348E-004  0.2967775E+03  0.7546771E-02  0.1121224E+00
          2   -1    0    0  502    0 -0.00000000000E+00  0.00000000000E+00  0.11649869401E+04  0.11649869401E+04  0.00000000000E+00 0. -1.
         21   -1    0    0  501  502  0.00000000000E+00 -0.00000000000E+00 -0.16274742592E+03  0.16274742592E+03  0.00000000000E+00 0.  1.
         24    2    1    2    0    0 -0.40241384470E+02 -0.59231605629E+02  0.18359032666E+02  0.12383486042E+03  0.99349214618E+02 0.  0.
         23    2    1    2    0    0  0.22710030933E+03  0.18380187227E+03  0.16081594340E+03  0.35074697351E+03  0.10864618273E+03 0.  0.
        -13    1    3    3    0    0 -0.21078531892E+02  0.14696190214E+02  0.37164332555E+02  0.45182630820E+02  0.00000000000E+00 0.  1.
         14    1    3    3    0    0 -0.19162852578E+02 -0.73927795843E+02 -0.18805299889E+02  0.78652229600E+02  0.00000000000E+00 0. -1.
        -13    1    4    4    0    0  0.33888118486E+02  0.67628908074E+02  0.82872821081E+02  0.11220507233E+03  0.00000000000E+00 0. -1.
         13    1    4    4    0    0  0.19321219084E+03  0.11617296420E+03  0.77943122323E+02  0.23854190118E+03  0.00000000000E+00 0.  1.
          1    1    1    2  501    0 -0.18685892486E+03 -0.12457026664E+03  0.82306453808E+03  0.85315253207E+03  0.00000000000E+00 0. -1.
<scales pt_clust_5="13000.00000" pt_clust_6="13000.00000" pt_clust_7="13000.00000" pt_clust_8="13000.00000" pt_clust_9="276.17566"></scales>
<clustering>
<clus scale="   99.349">  5  6 -1 -1</clus>
<clus scale="  108.646">  7  8 -1 -1</clus>
<clus scale="  122.466">  1  5  2 -1</clus>
<clus scale="  276.176">  2  9  1 -1</clus>
<clus scale="  276.176">  2  5  1 -1</clus>
</clustering>
</event>
<event>
 9    2  0.1723348E-004  0.1532304E+03  0.7546771E-02  0.1200440E+00
         -3   -1    0    0    0  501 -0.00000000000E+00  0.00000000000E+00  0.88494652069E+02  0.88494652069E+02  0.00000000000E+00 0.  1.
         21   -1    0    0  501  502  0.00000000000E+00 -0.00000000000E+00 -0.36711216668E+03  0.36711216668E+03  0.00000000000E+00 0. -1.
         23    2    1    2    0    0 -0.67678354316E+02  0.11749760788E+03 -0.42328400662E+02  0.16918200443E+03  0.91895645270E+02 0.  0.
         24    2    1    2    0    0  0.37252756548E+02 -0.90255806910E+02 -0.19132995089E+03  0.22568636635E+03  0.69233715022E+02 0.  0.
        -13    1    4    4    0    0 -0.80620850095E+01 -0.25715537998E+02 -0.10652669212E+03  0.10988276591E+03  0.00000000000E+00 0.  1.
         14    1    4    4    0    0  0.45314841557E+02 -0.64540268912E+02 -0.84803258765E+02  0.11580360044E+03  0.00000000000E+00 0. -1.
        -13    1    3    3    0    0 -0.28253109337E+02  0.10627360272E+03  0.40599087286E+00  0.10996582038E+03  0.00000000000E+00 0.  1.
         13    1    3    3    0    0 -0.39425244979E+02  0.11224005153E+02 -0.42734391535E+02  0.59216184048E+02  0.00000000000E+00 0. -1.
         -4    1    1    2    0  502  0.30425597768E+02 -0.27241800967E+02 -0.44959163056E+02  0.60738447973E+02  0.00000000000E+00 0.  1.
<scales pt_clust_5="13000.00000" pt_clust_6="13000.00000" pt_clust_7="13000.00000" pt_clust_8="13000.00000" pt_clust_9="40.83911"></scales>
<clustering>
<clus scale="   40.839">  2  9  1 -1</clus>
<clus scale="   69.234">  5  6 -1 -1</clus>
<clus scale="   91.896">  7  8 -1 -1</clus>
<clus scale="  140.812">  2  5  1 -1</clus>
<clus scale="   40.839">  2  5  1 -1</clus>
</clustering>
</event>
<event>
 9    2  0.1723348E-004  0.1348655E+03  0.7546771E-02  0.1229290E+00
          2   -1    0    0  502    0 -0.00000000000E+00  0.00000000000E+00  0.28772774503E+03  0.28772774503E+03  0.00000000000E+00 0. -1.
         21   -1    0    0  501  502  0.00000000000E+00 -0.00000000000E+00 -0.21513378623E+03  0.21513378623E+03  0.00000000000E+00 0.  1.
         23    2    1    2    0    0  0.52572862138E+02 -0.60705115949E+02  0.23670011870E+03  0.27278858062E+03  0.10925953775E+03 0.  0.
         24    2    1    2    0    0 -0.73753807198E+02  0.24270012732E+02 -0.14776838338E+03  0.18487259531E+03  0.79458943972E+02 0.  0.
        -13    1    4    4    0    0 -0.37147927447E+02  0.49519132816E+02 -0.11132149778E+03  0.12737577829E+03  0.00000000000E+00 0.  1.
         14    1    4    4    0    0 -0.36605879751E+02 -0.25249120084E+02 -0.36446885602E+02  0.57496817020E+02  0.00000000000E+00 0. -1.
        -11    1    3    3    0    0  0.86792232411E+02 -0.41865517233E+02  0.17453669497E+03  0.19937068749E+03  0.00000000000E+00 0. -1.
         11    1    3    3    0    0 -0.34219370273E+02 -0.18839598716E+02  0.62163423734E+02  0.73417893133E+02  0.00000000000E+00 0.  1.
          1    1    1    2  501    0  0.21180945061E+02  0.36435103218E+02 -0.16337776527E+02  0.45200355330E+02  0.00000000000E+00 0. -1.
<scales pt_clust_5="13000.00000" pt_clust_6="13000.00000" pt_clust_7="13000.00000" pt_clust_8="13000.00000" pt_clust_9="42.14438"></scales>
<clustering>
<clus scale="   42.144">  2  9  1 -1</clus>
<clus scale="   79.459">  5  6 -1 -1</clus>
<clus scale="  109.260">  7  8 -1 -1</clus>
<clus scale="  112.093">  2  5  1 -1</clus>
<clus scale="   42.144">  2  5  1 -1</clus>
</clustering>
</event>
<event>
 9    2  0.1723348E-004  0.2892929E+03  0.7546771E-02  0.1129365E+00
         -1   -1    0    0    0  501 -0.00000000000E+00  0.00000000000E+00  0.10972430543E+04  0.10972430543E+04  0.00000000000E+00 0.  1.
         21   -1    0    0  501  502  0.00000000000E+00 -0.00000000000E+00 -0.17187161994E+03  0.17187161994E+03  0.00000000000E+00 0.  1.
         24    2    1    2    0    0  0.65214093174E+02  0.26101338876E+02 -0.22090787241E+01  0.10809833455E+03  0.82135327751E+02 0.  0.
         23    2    1    2    0    0 -0.24382660704E+03 -0.21743797217E+03  0.80180775107E+03  0.87061846603E+03  0.91379197140E+02 0.  0.
        -13    1    3    3    0    0  0.38891084978E+02  0.57560987107E+01 -0.41129060264E+02  0.56896825582E+02  0.00000000000E+00 0.  1.
         14    1    3    3    0    0  0.26323008195E+02  0.20345240166E+02  0.38919981540E+02  0.51201508971E+02  0.00000000000E+00 0. -1.
        -13    1    4    4    0    0 -0.20492117168E+03 -0.18200950546E+03  0.74176472519E+03  0.79078129354E+03  0.00000000000E+00 0.  1.
         13    1    4    4    0    0 -0.38905435361E+02 -0.35428466702E+02  0.60043025885E+02  0.79837172488E+02  0.00000000000E+00 0. -1.
         -2    1    1    2    0  502  0.17861251387E+03  0.19133663329E+03  0.12577276199E+03  0.29039787363E+03  0.00000000000E+00 0.  1.
<scales pt_clust_5="13000.00000" pt_clust_6="13000.00000" pt_clust_7="13000.00000" pt_clust_8="13000.00000" pt_clust_9="274.48177"></scales>
<clustering>
<clus scale="   82.135">  5  6 -1 -1</clus>
<clus scale="   91.379">  7  8 -1 -1</clus>
<clus scale="  108.076">  1  5  2 -1</clus>
<clus scale="  274.482">  2  9  1 -1</clus>
<clus scale="  274.482">  2  5  1 -1</clus>
</clustering>
</event>
<event>
 9    2  0.1723348E-004  0.9586040E+02  0.7546771E-02  0.1293831E+00
          4   -1    0    0  502    0 -0.00000000000E+00  0.00000000000E+00  0.11929967488E+03  0.11929967488E+03  0.00000000000E+00 0. -1.
         21   -1    0    0  501  502  0.00000000000E+00 -0.00000000000E+00 -0.28359088197E+03  0.28359088197E+03  0.00000000000E+00 0. -1.
         24    2    1    2    0    0 -0.18819911019E+02 -0.27336308072E+02  0.76897555230E+02  0.11727888007E+03  0.82095303893E+02 0.  0.
         23    2    1    2    0    0 -0.26392199860E+02  0.38784832908E+02 -0.13110901345E+03  0.16605936688E+03  0.90472804985E+02 0.  0.
        -11    1    3    3    0    0 -0.23275703973E+02 -0.43169783254E+02  0.12222294429E+02  0.50544762960E+02  0.00000000000E+00 0.  1.
         12    1    3    3    0    0  0.44557929539E+01  0.15833475182E+02  0.64675260802E+02  0.66734117114E+02  0.00000000000E+00 0. -1.
        -11    1    4    4    0    0 -0.30321632115E+01  0.44349300159E+02 -0.13463908942E+03  0.14178765404E+03  0.00000000000E+00 0. -1.
         11    1    4    4    0    0 -0.23360036648E+02 -0.55644672510E+01  0.35300759620E+01  0.24271712842E+02  0.00000000000E+00 0.  1.
          3    1    1    2  501    0  0.45212110879E+02 -0.11448524836E+02 -0.11007974887E+03  0.11955230990E+03  0.00000000000E+00 0. -1.
<scales pt_clust_5="13000.00000" pt_clust_6="13000.00000" pt_clust_7="13000.00000" pt_clust_8="13000.00000" pt_clust_9="46.63908"></scales>
<clustering>
<clus scale="   46.639">  2  9  1 -1</clus>
<clus scale="   82.095">  5  6 -1 -1</clus>
<clus scale="   87.997">  1  5  2 -1</clus>
<clus scale="   90.473">  7  8 -1 -1</clus>
<clus scale="   46.639">  2  5  1 -1</clus>
</clustering>
</event>
<event>
 9    2  0.1723348E-004  0.9090057E+02  0.7546771E-02  0.1308888E+00
         -1   -1    0    0    0  501 -0.00000000000E+00  0.00000000000E+00  0.43970844216E+03  0.43970844216E+03  0.00000000000E+00 0.  1.
         21   -1    0    0  501  502  0.00000000000E+00 -0.00000000000E+00 -0.62809145540E+02  0.62809145540E+02  0.00000000000E+00 0. -1.
         23    2    1    2    0    0 -0.84933715269E+00 -0.16136735350E+02  0.34551966399E+03  0.35756091315E+03  0.90580642594E+02 0.  0.
         24    2    1    2    0    0  0.87185986306E+00 -0.37987514461E+02  0.26567583805E+02  0.90618927636E+02  0.77859759453E+02 0.  0.
        -13    1    4    4    0    0  0.21349684700E+02 -0.10075810474E+02  0.45428413232E+02  0.51196403411E+02  0.00000000000E+00 0.  1.
         14    1    4    4    0    0 -0.20477824837E+02 -0.27911703988E+02 -0.18860829427E+02  0.39422524224E+02  0.00000000000E+00 0. -1.
        -11    1    3    3    0    0 -0.80382584685E+01  0.35821750100E+02  0.18757944766E+03  0.19113832835E+03  0.00000000000E+00 0. -1.
         11    1    3    3    0    0  0.71889213158E+01 -0.51958485450E+02  0.15794021633E+03  0.16642258480E+03  0.00000000000E+00 0.  1.
         -2    1    1    2    0  502 -0.22522710366E-01  0.54124249811E+02  0.48120488248E+01  0.54337746906E+02  0.00000000000E+00 0.  1.
<scales pt_clust_5="13000.00000" pt_clust_6="13000.00000" pt_clust_7="13000.00000" pt_clust_8="13000.00000" pt_clust_9="54.12425"></scales>
<clustering>
<clus scale="   54.124">  2  9  1 -1</clus>
<clus scale="   77.860">  5  6 -1 -1</clus>
<clus scale="   78.232">  2  5  1 -1</clus>
<clus scale="   90.581">  7  8 -1 -1</clus>
<clus scale="   54.124">  2  5  1 -1</clus>
</clustering>
</event>
<event>
 9    2  0.1723348E-004  0.1910174E+03  0.7546771E-02  0.1167950E+00
         21   -1    0    0  501  502  0.00000000000E+00  0.00000000000E+00  0.17216732710E+03  0.17216732710E+03  0.00000000000E+00 0. -1.
          2   -1    0    0  502    0 -0.00000000000E+00 -0.00000000000E+00 -0.64970769998E+03  0.64970769998E+03  0.00000000000E+00 0. -1.
         24    2    1    2    0    0 -0.12591848013E+03 -0.11044967665E+02  0.21392146246E+02  0.15162685613E+03  0.80966811906E+02 0.  0.
         23    2    1    2    0    0  0.21440870212E+03 -0.11471597531E+03 -0.42891607975E+03  0.50128475494E+03  0.90479586265E+02 0.  0.
        -11    1    3    3    0    0 -0.18099557715E+02  0.11966353309E+02 -0.24041457191E+02  0.32384861662E+02  0.00000000000E+00 0.  1.
         12    1    3    3    0    0 -0.10781892242E+03 -0.23011320974E+02  0.45433603437E+02  0.11924199447E+03  0.00000000000E+00 0. -1.
        -13    1    4    4    0    0  0.53001984105E+02 -0.28734813109E+01 -0.43116218992E+02  0.68384761125E+02  0.00000000000E+00 0.  1.
         13    1    4    4    0    0  0.16140671801E+03 -0.11184249400E+03 -0.38579986076E+03  0.43289999381E+03  0.00000000000E+00 0. -1.
          1    1    1    2  501    0 -0.88490221987E+02  0.12576094297E+03 -0.70016439377E+02  0.16896341600E+03  0.00000000000E+00 0. -1.
<scales pt_clust_5="13000.00000" pt_clust_6="13000.00000" pt_clust_7="13000.00000" pt_clust_8="13000.00000" pt_clust_9="168.22928"></scales>
<clustering>
<clus scale="   80.967">  5  6 -1 -1</clus>
<clus scale="   90.480">  7  8 -1 -1</clus>
<clus scale="  150.110">  2  5  1 -1</clus>
<clus scale="  168.229">  1  9  2 -1</clus>
<clus scale="  168.229">  1  5  2 -1</clus>
</clustering>
</event>
<event>
 9    2  0.1723348E-004  0.1412763E+03  0.7546771E-02  0.1214062E+00
         21   -1    0    0  501  502  0.00000000000E+00  0.00000000000E+00  0.11987811821E+03  0.11987811821E+03  0.00000000000E+00 0. -1.
          2   -1    0    0  502    0 -0.00000000000E+00 -0.00000000000E+00 -0.26152016132E+03  0.26152016132E+03  0.00000000000E+00 0. -1.
         24    2    1    2    0    0 -0.75922738754E+02 -0.43107508042E+02 -0.47719733847E+02  0.12732190926E+03  0.79442910754E+02 0.  0.
         23    2    1    2    0    0  0.88171036007E+02  0.10962809328E+03 -0.76801035386E+02  0.18430426220E+03  0.90979182235E+02 0.  0.
        -11    1    3    3    0    0 -0.17755271377E+02 -0.55190504363E+02 -0.16871814117E+02  0.60381284726E+02  0.00000000000E+00 0.  1.
         12    1    3    3    0    0 -0.58167467376E+02  0.12082996321E+02 -0.30847919730E+02  0.66940624532E+02  0.00000000000E+00 0. -1.
        -13    1    4    4    0    0  0.47081911203E+02  0.74228600625E+02  0.28436649164E+01  0.87947017821E+02  0.00000000000E+00 0. -1.
         13    1    4    4    0    0  0.41089124804E+02  0.35399492658E+02 -0.79644700303E+02  0.96357244377E+02  0.00000000000E+00 0.  1.
          1    1    1    2  501    0 -0.12248297253E+02 -0.66520585242E+02 -0.17121273869E+02  0.69772108076E+02  0.00000000000E+00 0. -1.
<scales pt_clust_5="13000.00000" pt_clust_6="13000.00000" pt_clust_7="13000.00000" pt_clust_8="13000.00000" pt_clust_9="67.63881"></scales>
<clustering>
<clus scale="   67.639">  1  9  2 -1</clus>
<clus scale="   79.443">  5  6 -1 -1</clus>
<clus scale="   90.979">  7  8 -1 -1</clus>
<clus scale="  134.138">  2  5  1 -1</clus>
<clus scale="   67.639">  1  5  2 -1</clus>
</clustering>
</event>
<event>
 9    2  0.1723348E-004  0.1024546E+03  0.7546771E-02  0.1283446E+00
         21   -1    0    0  501  502  0.00000000000E+00  0.00000000000E+00  0.10254578579E+04  0.10254578579E+04  0.00000000000E+00 0. -1.
         -1   -1    0    0    0  501 -0.00000000000E+00 -0.00000000000E+00 -0.29447170282E+02  0.29447170282E+02  0.00000000000E+00 0.  1.
         23    2    1    2    0    0 -0.20236011309E+02  0.29108270251E+02  0.84435780640E+02  0.13297871085E+03  0.96421724405E+02 0.  0.
         24    2    1    2    0    0  0.49352800249E+02  0.25461493253E+01  0.65552528233E+03  0.66228964820E+03  0.80448744943E+02 0.  0.
        -11    1    4    4    0    0  0.52131679935E+02 -0.10692920740E+00  0.19799138351E+03  0.20473961862E+03  0.00000000000E+00 0.  1.
         12    1    4    4    0    0 -0.27788796866E+01  0.26530785327E+01  0.45753389882E+03  0.45755002958E+03  0.00000000000E+00 0. -1.
        -11    1    3    3    0    0 -0.53707439274E+02 -0.37085565538E+01  0.31925739058E+02  0.62589897264E+02  0.00000000000E+00 0.  1.
         11    1    3    3    0    0  0.33471427965E+02  0.32816826805E+02  0.52510041582E+02  0.70388813590E+02  0.00000000000E+00 0. -1.
         -2    1    1    2    0  502 -0.29116788940E+02 -0.31654419577E+02  0.25604962465E+03  0.25963666914E+03  0.00000000000E+00 0.  1.
<scales pt_clust_5="13000.00000" pt_clust_6="13000.00000" pt_clust_7="13000.00000" pt_clust_8="13000.00000" pt_clust_9="43.00918"></scales>
<clustering>
<clus scale="   43.009">  1  9  2 -1</clus>
<clus scale="   80.449">  5  6 -1 -1</clus>
<clus scale="   87.589">  1  5  2 -1</clus>
<clus scale="   96.422">  7  8 -1 -1</clus>
<clus scale="   43.009">  1  5  2 -1</clus>
</clustering>
</event>
<event>
 9    2  0.1723348E-004  0.1514774E+03  0.7546771E-02  0.1202109E+00
         21   -1    0    0  501  502  0.00000000000E+00  0.00000000000E+00  0.23001468731E+03  0.23001468731E+03  0.00000000000E+00 0.  1.
         -1   -1    0    0    0  501 -0.00000000000E+00 -0.00000000000E+00 -0.56960954254E+03  0.56960954254E+03  0.00000000000E+00 0.  1.
         24    2    1    2    0    0  0.11512823341E+03 -0.48810450061E+02 -0.52415491828E+03  0.54358331908E+03  0.71466609413E+02 0.  0.
         23    2    1    2    0    0 -0.50010360740E+02  0.41154807459E+02  0.12160306305E+03  0.16514245063E+03  0.91049270724E+02 0.  0.
        -11    1    3    3    0    0  0.10566393182E+03 -0.13394758219E+02 -0.36246419626E+03  0.37778906761E+03  0.00000000000E+00 0.  1.
         12    1    3    3    0    0  0.94643015962E+01 -0.35415691842E+02 -0.16169072203E+03  0.16579425148E+03  0.00000000000E+00 0. -1.
        -11    1    4    4    0    0 -0.23198361379E+02  0.11873946606E+02  0.12268830963E+03  0.12542557913E+03  0.00000000000E+00 0. -1.
         11    1    4    4    0    0 -0.26811999362E+02  0.29280860853E+02 -0.10852465829E+01  0.39716871506E+02  0.00000000000E+00 0.  1.
         -2    1    1    2    0  502 -0.65117872672E+02  0.76556426021E+01  0.62957000006E+02  0.90898460134E+02  0.00000000000E+00 0.  1.
<scales pt_clust_5="13000.00000" pt_clust_6="13000.00000" pt_clust_7="13000.00000" pt_clust_8="13000.00000" pt_clust_9="65.56635"></scales>
<clustering>
<clus scale="   65.566">  1  9  2 -1</clus>
<clus scale="   71.467">  5  6 -1 -1</clus>
<clus scale="   91.049">  7  8 -1 -1</clus>
<clus scale="  140.581">  2  5  1 -1</clus>
<clus scale="   65.566">  1  5  2 -1</clus>
</clustering>
</event>
<event>
 9    2  0.1723348E-004  0.1162623E+03  0.7546771E-02  0.1254636E+00
         21   -1    0    0  501  502  0.00000000000E+00  0.00000000000E+00  0.16617744295E+03  0.16617744295E+03  0.00000000000E+00 0. -1.
          4   -1    0    0  502    0 -0.00000000000E+00 -0.00000000000E+00 -0.23833204828E+03  0.23833204828E+03  0.00000000000E+00 0. -1.
         23    2    1    2    0    0 -0.55987239974E+02  0.53105496774E+02 -0.17977771683E+03  0.21596681179E+03  0.91470604554E+02 0.  0.
         24    2    1    2    0    0  0.73202159183E+01 -0.61111560850E+02  0.42468916610E+02  0.10682581823E+03  0.76288519010E+02 0.  0.
        -11    1    4    4    0    0  0.24902135161E+02  0.78903225113E+01  0.17163407670E+02  0.31256296770E+02  0.00000000000E+00 0.  1.
         12    1    4    4    0    0 -0.17581919243E+02 -0.69001883361E+02  0.25305508940E+02  0.75569521464E+02  0.00000000000E+00 0. -1.
        -13    1    3    3    0    0  0.23428911031E+02  0.24217657063E+02 -0.67470254774E+02  0.75416470781E+02  0.00000000000E+00 0.  1.
         13    1    3    3    0    0 -0.79416151005E+02  0.28887839710E+02 -0.11230746206E+03  0.14055034101E+03  0.00000000000E+00 0. -1.
          3    1    1    2  501    0  0.48667024056E+02  0.80060640759E+01  0.65154194893E+02  0.81716861201E+02  0.00000000000E+00 0. -1.
<scales pt_clust_5="13000.00000" pt_clust_6="13000.00000" pt_clust_7="13000.00000" pt_clust_8="13000.00000" pt_clust_9="49.32115"></scales>
<clustering>
<clus scale="   49.321">  1  9  2 -1</clus>
<clus scale="   76.289">  5  6 -1 -1</clus>
<clus scale="   91.471">  7  8 -1 -1</clus>
<clus scale="  104.738">  1  5  2 -1</clus>
<clus scale="   49.321">  1  5  2 -1</clus>
</clustering>
</event>
<event>
 9    2  0.1723348E-004  0.1138221E+03  0.7546771E-02  0.1257616E+00
          2   -1    0    0  502    0 -0.00000000000E+00  0.00000000000E+00  0.24565145020E+03  0.24565145020E+03  0.00000000000E+00 0. -1.
         21   -1    0    0  501  502  0.00000000000E+00 -0.00000000000E+00 -0.10304999884E+03  0.10304999884E+03  0.00000000000E+00 0. -1.
         24    2    1    2    0    0  0.17158963859E+02  0.75367985479E+02  0.16607082194E+03  0.20052743170E+03  0.81590254847E+02 0.  0.
         23    2    1    2    0    0  0.43144471789E+01 -0.31956280848E+02 -0.15470249052E+02  0.99085633527E+02  0.92405713165E+02 0.  0.
        -13    1    3    3    0    0 -0.24925117656E+02  0.35723674191E+02  0.11647350605E+03  0.12435240246E+03  0.00000000000E+00 0.  1.
         14    1    3    3    0    0  0.42084081514E+02  0.39644311288E+02  0.49597315897E+02  0.76175029233E+02  0.00000000000E+00 0. -1.
        -11    1    4    4    0    0  0.33356204828E+02 -0.50785998199E+02  0.96850082186E+00  0.60768347085E+02  0.00000000000E+00 0.  1.
         11    1    4    4    0    0 -0.29041757649E+02  0.18829717351E+02 -0.16438749874E+02  0.38317286442E+02  0.00000000000E+00 0. -1.
          1    1    1    2  501    0 -0.21473411037E+02 -0.43411704631E+02 -0.79991215233E+01  0.49088383816E+02  0.00000000000E+00 0. -1.
<scales pt_clust_5="13000.00000" pt_clust_6="13000.00000" pt_clust_7="13000.00000" pt_clust_8="13000.00000" pt_clust_9="48.43226"></scales>
<clustering>
<clus scale="   48.432">  2  9  1 -1</clus>
<clus scale="   81.590">  5  6 -1 -1</clus>
<clus scale="   92.406">  7  8 -1 -1</clus>
<clus scale="  105.231">  1  5  2 -1</clus>
<clus scale="   48.432">  2  5  1 -1</clus>
</clustering>
</event>
<event>
 9    2  0.1723348E-004  0.2985519E+03  0.7546771E-02  0.1127971E+00
          2   -1    0    0  502    0 -0.00000000000E+00  0.00000000000E+00  0.36855046082E+03  0.36855046082E+03  0.00000000000E+00 0. -1.
         21   -1    0    0  501  502  0.00000000000E+00 -0.00000000000E+00 -0.35354069503E+03  0.35354069503E+03  0.00000000000E+00 0. -1.
         24    2    1    2    0    0 -0.52066069679E+02 -0.35044778181E+02 -0.74530443183E+02  0.12613511380E+03  0.80101609735E+02 0.  0.
         23    2    1    2    0    0  0.27849369509E+03 -0.11536438465E+03  0.68831028005E+02  0.32333679109E+03  0.94558397861E+02 0.  0.
        -13    1    3    3    0    0  0.18669758902E+02 -0.13865697627E+02 -0.35973792061E+02  0.42836096734E+02  0.00000000000E+00 0.  1.
         14    1    3    3    0    0 -0.70735828580E+02 -0.21179080553E+02 -0.38556651122E+02  0.83299017063E+02  0.00000000000E+00 0. -1.
        -13    1    4    4    0    0  0.24435342666E+03 -0.68729555645E+02  0.76313225002E+02  0.26505859211E+03  0.00000000000E+00 0. -1.
         13    1    4    4    0    0  0.34140268430E+02 -0.46634829006E+02 -0.74821969970E+01  0.58278198983E+02  0.00000000000E+00 0.  1.
          1    1    1    2  501    0 -0.22642762541E+03  0.15040916283E+03  0.20709180970E+02  0.27261925095E+03  0.00000000000E+00 0. -1.
<scales pt_clust_5="13000.00000" pt_clust_6="13000.00000" pt_clust_7="13000.00000" pt_clust_8="13000.00000" pt_clust_9="283.18183"></scales>
<clustering>
<clus scale="   80.102">  5  6 -1 -1</clus>
<clus scale="   94.558">  7  8 -1 -1</clus>
<clus scale="  101.761">  1  5  2 -1</clus>
<clus scale="  283.182">  2  9  1 -1</clus>
<clus scale="  283.182">  2  5  1 -1</clus>
</clustering>
</event>
<event>
 9    2  0.1723348E-004  0.9252969E+02  0.7546771E-02  0.1305119E+00
         21   -1    0    0  501  502  0.00000000000E+00  0.00000000000E+00  0.65057446496E+02  0.65057446496E+02  0.00000000000E+00 0.  1.
          2   -1    0    0  502    0 -0.00000000000E+00 -0.00000000000E+00 -0.24258336054E+03  0.24258336054E+03  0.00000000000E+00 0. -1.
         24    2    1    2    0    0  0.83947350108E+01  0.71590293548E+01 -0.10923137861E+03  0.13525727537E+03  0.79001982199E+02 0.  0.
         23    2    1    2    0    0 -0.64325454521E+01  0.36791654681E+02 -0.10835852946E+02  0.10001632218E+03  0.92145783941E+02 0.  0.
        -11    1    3    3    0    0  0.27517568297E+02 -0.27474947945E+02 -0.41905840551E+02  0.57168075023E+02  0.00000000000E+00 0.  1.
         12    1    3    3    0    0 -0.19122833286E+02  0.34633977300E+02 -0.67325538059E+02  0.78089200351E+02  0.00000000000E+00 0. -1.
        -13    1    4    4    0    0 -0.29280884630E+02  0.50434583800E+02 -0.31538668955E+02  0.66300113780E+02  0.00000000000E+00 0. -1.
         13    1    4    4    0    0  0.22848339178E+02 -0.13642929119E+02  0.20702816009E+02  0.33716208400E+02  0.00000000000E+00 0.  1.
          1    1    1    2  501    0 -0.19621895587E+01 -0.43950684035E+02 -0.57458682488E+02  0.72367209482E+02  0.00000000000E+00 0. -1.
<scales pt_clust_5="13000.00000" pt_clust_6="13000.00000" pt_clust_7="13000.00000" pt_clust_8="13000.00000" pt_clust_9="43.99449"></scales>
<clustering>
<clus scale="   43.994">  1  9  2 -1</clus>
<clus scale="   79.002">  5  6 -1 -1</clus>
<clus scale="   79.449">  2  5  1 -1</clus>
<clus scale="   92.146">  7  8 -1 -1</clus>
<clus scale="   43.994">  1  5  2 -1</clus>
</clustering>
</event>
<event>
 9    2  0.1723348E-004  0.1372423E+03  0.7546771E-02  0.1219332E+00
         21   -1    0    0  501  502  0.00000000000E+00  0.00000000000E+00  0.37830449638E+03  0.37830449638E+03  0.00000000000E+00 0.  1.
         -3   -1    0    0    0  501 -0.00000000000E+00 -0.00000000000E+00 -0.13112920919E+03  0.13112920919E+03  0.00000000000E+00 0.  1.
         23    2    1    2    0    0 -0.11091316947E+03  0.47618466704E+02 -0.39015595532E+02  0.15576973708E+03  0.90403234251E+02 0.  0.
         24    2    1    2    0    0  0.58449953016E+02  0.34600589541E+02  0.18665815800E+03  0.21431144579E+03  0.80464464503E+02 0.  0.
        -11    1    4    4    0    0  0.60717139546E+02  0.50772116493E+02  0.10754270184E+03  0.13352831747E+03  0.00000000000E+00 0.  1.
         12    1    4    4    0    0 -0.22671865308E+01 -0.16171526952E+02  0.79115456155E+02  0.80783128321E+02  0.00000000000E+00 0. -1.
        -13    1    3    3    0    0 -0.90222373488E+02 -0.77395897190E+01 -0.32944255423E+02  0.96360271337E+02  0.00000000000E+00 0.  1.
         13    1    3    3    0    0 -0.20690795979E+02  0.55358056423E+02 -0.60713401090E+01  0.59409465744E+02  0.00000000000E+00 0. -1.
         -4    1    1    2    0  502  0.52463216452E+02 -0.82219056245E+02  0.99532724721E+02  0.13935252269E+03  0.00000000000E+00 0.  1.
<scales pt_clust_5="13000.00000" pt_clust_6="13000.00000" pt_clust_7="13000.00000" pt_clust_8="13000.00000" pt_clust_9="97.53134"></scales>
<clustering>
<clus scale="   80.464">  5  6 -1 -1</clus>
<clus scale="   90.403">  7  8 -1 -1</clus>
<clus scale="   97.531">  1  9  2 -1</clus>
<clus scale="  130.909">  1  5  2 -1</clus>
<clus scale="   97.531">  1  5  2 -1</clus>
</clustering>
</event>
<event>
 9    2  0.1723348E-004  0.1407125E+03  0.7546771E-02  0.1215865E+00
         21   -1    0    0  501  502  0.00000000000E+00  0.00000000000E+00  0.73414981969E+02  0.73414981969E+02  0.00000000000E+00 0. -1.
          2   -1    0    0  502    0 -0.00000000000E+00 -0.00000000000E+00 -0.67566506806E+03  0.67566506806E+03  0.00000000000E+00 0. -1.
         24    2    1    2    0    0  0.92686337840E+02 -0.10314863253E+02 -0.39650774245E+03  0.41461849529E+03  0.77414166579E+02 0.  0.
         23    2    1    2    0    0 -0.15043502327E+03  0.52037547574E+02 -0.18244516543E+03  0.25950522366E+03  0.93370874122E+02 0.  0.
        -13    1    3    3    0    0  0.64555161467E+02 -0.30622415609E+02 -0.15554216846E+03  0.17116795079E+03  0.00000000000E+00 0.  1.
         14    1    3    3    0    0  0.28131176373E+02  0.20307552356E+02 -0.24096557399E+03  0.24345054450E+03  0.00000000000E+00 0. -1.
        -11    1    4    4    0    0 -0.12729990404E+02  0.35135726714E+02 -0.10999284173E+02  0.38955823695E+02  0.00000000000E+00 0. -1.
         11    1    4    4    0    0 -0.13770503287E+03  0.16901820860E+02 -0.17144588125E+03  0.22054939996E+03  0.00000000000E+00 0.  1.
          1    1    1    2  501    0  0.57748685432E+02 -0.41722684321E+02 -0.23297178213E+02  0.74956331079E+02  0.00000000000E+00 0. -1.
<scales pt_clust_5="13000.00000" pt_clust_6="13000.00000" pt_clust_7="13000.00000" pt_clust_8="13000.00000" pt_clust_9="71.24390"></scales>
<clustering>
<clus scale="   71.244">  1  9  2 -1</clus>
<clus scale="   77.414">  5  6 -1 -1</clus>
<clus scale="   93.371">  7  8 -1 -1</clus>
<clus scale="  130.671">  2  5  1 -1</clus>
<clus scale="   71.244">  1  5  2 -1</clus>
</clustering>
</event>
<event>
 9    2  0.1723348E-004  0.9722770E+02  0.7546771E-02  0.1290606E+00
          2   -1    0    0  502    0 -0.00000000000E+00  0.00000000000E+00  0.73006385581E+03  0.73006385581E+03  0.00000000000E+00 0. -1.
         21   -1    0    0  501  502  0.00000000000E+00 -0.00000000000E+00 -0.24984819360E+02  0.24984819360E+02  0.00000000000E+00 0. -1.
         24    2    1    2    0    0 -0.64519445679E+02 -0.16661072560E+02  0.27068939036E+03  0.29037081166E+03  0.81253381475E+02 0.  0.
         23    2    1    2    0    0  0.82924538367E+01 -0.18858435549E+02  0.18534175598E+03  0.20690284215E+03  0.89625968326E+02 0.  0.
        -13    1    3    3    0    0  0.12226523991E+02 -0.24454460586E+02  0.57907194863E+02  0.64037112273E+02  0.00000000000E+00 0.  1.
         14    1    3    3    0    0 -0.76745969670E+02  0.77933880257E+01  0.21278219550E+03  0.22633369939E+03  0.00000000000E+00 0. -1.
        -11    1    4    4    0    0 -0.27877446383E+02  0.91124314144E+00  0.15050624715E+02  0.31693906121E+02  0.00000000000E+00 0.  1.
         11    1    4    4    0    0  0.36169900219E+02 -0.19769678691E+02  0.17029113126E+03  0.17520893603E+03  0.00000000000E+00 0. -1.
          1    1    1    2  501    0  0.56226991842E+02  0.35519508109E+02  0.24904789012E+03  0.25777502136E+03  0.00000000000E+00 0. -1.
<scales pt_clust_5="13000.00000" pt_clust_6="13000.00000" pt_clust_7="13000.00000" pt_clust_8="13000.00000" pt_clust_9="66.50650"></scales>
<clustering>
<clus scale="   66.506">  2  9  1 -1</clus>
<clus scale="   81.253">  5  6 -1 -1</clus>
<clus scale="   89.569">  1  5  2 -1</clus>
<clus scale="   89.626">  7  8 -1 -1</clus>
<clus scale="   66.506">  2  5  1 -1</clus>
</clustering>
</event>
<event>
 9    2  0.1723348E-004  0.1061146E+03  0.7546771E-02  0.1270533E+00
         21   -1    0    0  501  502  0.00000000000E+00  0.00000000000E+00  0.13259186470E+03  0.13259186470E+03  0.00000000000E+00 0.  1.
         -3   -1    0    0    0  501 -0.00000000000E+00 -0.00000000000E+00 -0.27380427985E+03  0.27380427985E+03  0.00000000000E+00 0.  1.
         23    2    1    2    0    0  0.38628364586E+02 -0.67523703686E+02 -0.20608316375E+03  0.23637190865E+03  0.85731019538E+02 0.  0.
         24    2    1    2    0    0 -0.17681580814E+02  0.14931013899E+02 -0.18308645483E+01  0.82537871441E+02  0.79205900543E+02 0.  0.
        -13    1    4    4    0    0  0.97125325661E+01 -0.21105843162E+02 -0.22887393745E+02  0.32613228863E+02  0.00000000000E+00 0.  1.
         14    1    4    4    0    0 -0.27394113380E+02  0.36036857061E+02  0.21056529197E+02  0.49924642578E+02  0.00000000000E+00 0. -1.
        -11    1    3    3    0    0  0.22456121566E+02  0.15777378744E+02 -0.28552457281E+02  0.39603609590E+02  0.00000000000E+00 0. -1.
         11    1    3    3    0    0  0.16172243020E+02 -0.83301082430E+02 -0.17753070647E+03  0.19676829906E+03  0.00000000000E+00 0.  1.
         -4    1    1    2    0  502 -0.20946783772E+02  0.52592689787E+02  0.66701613146E+02  0.87486364456E+02  0.00000000000E+00 0.  1.
<scales pt_clust_5="13000.00000" pt_clust_6="13000.00000" pt_clust_7="13000.00000" pt_clust_8="13000.00000" pt_clust_9="56.61059"></scales>
<clustering>
<clus scale="   56.611">  1  9  2 -1</clus>
<clus scale="   79.206">  5  6 -1 -1</clus>
<clus scale="   85.731">  7  8 -1 -1</clus>
<clus scale="  100.916">  1  5  2 -1</clus>
<clus scale="   56.611">  1  5  2 -1</clus>
</clustering>
</event>
<event>
 9    2  0.1723348E-004  0.1396749E+03  0.7546771E-02  0.1216156E+00
         -1   -1    0    0    0  501 -0.00000000000E+00  0.00000000000E+00  0.29485373370E+03  0.29485373370E+03  0.00000000000E+00 0.  1.
         21   -1    0    0  501  502  0.00000000000E+00 -0.00000000000E+00 -0.81495048918E+02  0.81495048918E+02  0.00000000000E+00 0. -1.
         23    2    1    2    0    0  0.41692424100E+02 -0.10214276251E+03  0.99832199212E+02  0.17467234366E+03  0.91501680195E+02 0.  0.
         24    2    1    2    0    0 -0.67637004853E+02  0.78560348048E+02  0.84383670177E+02  0.15608526404E+03  0.80594746390E+02 0.  0.
        -11    1    4    4    0    0 -0.32330879864E+02 -0.98919638749E+01  0.35536492676E+02  0.49050780359E+02  0.00000000000E+00 0.  1.
         12    1    4    4    0    0 -0.35306124989E+02  0.88452311923E+02  0.48847177501E+02  0.10703448368E+03  0.00000000000E+00 0. -1.
        -11    1    3    3    0    0 -0.25241564325E+02 -0.57708236971E+02  0.44527449452E+02  0.77136702928E+02  0.00000000000E+00 0. -1.
         11    1    3    3    0    0  0.66933988425E+02 -0.44434525537E+02  0.55304749759E+02  0.97535640728E+02  0.00000000000E+00 0.  1.
         -2    1    1    2    0  502  0.25944580753E+02  0.23582414460E+02  0.29142815396E+02  0.45591174929E+02  0.00000000000E+00 0.  1.
<scales pt_clust_5="13000.00000" pt_clust_6="13000.00000" pt_clust_7="13000.00000" pt_clust_8="13000.00000" pt_clust_9="35.06070"></scales>
<clustering>
<clus scale="   35.061">  2  9  1 -1</clus>
<clus scale="   80.595">  5  6 -1 -1</clus>
<clus scale="   91.502">  7  8 -1 -1</clus>
<clus scale="  132.786">  2  5  1 -1</clus>
<clus scale="   35.061">  2  5  1 -1</clus>
</clustering>
</event>
<event>
 9    2  0.1723348E-004  0.1899100E+03  0.7546771E-02  0.1185383E+00
          2   -1    0    0  502    0 -0.00000000000E+00  0.00000000000E+00  0.22916258644E+03  0.22916258644E+03  0.00000000000E+00 0. -1.
         21   -1    0    0  501  502  0.00000000000E+00 -0.00000000000E+00 -0.26850592396E+03  0.26850592396E+03  0.00000000000E+00 0. -1.
         24    2    1    2    0    0 -0.39182956435E+02 -0.51473279204E+02  0.59476297148E+02  0.11893020673E+03  0.80138390327E+02 0.  0.
         23    2    1    2    0    0  0.17306653927E+03 -0.42878848223E+02 -0.35975972890E+02  0.20330608448E+03  0.90821091835E+02 0.  0.
        -13    1    3    3    0    0 -0.11577238159E+02  0.18817492373E+02  0.31333151858E+02  0.38339234056E+02  0.00000000000E+00 0.  1.
         14    1    3    3    0    0 -0.27605718276E+02 -0.70290771576E+02  0.28143145290E+02  0.80590972678E+02  0.00000000000E+00 0. -1.
        -13    1    4    4    0    0  0.51049322917E+02  0.28707870719E+02 -0.82129399968E+01  0.59140743950E+02  0.00000000000E+00 0.  1.
         13    1    4    4    0    0  0.12201721635E+03 -0.71586718942E+02 -0.27763032893E+02  0.14416534053E+03  0.00000000000E+00 0. -1.
          1    1    1    2  501    0 -0.13388358283E+03  0.94352127426E+02 -0.62843661776E+02  0.17543221918E+03  0.00000000000E+00 0. -1.
<scales pt_clust_5="13000.00000" pt_clust_6="13000.00000" pt_clust_7="13000.00000" pt_clust_8="13000.00000" pt_clust_9="166.78536"></scales>
<clustering>
<clus scale="   80.138">  5  6 -1 -1</clus>
<clus scale="   90.821">  7  8 -1 -1</clus>
<clus scale="  102.990">  1  5  2 -1</clus>
<clus scale="  166.785">  2  9  1 -1</clus>
<clus scale="  166.785">  2  5  1 -1</clus>
</clustering>
</event>
<event>
 9    2  0.1723348E-004  0.1526434E+03  0.7546771E-02  0.1198243E+00
          2   -1    0    0  502    0 -0.00000000000E+00  0.00000000000E+00  0.69979174660E+03  0.69979174660E+03  0.00000000000E+00 0. -1.
         21   -1    0    0  501  502  0.00000000000E+00 -0.00000000000E+00 -0.69997657652E+02  0.69997657652E+02  0.00000000000E+00 0. -1.
         24    2    1    2    0    0  0.51344839517E+02 -0.11746911059E+03  0.23620160165E+03  0.28094987760E+03  0.81892323279E+02 0.  0.
         23    2    1    2    0    0 -0.83931827775E+02  0.90049937264E+02  0.77381668290E+02  0.16977369500E+03  0.87644977108E+02 0.  0.
        -11    1    3    3    0    0  0.65151962605E+02 -0.51208748915E+02  0.14980996277E+03  0.17120204188E+03  0.00000000000E+00 0.  1.
         12    1    3    3    0    0 -0.13807123088E+02 -0.66260361680E+02  0.86391638874E+02  0.10974783572E+03  0.00000000000E+00 0. -1.
        -11    1    4    4    0    0 -0.38599184665E+00  0.37640934695E+02  0.58183856318E+02  0.69298990544E+02  0.00000000000E+00 0.  1.
         11    1    4    4    0    0 -0.83545835929E+02  0.52409002569E+02  0.19197811972E+02  0.10047470446E+03  0.00000000000E+00 0. -1.
          1    1    1    2  501    0  0.32586988258E+02  0.27419173331E+02  0.31621081901E+03  0.31906583165E+03  0.00000000000E+00 0. -1.
<scales pt_clust_5="13000.00000" pt_clust_6="13000.00000" pt_clust_7="13000.00000" pt_clust_8="13000.00000" pt_clust_9="42.58785"></scales>
<clustering>
<clus scale="   42.588">  2  9  1 -1</clus>
<clus scale="   81.892">  5  6 -1 -1</clus>
<clus scale="   87.645">  7  8 -1 -1</clus>
<clus scale="  149.415">  1  5  2 -1</clus>
<clus scale="   42.588">  2  5  1 -1</clus>
</clustering>
</event>
<event>
 9    2  0.1723348E-004  0.9561262E+02  0.7546771E-02  0.1294468E+00
         -1   -1    0    0    0  501 -0.00000000000E+00  0.00000000000E+00  0.57687368174E+03  0.57687368174E+03  0.00000000000E+00 0.  1.
         21   -1    0    0  501  502  0.00000000000E+00 -0.00000000000E+00 -0.66047375582E+02  0.66047375582E+02  0.00000000000E+00 0. -1.
         24    2    1    2    0    0 -0.31442378293E+02  0.13328744528E+02  0.50674978015E+03  0.51443081567E+03  0.81715640135E+02 0.  0.
         23    2    1    2    0    0  0.70104306436E+01  0.13681750727E+02 -0.21476323301E+01  0.91541262408E+02  0.90215597088E+02 0.  0.
        -11    1    3    3    0    0 -0.39050926326E+02  0.42889790797E+02  0.32499769809E+03  0.33013332574E+03  0.00000000000E+00 0.  1.
         12    1    3    3    0    0  0.76085480329E+01 -0.29561046269E+02  0.18175208207E+03  0.18429748993E+03  0.00000000000E+00 0. -1.
        -13    1    4    4    0    0 -0.28400778062E+02  0.81817659012E+01 -0.32966722580E+02  0.44275843137E+02  0.00000000000E+00 0. -1.
         13    1    4    4    0    0  0.35411208705E+02  0.54999848254E+01  0.30819090250E+02  0.47265419271E+02  0.00000000000E+00 0.  1.
         -2    1    1    2    0  502  0.24431947650E+02 -0.27010495255E+02  0.62241583296E+01  0.36948979239E+02  0.00000000000E+00 0.  1.
<scales pt_clust_5="13000.00000" pt_clust_6="13000.00000" pt_clust_7="13000.00000" pt_clust_8="13000.00000" pt_clust_9="36.42097"></scales>
<clustering>
<clus scale="   36.421">  2  9  1 -1</clus>
<clus scale="   81.716">  5  6 -1 -1</clus>
<clus scale="   87.638">  1  5  2 -1</clus>
<clus scale="   90.216">  7  8 -1 -1</clus>
<clus scale="   36.421">  2  5  1 -1</clus>
</clustering>
</event>
<event>
 9    2  0.1723348E-004  0.1454763E+03  0.7546771E-02  0.1208694E+00
         21   -1    0    0  501  502  0.00000000000E+00  0.00000000000E+00  0.22497111191E+03  0.22497111191E+03  0.00000000000E+00 0. -1.
          2   -1    0    0  502    0 -0.00000000000E+00 -0.00000000000E+00 -0.19304088448E+03  0.19304088448E+03  0.00000000000E+00 0. -1.
         24    2    1    2    0    0 -0.49672092796E+02  0.11503446911E+03 -0.88196898033E+02  0.17336102730E+03  0.81087033977E+02 0.  0.
         23    2    1    2    0    0 -0.16771019070E+01 -0.91489760464E+02  0.23925242295E+02  0.13308979561E+03  0.93633794836E+02 0.  0.
        -11    1    3    3    0    0 -0.45981702446E+02  0.31806898450E+02 -0.67254959600E+02  0.87459849872E+02  0.00000000000E+00 0.  1.
         12    1    3    3    0    0 -0.36903903503E+01  0.83227570660E+02 -0.20941938433E+02  0.85901177432E+02  0.00000000000E+00 0. -1.
        -11    1    4    4    0    0 -0.13628619991E+02 -0.37913287704E+02 -0.34413675112E+02  0.52985448022E+02  0.00000000000E+00 0. -1.
         11    1    4    4    0    0  0.11951518084E+02 -0.53576472760E+02  0.58338917406E+02  0.80104347585E+02  0.00000000000E+00 0.  1.
          1    1    1    2  501    0  0.51349194703E+02 -0.23544708646E+02  0.96201883175E+02  0.11156117348E+03  0.00000000000E+00 0. -1.
<scales pt_clust_5="13000.00000" pt_clust_6="13000.00000" pt_clust_7="13000.00000" pt_clust_8="13000.00000" pt_clust_9="56.48976"></scales>
<clustering>
<clus scale="   56.490">  1  9  2 -1</clus>
<clus scale="   81.087">  5  6 -1 -1</clus>
<clus scale="   93.634">  7  8 -1 -1</clus>
<clus scale="  137.736">  2  5  1 -1</clus>
<clus scale="   56.490">  1  5  2 -1</clus>
</clustering>
</event>
<event>
 9    2  0.1723348E-004  0.9636713E+02  0.7546771E-02  0.1291601E+00
          2   -1    0    0  502    0 -0.00000000000E+00  0.00000000000E+00  0.73918687200E+03  0.73918687200E+03  0.00000000000E+00 0. -1.
         21   -1    0    0  501  502  0.00000000000E+00 -0.00000000000E+00 -0.27778234631E+02  0.27778234631E+02  0.00000000000E+00 0.  1.
         23    2    1    2    0    0 -0.20941714094E+02  0.40952433581E+02  0.46365390324E+03  0.47452374461E+03  0.89900973311E+02 0.  0.
         24    2    1    2    0    0  0.31632705925E+02  0.19156326912E+02  0.11880529333E+03  0.14976929511E+03  0.83357969564E+02 0.  0.
        -13    1    4    4    0    0  0.52786051521E+02 -0.38226620711E+01  0.10045710455E+03  0.11354562887E+03  0.00000000000E+00 0.  1.
         14    1    4    4    0    0 -0.21153345596E+02  0.22978988983E+02  0.18348188782E+02  0.36223666244E+02  0.00000000000E+00 0. -1.
        -13    1    3    3    0    0 -0.49126781802E+02  0.33643006533E-01  0.27950279322E+03  0.28378733806E+03  0.00000000000E+00 0. -1.
         13    1    3    3    0    0  0.28185067707E+02  0.40918790574E+02  0.18415111002E+03  0.19073640655E+03  0.00000000000E+00 0.  1.
          1    1    1    2  501    0 -0.10690991831E+02 -0.60108760493E+02  0.12894944080E+03  0.14267206691E+03  0.00000000000E+00 0. -1.
<scales pt_clust_5="13000.00000" pt_clust_6="13000.00000" pt_clust_7="13000.00000" pt_clust_8="13000.00000" pt_clust_9="61.05211"></scales>
<clustering>
<clus scale="   61.052">  2  9  1 -1</clus>
<clus scale="   83.358">  5  6 -1 -1</clus>
<clus scale="   89.901">  7  8 -1 -1</clus>
<clus scale="   90.294">  2  5  1 -1</clus>
<clus scale="   61.052">  2  5  1 -1</clus>
</clustering>
</event>
<event>
 9    2  0.1723348E-004  0.1467477E+03  0.7546771E-02  0.1206873E+00
          4   -1    0    0  502    0 -0.00000000000E+00  0.00000000000E+00  0.47328951224E+03  0.47328951224E+03  0.00000000000E+00 0. -1.
         21   -1    0    0  501  502  0.00000000000E+00 -0.00000000000E+00 -0.71401640092E+02  0.71401640092E+02  0.00000000000E+00 0. -1.
         24    2    1    2    0    0  0.75979990013E+02 -0.88170024800E+02  0.30949701592E+03  0.34043032785E+03  0.80978349569E+02 0.  0.
         23    2    1    2    0    0 -0.44196906078E+02  0.98795168947E+02  0.52046990120E+02  0.15181384511E+03  0.92869276264E+02 0.  0.
        -13    1    3    3    0    0 -0.15247627526E+02 -0.29344018780E+02  0.79555173148E+02  0.86154437831E+02  0.00000000000E+00 0.  1.
         14    1    3    3    0    0  0.91227617539E+02 -0.58826006020E+02  0.22994184277E+03  0.25427589002E+03  0.00000000000E+00 0. -1.
        -11    1    4    4    0    0 -0.11220790671E+02  0.86835277445E+02 -0.17689124993E+01  0.87575114066E+02  0.00000000000E+00 0. -1.
         11    1    4    4    0    0 -0.32976115407E+02  0.11959891502E+02  0.53815902619E+02  0.64238731049E+02  0.00000000000E+00 0.  1.
          3    1    1    2  501    0 -0.31783083934E+02 -0.10625144147E+02  0.40343866110E+02  0.52446979371E+02  0.00000000000E+00 0. -1.
<scales pt_clust_5="13000.00000" pt_clust_6="13000.00000" pt_clust_7="13000.00000" pt_clust_8="13000.00000" pt_clust_9="33.51208"></scales>
<clustering>
<clus scale="   33.512">  2  9  1 -1</clus>
<clus scale="   80.978">  5  6 -1 -1</clus>
<clus scale="   92.869">  7  8 -1 -1</clus>
<clus scale="  139.527">  1  5  2 -1</clus>
<clus scale="   33.512">  2  5  1 -1</clus>
</clustering>
</event>
<event>
 9    2  0.1723348E-004  0.4589556E+03  0.7546771E-02  0.1076842E+00
          2   -1    0    0  502    0 -0.00000000000E+00  0.00000000000E+00  0.67111962165E+03  0.67111962165E+03  0.00000000000E+00 0. -1.
         21   -1    0    0  501  502  0.00000000000E+00 -0.00000000000E+00 -0.45992883838E+03  0.45992883838E+03  0.00000000000E+00 0. -1.
         23    2    1    2    0    0  0.10630577549E+02  0.50021933368E+02  0.17273839097E+03  0.20215371442E+03  0.91718970461E+02 0.  0.
         24    2    1    2    0    0 -0.36086573980E+02  0.42854753566E+03 -0.47748606528E+02  0.44195803860E+03  0.89954140050E+02 0.  0.
        -11    1    4    4    0    0 -0.44423281468E+02  0.96983871634E+02  0.13045188283E+01  0.10668177475E+03  0.00000000000E+00 0.  1.
         12    1    4    4    0    0  0.83367074877E+01  0.33156366403E+03 -0.49053125356E+02  0.33527626385E+03  0.00000000000E+00 0. -1.
        -13    1    3    3    0    0 -0.35137782796E+02  0.38892294066E+02  0.58281055251E+02  0.78383389304E+02  0.00000000000E+00 0.  1.
         13    1    3    3    0    0  0.45768360345E+02  0.11129639302E+02  0.11445733572E+03  0.12377032512E+03  0.00000000000E+00 0. -1.
          1    1    1    2  501    0  0.25455996431E+02 -0.47856946903E+03  0.86200998822E+02  0.48693670701E+03  0.00000000000E+00 0. -1.
<scales pt_clust_5="13000.00000" pt_clust_6="13000.00000" pt_clust_7="13000.00000" pt_clust_8="13000.00000" pt_clust_9="450.05415"></scales>
<clustering>
<clus scale="   89.954">  5  6 -1 -1</clus>
<clus scale="   91.719">  7  8 -1 -1</clus>
<clus scale="  105.012">  1  7  2 -1</clus>
<clus scale="  450.054">  2  9  1 -1</clus>
<clus scale="  450.054">  2  5  1 -1</clus>
</clustering>
</event>
<event>
 9    2  0.1723348E-004  0.1113565E+03  0.7546771E-02  0.1263081E+00
         21   -1    0    0  501  502  0.00000000000E+00  0.00000000000E+00  0.25564202015E+02  0.25564202015E+02  0.00000000000E+00 0. -1.
          2   -1    0    0  502    0 -0.00000000000E+00 -0.00000000000E+00 -0.85599960433E+03  0.85599960433E+03  0.00000000000E+00 0. -1.
         23    2    1    2    0    0  0.11947762357E+02  0.54419214342E+02 -0.35488975115E+03  0.37085868911E+03  0.92115318493E+02 0.  0.
         24    2    1    2    0    0  0.18684593819E+02 -0.79094740708E+02 -0.18161944254E+03  0.21415859649E+03  0.79203475242E+02 0.  0.
        -13    1    4    4    0    0 -0.12265029471E+02 -0.59051689340E+02 -0.16096913824E+03  0.17189705182E+03  0.00000000000E+00 0.  1.
         14    1    4    4    0    0  0.30949623291E+02 -0.20043051368E+02 -0.20650304302E+02  0.42261544668E+02  0.00000000000E+00 0. -1.
        -13    1    3    3    0    0 -0.23845361759E+02 -0.92676358651E+01 -0.39079806368E+02  0.46708902981E+02  0.00000000000E+00 0.  1.
         13    1    3    3    0    0  0.35793124116E+02  0.63686850207E+02 -0.31580994478E+03  0.32414978612E+03  0.00000000000E+00 0. -1.
          1    1    1    2  501    0 -0.30632356176E+02  0.24675526366E+02 -0.29392620863E+03  0.29654652075E+03  0.00000000000E+00 0. -1.
<scales pt_clust_5="13000.00000" pt_clust_6="13000.00000" pt_clust_7="13000.00000" pt_clust_8="13000.00000" pt_clust_9="39.33477"></scales>
<clustering>
<clus scale="   39.335">  1  9  2 -1</clus>
<clus scale="   79.203">  5  6 -1 -1</clus>
<clus scale="   92.115">  7  8 -1 -1</clus>
<clus scale="  100.937">  1  5  2 -1</clus>
<clus scale="   39.335">  1  5  2 -1</clus>
</clustering>
</event>
<event>
 9    2  0.1723348E-004  0.2002433E+03  0.7546771E-02  0.1160195E+00
          2   -1    0    0  502    0 -0.00000000000E+00  0.00000000000E+00  0.49732412736E+03  0.49732412736E+03  0.00000000000E+00 0. -1.
         21   -1    0    0  501  502  0.00000000000E+00 -0.00000000000E+00 -0.29948941246E+03  0.29948941246E+03  0.00000000000E+00 0. -1.
         23    2    1    2    0    0  0.11909224826E+03 -0.43079223705E+02  0.10278284400E+03  0.18671757286E+03  0.90886499993E+02 0.  0.
         24    2    1    2    0    0  0.12872665665E+03  0.11789839219E+03 -0.15712563335E+03  0.24870198354E+03  0.81814601099E+02 0.  0.
        -13    1    4    4    0    0  0.91518817964E+02  0.33387742162E+02 -0.10252622766E+03  0.14142864889E+03  0.00000000000E+00 0.  1.
         14    1    4    4    0    0  0.37207838683E+02  0.84510650023E+02 -0.54599405684E+02  0.10727333465E+03  0.00000000000E+00 0. -1.
        -11    1    3    3    0    0  0.86224273986E+02 -0.49143861326E+02  0.25428878016E+02  0.10245180510E+03  0.00000000000E+00 0. -1.
         11    1    3    3    0    0  0.32867974277E+02  0.60646376211E+01  0.77353965983E+02  0.84265767758E+02  0.00000000000E+00 0.  1.
          1    1    1    2  501    0 -0.24781890491E+03 -0.74819168481E+02  0.25217750425E+03  0.36139398342E+03  0.00000000000E+00 0. -1.
<scales pt_clust_5="13000.00000" pt_clust_6="13000.00000" pt_clust_7="13000.00000" pt_clust_8="13000.00000" pt_clust_9="182.76701"></scales>
<clustering>
<clus scale="   81.815">  5  6 -1 -1</clus>
<clus scale="   90.886">  7  8 -1 -1</clus>
<clus scale="  155.882">  1  7  2 -1</clus>
<clus scale="  182.767">  2  9  1 -1</clus>
<clus scale="  182.767">  2  5  1 -1</clus>
</clustering>
</event>
<event>
 9    2  0.1723348E-004  0.9828568E+02  0.7546771E-02  0.1288456E+00
         21   -1    0    0  501  502  0.00000000000E+00  0.00000000000E+00  0.13388853523E+03  0.13388853523E+03  0.00000000000E+00 0. -1.
         -1   -1    0    0    0  501 -0.00000000000E+00 -0.00000000000E+00 -0.25325564903E+03  0.25325564903E+03  0.00000000000E+00 0.  1.
         24    2    1    2    0    0  0.18382921082E+01 -0.56453699434E+02 -0.73752622630E+02  0.12402000022E+03  0.82165148401E+02 0.  0.
         23    2    1    2    0    0  0.77095133445E+01 -0.33162695002E+02  0.67699675282E+02  0.11834034841E+03  0.90895495443E+02 0.  0.
        -13    1    3    3    0    0 -0.49518326883E+01 -0.76556271514E+02 -0.66707674676E+02  0.10166266382E+03  0.00000000000E+00 0.  1.
         14    1    3    3    0    0  0.67901247965E+01  0.20102572080E+02 -0.70449479543E+01  0.22357336395E+02  0.00000000000E+00 0. -1.
        -11    1    4    4    0    0  0.44332428085E+02  0.16808869285E+01  0.19385059067E+02  0.48414564708E+02  0.00000000000E+00 0. -1.
         11    1    4    4    0    0 -0.36622914741E+02 -0.34843581931E+02  0.48314616215E+02  0.69925783699E+02  0.00000000000E+00 0.  1.
         -2    1    1    2    0  502 -0.95478054527E+01  0.89616394436E+02 -0.11331416645E+03  0.14478383563E+03  0.00000000000E+00 0.  1.
<scales pt_clust_5="13000.00000" pt_clust_6="13000.00000" pt_clust_7="13000.00000" pt_clust_8="13000.00000" pt_clust_9="90.12362"></scales>
<clustering>
<clus scale="   82.165">  5  6 -1 -1</clus>
<clus scale="   90.124">  1  9  2 -1</clus>
<clus scale="   90.273">  2  5  1 -1</clus>
<clus scale="   90.895">  7  8 -1 -1</clus>
<clus scale="   90.124">  1  5  2 -1</clus>
</clustering>
</event>
<event>
 9    2  0.1723348E-004  0.1313168E+03  0.7546771E-02  0.1228855E+00
          4   -1    0    0  502    0 -0.00000000000E+00  0.00000000000E+00  0.10790020270E+03  0.10790020270E+03  0.00000000000E+00 0. -1.
         21   -1    0    0  501  502  0.00000000000E+00 -0.00000000000E+00 -0.23252772606E+03  0.23252772606E+03  0.00000000000E+00 0. -1.
         24    2    1    2    0    0  0.82618238863E+02  0.58193923838E+02 -0.61974959052E+02  0.14227414294E+03  0.78668481843E+02 0.  0.
         23    2    1    2    0    0 -0.88401854247E+02 -0.17615816614E+02 -0.82294991702E+02  0.15270207577E+03  0.91761939037E+02 0.  0.
        -11    1    3    3    0    0  0.31307083186E+02  0.21401519044E+02  0.16665653144E+02  0.41423453136E+02  0.00000000000E+00 0.  1.
         12    1    3    3    0    0  0.51311155677E+02  0.36792404794E+02 -0.78640612197E+02  0.10085068981E+03  0.00000000000E+00 0. -1.
        -13    1    4    4    0    0 -0.96075159634E+02 -0.38233294940E+02 -0.53376472950E+02  0.11636695839E+03  0.00000000000E+00 0. -1.
         13    1    4    4    0    0  0.76733053872E+01  0.20617478326E+02 -0.28918518753E+02  0.36335117379E+02  0.00000000000E+00 0.  1.
          3    1    1    2  501    0  0.57836153836E+01 -0.40578107224E+02  0.19642427399E+02  0.45451710055E+02  0.00000000000E+00 0. -1.
<scales pt_clust_5="13000.00000" pt_clust_6="13000.00000" pt_clust_7="13000.00000" pt_clust_8="13000.00000" pt_clust_9="40.98823"></scales>
<clustering>
<clus scale="   40.988">  2  9  1 -1</clus>
<clus scale="   78.668">  5  6 -1 -1</clus>
<clus scale="   91.762">  7  8 -1 -1</clus>
<clus scale="  122.526">  1  5  2 -1</clus>
<clus scale="   40.988">  2  5  1 -1</clus>
</clustering>
</event>
<event>
 9    2  0.1723348E-004  0.1287140E+03  0.7546771E-02  0.1246337E+00
          2   -1    0    0  502    0 -0.00000000000E+00  0.00000000000E+00  0.23848083908E+03  0.23848083908E+03  0.00000000000E+00 0. -1.
         21   -1    0    0  501  502  0.00000000000E+00 -0.00000000000E+00 -0.16261253430E+03  0.16261253430E+03  0.00000000000E+00 0.  1.
         24    2    1    2    0    0 -0.36262840837E+02 -0.82318359766E+01 -0.72802785408E+02  0.11661293238E+03  0.83159928361E+02 0.  0.
         23    2    1    2    0    0 -0.76499201143E+02 -0.11277995809E+02  0.37661362636E+02  0.12504684587E+03  0.90769017075E+02 0.  0.
        -11    1    3    3    0    0 -0.56876120052E+02 -0.19525501199E+01 -0.75875827647E+02  0.94846437493E+02  0.00000000000E+00 0.  1.
         12    1    3    3    0    0  0.20613279215E+02 -0.62792858567E+01  0.30730422391E+01  0.21766494882E+02  0.00000000000E+00 0. -1.
        -11    1    4    4    0    0 -0.57429501753E+02 -0.49863302971E+02  0.21082970586E+02  0.78923939990E+02  0.00000000000E+00 0.  1.
         11    1    4    4    0    0 -0.19069699390E+02  0.38585307162E+02  0.16578392050E+02  0.46122905877E+02  0.00000000000E+00 0. -1.
          1    1    1    2  501    0  0.11276204198E+03  0.19509831786E+02  0.11100972755E+03  0.15943359514E+03  0.00000000000E+00 0. -1.
<scales pt_clust_5="13000.00000" pt_clust_6="13000.00000" pt_clust_7="13000.00000" pt_clust_8="13000.00000" pt_clust_9="91.25945"></scales>
<clustering>
<clus scale="   83.160">  5  6 -1 -1</clus>
<clus scale="   90.769">  7  8 -1 -1</clus>
<clus scale="   91.095">  1  5  2 -1</clus>
<clus scale="   91.259">  2  9  1 -1</clus>
<clus scale="   91.259">  2  5  1 -1</clus>
</clustering>
</event>
<event>
 9    2  0.1723348E-004  0.9382608E+02  0.7546771E-02  0.1297607E+00
         21   -1    0    0  501  502  0.00000000000E+00  0.00000000000E+00  0.14465615554E+03  0.14465615554E+03  0.00000000000E+00 0.  1.
         -1   -1    0    0    0  501 -0.00000000000E+00 -0.00000000000E+00 -0.19075215275E+03  0.19075215275E+03  0.00000000000E+00 0.  1.
         23    2    1    2    0    0 -0.31429725587E+02 -0.21882142978E+02 -0.97022066032E+02  0.13623880641E+03  0.87641743729E+02 0.  0.
         24    2    1    2    0    0  0.38175393017E+02 -0.48778872536E+02 -0.14225653973E+02  0.10281998125E+03  0.80825987628E+02 0.  0.
        -11    1    4    4    0    0  0.55579575039E+02 -0.59269401705E+02 -0.14284985303E+02  0.82498557230E+02  0.00000000000E+00 0.  1.
         12    1    4    4    0    0 -0.17404182022E+02  0.10490529169E+02  0.59331330034E-01  0.20321424023E+02  0.00000000000E+00 0. -1.
        -13    1    3    3    0    0 -0.54264737575E+02 -0.16113462762E+02 -0.27691356554E+02  0.63016796602E+02  0.00000000000E+00 0.  1.
         13    1    3    3    0    0  0.22835011988E+02 -0.57686802160E+01 -0.69330709479E+02  0.73222009811E+02  0.00000000000E+00 0. -1.
         -2    1    1    2    0  502 -0.67456674297E+01  0.70661015514E+02  0.65151722793E+02  0.96349520629E+02  0.00000000000E+00 0.  1.
<scales pt_clust_5="13000.00000" pt_clust_6="13000.00000" pt_clust_7="13000.00000" pt_clust_8="13000.00000" pt_clust_9="70.98227"></scales>
<clustering>
<clus scale="   70.982">  1  9  2 -1</clus>
<clus scale="   80.826">  5  6 -1 -1</clus>
<clus scale="   87.493">  1  5  2 -1</clus>
<clus scale="   87.642">  7  8 -1 -1</clus>
<clus scale="   70.982">  1  5  2 -1</clus>
</clustering>
</event>
<event>
 9    2  0.2018829E-004  0.3589702E+03  0.7546771E-02  0.1081097E+00
         21   -1    0    0  501  502  0.00000000000E+00  0.00000000000E+00  0.16311658389E+03  0.16311658389E+03  0.00000000000E+00 0.  1.
          2   -1    0    0  502    0 -0.00000000000E+00 -0.00000000000E+00 -0.16064101549E+04  0.16064101549E+04  0.00000000000E+00 0. -1.
         23    2    1    2    0    0  0.18386609927E+03 -0.12499998303E+02 -0.43202039382E+03  0.47426130820E+03  0.65720433314E+02 0.  0.
         24    2    1    2    0    0 -0.40142039938E+03  0.31403618216E+02 -0.20308906195E+03  0.45809831200E+03  0.80525599009E+02 0.  0.
        -13    1    4    4    0    0 -0.36763534482E+03  0.47522677692E+02 -0.16873629047E+03  0.40729115800E+03  0.00000000000E+00 0.  1.
         14    1    4    4    0    0 -0.33785054559E+02 -0.16119059476E+02 -0.34352771473E+02  0.50807154002E+02  0.00000000000E+00 0. -1.
        -11    1    3    3    0    0  0.30370152568E+02 -0.17961007862E+02 -0.13921538862E+03  0.14361708951E+03  0.00000000000E+00 0. -1.
         11    1    3    3    0    0  0.15349594670E+03  0.54610095595E+01 -0.29280500520E+03  0.33064421869E+03  0.00000000000E+00 0.  1.
          1    1    1    2  501    0  0.21755430011E+03 -0.18903619913E+02 -0.80818411523E+03  0.83716711859E+03  0.00000000000E+00 0. -1.
<scales pt_clust_5="13000.00000" pt_clust_6="13000.00000" pt_clust_7="13000.00000" pt_clust_8="13000.00000" pt_clust_9="349.82191"></scales>
<clustering>
<clus scale="   65.720">  7  8 -1 -1</clus>
<clus scale="   80.526">  5  6 -1 -1</clus>
<clus scale="  195.658">  2  7  1 -1</clus>
<clus scale="  349.822">  1  9  2 -1</clus>
<clus scale="  349.822">  1  5  2 -1</clus>
</clustering>
</event>
<event>
 9    2  0.1723348E-004  0.1451006E+03  0.7546771E-02  0.1208534E+00
         21   -1    0    0  501  502  0.00000000000E+00  0.00000000000E+00  0.27734010165E+03  0.27734010165E+03  0.00000000000E+00 0. -1.
         -1   -1    0    0    0  501 -0.00000000000E+00 -0.00000000000E+00 -0.10184636975E+03  0.10184636975E+03  0.00000000000E+00 0.  1.
         23    2    1    2    0    0 -0.18714368440E+02 -0.10365146261E+03  0.77684122617E+02  0.15883682799E+03  0.90002565135E+02 0.  0.
         24    2    1    2    0    0 -0.21552674840E+02  0.12500493213E+03  0.86979289377E+02  0.17350200458E+03  0.80291954534E+02 0.  0.
        -11    1    4    4    0    0  0.24711450803E+02  0.72884598930E+02  0.64078763744E+02  0.10014443831E+03  0.00000000000E+00 0.  1.
         12    1    4    4    0    0 -0.46264125643E+02  0.52120333200E+02  0.22900525634E+02  0.73357566267E+02  0.00000000000E+00 0. -1.
        -13    1    3    3    0    0 -0.10716193157E+02 -0.39536331461E+02 -0.16881988824E+02  0.44305302705E+02  0.00000000000E+00 0.  1.
         13    1    3    3    0    0 -0.79981752828E+01 -0.64115131148E+02  0.94566111441E+02  0.11453152528E+03  0.00000000000E+00 0. -1.
         -2    1    1    2    0  502  0.40267043280E+02 -0.21353469521E+02  0.10830319898E+02  0.46847638832E+02  0.00000000000E+00 0.  1.
<scales pt_clust_5="13000.00000" pt_clust_6="13000.00000" pt_clust_7="13000.00000" pt_clust_8="13000.00000" pt_clust_9="45.57859"></scales>
<clustering>
<clus scale="   45.579">  1  9  2 -1</clus>
<clus scale="   80.292">  5  6 -1 -1</clus>
<clus scale="   90.003">  7  8 -1 -1</clus>
<clus scale="  139.286">  1  5  2 -1</clus>
<clus scale="   45.579">  1  5  2 -1</clus>
</clustering>
</event>
<event>
 9    2  0.1723348E-004  0.2515985E+03  0.7546771E-02  0.1112555E+00
         21   -1    0    0  501  502  0.00000000000E+00  0.00000000000E+00  0.17748708132E+03  0.17748708132E+03  0.00000000000E+00 0.  1.
          2   -1    0    0  502    0 -0.00000000000E+00 -0.00000000000E+00 -0.47083899381E+03  0.47083899381E+03  0.00000000000E+00 0. -1.
         23    2    1    2    0    0 -0.89590722495E+02  0.22079464212E+03 -0.14475080755E+03  0.29260405837E+03  0.88811976325E+02 0.  0.
         24    2    1    2    0    0  0.20521701779E+02 -0.23691509353E+03 -0.11363076262E+03  0.27664405891E+03  0.84083787575E+02 0.  0.
        -13    1    4    4    0    0 -0.19986442987E+02 -0.14211311026E+03 -0.37043757886E+02  0.14821549854E+03  0.00000000000E+00 0.  1.
         14    1    4    4    0    0  0.40508144766E+02 -0.94801983269E+02 -0.76587004731E+02  0.12842856037E+03  0.00000000000E+00 0. -1.
        -11    1    3    3    0    0 -0.64164714945E+02  0.21913558538E+03 -0.13539530723E+03  0.26546074030E+03  0.00000000000E+00 0. -1.
         11    1    3    3    0    0 -0.25426007549E+02  0.16590567428E+01 -0.93555003290E+01  0.27143318065E+02  0.00000000000E+00 0.  1.
          1    1    1    2  501    0  0.69069020715E+02  0.16120451404E+02 -0.34970342319E+02  0.79077957851E+02  0.00000000000E+00 0. -1.
<scales pt_clust_5="13000.00000" pt_clust_6="13000.00000" pt_clust_7="13000.00000" pt_clust_8="13000.00000" pt_clust_9="70.92530"></scales>
<clustering>
<clus scale="   70.925">  1  9  2 -1</clus>
<clus scale="   84.084">  5  6 -1 -1</clus>
<clus scale="   88.812">  7  8 -1 -1</clus>
<clus scale="  249.969">  1  5  2 -1</clus>
<clus scale="   70.925">  1  5  2 -1</clus>
</clustering>
</event>
<event>
 9    2  0.1723348E-004  0.1176353E+03  0.7546771E-02  0.1250932E+00
         21   -1    0    0  501  502  0.00000000000E+00  0.00000000000E+00  0.27459443505E+03  0.27459443505E+03  0.00000000000E+00 0.  1.
          2   -1    0    0  502    0 -0.00000000000E+00 -0.00000000000E+00 -0.22224103679E+03  0.22224103679E+03  0.00000000000E+00 0. -1.
         23    2    1    2    0    0  0.76098445184E+02 -0.26186360146E+02 -0.72504928902E+02  0.14164713545E+03  0.91270189273E+02 0.  0.
         24    2    1    2    0    0 -0.37313972749E+02 -0.11599718948E+02  0.22472161740E+03  0.24158948159E+03  0.79616494798E+02 0.  0.
        -13    1    4    4    0    0 -0.51479525891E+02  0.90844810955E+01  0.86158928472E+02  0.10077713202E+03  0.00000000000E+00 0.  1.
         14    1    4    4    0    0  0.14165553141E+02 -0.20684200044E+02  0.13856268893E+03  0.14081234957E+03  0.00000000000E+00 0. -1.
        -11    1    3    3    0    0  0.17620187071E+02 -0.51192028444E+02 -0.51356401862E+02  0.74622883761E+02  0.00000000000E+00 0. -1.
         11    1    3    3    0    0  0.58478258113E+02  0.25005668298E+02 -0.21148527039E+02  0.67024251692E+02  0.00000000000E+00 0.  1.
          1    1    1    2  501    0 -0.38784472434E+02  0.37786079094E+02 -0.99863290240E+02  0.11359885480E+03  0.00000000000E+00 0. -1.
<scales pt_clust_5="13000.00000" pt_clust_6="13000.00000" pt_clust_7="13000.00000" pt_clust_8="13000.00000" pt_clust_9="54.14819"></scales>
<clustering>
<clus scale="   54.148">  1  9  2 -1</clus>
<clus scale="   79.616">  5  6 -1 -1</clus>
<clus scale="   91.270">  7  8 -1 -1</clus>
<clus scale="  108.842">  1  5  2 -1</clus>
<clus scale="   54.148">  1  5  2 -1</clus>
</clustering>
</event>
<event>
 9    2  0.1723348E-004  0.9810506E+02  0.7546771E-02  0.1292573E+00
         21   -1    0    0  501  502  0.00000000000E+00  0.00000000000E+00  0.35331240692E+03  0.35331240692E+03  0.00000000000E+00 0.  1.
          2   -1    0    0  502    0 -0.00000000000E+00 -0.00000000000E+00 -0.86446581280E+02  0.86446581280E+02  0.00000000000E+00 0. -1.
         24    2    1    2    0    0  0.18044664762E+02  0.12457332636E+02  0.62720181348E+01  0.84726966273E+02  0.81599788845E+02 0.  0.
         23    2    1    2    0    0 -0.31223028033E+02  0.55746895401E+02  0.26123487851E+03  0.28556334587E+03  0.96021710710E+02 0.  0.
        -13    1    3    3    0    0  0.36466541778E+02  0.32478837413E+02  0.21713816614E+02  0.53443178993E+02  0.00000000000E+00 0.  1.
         14    1    3    3    0    0 -0.18421877016E+02 -0.20021504777E+02 -0.15441798479E+02  0.31283787280E+02  0.00000000000E+00 0. -1.
        -13    1    4    4    0    0  0.12976945231E+02 -0.21603979824E+02  0.42941989508E+02  0.49791038498E+02  0.00000000000E+00 0. -1.
         13    1    4    4    0    0 -0.44199973264E+02  0.77350875225E+02  0.21829288900E+03  0.23577230737E+03  0.00000000000E+00 0.  1.
          1    1    1    2  501    0  0.13178363271E+02 -0.68204228037E+02 -0.64107100947E+00  0.69468676053E+02  0.00000000000E+00 0. -1.
<scales pt_clust_5="13000.00000" pt_clust_6="13000.00000" pt_clust_7="13000.00000" pt_clust_8="13000.00000" pt_clust_9="69.46575"></scales>
<clustering>
<clus scale="   69.466">  1  9  2 -1</clus>
<clus scale="   81.600">  5  6 -1 -1</clus>
<clus scale="   84.041">  2  5  1 -1</clus>
<clus scale="   96.022">  7  8 -1 -1</clus>
<clus scale="   69.466">  1  5  2 -1</clus>
</clustering>
</event>
<event>
 9    2  0.1723348E-004  0.9207868E+02  0.7546771E-02  0.1299353E+00
         21   -1    0    0  501  502  0.00000000000E+00  0.00000000000E+00  0.46031055444E+02  0.46031055444E+02  0.00000000000E+00 0. -1.
          2   -1    0    0  502    0 -0.00000000000E+00 -0.00000000000E+00 -0.56731924205E+03  0.56731924205E+03  0.00000000000E+00 0. -1.
         23    2    1    2    0    0  0.17355938342E+02 -0.46331085788E+02 -0.33635614534E+03  0.35034028038E+03  0.84587572609E+02 0.  0.
         24    2    1    2    0    0  0.57388638505E+02  0.37767350690E+01 -0.86441075761E+02  0.13225033366E+03  0.81916857948E+02 0.  0.
        -13    1    4    4    0    0 -0.67682007087E+01  0.24517310673E+02 -0.48796644644E+02  0.55027443989E+02  0.00000000000E+00 0.  1.
         14    1    4    4    0    0  0.64156839213E+02 -0.20740575604E+02 -0.37644431117E+02  0.77222889666E+02  0.00000000000E+00 0. -1.
        -13    1    3    3    0    0  0.46318769888E+02 -0.47913612487E+02 -0.19604285193E+03  0.20706023882E+03  0.00000000000E+00 0. -1.
         13    1    3    3    0    0 -0.28962831546E+02  0.15825266996E+01 -0.14031329341E+03  0.14328004156E+03  0.00000000000E+00 0.  1.
          1    1    1    2  501    0 -0.74744576846E+02  0.42554350719E+02 -0.98490965504E+02  0.13075968346E+03  0.00000000000E+00 0. -1.
<scales pt_clust_5="13000.00000" pt_clust_6="13000.00000" pt_clust_7="13000.00000" pt_clust_8="13000.00000" pt_clust_9="86.00944"></scales>
<clustering>
<clus scale="   81.917">  5  6 -1 -1</clus>
<clus scale="   84.588">  7  8 -1 -1</clus>
<clus scale="   86.009">  1  9  2 -1</clus>
<clus scale="   89.631">  1  5  2 -1</clus>
<clus scale="   86.009">  1  5  2 -1</clus>
</clustering>
</event>
<event>
 9    2  0.1723348E-004  0.9590162E+02  0.7546771E-02  0.1295130E+00
         -3   -1    0    0    0  501 -0.00000000000E+00  0.00000000000E+00  0.38482697206E+03  0.38482697206E+03  0.00000000000E+00 0.  1.
         21   -1    0    0  501  502  0.00000000000E+00 -0.00000000000E+00 -0.40505019383E+02  0.40505019383E+02  0.00000000000E+00 0. -1.
         23    2    1    2    0    0 -0.22740286540E+02 -0.97926891640E+01  0.22107057229E+03  0.24006497858E+03  0.90255075286E+02 0.  0.
         24    2    1    2    0    0  0.27662452600E+02  0.49828105796E+02  0.82304092964E+02  0.12778882003E+03  0.79422713351E+02 0.  0.
        -11    1    4    4    0    0  0.45628874809E+02  0.34446179756E+02  0.86581110617E+02  0.10375366129E+03  0.00000000000E+00 0.  1.
         12    1    4    4    0    0 -0.17966422210E+02  0.15381926039E+02 -0.42770176521E+01  0.24035158741E+02  0.00000000000E+00 0. -1.
        -13    1    3    3    0    0 -0.20509995153E+02 -0.49572744422E+02  0.12136700162E+03  0.13269538791E+03  0.00000000000E+00 0.  1.
         13    1    3    3    0    0 -0.22302913879E+01  0.39780055258E+02  0.99703570673E+02  0.10736959067E+03  0.00000000000E+00 0. -1.
         -4    1    1    2    0  502 -0.49221660593E+01 -0.40035416632E+02  0.40947287421E+02  0.57478192827E+02  0.00000000000E+00 0.  1.
<scales pt_clust_5="13000.00000" pt_clust_6="13000.00000" pt_clust_7="13000.00000" pt_clust_8="13000.00000" pt_clust_9="40.33686"></scales>
<clustering>
<clus scale="   40.337">  2  9  1 -1</clus>
<clus scale="   79.423">  5  6 -1 -1</clus>
<clus scale="   85.785">  2  5  1 -1</clus>
<clus scale="   90.255">  7  8 -1 -1</clus>
<clus scale="   40.337">  2  5  1 -1</clus>
</clustering>
</event>
<event>
 9    2  0.1723348E-004  0.9602375E+02  0.7546771E-02  0.1295219E+00
          2   -1    0    0  502    0 -0.00000000000E+00  0.00000000000E+00  0.35402648115E+03  0.35402648115E+03  0.00000000000E+00 0. -1.
         21   -1    0    0  501  502  0.00000000000E+00 -0.00000000000E+00 -0.59441402299E+02  0.59441402299E+02  0.00000000000E+00 0. -1.
         24    2    1    2    0    0  0.15573591021E+02 -0.26669810228E+02  0.28203784000E+03  0.29488839789E+03  0.80374178104E+02 0.  0.
         23    2    1    2    0    0 -0.19509540026E+02  0.32290488065E+01  0.61781280214E+01  0.93972036211E+02  0.91659835345E+02 0.  0.
        -11    1    3    3    0    0  0.38634646333E+02 -0.26960375021E+02  0.91080898500E+02  0.10254378475E+03  0.00000000000E+00 0.  1.
         12    1    3    3    0    0 -0.23061055312E+02  0.29056479265E+00  0.19095694150E+03  0.19234461314E+03  0.00000000000E+00 0. -1.
        -11    1    4    4    0    0 -0.16512193147E+02 -0.26169040381E+02 -0.32777906601E+02  0.45076183935E+02  0.00000000000E+00 0. -1.
         11    1    4    4    0    0 -0.29973468785E+01  0.29398089188E+02  0.38956034623E+02  0.48895852275E+02  0.00000000000E+00 0.  1.
          1    1    1    2  501    0  0.39359490042E+01  0.23440761422E+02  0.63691108333E+01  0.24607449348E+02  0.00000000000E+00 0. -1.
<scales pt_clust_5="13000.00000" pt_clust_6="13000.00000" pt_clust_7="13000.00000" pt_clust_8="13000.00000" pt_clust_9="23.76891"></scales>
<clustering>
<clus scale="   23.769">  2  9  1 -1</clus>
<clus scale="   80.374">  5  6 -1 -1</clus>
<clus scale="   85.317">  1  5  2 -1</clus>
<clus scale="   91.660">  7  8 -1 -1</clus>
<clus scale="   23.769">  2  5  1 -1</clus>
</clustering>
</event>
<event>
 9    2  0.1723348E-004  0.8788376E+02  0.7546771E-02  0.1312690E+00
         21   -1    0    0  501  502  0.00000000000E+00  0.00000000000E+00  0.12123446053E+02  0.12123446053E+02  0.00000000000E+00 0. -1.
          2   -1    0    0  502    0 -0.00000000000E+00 -0.00000000000E+00 -0.11572628126E+04  0.11572628126E+04  0.00000000000E+00 0. -1.
         24    2    1    2    0    0 -0.34694074691E+02 -0.13736376120E+02 -0.80382191597E+03  0.80816225956E+03  0.74861193747E+02 0.  0.
         23    2    1    2    0    0  0.96200011388E+01  0.99346587386E+01 -0.30918405733E+03  0.32028847442E+03  0.82454130739E+02 0.  0.
        -13    1    3    3    0    0 -0.27188122652E+02 -0.56323763373E-01 -0.86533859894E+02  0.90704498752E+02  0.00000000000E+00 0.  1.
         14    1    3    3    0    0 -0.75059520392E+01 -0.13680052357E+02 -0.71728805608E+03  0.71745776080E+03  0.00000000000E+00 0. -1.
        -13    1    4    4    0    0  0.28313699696E+02 -0.28470190299E+02 -0.12864243921E+03  0.13476310508E+03  0.00000000000E+00 0.  1.
         13    1    4    4    0    0 -0.18693698558E+02  0.38404849037E+02 -0.18054161812E+03  0.18552536934E+03  0.00000000000E+00 0. -1.
          1    1    1    2  501    0  0.25074073552E+02  0.38017173818E+01 -0.32133393295E+02  0.40935524721E+02  0.00000000000E+00 0. -1.
<scales pt_clust_5="13000.00000" pt_clust_6="13000.00000" pt_clust_7="13000.00000" pt_clust_8="13000.00000" pt_clust_9="25.36064"></scales>
<clustering>
<clus scale="   25.361">  1  9  2 -1</clus>
<clus scale="   74.861">  5  6 -1 -1</clus>
<clus scale="   80.803">  2  5  1 -1</clus>
<clus scale="   82.454">  7  8 -1 -1</clus>
<clus scale="   25.361">  1  5  2 -1</clus>
</clustering>
</event>
<event>
 9    2  0.1723348E-004  0.1417685E+03  0.7546771E-02  0.1228667E+00
         21   -1    0    0  501  502  0.00000000000E+00  0.00000000000E+00  0.58934237625E+03  0.58934237625E+03  0.00000000000E+00 0. -1.
          2   -1    0    0  502    0 -0.00000000000E+00 -0.00000000000E+00 -0.83139530332E+03  0.83139530332E+03  0.00000000000E+00 0. -1.
         23    2    1    2    0    0  0.39113886318E+02 -0.10143114625E+02 -0.15427642136E+03  0.18263974294E+03  0.89012822872E+02 0.  0.
         24    2    1    2    0    0  0.71177228675E+02  0.54907572896E+02 -0.65135966502E+03  0.66208234289E+03  0.77476293838E+02 0.  0.
        -13    1    4    4    0    0  0.28142399012E+02  0.67863147827E+02 -0.42523642620E+03  0.43153611625E+03  0.00000000000E+00 0.  1.
         14    1    4    4    0    0  0.43034829663E+02 -0.12955574931E+02 -0.22612323882E+03  0.23054622664E+03  0.00000000000E+00 0. -1.
        -13    1    3    3    0    0  0.34295811199E+02  0.15722823217E+02 -0.15156432982E+03  0.15618948720E+03  0.00000000000E+00 0. -1.
         13    1    3    3    0    0  0.48180751196E+01 -0.25865937843E+02 -0.27120915371E+01  0.26450255743E+02  0.00000000000E+00 0.  1.
          1    1    1    2  501    0 -0.11029111499E+03 -0.44764458271E+02  0.56358315931E+03  0.57601559374E+03  0.00000000000E+00 0. -1.
<scales pt_clust_5="13000.00000" pt_clust_6="13000.00000" pt_clust_7="13000.00000" pt_clust_8="13000.00000" pt_clust_9="118.72550"></scales>
<clustering>
<clus scale="   77.476">  5  6 -1 -1</clus>
<clus scale="   89.013">  7  8 -1 -1</clus>
<clus scale="   97.755">  2  7  1 -1</clus>
<clus scale="  118.725">  1  9  2 -1</clus>
<clus scale="  118.725">  1  5  2 -1</clus>
</clustering>
</event>
<event>
 9    2  0.1723348E-004  0.9758721E+02  0.7546771E-02  0.1288719E+00
          2   -1    0    0  502    0 -0.00000000000E+00  0.00000000000E+00  0.41947545058E+03  0.41947545058E+03  0.00000000000E+00 0. -1.
         21   -1    0    0  501  502  0.00000000000E+00 -0.00000000000E+00 -0.52016319293E+02  0.52016319293E+02  0.00000000000E+00 0. -1.
         23    2    1    2    0    0  0.29408644750E+02  0.27316713966E+01  0.17430878508E+03  0.19775432272E+03  0.88605243556E+02 0.  0.
         24    2    1    2    0    0 -0.24053745433E+02 -0.68181452268E+02  0.17360753283E+03  0.20522270190E+03  0.82155272595E+02 0.  0.
        -11    1    4    4    0    0 -0.28258969138E+02 -0.51477877289E+02  0.17800827947E+03  0.18744462848E+03  0.00000000000E+00 0.  1.
         12    1    4    4    0    0  0.42052237052E+01 -0.16703574978E+02 -0.44007466355E+01  0.17778073417E+02  0.00000000000E+00 0. -1.
        -13    1    3    3    0    0  0.24847468546E+02  0.35279533800E+02  0.37868213895E+02  0.57411182028E+02  0.00000000000E+00 0.  1.
         13    1    3    3    0    0  0.45611762037E+01 -0.32547862403E+02  0.13644057118E+03  0.14034314069E+03  0.00000000000E+00 0. -1.
          1    1    1    2  501    0 -0.53548993167E+01  0.65449780871E+02  0.19542813379E+02  0.68514745256E+02  0.00000000000E+00 0. -1.
<scales pt_clust_5="13000.00000" pt_clust_6="13000.00000" pt_clust_7="13000.00000" pt_clust_8="13000.00000" pt_clust_9="65.66848"></scales>
<clustering>
<clus scale="   65.668">  2  9  1 -1</clus>
<clus scale="   82.155">  5  6 -1 -1</clus>
<clus scale="   88.605">  7  8 -1 -1</clus>
<clus scale="   91.771">  2  5  1 -1</clus>
<clus scale="   65.668">  2  5  1 -1</clus>
</clustering>
</event>
<event>
 9    2  0.1723348E-004  0.1339060E+03  0.7546771E-02  0.1235283E+00
         -3   -1    0    0    0  501 -0.00000000000E+00  0.00000000000E+00  0.67590664606E+02  0.67590664606E+02  0.00000000000E+00 0.  1.
         21   -1    0    0  501  502  0.00000000000E+00 -0.00000000000E+00 -0.65487802541E+03  0.65487802541E+03  0.00000000000E+00 0. -1.
         23    2    1    2    0    0  0.28605983828E+02 -0.42938685362E+02 -0.25791904361E+02  0.10447035813E+03  0.87102240993E+02 0.  0.
         24    2    1    2    0    0 -0.83822214208E+02 -0.61930370389E+02 -0.37125753317E+03  0.39386261763E+03  0.80212662737E+02 0.  0.
        -11    1    4    4    0    0 -0.39532063889E+02 -0.45064800119E+02 -0.86827796356E+02  0.10551154679E+03  0.00000000000E+00 0.  1.
         12    1    4    4    0    0 -0.44290150319E+02 -0.16865570270E+02 -0.28442973681E+03  0.28835107084E+03  0.00000000000E+00 0. -1.
        -11    1    3    3    0    0 -0.26696056756E+02 -0.12993849758E+02  0.10938045261E+02  0.31641119007E+02  0.00000000000E+00 0.  1.
         11    1    3    3    0    0  0.55302040585E+02 -0.29944835604E+02 -0.36729949622E+02  0.72829239124E+02  0.00000000000E+00 0. -1.
         -4    1    1    2    0  502  0.55216230380E+02  0.10486905575E+03 -0.19023792328E+03  0.22413571425E+03  0.00000000000E+00 0.  1.
<scales pt_clust_5="13000.00000" pt_clust_6="13000.00000" pt_clust_7="13000.00000" pt_clust_8="13000.00000" pt_clust_9="107.22299"></scales>
<clustering>
<clus scale="   80.213">  5  6 -1 -1</clus>
<clus scale="   87.102">  7  8 -1 -1</clus>
<clus scale="  101.237">  1  7  2 -1</clus>
<clus scale="  107.223">  2  9  1 -1</clus>
<clus scale="  107.223">  2  5  1 -1</clus>
</clustering>
</event>
<event>
 9    2  0.1723348E-004  0.1333983E+03  0.7546771E-02  0.1229354E+00
         21   -1    0    0  501  502  0.00000000000E+00  0.00000000000E+00  0.28224548928E+03  0.28224548928E+03  0.00000000000E+00 0.  1.
         -3   -1    0    0    0  501 -0.00000000000E+00 -0.00000000000E+00 -0.16767309768E+03  0.16767309768E+03  0.00000000000E+00 0.  1.
         24    2    1    2    0    0 -0.67027518296E+02  0.50287366771E+02  0.43308077532E+02  0.12351992041E+03  0.79750070172E+02 0.  0.
         23    2    1    2    0    0 -0.76945787580E+02 -0.31850277523E+02  0.11906268630E+03  0.17358203312E+03  0.94972125116E+02 0.  0.
        -13    1    3    3    0    0 -0.78924081134E+02  0.28469268638E+02  0.13945561776E+02  0.85052857288E+02  0.00000000000E+00 0.  1.
         14    1    3    3    0    0  0.11896562838E+02  0.21818098133E+02  0.29362515757E+02  0.38467063120E+02  0.00000000000E+00 0. -1.
        -13    1    4    4    0    0 -0.23553098946E+02  0.17725271582E+02  0.90745375527E+02  0.95413085592E+02  0.00000000000E+00 0.  1.
         13    1    4    4    0    0 -0.53392688634E+02 -0.49575549105E+02  0.28317310776E+02  0.78168947532E+02  0.00000000000E+00 0. -1.
         -4    1    1    2    0  502  0.14397330588E+03 -0.18437089248E+02 -0.47798372229E+02  0.15281663343E+03  0.00000000000E+00 0.  1.
<scales pt_clust_5="13000.00000" pt_clust_6="13000.00000" pt_clust_7="13000.00000" pt_clust_8="13000.00000" pt_clust_9="93.67712"></scales>
<clustering>
<clus scale="   79.750">  5  6 -1 -1</clus>
<clus scale="   94.972">  7  8 -1 -1</clus>
<clus scale="  115.679">  2  5  1 -1</clus>
<clus scale="   93.677">  1  9  2 -1</clus>
<clus scale="   93.677">  1  5  2 -1</clus>
</clustering>
</event>
<event>
 9    2  0.1723348E-004  0.1469848E+03  0.7546771E-02  0.1224234E+00
         21   -1    0    0  501  502  0.00000000000E+00  0.00000000000E+00  0.69519375396E+03  0.69519375396E+03  0.00000000000E+00 0.  1.
         -3   -1    0    0    0  501 -0.00000000000E+00 -0.00000000000E+00 -0.48209104798E+02  0.48209104798E+02  0.00000000000E+00 0.  1.
         23    2    1    2    0    0  0.10786226820E+02  0.33926927587E+02  0.14609388997E+03  0.17490695138E+03  0.89340012602E+02 0.  0.
         24    2    1    2    0    0  0.10147971346E+03 -0.69553869928E+02  0.26258939224E+03  0.30267555100E+03  0.86737691880E+02 0.  0.
        -13    1    4    4    0    0  0.63899196196E+02 -0.87931052918E+02  0.18980438861E+03  0.21872513180E+03  0.00000000000E+00 0.  1.
         14    1    4    4    0    0  0.37580517267E+02  0.18377182989E+02  0.72785003622E+02  0.83950419206E+02  0.00000000000E+00 0. -1.
        -11    1    3    3    0    0 -0.30127604133E+02  0.27877761621E+02  0.11793088827E+03  0.12487007861E+03  0.00000000000E+00 0. -1.
         11    1    3    3    0    0  0.40913830953E+02  0.60491659657E+01  0.28163001692E+02  0.50036872769E+02  0.00000000000E+00 0.  1.
         -4    1    1    2    0  502 -0.11226594028E+03  0.35626942342E+02  0.23830136696E+03  0.26582035637E+03  0.00000000000E+00 0.  1.
<scales pt_clust_5="13000.00000" pt_clust_6="13000.00000" pt_clust_7="13000.00000" pt_clust_8="13000.00000" pt_clust_9="118.66387"></scales>
<clustering>
<clus scale="   86.738">  5  6 -1 -1</clus>
<clus scale="   89.340">  7  8 -1 -1</clus>
<clus scale="   96.172">  2  7  1 -1</clus>
<clus scale="  118.664">  1  9  2 -1</clus>
<clus scale="  118.664">  1  5  2 -1</clus>
</clustering>
</event>
<event>
 9    2  0.1723348E-004  0.1829782E+03  0.7546771E-02  0.1181215E+00
         21   -1    0    0  501  502  0.00000000000E+00  0.00000000000E+00  0.22860105221E+03  0.22860105221E+03  0.00000000000E+00 0.  1.
          2   -1    0    0  502    0 -0.00000000000E+00 -0.00000000000E+00 -0.25886626988E+03  0.25886626988E+03  0.00000000000E+00 0. -1.
         23    2    1    2    0    0  0.67579367180E+02  0.54291328327E+02 -0.15878936272E+01  0.12639712458E+03  0.91973868555E+02 0.  0.
         24    2    1    2    0    0 -0.22352185639E+02  0.13123559730E+03 -0.60846851233E+02  0.16741943825E+03  0.81268239776E+02 0.  0.
        -11    1    4    4    0    0 -0.23993414361E+01  0.12000368251E+03 -0.74007441652E+02  0.14100972333E+03  0.00000000000E+00 0.  1.
         12    1    4    4    0    0 -0.19952844203E+02  0.11231914794E+02  0.13160590418E+02  0.26409714915E+02  0.00000000000E+00 0. -1.
        -11    1    3    3    0    0  0.85255664847E+02  0.21962676470E+02 -0.99948794410E+01  0.88604656543E+02  0.00000000000E+00 0.  1.
         11    1    3    3    0    0 -0.17676297667E+02  0.32328651858E+02  0.84069858137E+01  0.37792468041E+02  0.00000000000E+00 0. -1.
          1    1    1    2  501    0 -0.45227181541E+02 -0.18552692563E+03  0.32169527196E+02  0.19365075926E+03  0.00000000000E+00 0. -1.
<scales pt_clust_5="13000.00000" pt_clust_6="13000.00000" pt_clust_7="13000.00000" pt_clust_8="13000.00000" pt_clust_9="163.94048"></scales>
<clustering>
<clus scale="   81.268">  5  6 -1 -1</clus>
<clus scale="   91.974">  7  8 -1 -1</clus>
<clus scale="  126.387">  2  7  1 -1</clus>
<clus scale="  163.940">  1  9  2 -1</clus>
<clus scale="  163.940">  1  5  2 -1</clus>
</clustering>
</event>
<event>
 9    2  0.1723348E-004  0.1466629E+03  0.7546771E-02  0.1206867E+00
         21   -1    0    0  501  502  0.00000000000E+00  0.00000000000E+00  0.89347466272E+03  0.89347466272E+03  0.00000000000E+00 0.  1.
         -1   -1    0    0    0  501 -0.00000000000E+00 -0.00000000000E+00 -0.57655473602E+02  0.57655473602E+02  0.00000000000E+00 0.  1.
         24    2    1    2    0    0  0.10863968008E+03 -0.57895392175E+02  0.10858704486E+03  0.18038280913E+03  0.74782049940E+02 0.  0.
         23    2    1    2    0    0 -0.12438467868E+03 -0.36808168680E+02  0.50682355776E+03  0.53033806278E+03  0.86959488001E+02 0.  0.
        -11    1    3    3    0    0 -0.34779948532E+01 -0.27710009621E+02  0.20962967294E+02  0.34919723355E+02  0.00000000000E+00 0.  1.
         12    1    3    3    0    0  0.11211767493E+03 -0.30185382553E+02  0.87624077570E+02  0.14546308577E+03  0.00000000000E+00 0. -1.
        -13    1    4    4    0    0 -0.71657720298E+02 -0.34481610428E+02  0.42898535618E+03  0.43629376130E+03  0.00000000000E+00 0.  1.
         13    1    4    4    0    0 -0.52726958384E+02 -0.23265582517E+01  0.77838201585E+02  0.94044301474E+02  0.00000000000E+00 0. -1.
         -2    1    1    2    0  502  0.15744998603E+02  0.94703560855E+02  0.22040858649E+03  0.24040926442E+03  0.00000000000E+00 0.  1.
<scales pt_clust_5="13000.00000" pt_clust_6="13000.00000" pt_clust_7="13000.00000" pt_clust_8="13000.00000" pt_clust_9="96.00349"></scales>
<clustering>
<clus scale="   74.782">  5  6 -1 -1</clus>
<clus scale="   86.959">  7  8 -1 -1</clus>
<clus scale="   96.003">  1  9  2 -1</clus>
<clus scale="  139.787">  2  5  1 -1</clus>
<clus scale="   96.003">  1  5  2 -1</clus>
</clustering>
</event>
<event>
 9    2  0.1723348E-004  0.1266787E+03  0.7546771E-02  0.1235025E+00
         21   -1    0    0  501  502  0.00000000000E+00  0.00000000000E+00  0.26363204755E+02  0.26363204755E+02  0.00000000000E+00 0.  1.
          2   -1    0    0  502    0 -0.00000000000E+00 -0.00000000000E+00 -0.85363299550E+03  0.85363299550E+03  0.00000000000E+00 0. -1.
         23    2    1    2    0    0 -0.62019235901E+02 -0.42245178140E+02 -0.37327496752E+03  0.39143279722E+03  0.90853688205E+02 0.  0.
         24    2    1    2    0    0  0.10236272884E+03  0.41986824192E+02 -0.31185327699E+03  0.34080724129E+03  0.81584849591E+02 0.  0.
        -13    1    4    4    0    0  0.37622783545E+02 -0.97297517617E+01 -0.36710934750E+02  0.53458719038E+02  0.00000000000E+00 0.  1.
         14    1    4    4    0    0  0.64739945299E+02  0.51716575954E+02 -0.27514234224E+03  0.28734852225E+03  0.00000000000E+00 0. -1.
        -11    1    3    3    0    0  0.20464440642E+02 -0.19127094738E+02 -0.14352193812E+03  0.14622990735E+03  0.00000000000E+00 0.  1.
         11    1    3    3    0    0 -0.82483676543E+02 -0.23118083402E+02 -0.22975302941E+03  0.24520288987E+03  0.00000000000E+00 0. -1.
          1    1    1    2  501    0 -0.40343492943E+02  0.25835394801E+00 -0.14214154623E+03  0.14775616175E+03  0.00000000000E+00 0. -1.
<scales pt_clust_5="13000.00000" pt_clust_6="13000.00000" pt_clust_7="13000.00000" pt_clust_8="13000.00000" pt_clust_9="40.34434"></scales>
<clustering>
<clus scale="   40.344">  1  9  2 -1</clus>
<clus scale="   81.585">  5  6 -1 -1</clus>
<clus scale="   90.854">  7  8 -1 -1</clus>
<clus scale="  120.205">  1  5  2 -1</clus>
<clus scale="   40.344">  1  5  2 -1</clus>
</clustering>
</event>
<event>
 9    2  0.1723348E-004  0.9650110E+02  0.7546771E-02  0.1292708E+00
         21   -1    0    0  501  502  0.00000000000E+00  0.00000000000E+00  0.35036810005E+03  0.35036810005E+03  0.00000000000E+00 0.  1.
          2   -1    0    0  502    0 -0.00000000000E+00 -0.00000000000E+00 -0.57716841447E+02  0.57716841447E+02  0.00000000000E+00 0. -1.
         24    2    1    2    0    0 -0.50820044867E+01  0.33046604951E+01  0.97137522078E+02  0.12822681337E+03  0.83484548992E+02 0.  0.
         23    2    1    2    0    0 -0.38676463398E+02 -0.61168848288E+02  0.16182133762E+03  0.19986909461E+03  0.92325580673E+02 0.  0.
        -11    1    3    3    0    0 -0.20109065390E+02  0.27902823790E+02  0.92937340135E+02  0.99097382799E+02  0.00000000000E+00 0.  1.
         12    1    3    3    0    0  0.15027060903E+02 -0.24598163295E+02  0.42001819426E+01  0.29129430568E+02  0.00000000000E+00 0. -1.
        -11    1    4    4    0    0 -0.67767474874E+02 -0.46328176113E+02  0.13309727543E+03  0.15637651768E+03  0.00000000000E+00 0.  1.
         11    1    4    4    0    0  0.29091011476E+02 -0.14840672175E+02  0.28724062190E+02  0.43492576930E+02  0.00000000000E+00 0. -1.
          1    1    1    2  501    0  0.43758467885E+02  0.57864187793E+02  0.33692398908E+02  0.79989033528E+02  0.00000000000E+00 0. -1.
<scales pt_clust_5="13000.00000" pt_clust_6="13000.00000" pt_clust_7="13000.00000" pt_clust_8="13000.00000" pt_clust_9="72.54704"></scales>
<clustering>
<clus scale="   72.547">  1  9  2 -1</clus>
<clus scale="   83.485">  5  6 -1 -1</clus>
<clus scale="   88.080">  2  5  1 -1</clus>
<clus scale="   92.326">  7  8 -1 -1</clus>
<clus scale="   72.547">  1  5  2 -1</clus>
</clustering>
</event>
<event>
 9    2  0.1723348E-004  0.2643822E+03  0.7546771E-02  0.1138776E+00
          2   -1    0    0  502    0 -0.00000000000E+00  0.00000000000E+00  0.22355407913E+03  0.22355407913E+03  0.00000000000E+00 0. -1.
         21   -1    0    0  501  502  0.00000000000E+00 -0.00000000000E+00 -0.51713678883E+03  0.51713678883E+03  0.00000000000E+00 0. -1.
         24    2    1    2    0    0 -0.64845389177E+02  0.45354063741E+02 -0.17608110908E+03  0.20898533620E+03  0.80052471395E+02 0.  0.
         23    2    1    2    0    0  0.24144875518E+03  0.11225130628E+03 -0.70643469312E+02  0.29040926985E+03  0.91919459948E+02 0.  0.
        -13    1    3    3    0    0 -0.15047327709E+02  0.13655995006E+02  0.28952692363E+01  0.20525371001E+02  0.00000000000E+00 0.  1.
         14    1    3    3    0    0 -0.49798061468E+02  0.31698068735E+02 -0.17897637832E+03  0.18845996520E+03  0.00000000000E+00 0. -1.
        -11    1    4    4    0    0  0.70297657934E+01  0.31721089524E+02 -0.17525201557E+02  0.36915820691E+02  0.00000000000E+00 0.  1.
         11    1    4    4    0    0  0.23441898938E+03  0.80530216758E+02 -0.53118267755E+02  0.25349344915E+03  0.00000000000E+00 0. -1.
          1    1    1    2  501    0 -0.17660336600E+03 -0.15760537002E+03 -0.46858131311E+02  0.24129626191E+03  0.00000000000E+00 0. -1.
<scales pt_clust_5="13000.00000" pt_clust_6="13000.00000" pt_clust_7="13000.00000" pt_clust_8="13000.00000" pt_clust_9="247.88864"></scales>
<clustering>
<clus scale="   80.052">  5  6 -1 -1</clus>
<clus scale="   91.919">  7  8 -1 -1</clus>
<clus scale="  112.563">  1  5  2 -1</clus>
<clus scale="  247.889">  2  9  1 -1</clus>
<clus scale="  247.889">  2  5  1 -1</clus>
</clustering>
</event>
<event>
 9    2  0.1723348E-004  0.1428589E+03  0.7546771E-02  0.1211316E+00
         21   -1    0    0  501  502  0.00000000000E+00  0.00000000000E+00  0.12185272776E+03  0.12185272776E+03  0.00000000000E+00 0.  1.
         -1   -1    0    0    0  501 -0.00000000000E+00 -0.00000000000E+00 -0.31706573647E+03  0.31706573647E+03  0.00000000000E+00 0.  1.
         24    2    1    2    0    0 -0.86797793852E+02  0.80847338606E+02 -0.10880121800E+03  0.17970857656E+03  0.79920699892E+02 0.  0.
         23    2    1    2    0    0  0.10425625691E+03 -0.24732053023E+02  0.17077772574E+02  0.14019806929E+03  0.88785171988E+02 0.  0.
        -11    1    3    3    0    0 -0.56839517193E+02  0.18983968286E+01 -0.30421460521E+02  0.64496510645E+02  0.00000000000E+00 0.  1.
         12    1    3    3    0    0 -0.29958276659E+02  0.78948941778E+02 -0.78379757483E+02  0.11521206591E+03  0.00000000000E+00 0. -1.
        -11    1    4    4    0    0  0.74924230431E+02 -0.56053395369E+02 -0.11429015693E+01  0.93578467941E+02  0.00000000000E+00 0. -1.
         11    1    4    4    0    0  0.29332026477E+02  0.31321342346E+02  0.18220674143E+02  0.46619601348E+02  0.00000000000E+00 0.  1.
         -2    1    1    2    0  502 -0.17458463057E+02 -0.56115285584E+02 -0.10348956328E+03  0.11901181839E+03  0.00000000000E+00 0.  1.
<scales pt_clust_5="13000.00000" pt_clust_6="13000.00000" pt_clust_7="13000.00000" pt_clust_8="13000.00000" pt_clust_9="58.76842"></scales>
<clustering>
<clus scale="   58.768">  1  9  2 -1</clus>
<clus scale="   79.921">  5  6 -1 -1</clus>
<clus scale="   88.785">  7  8 -1 -1</clus>
<clus scale="  137.525">  2  5  1 -1</clus>
<clus scale="   58.768">  1  5  2 -1</clus>
</clustering>
</event>
<event>
 9    2  0.1723348E-004  0.1056368E+03  0.7546771E-02  0.1274355E+00
         21   -1    0    0  501  502  0.00000000000E+00  0.00000000000E+00  0.31348624306E+02  0.31348624306E+02  0.00000000000E+00 0. -1.
          4   -1    0    0  502    0 -0.00000000000E+00 -0.00000000000E+00 -0.59361641310E+03  0.59361641310E+03  0.00000000000E+00 0. -1.
         23    2    1    2    0    0  0.61484946537E+02  0.13464634703E+02 -0.39734936858E+03  0.41295111153E+03  0.93168689803E+02 0.  0.
         24    2    1    2    0    0 -0.28992238160E+02 -0.11148636584E+02 -0.15561328634E+03  0.17813582880E+03  0.80944651742E+02 0.  0.
        -11    1    4    4    0    0 -0.54649858527E+02 -0.30724473864E+01 -0.72920081027E+02  0.91177766955E+02  0.00000000000E+00 0.  1.
         12    1    4    4    0    0  0.25657620367E+02 -0.80761891974E+01 -0.82693205316E+02  0.86958061848E+02  0.00000000000E+00 0. -1.
        -13    1    3    3    0    0  0.75688357025E+02  0.34926150002E+02 -0.34037870578E+03  0.35043719365E+03  0.00000000000E+00 0. -1.
         13    1    3    3    0    0 -0.14203410488E+02 -0.21461515299E+02 -0.56970662804E+02  0.62513917881E+02  0.00000000000E+00 0.  1.
          3    1    1    2  501    0 -0.32492708377E+02 -0.23159981191E+01 -0.93051338633E+01  0.33878097072E+02  0.00000000000E+00 0. -1.
<scales pt_clust_5="13000.00000" pt_clust_6="13000.00000" pt_clust_7="13000.00000" pt_clust_8="13000.00000" pt_clust_9="32.57514"></scales>
<clustering>
<clus scale="   32.575">  1  9  2 -1</clus>
<clus scale="   80.945">  5  6 -1 -1</clus>
<clus scale="   93.169">  7  8 -1 -1</clus>
<clus scale="   95.030">  1  5  2 -1</clus>
<clus scale="   32.575">  1  5  2 -1</clus>
</clustering>
</event>
<event>
 9    2  0.1723348E-004  0.1740642E+03  0.7546771E-02  0.1175516E+00
          2   -1    0    0  502    0 -0.00000000000E+00  0.00000000000E+00  0.58882997953E+03  0.58882997953E+03  0.00000000000E+00 0. -1.
         21   -1    0    0  501  502  0.00000000000E+00 -0.00000000000E+00 -0.24521393188E+03  0.24521393188E+03  0.00000000000E+00 0. -1.
         24    2    1    2    0    0 -0.13625643505E+03  0.41616256959E+02  0.29132878960E+03  0.33349590332E+03  0.77777406376E+02 0.  0.
         23    2    1    2    0    0  0.16714599769E+03  0.50310135627E+02  0.22695832847E+03  0.30076159820E+03  0.92079106218E+02 0.  0.
        -13    1    3    3    0    0 -0.14060846314E+03  0.27573559781E+02  0.23463184173E+03  0.27492388448E+03  0.00000000000E+00 0.  1.
         14    1    3    3    0    0  0.43520280875E+01  0.14042697179E+02  0.56696947869E+02  0.58572018833E+02  0.00000000000E+00 0. -1.
        -13    1    4    4    0    0  0.39243078207E+02 -0.19660801073E+02  0.21614527519E+02  0.48926006232E+02  0.00000000000E+00 0.  1.
         13    1    4    4    0    0  0.12790291948E+03  0.69970936700E+02  0.20534380095E+03  0.25183559197E+03  0.00000000000E+00 0. -1.
          1    1    1    2  501    0 -0.30889562639E+02 -0.91926392587E+02 -0.17467107042E+03  0.19978640989E+03  0.00000000000E+00 0. -1.
<scales pt_clust_5="13000.00000" pt_clust_6="13000.00000" pt_clust_7="13000.00000" pt_clust_8="13000.00000" pt_clust_9="96.97745"></scales>
<clustering>
<clus scale="   77.777">  5  6 -1 -1</clus>
<clus scale="   92.079">  7  8 -1 -1</clus>
<clus scale="   96.977">  2  9  1 -1</clus>
<clus scale="  166.940">  1  5  2 -1</clus>
<clus scale="   96.977">  2  5  1 -1</clus>
</clustering>
</event>
<event>
 9    2  0.1723348E-004  0.1173715E+03  0.7546771E-02  0.1249911E+00
         21   -1    0    0  501  502  0.00000000000E+00  0.00000000000E+00  0.33482831285E+02  0.33482831285E+02  0.00000000000E+00 0. -1.
          4   -1    0    0  502    0 -0.00000000000E+00 -0.00000000000E+00 -0.15902977654E+04  0.15902977654E+04  0.00000000000E+00 0. -1.
         24    2    1    2    0    0 -0.57716566749E+02  0.61435164599E+02 -0.13679399820E+04  0.13730772378E+04  0.83521405935E+02 0.  0.
         23    2    1    2    0    0  0.18320714619E+02 -0.26745980155E+01 -0.12330024808E+03  0.15424155728E+03  0.90800356588E+02 0.  0.
        -11    1    3    3    0    0  0.78517891897E+00  0.41153575238E+02 -0.24516619369E+03  0.24859745732E+03  0.00000000000E+00 0.  1.
         12    1    3    3    0    0 -0.58501745668E+02  0.20281589361E+02 -0.11227737883E+04  0.11244797805E+04  0.00000000000E+00 0. -1.
        -11    1    4    4    0    0 -0.14314378896E+02 -0.39699529921E+02 -0.68827718416E+02  0.80735425567E+02  0.00000000000E+00 0.  1.
         11    1    4    4    0    0  0.32635093515E+02  0.37024931905E+02 -0.54472529662E+02  0.73506131710E+02  0.00000000000E+00 0. -1.
          3    1    1    2  501    0  0.39395852130E+02 -0.58760566583E+02 -0.65574704067E+02  0.96461801578E+02  0.00000000000E+00 0. -1.
<scales pt_clust_5="13000.00000" pt_clust_6="13000.00000" pt_clust_7="13000.00000" pt_clust_8="13000.00000" pt_clust_9="70.74488"></scales>
<clustering>
<clus scale="   70.745">  1  9  2 -1</clus>
<clus scale="   83.521">  5  6 -1 -1</clus>
<clus scale="   90.800">  7  8 -1 -1</clus>
<clus scale="  111.836">  2  5  1 -1</clus>
<clus scale="   70.745">  1  5  2 -1</clus>
</clustering>
</event>
<event>
 9    2  0.1723348E-004  0.1704349E+03  0.7546771E-02  0.1179184E+00
         21   -1    0    0  501  502  0.00000000000E+00  0.00000000000E+00  0.10768807088E+03  0.10768807088E+03  0.00000000000E+00 0. -1.
          2   -1    0    0  502    0 -0.00000000000E+00 -0.00000000000E+00 -0.52095397389E+03  0.52095397389E+03  0.00000000000E+00 0. -1.
         23    2    1    2    0    0 -0.65916123733E+02 -0.11223335059E+03 -0.26508257905E+03  0.30921144889E+03  0.91660711643E+02 0.  0.
         24    2    1    2    0    0  0.87154590169E+02  0.14200914962E+03 -0.18950750894E+03  0.26424582508E+03  0.78423459270E+02 0.  0.
        -11    1    4    4    0    0  0.87563972423E+02  0.69910256930E+02 -0.11431128293E+03  0.16006861871E+03  0.00000000000E+00 0.  1.
         12    1    4    4    0    0 -0.40938225379E+00  0.72098892687E+02 -0.75196226010E+02  0.10417720637E+03  0.00000000000E+00 0. -1.
        -13    1    3    3    0    0 -0.82093085607E+02 -0.99306913943E+02 -0.25600848201E+03  0.28660335085E+03  0.00000000000E+00 0. -1.
         13    1    3    3    0    0  0.16176961874E+02 -0.12926436642E+02 -0.90740970418E+01  0.22608098038E+02  0.00000000000E+00 0.  1.
          1    1    1    2  501    0 -0.21238466437E+02 -0.29775799031E+02  0.41324184977E+02  0.55184770803E+02  0.00000000000E+00 0. -1.
<scales pt_clust_5="13000.00000" pt_clust_6="13000.00000" pt_clust_7="13000.00000" pt_clust_8="13000.00000" pt_clust_9="36.57418"></scales>
<clustering>
<clus scale="   36.574">  1  9  2 -1</clus>
<clus scale="   78.423">  5  6 -1 -1</clus>
<clus scale="   91.661">  7  8 -1 -1</clus>
<clus scale="  163.697">  1  5  2 -1</clus>
<clus scale="   36.574">  1  5  2 -1</clus>
</clustering>
</event>
<event>
 9    2  0.1723348E-004  0.1590215E+03  0.7546771E-02  0.1191278E+00
         21   -1    0    0  501  502  0.00000000000E+00  0.00000000000E+00  0.63885204068E+02  0.63885204068E+02  0.00000000000E+00 0.  1.
         -1   -1    0    0    0  501 -0.00000000000E+00 -0.00000000000E+00 -0.47966732997E+03  0.47966732997E+03  0.00000000000E+00 0.  1.
         23    2    1    2    0    0 -0.58606741969E+02 -0.12491607409E+03 -0.23339288723E+03  0.28566378945E+03  0.89959907859E+02 0.  0.
         24    2    1    2    0    0  0.38342217528E+02  0.11604459546E+03 -0.11268861402E+03  0.18476192898E+03  0.80633571740E+02 0.  0.
        -11    1    4    4    0    0  0.81538029719E+01  0.11359319137E+03 -0.10125079984E+03  0.15238642360E+03  0.00000000000E+00 0.  1.
         12    1    4    4    0    0  0.30188414556E+02  0.24514040801E+01 -0.11437814181E+02  0.32375505380E+02  0.00000000000E+00 0. -1.
        -11    1    3    3    0    0  0.41953336150E+01 -0.91950989164E+02 -0.15204596577E+03  0.17773733693E+03  0.00000000000E+00 0.  1.
         11    1    3    3    0    0 -0.62802075584E+02 -0.32965084929E+02 -0.81346921452E+02  0.10792645251E+03  0.00000000000E+00 0. -1.
         -2    1    1    2    0  502  0.20264524441E+02  0.88714786380E+01 -0.69700624649E+02  0.73126815605E+02  0.00000000000E+00 0.  1.
<scales pt_clust_5="13000.00000" pt_clust_6="13000.00000" pt_clust_7="13000.00000" pt_clust_8="13000.00000" pt_clust_9="22.12136"></scales>
<clustering>
<clus scale="   22.121">  1  9  2 -1</clus>
<clus scale="   80.634">  5  6 -1 -1</clus>
<clus scale="   89.960">  7  8 -1 -1</clus>
<clus scale="  153.938">  1  5  2 -1</clus>
<clus scale="   22.121">  1  5  2 -1</clus>
</clustering>
</event>
<event>
 9    2  0.1723348E-004  0.9965830E+02  0.7546771E-02  0.1284567E+00
          2   -1    0    0  502    0 -0.00000000000E+00  0.00000000000E+00  0.55750920301E+03  0.55750920301E+03  0.00000000000E+00 0. -1.
         21   -1    0    0  501  502  0.00000000000E+00 -0.00000000000E+00 -0.10882019401E+03  0.10882019401E+03  0.00000000000E+00 0.  1.
         23    2    1    2    0    0 -0.40080229469E+02 -0.89562255313E+01  0.19360570252E+03  0.21669223459E+03  0.88236714089E+02 0.  0.
         24    2    1    2    0    0  0.94777242037E+02 -0.29402634186E+02 -0.49933167092E+02  0.13739012168E+03  0.80842339494E+02 0.  0.
        -11    1    4    4    0    0  0.35600844119E+02 -0.53190731237E+02 -0.21067205355E+02  0.67383240743E+02  0.00000000000E+00 0.  1.
         12    1    4    4    0    0  0.59176397917E+02  0.23788097052E+02 -0.28865961737E+02  0.70006880939E+02  0.00000000000E+00 0. -1.
        -13    1    3    3    0    0 -0.33292904085E+02  0.37503100161E+02  0.10732968835E+03  0.11846755668E+03  0.00000000000E+00 0. -1.
         13    1    3    3    0    0 -0.67873253841E+01 -0.46459325693E+02  0.86276014174E+02  0.98224677914E+02  0.00000000000E+00 0.  1.
          1    1    1    2  501    0 -0.54697012568E+02  0.38358859717E+02  0.30501647357E+03  0.31224704074E+03  0.00000000000E+00 0. -1.
<scales pt_clust_5="13000.00000" pt_clust_6="13000.00000" pt_clust_7="13000.00000" pt_clust_8="13000.00000" pt_clust_9="66.80696"></scales>
<clustering>
<clus scale="   66.807">  2  9  1 -1</clus>
<clus scale="   80.842">  5  6 -1 -1</clus>
<clus scale="   88.237">  7  8 -1 -1</clus>
<clus scale="   93.175">  2  5  1 -1</clus>
<clus scale="   66.807">  2  5  1 -1</clus>
</clustering>
</event>
<event>
 9    2  0.1723348E-004  0.1548438E+03  0.7546771E-02  0.1196463E+00
          2   -1    0    0  502    0 -0.00000000000E+00  0.00000000000E+00  0.16614356297E+04  0.16614356297E+04  0.00000000000E+00 0. -1.
         21   -1    0    0  501  502  0.00000000000E+00 -0.00000000000E+00 -0.22681504192E+02  0.22681504192E+02  0.00000000000E+00 0. -1.
         23    2    1    2    0    0  0.15224142337E+03  0.15085260282E+02  0.76609305375E+03  0.78678681977E+03  0.93434023156E+02 0.  0.
         24    2    1    2    0    0 -0.95392269479E+02  0.17724253389E+02  0.39375136976E+03  0.41394351957E+03  0.83037714145E+02 0.  0.
        -11    1    4    4    0    0 -0.10556034411E+02 -0.27797958724E+02  0.12433226796E+03  0.12783844973E+03  0.00000000000E+00 0.  1.
         12    1    4    4    0    0 -0.84836235068E+02  0.45522212112E+02  0.26941910180E+03  0.28610506984E+03  0.00000000000E+00 0. -1.
        -13    1    3    3    0    0  0.14954285919E+03 -0.82846037070E+01  0.71528035070E+03  0.73079250235E+03  0.00000000000E+00 0. -1.
         13    1    3    3    0    0  0.26985641856E+01  0.23369863989E+02  0.50812703048E+02  0.55994317414E+02  0.00000000000E+00 0.  1.
          1    1    1    2  501    0 -0.56849153895E+02 -0.32809513671E+02  0.47890970195E+03  0.48338679451E+03  0.00000000000E+00 0. -1.
<scales pt_clust_5="13000.00000" pt_clust_6="13000.00000" pt_clust_7="13000.00000" pt_clust_8="13000.00000" pt_clust_9="65.63760"></scales>
<clustering>
<clus scale="   65.638">  2  9  1 -1</clus>
<clus scale="   83.038">  5  6 -1 -1</clus>
<clus scale="   93.434">  7  8 -1 -1</clus>
<clus scale="  148.802">  2  5  1 -1</clus>
<clus scale="   65.638">  2  5  1 -1</clus>
</clustering>
</event>
<event>
 9    2  0.1723348E-004  0.1172613E+03  0.7546771E-02  0.1247730E+00
         21   -1    0    0  501  502  0.00000000000E+00  0.00000000000E+00  0.31405735483E+02  0.31405735483E+02  0.00000000000E+00 0.  1.
         -3   -1    0    0    0  501 -0.00000000000E+00 -0.00000000000E+00 -0.92085070070E+03  0.92085070070E+03  0.00000000000E+00 0.  1.
         24    2    1    2    0    0 -0.23545709932E+01 -0.97305717359E+02 -0.63506352848E+03  0.64871288741E+03  0.89714984529E+02 0.  0.
         23    2    1    2    0    0  0.11008476986E+02  0.27052266435E+02 -0.13556684718E+03  0.16524190689E+03  0.89852690858E+02 0.  0.
        -11    1    3    3    0    0  0.36692683579E+02 -0.79232235996E+02 -0.36881336919E+03  0.37900844521E+03  0.00000000000E+00 0.  1.
         12    1    3    3    0    0 -0.39047254572E+02 -0.18073481363E+02 -0.26625015930E+03  0.26970444220E+03  0.00000000000E+00 0. -1.
        -11    1    4    4    0    0  0.48116838668E+02  0.19476514620E+02 -0.10279399823E+03  0.11515715721E+03  0.00000000000E+00 0. -1.
         11    1    4    4    0    0 -0.37108361682E+02  0.75757518152E+01 -0.32772848949E+02  0.50084749680E+02  0.00000000000E+00 0.  1.
         -4    1    1    2    0  502 -0.86539059928E+01  0.70253450924E+02 -0.11881458956E+03  0.13830164189E+03  0.00000000000E+00 0.  1.
<scales pt_clust_5="13000.00000" pt_clust_6="13000.00000" pt_clust_7="13000.00000" pt_clust_8="13000.00000" pt_clust_9="70.78444"></scales>
<clustering>
<clus scale="   70.784">  1  9  2 -1</clus>
<clus scale="   89.715">  5  6 -1 -1</clus>
<clus scale="   89.853">  7  8 -1 -1</clus>
<clus scale="  117.156">  2  5  1 -1</clus>
<clus scale="   70.784">  1  5  2 -1</clus>
</clustering>
</event>
<event>
 9    2  0.1723348E-004  0.2494995E+03  0.7546771E-02  0.1147868E+00
          2   -1    0    0  502    0 -0.00000000000E+00  0.00000000000E+00  0.20488887276E+04  0.20488887276E+04  0.00000000000E+00 0. -1.
         21   -1    0    0  501  502  0.00000000000E+00 -0.00000000000E+00 -0.53986033439E+02  0.53986033439E+02  0.00000000000E+00 0. -1.
         24    2    1    2    0    0  0.43526729471E+02  0.57268383354E+02  0.73525085299E+03  0.74309660952E+03  0.80153043259E+02 0.  0.
         23    2    1    2    0    0 -0.25911060464E+03 -0.62083067010E+01  0.85953912619E+03  0.90242301233E+03  0.91558370498E+02 0.  0.
        -13    1    3    3    0    0  0.38595832052E+02  0.72494547905E+02  0.45247225634E+03  0.45986545912E+03  0.00000000000E+00 0.  1.
         14    1    3    3    0    0  0.49308974188E+01 -0.15226164551E+02  0.28277859665E+03  0.28323115040E+03  0.00000000000E+00 0. -1.
        -11    1    4    4    0    0 -0.10472186413E+03 -0.35838093932E+02  0.25922980693E+03  0.28187076933E+03  0.00000000000E+00 0.  1.
         11    1    4    4    0    0 -0.15438874051E+03  0.29629787231E+02  0.60030931926E+03  0.62055224299E+03  0.00000000000E+00 0. -1.
          1    1    1    2  501    0  0.21558387517E+03 -0.51060076653E+02  0.40011271495E+03  0.45735513917E+03  0.00000000000E+00 0. -1.
<scales pt_clust_5="13000.00000" pt_clust_6="13000.00000" pt_clust_7="13000.00000" pt_clust_8="13000.00000" pt_clust_9="232.09274"></scales>
<clustering>
<clus scale="   80.153">  5  6 -1 -1</clus>
<clus scale="   91.558">  7  8 -1 -1</clus>
<clus scale="  107.698">  1  5  2 -1</clus>
<clus scale="  232.093">  2  9  1 -1</clus>
<clus scale="  232.093">  2  5  1 -1</clus>
</clustering>
</event>
<event>
 9    2  0.1723348E-004  0.1049312E+03  0.7546771E-02  0.1272938E+00
          2   -1    0    0  502    0 -0.00000000000E+00  0.00000000000E+00  0.55863534329E+03  0.55863534329E+03  0.00000000000E+00 0. -1.
         21   -1    0    0  501  502  0.00000000000E+00 -0.00000000000E+00 -0.99249869411E+02  0.99249869411E+02  0.00000000000E+00 0.  1.
         24    2    1    2    0    0  0.28640113144E+02 -0.33763003350E+02  0.34891791168E+03  0.36258267873E+03  0.88103878160E+02 0.  0.
         23    2    1    2    0    0  0.15761566821E+02  0.10259798354E+03 -0.19757999081E+02  0.14145696045E+03  0.94047434394E+02 0.  0.
        -13    1    3    3    0    0  0.44238401592E+02 -0.38657381143E+02  0.33766117324E+03  0.34273385769E+03  0.00000000000E+00 0.  1.
         14    1    3    3    0    0 -0.15598288447E+02  0.48943777925E+01  0.11256738444E+02  0.19848821045E+02  0.00000000000E+00 0. -1.
        -11    1    4    4    0    0 -0.17938625050E+02  0.87466743457E+02 -0.41641699643E+02  0.98520336118E+02  0.00000000000E+00 0.  1.
         11    1    4    4    0    0  0.33700191871E+02  0.15131240086E+02  0.21883700562E+02  0.42936624331E+02  0.00000000000E+00 0. -1.
          1    1    1    2  501    0 -0.44401679965E+02 -0.68834980193E+02  0.13022556128E+03  0.15384557352E+03  0.00000000000E+00 0. -1.
<scales pt_clust_5="13000.00000" pt_clust_6="13000.00000" pt_clust_7="13000.00000" pt_clust_8="13000.00000" pt_clust_9="81.91319"></scales>
<clustering>
<clus scale="   81.913">  2  9  1 -1</clus>
<clus scale="   88.104">  5  6 -1 -1</clus>
<clus scale="   94.047">  7  8 -1 -1</clus>
<clus scale="   99.639">  1  5  2 -1</clus>
<clus scale="   81.913">  2  5  1 -1</clus>
</clustering>
</event>
<event>
 9    2  0.1723348E-004  0.1240229E+03  0.7546771E-02  0.1240305E+00
          2   -1    0    0  502    0 -0.00000000000E+00  0.00000000000E+00  0.11619874994E+04  0.11619874994E+04  0.00000000000E+00 0. -1.
         21   -1    0    0  501  502  0.00000000000E+00 -0.00000000000E+00 -0.66978634164E+03  0.66978634164E+03  0.00000000000E+00 0. -1.
         24    2    1    2    0    0 -0.49616659396E+02  0.95284710325E+02  0.95718382020E+03  0.96636875961E+03  0.78273399051E+02 0.  0.
         23    2    1    2    0    0 -0.82504296408E+01 -0.31294144997E+02  0.18554999314E+03  0.20917636490E+03  0.90986584601E+02 0.  0.
        -13    1    3    3    0    0 -0.43591723370E+01  0.21748584637E+02  0.45641755830E+02  0.50746164313E+02  0.00000000000E+00 0.  1.
         14    1    3    3    0    0 -0.45257487059E+02  0.73536125689E+02  0.91154206437E+03  0.91562259530E+03  0.00000000000E+00 0. -1.
        -13    1    4    4    0    0  0.33589589130E+02 -0.25991948075E+02  0.14337016493E+03  0.14952874658E+03  0.00000000000E+00 0.  1.
         13    1    4    4    0    0 -0.41840018770E+02 -0.53021969215E+01  0.42179828214E+02  0.59647618318E+02  0.00000000000E+00 0. -1.
          1    1    1    2  501    0  0.57867089036E+02 -0.63990565329E+02 -0.65053265557E+03  0.65622871654E+03  0.00000000000E+00 0. -1.
<scales pt_clust_5="13000.00000" pt_clust_6="13000.00000" pt_clust_7="13000.00000" pt_clust_8="13000.00000" pt_clust_9="86.27510"></scales>
<clustering>
<clus scale="   78.273">  5  6 -1 -1</clus>
<clus scale="   86.275">  2  9  1 -1</clus>
<clus scale="   90.987">  7  8 -1 -1</clus>
<clus scale="  115.021">  1  5  2 -1</clus>
<clus scale="   86.275">  2  5  1 -1</clus>
</clustering>
</event>
<event>
 9    2  0.1723348E-004  0.1747610E+03  0.7546771E-02  0.1174314E+00
         21   -1    0    0  501  502  0.00000000000E+00  0.00000000000E+00  0.53858093512E+02  0.53858093512E+02  0.00000000000E+00 0.  1.
          2   -1    0    0  502    0 -0.00000000000E+00 -0.00000000000E+00 -0.11523400426E+04  0.11523400426E+04  0.00000000000E+00 0. -1.
         23    2    1    2    0    0  0.13061669364E+03  0.13780377054E+03 -0.56618100951E+03  0.60420246498E+03  0.91918895394E+02 0.  0.
         24    2    1    2    0    0 -0.86129408780E+02 -0.37483631517E+02 -0.11117976532E+03  0.16681031726E+03  0.81495055310E+02 0.  0.
        -11    1    4    4    0    0 -0.67128304894E+02  0.68123457608E+01 -0.33351700094E+02  0.75265883851E+02  0.00000000000E+00 0.  1.
         12    1    4    4    0    0 -0.19001103886E+02 -0.44295977278E+02 -0.77828065223E+02  0.91544433409E+02  0.00000000000E+00 0. -1.
        -13    1    3    3    0    0 -0.50417093301E+01  0.39776746795E+02 -0.15872464347E+03  0.16371047879E+03  0.00000000000E+00 0.  1.
         13    1    3    3    0    0  0.13565840297E+03  0.98027023744E+02 -0.40745636603E+03  0.44049198620E+03  0.00000000000E+00 0. -1.
          1    1    1    2  501    0 -0.44487284864E+02 -0.10032013902E+03 -0.42112117422E+03  0.43518535382E+03  0.00000000000E+00 0. -1.
<scales pt_clust_5="13000.00000" pt_clust_6="13000.00000" pt_clust_7="13000.00000" pt_clust_8="13000.00000" pt_clust_9="109.74179"></scales>
<clustering>
<clus scale="   81.495">  5  6 -1 -1</clus>
<clus scale="   91.919">  7  8 -1 -1</clus>
<clus scale="  109.742">  1  9  2 -1</clus>
<clus scale="  169.510">  1  5  2 -1</clus>
<clus scale="  109.742">  1  5  2 -1</clus>
</clustering>
</event>
<event>
 9    2  0.1723348E-004  0.1608098E+03  0.7546771E-02  0.1214161E+00
         21   -1    0    0  501  502  0.00000000000E+00  0.00000000000E+00  0.11054620384E+04  0.11054620384E+04  0.00000000000E+00 0. -1.
          2   -1    0    0  502    0 -0.00000000000E+00 -0.00000000000E+00 -0.38042747358E+02  0.38042747358E+02  0.00000000000E+00 0. -1.
         24    2    1    2    0    0 -0.32728695292E+02 -0.28790472164E+02  0.23097066947E+03  0.24816356244E+03  0.79609326013E+02 0.  0.
         23    2    1    2    0    0 -0.47348817852E+02  0.12814196865E+03  0.64173957166E+03  0.66254358139E+03  0.92043710970E+02 0.  0.
        -11    1    3    3    0    0 -0.54627052213E+02 -0.13274011882E+02  0.10234949353E+03  0.11677214158E+03  0.00000000000E+00 0.  1.
         12    1    3    3    0    0  0.21898356921E+02 -0.15516460282E+02  0.12862117594E+03  0.13139142086E+03  0.00000000000E+00 0. -1.
        -13    1    4    4    0    0 -0.13646532343E+02  0.12909950514E+03  0.53900329052E+03  0.55441632125E+03  0.00000000000E+00 0. -1.
         13    1    4    4    0    0 -0.33702285509E+02 -0.95753648404E+00  0.10273628113E+03  0.10812726014E+03  0.00000000000E+00 0.  1.
          1    1    1    2  501    0  0.80077513144E+02 -0.99351496491E+02  0.19470904994E+03  0.23279764194E+03  0.00000000000E+00 0. -1.
<scales pt_clust_5="13000.00000" pt_clust_6="13000.00000" pt_clust_7="13000.00000" pt_clust_8="13000.00000" pt_clust_9="131.86263"></scales>
<clustering>
<clus scale="   79.609">  5  6 -1 -1</clus>
<clus scale="   90.762">  2  5  1 -1</clus>
<clus scale="   92.044">  7  8 -1 -1</clus>
<clus scale="  131.863">  1  9  2 -1</clus>
<clus scale="  131.863">  1  5  2 -1</clus>
</clustering>
</event>
<event>
 9    2  0.1723348E-004  0.1141648E+03  0.7546771E-02  0.1260245E+00
         21   -1    0    0  501  502  0.00000000000E+00  0.00000000000E+00  0.72622630526E+02  0.72622630526E+02  0.00000000000E+00 0. -1.
          2   -1    0    0  502    0 -0.00000000000E+00 -0.00000000000E+00 -0.10703217106E+04  0.10703217106E+04  0.00000000000E+00 0. -1.
         24    2    1    2    0    0  0.38899695263E+02 -0.46233665063E+02 -0.93771052204E+03  0.94306058129E+03  0.80071834984E+02 0.  0.
         23    2    1    2    0    0  0.26668411246E+02  0.38677199068E+02  0.26738482905E+01  0.10887357394E+03  0.98179304093E+02 0.  0.
        -13    1    3    3    0    0 -0.30342684310E+01 -0.23307909608E+02 -0.66347004732E+02  0.70387431208E+02  0.00000000000E+00 0.  1.
         14    1    3    3    0    0  0.41933963694E+02 -0.22925755455E+02 -0.87136351731E+03  0.87267315008E+03  0.00000000000E+00 0. -1.
        -13    1    4    4    0    0  0.37345560869E+02  0.65956340005E+02  0.14698614766E+02  0.77207376458E+02  0.00000000000E+00 0. -1.
         13    1    4    4    0    0 -0.10677149623E+02 -0.27279140937E+02 -0.12024766475E+02  0.31666197485E+02  0.00000000000E+00 0.  1.
          1    1    1    2  501    0 -0.65568106509E+02  0.75564659947E+01 -0.62662406310E+02  0.91010185880E+02  0.00000000000E+00 0. -1.
<scales pt_clust_5="13000.00000" pt_clust_6="13000.00000" pt_clust_7="13000.00000" pt_clust_8="13000.00000" pt_clust_9="66.00210"></scales>
<clustering>
<clus scale="   66.002">  1  9  2 -1</clus>
<clus scale="   80.072">  5  6 -1 -1</clus>
<clus scale="   98.179">  7  8 -1 -1</clus>
<clus scale="   99.025">  2  5  1 -1</clus>
<clus scale="   66.002">  1  5  2 -1</clus>
</clustering>
</event>
<event>
 9    2  0.1723348E-004  0.1167008E+03  0.7546771E-02  0.1252437E+00
         21   -1    0    0  501  502  0.00000000000E+00  0.00000000000E+00  0.21216297420E+03  0.21216297420E+03  0.00000000000E+00 0.  1.
          2   -1    0    0  502    0 -0.00000000000E+00 -0.00000000000E+00 -0.20694092851E+03  0.20694092851E+03  0.00000000000E+00 0. -1.
         23    2    1    2    0    0 -0.67857316322E+02  0.45054913416E+02 -0.23905087828E+02  0.12475092770E+03  0.91415426143E+02 0.  0.
         24    2    1    2    0    0  0.76901986678E+02  0.55826154636E+02  0.10898020208E+03  0.16537503693E+03  0.80260471580E+02 0.  0.
        -13    1    4    4    0    0  0.75449082907E+02  0.71809599361E+02  0.76790538556E+02  0.12940621888E+03  0.00000000000E+00 0.  1.
         14    1    4    4    0    0  0.14529037710E+01 -0.15983444725E+02  0.32189663522E+02  0.35968818055E+02  0.00000000000E+00 0. -1.
        -11    1    3    3    0    0 -0.94653713885E+01 -0.27560046254E+02 -0.80478951981E+01  0.30231077092E+02  0.00000000000E+00 0.  1.
         11    1    3    3    0    0 -0.58391944933E+02  0.72614959670E+02 -0.15857192630E+02  0.94519850609E+02  0.00000000000E+00 0. -1.
          1    1    1    2  501    0 -0.90446703560E+01 -0.10088106805E+03 -0.79853068556E+02  0.12897793808E+03  0.00000000000E+00 0. -1.
<scales pt_clust_5="13000.00000" pt_clust_6="13000.00000" pt_clust_7="13000.00000" pt_clust_8="13000.00000" pt_clust_9="101.28577"></scales>
<clustering>
<clus scale="   80.260">  5  6 -1 -1</clus>
<clus scale="   91.415">  7  8 -1 -1</clus>
<clus scale="  101.286">  1  9  2 -1</clus>
<clus scale="  108.185">  1  5  2 -1</clus>
<clus scale="  101.286">  1  5  2 -1</clus>
</clustering>
</event>
<event>
 9    2  0.1723348E-004  0.1293753E+03  0.7546771E-02  0.1245203E+00
         21   -1    0    0  501  502  0.00000000000E+00  0.00000000000E+00  0.63295705136E+02  0.63295705136E+02  0.00000000000E+00 0. -1.
          2   -1    0    0  502    0 -0.00000000000E+00 -0.00000000000E+00 -0.42512888351E+03  0.42512888351E+03  0.00000000000E+00 0. -1.
         24    2    1    2    0    0  0.28456550308E+02  0.33397999082E+02 -0.16367012185E+03  0.18764477209E+03  0.80606762155E+02 0.  0.
         23    2    1    2    0    0 -0.24168402052E+01  0.72653323913E+02 -0.10710804031E+03  0.15859695688E+03  0.91632504271E+02 0.  0.
        -11    1    3    3    0    0  0.32719292407E+02  0.29789501875E+01 -0.15505453651E+02  0.36329675649E+02  0.00000000000E+00 0.  1.
         12    1    3    3    0    0 -0.42627420986E+01  0.30419048894E+02 -0.14816466820E+03  0.15131509644E+03  0.00000000000E+00 0. -1.
        -13    1    4    4    0    0 -0.26446496374E+02  0.89095582824E+01  0.40759694176E+01  0.28203030439E+02  0.00000000000E+00 0. -1.
         13    1    4    4    0    0  0.24029656169E+02  0.63743765630E+02 -0.11118400973E+03  0.13039392644E+03  0.00000000000E+00 0.  1.
          1    1    1    2  501    0 -0.26039710103E+02 -0.10605132299E+03 -0.91055016210E+02  0.14218285969E+03  0.00000000000E+00 0. -1.
<scales pt_clust_5="13000.00000" pt_clust_6="13000.00000" pt_clust_7="13000.00000" pt_clust_8="13000.00000" pt_clust_9="91.33155"></scales>
<clustering>
<clus scale="   80.607">  5  6 -1 -1</clus>
<clus scale="   91.633">  7  8 -1 -1</clus>
<clus scale="   91.775">  2  5  1 -1</clus>
<clus scale="   91.332">  1  9  2 -1</clus>
<clus scale="   91.332">  1  5  2 -1</clus>
</clustering>
</event>
<event>
 9    2  0.1723348E-004  0.1391077E+03  0.7546771E-02  0.1224202E+00
          2   -1    0    0  502    0 -0.00000000000E+00  0.00000000000E+00  0.94153695391E+03  0.94153695391E+03  0.00000000000E+00 0. -1.
         21   -1    0    0  501  502  0.00000000000E+00 -0.00000000000E+00 -0.44945147455E+02  0.44945147455E+02  0.00000000000E+00 0. -1.
         23    2    1    2    0    0  0.49078900923E+02  0.22310620774E+02  0.45735454832E+03  0.47123413295E+03  0.99909573440E+02 0.  0.
         24    2    1    2    0    0  0.14743818272E+02  0.88109733241E+02  0.31611186647E+03  0.33797457465E+03  0.79494626984E+02 0.  0.
        -13    1    4    4    0    0  0.31238991754E+02  0.86422548995E+02  0.19311133838E+03  0.21386145186E+03  0.00000000000E+00 0.  1.
         14    1    4    4    0    0 -0.16495173482E+02  0.16871842459E+01  0.12300052809E+03  0.12411312279E+03  0.00000000000E+00 0. -1.
        -13    1    3    3    0    0 -0.22737521685E+02  0.12111860577E+02  0.39692866693E+02  0.47320352126E+02  0.00000000000E+00 0.  1.
         13    1    3    3    0    0  0.71816422608E+02  0.10198760197E+02  0.41766168163E+03  0.42391378082E+03  0.00000000000E+00 0. -1.
          1    1    1    2  501    0 -0.63822719195E+02 -0.11042035402E+03  0.12312539166E+03  0.17727339377E+03  0.00000000000E+00 0. -1.
<scales pt_clust_5="13000.00000" pt_clust_6="13000.00000" pt_clust_7="13000.00000" pt_clust_8="13000.00000" pt_clust_9="114.15589"></scales>
<clustering>
<clus scale="   79.495">  5  6 -1 -1</clus>
<clus scale="   99.910">  7  8 -1 -1</clus>
<clus scale="  113.527">  1  7  2 -1</clus>
<clus scale="  114.156">  2  9  1 -1</clus>
<clus scale="  114.156">  2  5  1 -1</clus>
</clustering>
</event>
<event>
 9    2  0.1723348E-004  0.1567039E+03  0.7546771E-02  0.1213887E+00
          2   -1    0    0  502    0 -0.00000000000E+00  0.00000000000E+00  0.76507348592E+03  0.76507348592E+03  0.00000000000E+00 0. -1.
         21   -1    0    0  501  502  0.00000000000E+00 -0.00000000000E+00 -0.73330929172E+02  0.73330929172E+02  0.00000000000E+00 0. -1.
         24    2    1    2    0    0 -0.35869639845E+02  0.47658260088E+02  0.11856159410E+02  0.99366234805E+02  0.78582054479E+02 0.  0.
         23    2    1    2    0    0 -0.33306840344E+02  0.86341959169E+02  0.40283454303E+03  0.42360328344E+03  0.92735069732E+02 0.  0.
        -13    1    3    3    0    0 -0.33597969486E+02  0.66706583982E+02  0.21735675797E+02  0.77788376397E+02  0.00000000000E+00 0.  1.
         14    1    3    3    0    0 -0.22716703586E+01 -0.19048323895E+02 -0.98795163867E+01  0.21577858407E+02  0.00000000000E+00 0. -1.
        -13    1    4    4    0    0  0.18877271945E+02  0.67073312888E+02  0.16061597806E+03  0.17507904817E+03  0.00000000000E+00 0.  1.
         13    1    4    4    0    0 -0.52184112288E+02  0.19268646282E+02  0.24221856497E+03  0.24852423527E+03  0.00000000000E+00 0. -1.
          1    1    1    2  501    0  0.69176480188E+02 -0.13400021926E+03  0.27705185431E+03  0.31543489685E+03  0.00000000000E+00 0. -1.
<scales pt_clust_5="13000.00000" pt_clust_6="13000.00000" pt_clust_7="13000.00000" pt_clust_8="13000.00000" pt_clust_9="126.31832"></scales>
<clustering>
<clus scale="   78.582">  5  6 -1 -1</clus>
<clus scale="   92.735">  7  8 -1 -1</clus>
<clus scale="   98.656">  1  5  2 -1</clus>
<clus scale="  126.318">  2  9  1 -1</clus>
<clus scale="  126.318">  2  5  1 -1</clus>
</clustering>
</event>
<event>
 9    2  0.1723348E-004  0.1539029E+03  0.7546771E-02  0.1197624E+00
         21   -1    0    0  501  502  0.00000000000E+00  0.00000000000E+00  0.99199184646E+02  0.99199184646E+02  0.00000000000E+00 0. -1.
          2   -1    0    0  502    0 -0.00000000000E+00 -0.00000000000E+00 -0.70789523251E+03  0.70789523251E+03  0.00000000000E+00 0. -1.
         24    2    1    2    0    0  0.48108617513E+02  0.12575388549E+03 -0.39168998512E+03  0.42218799412E+03  0.81811852036E+02 0.  0.
         23    2    1    2    0    0 -0.50570404814E+02 -0.97937918556E+02 -0.28066709124E+03  0.31539013025E+03  0.92453861033E+02 0.  0.
        -11    1    3    3    0    0 -0.22287089804E+02  0.19433875162E+02 -0.61746221363E+02  0.68461563876E+02  0.00000000000E+00 0.  1.
         12    1    3    3    0    0  0.70395707317E+02  0.10632001033E+03 -0.32994376376E+03  0.35372643024E+03  0.00000000000E+00 0. -1.
        -13    1    4    4    0    0 -0.27087218946E+02 -0.10081816917E+03 -0.26992035207E+03  0.28940459072E+03  0.00000000000E+00 0.  1.
         13    1    4    4    0    0 -0.23483185867E+02  0.28802506182E+01 -0.10746739171E+02  0.25985539535E+02  0.00000000000E+00 0. -1.
          1    1    1    2  501    0  0.24617873012E+01 -0.27815966934E+02  0.63661028503E+02  0.69516292790E+02  0.00000000000E+00 0. -1.
<scales pt_clust_5="13000.00000" pt_clust_6="13000.00000" pt_clust_7="13000.00000" pt_clust_8="13000.00000" pt_clust_9="27.92469"></scales>
<clustering>
<clus scale="   27.925">  1  9  2 -1</clus>
<clus scale="   81.812">  5  6 -1 -1</clus>
<clus scale="   92.454">  7  8 -1 -1</clus>
<clus scale="  147.755">  2  5  1 -1</clus>
<clus scale="   27.925">  1  5  2 -1</clus>
</clustering>
</event>
<event>
 9    2  0.1723348E-004  0.1057780E+03  0.7546771E-02  0.1270696E+00
         21   -1    0    0  501  502  0.00000000000E+00  0.00000000000E+00  0.23235068147E+02  0.23235068147E+02  0.00000000000E+00 0.  1.
          2   -1    0    0  502    0 -0.00000000000E+00 -0.00000000000E+00 -0.77062100647E+03  0.77062100647E+03  0.00000000000E+00 0. -1.
         24    2    1    2    0    0 -0.39181487979E+02  0.32474855562E+02 -0.23443684527E+03  0.25253628644E+03  0.78893195576E+02 0.  0.
         23    2    1    2    0    0  0.69437876423E+02 -0.45763944085E+02 -0.25355649437E+03  0.27983065041E+03  0.84251645747E+02 0.  0.
        -13    1    3    3    0    0 -0.11318497416E+02  0.43985034933E+02 -0.58631894518E+02  0.74165293343E+02  0.00000000000E+00 0.  1.
         14    1    3    3    0    0 -0.27862990563E+02 -0.11510179371E+02 -0.17580495075E+03  0.17837099310E+03  0.00000000000E+00 0. -1.
        -13    1    4    4    0    0  0.63520443692E+02 -0.65269269693E+02 -0.16024386435E+03  0.18431771590E+03  0.00000000000E+00 0.  1.
         13    1    4    4    0    0  0.59174327314E+01  0.19505325608E+02 -0.93312630024E+02  0.95512934512E+02  0.00000000000E+00 0. -1.
          1    1    1    2  501    0 -0.30256388444E+02  0.13289088523E+02 -0.25939259869E+03  0.26148913777E+03  0.00000000000E+00 0. -1.
<scales pt_clust_5="13000.00000" pt_clust_6="13000.00000" pt_clust_7="13000.00000" pt_clust_8="13000.00000" pt_clust_9="33.04618"></scales>
<clustering>
<clus scale="   33.046">  1  9  2 -1</clus>
<clus scale="   78.893">  5  6 -1 -1</clus>
<clus scale="   84.252">  7  8 -1 -1</clus>
<clus scale="  101.562">  2  5  1 -1</clus>
<clus scale="   33.046">  1  5  2 -1</clus>
</clustering>
</event>
<event>
 9    2  0.1723348E-004  0.1820758E+03  0.7546771E-02  0.1185466E+00
         21   -1    0    0  501  502  0.00000000000E+00  0.00000000000E+00  0.77567911270E+03  0.77567911270E+03  0.00000000000E+00 0.  1.
         -3   -1    0    0    0  501 -0.00000000000E+00 -0.00000000000E+00 -0.15179065903E+03  0.15179065903E+03  0.00000000000E+00 0.  1.
         23    2    1    2    0    0  0.70502715903E+02 -0.22654371612E+02  0.22045282170E+02  0.11871329234E+03  0.90127675041E+02 0.  0.
         24    2    1    2    0    0 -0.28794616165E+02  0.16667425282E+03  0.62941832425E+03  0.65630425470E+03  0.77190746602E+02 0.  0.
        -13    1    4    4    0    0 -0.78260333259E+01  0.11957218640E+03  0.53955230562E+03  0.55269833097E+03  0.00000000000E+00 0.  1.
         14    1    4    4    0    0 -0.20968582839E+02  0.47102066417E+02  0.89866018635E+02  0.10360592373E+03  0.00000000000E+00 0. -1.
        -13    1    3    3    0    0  0.31367542043E+02  0.32592002996E+02  0.23541082246E+02  0.50993567305E+02  0.00000000000E+00 0.  1.
         13    1    3    3    0    0  0.39135173860E+02 -0.55246374608E+02 -0.14958000758E+01  0.67719725031E+02  0.00000000000E+00 0. -1.
         -4    1    1    2    0  502 -0.41708099738E+02 -0.14401988120E+03 -0.27575152749E+02  0.15245222470E+03  0.00000000000E+00 0.  1.
<scales pt_clust_5="13000.00000" pt_clust_6="13000.00000" pt_clust_7="13000.00000" pt_clust_8="13000.00000" pt_clust_9="164.90364"></scales>
<clustering>
<clus scale="   77.191">  5  6 -1 -1</clus>
<clus scale="   90.128">  7  8 -1 -1</clus>
<clus scale="  116.648">  2  7  1 -1</clus>
<clus scale="  164.904">  1  9  2 -1</clus>
<clus scale="  164.904">  1  5  2 -1</clus>
</clustering>
</event>
<event>
 9    2  0.2976397E-004  0.9280843E+02  0.7546771E-02  0.1303372E+00
          2   -1    0    0  502    0 -0.00000000000E+00  0.00000000000E+00  0.61287538643E+03  0.61287538643E+03  0.00000000000E+00 0. -1.
         21   -1    0    0  501  502  0.00000000000E+00 -0.00000000000E+00 -0.10752107004E+03  0.10752107004E+03  0.00000000000E+00 0.  1.
         24    2    1    2    0    0  0.64687550851E+01  0.13859634532E+02  0.52108460787E+03  0.52741428982E+03  0.80017062478E+02 0.  0.
         23    2    1    2    0    0 -0.30005077367E-01  0.17078246861E+02 -0.79020007791E+02  0.12224180902E+03  0.91690952796E+02 0.  0.
        -11    1    3    3    0    0  0.10139991462E+02 -0.28523113050E+02  0.10855043949E+03  0.11269243683E+03  0.00000000000E+00 0.  1.
         12    1    3    3    0    0 -0.36712363769E+01  0.42382747582E+02  0.41253416838E+03  0.41472185300E+03  0.00000000000E+00 0. -1.
        -11    1    4    4    0    0  0.42524708655E+02  0.25846367985E+02 -0.44295450325E+02  0.66621862055E+02  0.00000000000E+00 0.  1.
         11    1    4    4    0    0 -0.42554713733E+02 -0.87681211247E+01 -0.34724557467E+02  0.55619946963E+02  0.00000000000E+00 0. -1.
          1    1    1    2  501    0 -0.64387500078E+01 -0.30937881393E+02  0.63289716305E+02  0.70740357623E+02  0.00000000000E+00 0. -1.
<scales pt_clust_5="13000.00000" pt_clust_6="13000.00000" pt_clust_7="13000.00000" pt_clust_8="13000.00000" pt_clust_9="31.60081"></scales>
<clustering>
<clus scale="   31.601">  2  9  1 -1</clus>
<clus scale="   80.017">  5  6 -1 -1</clus>
<clus scale="   81.295">  1  5  2 -1</clus>
<clus scale="   91.691">  7  8 -1 -1</clus>
<clus scale="   31.601">  2  5  1 -1</clus>
</clustering>
</event>
<event>
 9    2  0.1723348E-004  0.1332388E+03  0.7546771E-02  0.1225430E+00
          2   -1    0    0  502    0 -0.00000000000E+00  0.00000000000E+00  0.39270330625E+03  0.39270330625E+03  0.00000000000E+00 0. -1.
         21   -1    0    0  501  502  0.00000000000E+00 -0.00000000000E+00 -0.12741881593E+03  0.12741881593E+03  0.00000000000E+00 0.  1.
         23    2    1    2    0    0 -0.34685154786E+02  0.90642311781E+02  0.32050856481E+03  0.34721567852E+03  0.91727305886E+02 0.  0.
         24    2    1    2    0    0  0.54755978324E+02 -0.79701000045E+02 -0.15312537226E+02  0.12691208459E+03  0.80757271177E+02 0.  0.
        -13    1    4    4    0    0  0.57616332588E+02 -0.54163529278E+02 -0.42272068511E+02  0.89667482740E+02  0.00000000000E+00 0.  1.
         14    1    4    4    0    0 -0.28603542645E+01 -0.25537470767E+02  0.26959531285E+02  0.37244601848E+02  0.00000000000E+00 0. -1.
        -11    1    3    3    0    0 -0.39910178839E+02  0.22254381294E+02  0.22522587386E+03  0.22981465166E+03  0.00000000000E+00 0. -1.
         11    1    3    3    0    0  0.52250240530E+01  0.68387930487E+02  0.95282690947E+02  0.11740102686E+03  0.00000000000E+00 0.  1.
          1    1    1    2  501    0 -0.20070823537E+02 -0.10941311736E+02 -0.39911537260E+02  0.45994359072E+02  0.00000000000E+00 0. -1.
<scales pt_clust_5="13000.00000" pt_clust_6="13000.00000" pt_clust_7="13000.00000" pt_clust_8="13000.00000" pt_clust_9="22.85936"></scales>
<clustering>
<clus scale="   22.859">  2  9  1 -1</clus>
<clus scale="   80.757">  5  6 -1 -1</clus>
<clus scale="   91.727">  7  8 -1 -1</clus>
<clus scale="  125.938">  2  5  1 -1</clus>
<clus scale="   22.859">  2  5  1 -1</clus>
</clustering>
</event>
<event>
 9    2  0.2078863E-004  0.1265769E+03  0.7546771E-02  0.1248348E+00
          2   -1    0    0  502    0 -0.00000000000E+00  0.00000000000E+00  0.74877188025E+03  0.74877188025E+03  0.00000000000E+00 0. -1.
         21   -1    0    0  501  502  0.00000000000E+00 -0.00000000000E+00 -0.10403663086E+03  0.10403663086E+03  0.00000000000E+00 0. -1.
         23    2    1    2    0    0  0.29912289970E+02  0.40097637545E+02  0.36374835894E+03  0.38545941943E+03  0.11731807093E+03 0.  0.
         24    2    1    2    0    0 -0.43904172652E+02  0.17205029666E+01 -0.69642610330E+02  0.11395755743E+03  0.78776235097E+02 0.  0.
        -11    1    4    4    0    0  0.10699874113E+02 -0.23639118465E+02 -0.65776048449E+01  0.26768640483E+02  0.00000000000E+00 0.  1.
         12    1    4    4    0    0 -0.54604046765E+02  0.25359621431E+02 -0.63065005485E+02  0.87188916951E+02  0.00000000000E+00 0. -1.
        -13    1    3    3    0    0  0.19191359882E+02  0.66010730120E+02  0.34486784918E+03  0.35165261009E+03  0.00000000000E+00 0.  1.
         13    1    3    3    0    0  0.10720930088E+02 -0.25913092575E+02  0.18880509755E+02  0.33806809334E+02  0.00000000000E+00 0. -1.
          1    1    1    2  501    0  0.13991882683E+02 -0.41818140512E+02  0.35062950078E+03  0.35339153424E+03  0.00000000000E+00 0. -1.
<scales pt_clust_5="13000.00000" pt_clust_6="13000.00000" pt_clust_7="13000.00000" pt_clust_8="13000.00000" pt_clust_9="44.09684"></scales>
<clustering>
<clus scale="   44.097">  2  9  1 -1</clus>
<clus scale="   78.776">  5  6 -1 -1</clus>
<clus scale="   91.999">  2  5  1 -1</clus>
<clus scale="  117.318">  7  8 -1 -1</clus>
<clus scale="   44.097">  2  5  1 -1</clus>
</clustering>
</event>
<event>
 9    2  0.1723348E-004  0.1035407E+03  0.7546771E-02  0.1278301E+00
         21   -1    0    0  501  502  0.00000000000E+00  0.00000000000E+00  0.50856314515E+02  0.50856314515E+02  0.00000000000E+00 0. -1.
          2   -1    0    0  502    0 -0.00000000000E+00 -0.00000000000E+00 -0.46979717630E+03  0.46979717630E+03  0.00000000000E+00 0. -1.
         23    2    1    2    0    0  0.28665621545E+02  0.51961267574E+02 -0.29973943176E+03  0.31879199416E+03  0.90900590777E+02 0.  0.
         24    2    1    2    0    0  0.54395773392E+01 -0.16918326044E+02 -0.96633081823E+01  0.81904118894E+02  0.79366784041E+02 0.  0.
        -13    1    4    4    0    0  0.24975277017E+02  0.19330763409E+02 -0.22493215845E+02  0.38773542979E+02  0.00000000000E+00 0.  1.
         14    1    4    4    0    0 -0.19535699678E+02 -0.36249089454E+02  0.12829907663E+02  0.43130575915E+02  0.00000000000E+00 0. -1.
        -11    1    3    3    0    0  0.25596908564E+02 -0.22420058249E+02 -0.88262307907E+02  0.94594374764E+02  0.00000000000E+00 0.  1.
         11    1    3    3    0    0  0.30687129811E+01  0.74381325824E+02 -0.21147712386E+03  0.22419761940E+03  0.00000000000E+00 0. -1.
          1    1    1    2  501    0 -0.34105198884E+02 -0.35042941530E+02 -0.10953812184E+03  0.11995737775E+03  0.00000000000E+00 0. -1.
<scales pt_clust_5="13000.00000" pt_clust_6="13000.00000" pt_clust_7="13000.00000" pt_clust_8="13000.00000" pt_clust_9="48.89964"></scales>
<clustering>
<clus scale="   48.900">  1  9  2 -1</clus>
<clus scale="   79.367">  5  6 -1 -1</clus>
<clus scale="   90.901">  7  8 -1 -1</clus>
<clus scale="   93.578">  1  5  2 -1</clus>
<clus scale="   48.900">  1  5  2 -1</clus>
</clustering>
</event>
<event>
 9    2  0.1723348E-004  0.9937907E+02  0.7546771E-02  0.1285132E+00
         21   -1    0    0  501  502  0.00000000000E+00  0.00000000000E+00  0.23123570132E+03  0.23123570132E+03  0.00000000000E+00 0. -1.
          4   -1    0    0  502    0 -0.00000000000E+00 -0.00000000000E+00 -0.14688404809E+03  0.14688404809E+03  0.00000000000E+00 0. -1.
         23    2    1    2    0    0  0.37040820673E+02  0.47103140536E+02 -0.77254366174E+02  0.13215029584E+03  0.88908578630E+02 0.  0.
         24    2    1    2    0    0 -0.14378711546E+02 -0.13074914266E+02  0.49894330925E+01  0.84104551618E+02  0.81676070127E+02 0.  0.
        -13    1    4    4    0    0 -0.45651139043E+02  0.63097609165E+01 -0.39093168418E+01  0.46250646881E+02  0.00000000000E+00 0.  1.
         14    1    4    4    0    0  0.31272427496E+02 -0.19384675183E+02  0.88987499343E+01  0.37853904737E+02  0.00000000000E+00 0. -1.
        -11    1    3    3    0    0  0.23769700470E+02 -0.94290278007E+01  0.99012721550E+01  0.27421531977E+02  0.00000000000E+00 0.  1.
         11    1    3    3    0    0  0.13271120203E+02  0.56532168337E+02 -0.87155638329E+02  0.10472876387E+03  0.00000000000E+00 0. -1.
          3    1    1    2  501    0 -0.22662109127E+02 -0.34028226270E+02  0.15661658632E+03  0.16186490195E+03  0.00000000000E+00 0. -1.
<scales pt_clust_5="13000.00000" pt_clust_6="13000.00000" pt_clust_7="13000.00000" pt_clust_8="13000.00000" pt_clust_9="40.88388"></scales>
<clustering>
<clus scale="   40.884">  1  9  2 -1</clus>
<clus scale="   81.676">  5  6 -1 -1</clus>
<clus scale="   88.909">  7  8 -1 -1</clus>
<clus scale="   92.965">  1  5  2 -1</clus>
<clus scale="   40.884">  1  5  2 -1</clus>
</clustering>
</event>
<event>
 9    2  0.1723348E-004  0.1153374E+03  0.7546771E-02  0.1251608E+00
          2   -1    0    0  502    0 -0.00000000000E+00  0.00000000000E+00  0.54272063364E+02  0.54272063364E+02  0.00000000000E+00 0. -1.
         21   -1    0    0  501  502  0.00000000000E+00 -0.00000000000E+00 -0.47148837878E+03  0.47148837878E+03  0.00000000000E+00 0.  1.
         23    2    1    2    0    0 -0.84505426941E+02 -0.35432912196E+02 -0.13469300744E+03  0.18229268182E+03  0.81803160963E+02 0.  0.
         24    2    1    2    0    0  0.25537679639E+02  0.83831613190E+02 -0.15970419388E+03  0.19888503567E+03  0.79811749888E+02 0.  0.
        -13    1    4    4    0    0 -0.17921984413E+02  0.69235604535E+02 -0.83374581020E+02  0.10984574284E+03  0.00000000000E+00 0.  1.
         14    1    4    4    0    0  0.43459664052E+02  0.14596008656E+02 -0.76329612856E+02  0.89039292826E+02  0.00000000000E+00 0. -1.
        -13    1    3    3    0    0  0.63539324969E+01 -0.18973548241E+02 -0.60862190697E+02  0.64066951289E+02  0.00000000000E+00 0.  1.
         13    1    3    3    0    0 -0.90859359438E+02 -0.16459363955E+02 -0.73830816746E+02  0.11822573054E+03  0.00000000000E+00 0. -1.
          1    1    1    2  501    0  0.58967747302E+02 -0.48398700995E+02 -0.12281911410E+03  0.14458272465E+03  0.00000000000E+00 0. -1.
<scales pt_clust_5="13000.00000" pt_clust_6="13000.00000" pt_clust_7="13000.00000" pt_clust_8="13000.00000" pt_clust_9="76.28650"></scales>
<clustering>
<clus scale="   76.286">  2  9  1 -1</clus>
<clus scale="   79.812">  5  6 -1 -1</clus>
<clus scale="   81.803">  7  8 -1 -1</clus>
<clus scale="  113.934">  2  5  1 -1</clus>
<clus scale="   76.286">  2  5  1 -1</clus>
</clustering>
</event>
<event>
 9    2  0.1723348E-004  0.4398983E+03  0.7546771E-02  0.1030969E+00
          2   -1    0    0  502    0 -0.00000000000E+00  0.00000000000E+00  0.13654940133E+04  0.13654940133E+04  0.00000000000E+00 0. -1.
         21   -1    0    0  501  502  0.00000000000E+00 -0.00000000000E+00 -0.17934714145E+03  0.17934714145E+03  0.00000000000E+00 0. -1.
         24    2    1    2    0    0 -0.32808044813E+03 -0.31988349558E+03  0.76938261017E+03  0.89903064526E+03  0.79650920255E+02 0.  0.
         23    2    1    2    0    0  0.30318099576E+03  0.25230570930E+03  0.40502135467E+03  0.57284040745E+03  0.92341472448E+02 0.  0.
        -13    1    3    3    0    0 -0.63261569369E+02 -0.10349482984E+03  0.16802979642E+03  0.20723710683E+03  0.00000000000E+00 0.  1.
         14    1    3    3    0    0 -0.26481887876E+03 -0.21638866574E+03  0.60135281375E+03  0.69179353843E+03  0.00000000000E+00 0. -1.
        -13    1    4    4    0    0  0.15815739374E+03  0.18953100380E+03  0.25607186403E+03  0.35568042137E+03  0.00000000000E+00 0. -1.
         13    1    4    4    0    0  0.14502360202E+03  0.62774705494E+02  0.14894949064E+03  0.21715998608E+03  0.00000000000E+00 0.  1.
          1    1    1    2  501    0  0.24899452361E+02  0.67577786281E+02  0.11742907006E+02  0.72970102038E+02  0.00000000000E+00 0. -1.
<scales pt_clust_5="13000.00000" pt_clust_6="13000.00000" pt_clust_7="13000.00000" pt_clust_8="13000.00000" pt_clust_9="72.01902"></scales>
<clustering>
<clus scale="   72.019">  2  9  1 -1</clus>
<clus scale="   79.651">  5  6 -1 -1</clus>
<clus scale="   92.341">  7  8 -1 -1</clus>
<clus scale="  437.410">  1  5  2 -1</clus>
<clus scale="   72.019">  2  5  1 -1</clus>
</clustering>
</event>
<event>
 9    2  0.1723348E-004  0.9191861E+02  0.7546771E-02  0.1304694E+00
          2   -1    0    0  502    0 -0.00000000000E+00  0.00000000000E+00  0.32838613521E+03  0.32838613521E+03  0.00000000000E+00 0. -1.
         21   -1    0    0  501  502  0.00000000000E+00 -0.00000000000E+00 -0.82367177885E+02  0.82367177885E+02  0.00000000000E+00 0. -1.
         24    2    1    2    0    0 -0.54086848142E+01  0.10084618081E+02  0.22672436208E+03  0.24074673844E+03  0.80150497905E+02 0.  0.
         23    2    1    2    0    0  0.57423076258E+02  0.28294931883E+01  0.37139323896E+02  0.11352024420E+03  0.90565450066E+02 0.  0.
        -11    1    3    3    0    0 -0.36941772591E+02  0.25816641692E+02  0.14217968791E+03  0.14915179250E+03  0.00000000000E+00 0.  1.
         12    1    3    3    0    0  0.31533087777E+02 -0.15732023611E+02  0.84544674169E+02  0.91594945941E+02  0.00000000000E+00 0. -1.
        -11    1    4    4    0    0 -0.10935257485E+02  0.30298359382E+02  0.30832262460E+01  0.32358564888E+02  0.00000000000E+00 0.  1.
         11    1    4    4    0    0  0.68358333743E+02 -0.27468866194E+02  0.34056097650E+02  0.81161679315E+02  0.00000000000E+00 0. -1.
          1    1    1    2  501    0 -0.52014391444E+02 -0.12914111269E+02 -0.17844728655E+02  0.56486330452E+02  0.00000000000E+00 0. -1.
<scales pt_clust_5="13000.00000" pt_clust_6="13000.00000" pt_clust_7="13000.00000" pt_clust_8="13000.00000" pt_clust_9="53.59357"></scales>
<clustering>
<clus scale="   53.594">  2  9  1 -1</clus>
<clus scale="   80.150">  5  6 -1 -1</clus>
<clus scale="   81.676">  1  5  2 -1</clus>
<clus scale="   90.565">  7  8 -1 -1</clus>
<clus scale="   53.594">  2  5  1 -1</clus>
</clustering>
</event>
<event>
 9    2  0.1723348E-004  0.1644617E+03  0.7546771E-02  0.1199388E+00
         21   -1    0    0  501  502  0.00000000000E+00  0.00000000000E+00  0.51685903193E+02  0.51685903193E+02  0.00000000000E+00 0.  1.
          2   -1    0    0  502    0 -0.00000000000E+00 -0.00000000000E+00 -0.16422934256E+04  0.16422934256E+04  0.00000000000E+00 0. -1.
         24    2    1    2    0    0  0.83159087201E+02 -0.17588121665E+02 -0.71589720787E+02  0.13675635074E+03  0.79702167717E+02 0.  0.
         23    2    1    2    0    0 -0.13427381708E+02 -0.13017790582E+03 -0.49144367184E+03  0.51673948379E+03  0.91521744809E+02 0.  0.
        -11    1    3    3    0    0  0.64590150171E+02 -0.48015975075E+02 -0.44345688725E+02  0.91891030411E+02  0.00000000000E+00 0.  1.
         12    1    3    3    0    0  0.18568937030E+02  0.30427853411E+02 -0.27244032062E+02  0.44865320333E+02  0.00000000000E+00 0. -1.
        -13    1    4    4    0    0 -0.28821386310E+02 -0.37795123286E+02 -0.67383943100E+02  0.82460532625E+02  0.00000000000E+00 0. -1.
         13    1    4    4    0    0  0.15394004602E+02 -0.92382782538E+02 -0.42405972874E+03  0.43427895117E+03  0.00000000000E+00 0.  1.
          1    1    1    2  501    0 -0.69731705492E+02  0.14776602749E+03 -0.10275741298E+04  0.10404834943E+04  0.00000000000E+00 0. -1.
<scales pt_clust_5="13000.00000" pt_clust_6="13000.00000" pt_clust_7="13000.00000" pt_clust_8="13000.00000" pt_clust_9="136.64350"></scales>
<clustering>
<clus scale="   79.702">  5  6 -1 -1</clus>
<clus scale="   91.522">  7  8 -1 -1</clus>
<clus scale="  116.521">  2  5  1 -1</clus>
<clus scale="  136.643">  1  9  2 -1</clus>
<clus scale="  136.643">  1  5  2 -1</clus>
</clustering>
</event>
<event>
 9    2  0.1723348E-004  0.9166179E+02  0.7546771E-02  0.1303254E+00
         21   -1    0    0  501  502  0.00000000000E+00  0.00000000000E+00  0.13990656617E+03  0.13990656617E+03  0.00000000000E+00 0. -1.
          4   -1    0    0  502    0 -0.00000000000E+00 -0.00000000000E+00 -0.15393962467E+03  0.15393962467E+03  0.00000000000E+00 0. -1.
         24    2    1    2    0    0  0.42914828070E+01 -0.14844983818E+02 -0.86736831784E+02  0.12043909691E+03  0.82118863287E+02 0.  0.
         23    2    1    2    0    0  0.30234228291E+02  0.37752827302E+02  0.15581122440E+02  0.10283945787E+03  0.89408043200E+02 0.  0.
        -13    1    3    3    0    0 -0.25811308775E+02  0.17073840948E+02 -0.63848015173E+02  0.70952862853E+02  0.00000000000E+00 0.  1.
         14    1    3    3    0    0  0.30102791582E+02 -0.31918824766E+02 -0.22888816611E+02  0.49486234059E+02  0.00000000000E+00 0. -1.
        -11    1    4    4    0    0 -0.12477736573E+02  0.31904701144E+02  0.40499588706E+02  0.53045457396E+02  0.00000000000E+00 0.  1.
         11    1    4    4    0    0  0.42711964865E+02  0.58481261585E+01 -0.24918466265E+02  0.49794000474E+02  0.00000000000E+00 0. -1.
          3    1    1    2  501    0 -0.34525711098E+02 -0.22907843484E+02  0.57122650841E+02  0.70567636059E+02  0.00000000000E+00 0. -1.
<scales pt_clust_5="13000.00000" pt_clust_6="13000.00000" pt_clust_7="13000.00000" pt_clust_8="13000.00000" pt_clust_9="41.43421"></scales>
<clustering>
<clus scale="   41.434">  1  9  2 -1</clus>
<clus scale="   82.119">  5  6 -1 -1</clus>
<clus scale="   84.567">  2  5  1 -1</clus>
<clus scale="   89.408">  7  8 -1 -1</clus>
<clus scale="   41.434">  1  5  2 -1</clus>
</clustering>
</event>
<event>
 9    2  0.1723348E-004  0.1448675E+03  0.7546771E-02  0.1223872E+00
          2   -1    0    0  502    0 -0.00000000000E+00  0.00000000000E+00  0.17025129026E+03  0.17025129026E+03  0.00000000000E+00 0. -1.
         21   -1    0    0  501  502  0.00000000000E+00 -0.00000000000E+00 -0.20388828398E+03  0.20388828398E+03  0.00000000000E+00 0. -1.
         23    2    1    2    0    0 -0.37118505193E+02  0.14154923724E+02 -0.21659131483E+02  0.10350304719E+03  0.93089298566E+02 0.  0.
         24    2    1    2    0    0  0.10820780249E+03  0.73301901175E+02 -0.30759063206E+02  0.15637753212E+03  0.80160559805E+02 0.  0.
        -11    1    4    4    0    0  0.69860468802E+02  0.21979408639E+02 -0.50937108896E+02  0.89208567795E+02  0.00000000000E+00 0.  1.
         12    1    4    4    0    0  0.38347333689E+02  0.51322492536E+02  0.20178045691E+02  0.67168964329E+02  0.00000000000E+00 0. -1.
        -13    1    3    3    0    0 -0.19794825378E+02 -0.20907024072E+02 -0.48266847375E+02  0.56201666548E+02  0.00000000000E+00 0. -1.
         13    1    3    3    0    0 -0.17323679815E+02  0.35061947796E+02  0.26607715892E+02  0.47301380641E+02  0.00000000000E+00 0.  1.
          1    1    1    2  501    0 -0.71089297298E+02 -0.87456824898E+02  0.18781200976E+02  0.11425899493E+03  0.00000000000E+00 0. -1.
<scales pt_clust_5="13000.00000" pt_clust_6="13000.00000" pt_clust_7="13000.00000" pt_clust_8="13000.00000" pt_clust_9="120.66846"></scales>
<clustering>
<clus scale="   80.161">  5  6 -1 -1</clus>
<clus scale="   93.089">  7  8 -1 -1</clus>
<clus scale="  101.212">  1  7  2 -1</clus>
<clus scale="  120.668">  2  9  1 -1</clus>
<clus scale="  120.668">  2  5  1 -1</clus>
</clustering>
</event>
<event>
 9    2  0.1723348E-004  0.2518411E+03  0.7546771E-02  0.1112916E+00
          2   -1    0    0  502    0 -0.00000000000E+00  0.00000000000E+00  0.24306152009E+04  0.24306152009E+04  0.00000000000E+00 0. -1.
         21   -1    0    0  501  502  0.00000000000E+00 -0.00000000000E+00 -0.32984017563E+02  0.32984017563E+02  0.00000000000E+00 0.  1.
         23    2    1    2    0    0  0.12549117403E+03 -0.20040583975E+03  0.11992373355E+04  0.12258837606E+04  0.93328838793E+02 0.  0.
         24    2    1    2    0    0 -0.72901644775E+02  0.22293819459E+03  0.87746664054E+03  0.91172828335E+03  0.79275904125E+02 0.  0.
        -11    1    4    4    0    0 -0.53604279356E+02  0.12821349179E+03  0.37220123790E+03  0.39729822519E+03  0.00000000000E+00 0.  1.
         12    1    4    4    0    0 -0.19297365419E+02  0.94724702799E+02  0.50526540264E+03  0.51443005816E+03  0.00000000000E+00 0. -1.
        -11    1    3    3    0    0  0.12415450858E+03 -0.17158370071E+03  0.11452633033E+04  0.11646816484E+04  0.00000000000E+00 0.  1.
         11    1    3    3    0    0  0.13366654468E+01 -0.28822139047E+02  0.53974032238E+02  0.61202112135E+02  0.00000000000E+00 0. -1.
          1    1    1    2  501    0 -0.52589529252E+02 -0.22532354837E+02  0.32092720729E+03  0.32598717457E+03  0.00000000000E+00 0. -1.
<scales pt_clust_5="13000.00000" pt_clust_6="13000.00000" pt_clust_7="13000.00000" pt_clust_8="13000.00000" pt_clust_9="57.21336"></scales>
<clustering>
<clus scale="   57.213">  2  9  1 -1</clus>
<clus scale="   79.276">  5  6 -1 -1</clus>
<clus scale="   93.329">  7  8 -1 -1</clus>
<clus scale="  246.978">  2  5  1 -1</clus>
<clus scale="   57.213">  2  5  1 -1</clus>
</clustering>
</event>
<event>
 9    2  0.1723348E-004  0.1640917E+03  0.7546771E-02  0.1186559E+00
         21   -1    0    0  501  502  0.00000000000E+00  0.00000000000E+00  0.28403282249E+02  0.28403282249E+02  0.00000000000E+00 0.  1.
          2   -1    0    0  502    0 -0.00000000000E+00 -0.00000000000E+00 -0.11554912236E+04  0.11554912236E+04  0.00000000000E+00 0. -1.
         24    2    1    2    0    0  0.75328151691E+02 -0.11566687936E+03 -0.55186091601E+03  0.57439803080E+03  0.79557964743E+02 0.  0.
         23    2    1    2    0    0 -0.97361897478E+02  0.87848062663E+02 -0.51145419667E+03  0.53651465408E+03  0.95215322056E+02 0.  0.
        -13    1    3    3    0    0  0.15354579027E+02 -0.47960317998E+02 -0.84520211296E+02  0.98385066535E+02  0.00000000000E+00 0.  1.
         14    1    3    3    0    0  0.59973572664E+02 -0.67706561360E+02 -0.46734070471E+03  0.47601296427E+03  0.00000000000E+00 0. -1.
        -11    1    4    4    0    0 -0.80969215990E+02  0.10726807744E+03 -0.39237131696E+03  0.41475017149E+03  0.00000000000E+00 0.  1.
         11    1    4    4    0    0 -0.16392681488E+02 -0.19420014779E+02 -0.11908287971E+03  0.12176448259E+03  0.00000000000E+00 0. -1.
          1    1    1    2  501    0  0.22033745787E+02  0.27818816696E+02 -0.63772828712E+02  0.72981821008E+02  0.00000000000E+00 0. -1.
<scales pt_clust_5="13000.00000" pt_clust_6="13000.00000" pt_clust_7="13000.00000" pt_clust_8="13000.00000" pt_clust_9="35.48764"></scales>
<clustering>
<clus scale="   35.488">  1  9  2 -1</clus>
<clus scale="   79.558">  5  6 -1 -1</clus>
<clus scale="   95.215">  7  8 -1 -1</clus>
<clus scale="  155.530">  2  5  1 -1</clus>
<clus scale="   35.488">  1  5  2 -1</clus>
</clustering>
</event>
<event>
 9    2  0.1723348E-004  0.1336260E+03  0.7546771E-02  0.1224750E+00
          2   -1    0    0  502    0 -0.00000000000E+00  0.00000000000E+00  0.56377626432E+03  0.56377626432E+03  0.00000000000E+00 0. -1.
         21   -1    0    0  501  502  0.00000000000E+00 -0.00000000000E+00 -0.11593274219E+03  0.11593274219E+03  0.00000000000E+00 0. -1.
         24    2    1    2    0    0  0.29389841638E+02  0.98631925327E+02  0.42970949908E+03  0.44931089102E+03  0.81473944936E+02 0.  0.
         23    2    1    2    0    0 -0.45578979619E+02 -0.66870962153E+02  0.88759847620E+02  0.15128519578E+03  0.91976795720E+02 0.  0.
        -13    1    3    3    0    0 -0.12289314328E+02  0.57460216033E+02  0.11443517712E+03  0.12863947076E+03  0.00000000000E+00 0.  1.
         14    1    3    3    0    0  0.41679155966E+02  0.41171709295E+02  0.31527432195E+03  0.32067142026E+03  0.00000000000E+00 0. -1.
        -13    1    4    4    0    0  0.14727078964E+02  0.13990293336E+02  0.23870802632E+02  0.31343745480E+02  0.00000000000E+00 0. -1.
         13    1    4    4    0    0 -0.60306058583E+02 -0.80861255489E+02  0.64889044988E+02  0.11994145030E+03  0.00000000000E+00 0.  1.
          1    1    1    2  501    0  0.16189137981E+02 -0.31760963175E+02 -0.70625824559E+02  0.79112919710E+02  0.00000000000E+00 0. -1.
<scales pt_clust_5="13000.00000" pt_clust_6="13000.00000" pt_clust_7="13000.00000" pt_clust_8="13000.00000" pt_clust_9="35.64894"></scales>
<clustering>
<clus scale="   35.649">  2  9  1 -1</clus>
<clus scale="   81.474">  5  6 -1 -1</clus>
<clus scale="   91.977">  7  8 -1 -1</clus>
<clus scale="  126.626">  1  5  2 -1</clus>
<clus scale="   35.649">  2  5  1 -1</clus>
</clustering>
</event>
<event>
 9    2  0.1723348E-004  0.4780612E+03  0.7546771E-02  0.1082359E+00
          2   -1    0    0  502    0 -0.00000000000E+00  0.00000000000E+00  0.11672446288E+04  0.11672446288E+04  0.00000000000E+00 0. -1.
         21   -1    0    0  501  502  0.00000000000E+00 -0.00000000000E+00 -0.23889903994E+03  0.23889903994E+03  0.00000000000E+00 0. -1.
         24    2    1    2    0    0  0.12277248553E+00 -0.14947258703E+02  0.72316927026E+01  0.80401982855E+02  0.78668582368E+02 0.  0.
         23    2    1    2    0    0  0.19257805766E+03 -0.41944966299E+03  0.54252765192E+03  0.71815478689E+03  0.91573559317E+02 0.  0.
        -13    1    3    3    0    0  0.20114085339E+02  0.54682943516E+01  0.34885214993E+02  0.40638121232E+02  0.00000000000E+00 0.  1.
         14    1    3    3    0    0 -0.19991312854E+02 -0.20415553054E+02 -0.27653522290E+02  0.39763861623E+02  0.00000000000E+00 0. -1.
        -13    1    4    4    0    0  0.14665355016E+03 -0.28420870205E+03  0.31086860658E+03  0.44600576302E+03  0.00000000000E+00 0.  1.
         13    1    4    4    0    0  0.45924507499E+02 -0.13524096095E+03  0.23165904534E+03  0.27214902387E+03  0.00000000000E+00 0. -1.
          1    1    1    2  501    0 -0.19270083014E+03  0.43439692170E+03  0.37858624428E+03  0.60758689903E+03  0.00000000000E+00 0. -1.
<scales pt_clust_5="13000.00000" pt_clust_6="13000.00000" pt_clust_7="13000.00000" pt_clust_8="13000.00000" pt_clust_9="469.20871"></scales>
<clustering>
<clus scale="   78.669">  5  6 -1 -1</clus>
<clus scale="   80.076">  1  5  2 -1</clus>
<clus scale="   91.574">  7  8 -1 -1</clus>
<clus scale="  469.209">  2  9  1 -1</clus>
<clus scale="  469.209">  2  5  1 -1</clus>
</clustering>
</event>
<event>
 9    2  0.1723348E-004  0.1890208E+03  0.7546771E-02  0.1160719E+00
         21   -1    0    0  501  502  0.00000000000E+00  0.00000000000E+00  0.66439817962E+02  0.66439817962E+02  0.00000000000E+00 0.  1.
          2   -1    0    0  502    0 -0.00000000000E+00 -0.00000000000E+00 -0.11421216637E+04  0.11421216637E+04  0.00000000000E+00 0. -1.
         24    2    1    2    0    0 -0.37760240597E+02  0.15183704552E+03 -0.83221439218E+03  0.85110150246E+03  0.85514026692E+02 0.  0.
         23    2    1    2    0    0  0.47086229501E+02 -0.17692582287E+03 -0.25463823674E+03  0.32845640677E+03  0.97586473088E+02 0.  0.
        -11    1    3    3    0    0  0.27432730934E+02  0.53323262833E+02 -0.26109446012E+03  0.26789222122E+03  0.00000000000E+00 0.  1.
         12    1    3    3    0    0 -0.65192971531E+02  0.98513782689E+02 -0.57111993207E+03  0.58320928124E+03  0.00000000000E+00 0. -1.
        -13    1    4    4    0    0  0.25128380923E+02 -0.90627561833E+02 -0.52816444856E+02  0.10786272451E+03  0.00000000000E+00 0.  1.
         13    1    4    4    0    0  0.21957848578E+02 -0.86298261036E+02 -0.20182179189E+03  0.22059368226E+03  0.00000000000E+00 0. -1.
          1    1    1    2  501    0 -0.93259889035E+01  0.25088777347E+02  0.11170783180E+02  0.29003572446E+02  0.00000000000E+00 0. -1.
<scales pt_clust_5="13000.00000" pt_clust_6="13000.00000" pt_clust_7="13000.00000" pt_clust_8="13000.00000" pt_clust_9="26.76604"></scales>
<clustering>
<clus scale="   26.766">  1  9  2 -1</clus>
<clus scale="   85.514">  5  6 -1 -1</clus>
<clus scale="   97.586">  7  8 -1 -1</clus>
<clus scale="  183.080">  2  5  1 -1</clus>
<clus scale="   26.766">  1  5  2 -1</clus>
</clustering>
</event>
<event>
 9    2  0.4413936E-004  0.1239726E+03  0.7546771E-02  0.1256974E+00
          4   -1    0    0  502    0 -0.00000000000E+00  0.00000000000E+00  0.40530595085E+03  0.40530595085E+03  0.00000000000E+00 0. -1.
         21   -1    0    0  501  502  0.00000000000E+00 -0.00000000000E+00 -0.10352625837E+04  0.10352625837E+04  0.00000000000E+00 0. -1.
         24    2    1    2    0    0 -0.25136609949E+02  0.11153764129E+02  0.38938493782E+03  0.39802468784E+03  0.77760958822E+02 0.  0.
         23    2    1    2    0    0 -0.47168895452E+02  0.43153551135E+02 -0.35854286462E+03  0.37558635141E+03  0.91787732956E+02 0.  0.
        -11    1    3    3    0    0  0.48377412013E+01 -0.28075164471E+02  0.84622442878E+02  0.89289285128E+02  0.00000000000E+00 0.  1.
         12    1    3    3    0    0 -0.29974351151E+02  0.39228928600E+02  0.30476249494E+03  0.30873540272E+03  0.00000000000E+00 0. -1.
        -11    1    4    4    0    0  0.14194997386E+02  0.48143667988E+02 -0.15322455164E+03  0.16123608139E+03  0.00000000000E+00 0.  1.
         11    1    4    4    0    0 -0.61363892838E+02 -0.49901168534E+01 -0.20531831298E+03  0.21435027001E+03  0.00000000000E+00 0. -1.
          3    1    1    2  501    0  0.72305505402E+02 -0.54307315264E+02 -0.66079870608E+03  0.66695749532E+03  0.00000000000E+00 0. -1.
<scales pt_clust_5="13000.00000" pt_clust_6="13000.00000" pt_clust_7="13000.00000" pt_clust_8="13000.00000" pt_clust_9="83.33191"></scales>
<clustering>
<clus scale="   77.761">  5  6 -1 -1</clus>
<clus scale="   82.480">  1  5  2 -1</clus>
<clus scale="   83.332">  2  9  1 -1</clus>
<clus scale="   91.788">  7  8 -1 -1</clus>
<clus scale="   83.332">  2  5  1 -1</clus>
</clustering>
</event>
<event>
 9    2  0.1723348E-004  0.1224516E+03  0.7546771E-02  0.1241678E+00
         21   -1    0    0  501  502  0.00000000000E+00  0.00000000000E+00  0.25476148156E+02  0.25476148156E+02  0.00000000000E+00 0.  1.
          2   -1    0    0  502    0 -0.00000000000E+00 -0.00000000000E+00 -0.94675277576E+03  0.94675277576E+03  0.00000000000E+00 0. -1.
         24    2    1    2    0    0 -0.70837877130E+02  0.34628919616E+02 -0.64004880527E+03  0.64990954277E+03  0.80639777711E+02 0.  0.
         23    2    1    2    0    0  0.87463187580E+02 -0.49824287773E+02 -0.24796170043E+03  0.28214557092E+03  0.89380364057E+02 0.  0.
        -13    1    3    3    0    0  0.34004779593E+00  0.40388441736E+02 -0.19162517610E+03  0.19583551765E+03  0.00000000000E+00 0.  1.
         14    1    3    3    0    0 -0.71177924926E+02 -0.57595221200E+01 -0.44842362917E+03  0.45407402513E+03  0.00000000000E+00 0. -1.
        -13    1    4    4    0    0  0.14016760964E+02  0.24625338253E+02 -0.73057258048E+02  0.78359682397E+02  0.00000000000E+00 0. -1.
         13    1    4    4    0    0  0.73446426616E+02 -0.74449626026E+02 -0.17490444238E+03  0.20378588852E+03  0.00000000000E+00 0.  1.
          1    1    1    2  501    0 -0.16625310450E+02  0.15195368157E+02 -0.33266121911E+02  0.40173810225E+02  0.00000000000E+00 0. -1.
<scales pt_clust_5="13000.00000" pt_clust_6="13000.00000" pt_clust_7="13000.00000" pt_clust_8="13000.00000" pt_clust_9="22.52332"></scales>
<clustering>
<clus scale="   22.523">  1  9  2 -1</clus>
<clus scale="   80.640">  5  6 -1 -1</clus>
<clus scale="   89.380">  7  8 -1 -1</clus>
<clus scale="  116.225">  2  5  1 -1</clus>
<clus scale="   22.523">  1  5  2 -1</clus>
</clustering>
</event>
<event>
 9    2  0.1723348E-004  0.1894734E+03  0.7546771E-02  0.1167659E+00
         -3   -1    0    0    0  501 -0.00000000000E+00  0.00000000000E+00  0.27884476827E+03  0.27884476827E+03  0.00000000000E+00 0.  1.
         21   -1    0    0  501  502  0.00000000000E+00 -0.00000000000E+00 -0.26411008770E+03  0.26411008770E+03  0.00000000000E+00 0.  1.
         24    2    1    2    0    0  0.97704113283E+02  0.88361674273E+02  0.45319071089E+02  0.16133567160E+03  0.81372608997E+02 0.  0.
         23    2    1    2    0    0  0.89296994805E+02 -0.13124474233E+03  0.17508268432E+02  0.18382819418E+03  0.91033674207E+02 0.  0.
        -13    1    3    3    0    0  0.92648568875E+02  0.44436654283E+02  0.54298138896E+02  0.11621816315E+03  0.00000000000E+00 0.  1.
         14    1    3    3    0    0  0.50555444074E+01  0.43925019991E+02 -0.89790678069E+01  0.45117508454E+02  0.00000000000E+00 0. -1.
        -11    1    4    4    0    0  0.86874291140E+01 -0.88479125021E+02  0.24763298337E+02  0.92288937222E+02  0.00000000000E+00 0. -1.
         11    1    4    4    0    0  0.80609565691E+02 -0.42765617311E+02 -0.72550299043E+01  0.91539256954E+02  0.00000000000E+00 0.  1.
         -4    1    1    2    0  502 -0.18700110809E+03  0.42883068059E+02 -0.48092658951E+02  0.19779099018E+03  0.00000000000E+00 0.  1.
<scales pt_clust_5="13000.00000" pt_clust_6="13000.00000" pt_clust_7="13000.00000" pt_clust_8="13000.00000" pt_clust_9="166.17172"></scales>
<clustering>
<clus scale="   81.373">  5  6 -1 -1</clus>
<clus scale="   91.034">  7  8 -1 -1</clus>
<clus scale="  154.840">  1  5  2 -1</clus>
<clus scale="  166.172">  2  9  1 -1</clus>
<clus scale="  166.172">  2  5  1 -1</clus>
</clustering>
</event>
<event>
 9    2  0.1723348E-004  0.1021799E+03  0.7546771E-02  0.1281538E+00
          2   -1    0    0  502    0 -0.00000000000E+00  0.00000000000E+00  0.17993000733E+03  0.17993000733E+03  0.00000000000E+00 0. -1.
         21   -1    0    0  501  502  0.00000000000E+00 -0.00000000000E+00 -0.12391244021E+03  0.12391244021E+03  0.00000000000E+00 0. -1.
         23    2    1    2    0    0  0.19970743023E+02  0.41805814128E+02  0.13388228148E+03  0.16937069495E+03  0.92819234757E+02 0.  0.
         24    2    1    2    0    0 -0.20200782442E+02 -0.17949156575E+02 -0.65544535116E+02  0.10762068475E+03  0.80968400441E+02 0.  0.
        -13    1    4    4    0    0 -0.39136216021E+02 -0.39824505000E+02 -0.37032688190E+02  0.67000407443E+02  0.00000000000E+00 0.  1.
         14    1    4    4    0    0  0.18935433579E+02  0.21875348425E+02 -0.28511846926E+02  0.40620277309E+02  0.00000000000E+00 0. -1.
        -11    1    3    3    0    0 -0.32176909155E+02  0.12758670849E+02  0.17991925763E+02  0.39010851788E+02  0.00000000000E+00 0.  1.
         11    1    3    3    0    0  0.52147652178E+02  0.29047143279E+02  0.11589035571E+03  0.13035984316E+03  0.00000000000E+00 0. -1.
          1    1    1    2  501    0  0.23003941869E+00 -0.23856657553E+02 -0.12320179247E+02  0.26851067845E+02  0.00000000000E+00 0. -1.
<scales pt_clust_5="13000.00000" pt_clust_6="13000.00000" pt_clust_7="13000.00000" pt_clust_8="13000.00000" pt_clust_9="23.85777"></scales>
<clustering>
<clus scale="   23.858">  2  9  1 -1</clus>
<clus scale="   80.968">  5  6 -1 -1</clus>
<clus scale="   91.549">  2  5  1 -1</clus>
<clus scale="   92.819">  7  8 -1 -1</clus>
<clus scale="   23.858">  2  5  1 -1</clus>
</clustering>
</event>
<event>
 9    2  0.1723348E-004  0.1352832E+03  0.7546771E-02  0.1222069E+00
         -1   -1    0    0    0  501 -0.00000000000E+00  0.00000000000E+00  0.26228904007E+03  0.26228904007E+03  0.00000000000E+00 0.  1.
         21   -1    0    0  501  502  0.00000000000E+00 -0.00000000000E+00 -0.73845232946E+03  0.73845232946E+03  0.00000000000E+00 0.  1.
         24    2    1    2    0    0  0.11001563485E+03  0.15780557344E+02  0.22144792368E+03  0.26088802929E+03  0.81675669690E+02 0.  0.
         23    2    1    2    0    0 -0.28815018553E+02 -0.35940475772E+00 -0.10712040553E+03  0.14360612151E+03  0.91200342050E+02 0.  0.
        -11    1    3    3    0    0  0.11071107491E+03  0.28754828970E+02  0.21981213141E+03  0.24779256528E+03  0.00000000000E+00 0.  1.
         12    1    3    3    0    0 -0.69544005285E+00 -0.12974271626E+02  0.16357922761E+01  0.13095464004E+02  0.00000000000E+00 0. -1.
        -11    1    4    4    0    0 -0.56984756017E+02  0.20299289247E+02 -0.63155513040E+02  0.87452515056E+02  0.00000000000E+00 0. -1.
         11    1    4    4    0    0  0.28169737464E+02 -0.20658694005E+02 -0.43964892488E+02  0.56153606459E+02  0.00000000000E+00 0.  1.
         -2    1    1    2    0  502 -0.81200616300E+02 -0.15421152586E+02 -0.59049080755E+03  0.59624721872E+03  0.00000000000E+00 0.  1.
<scales pt_clust_5="13000.00000" pt_clust_6="13000.00000" pt_clust_7="13000.00000" pt_clust_8="13000.00000" pt_clust_9="82.65199"></scales>
<clustering>
<clus scale="   81.676">  5  6 -1 -1</clus>
<clus scale="   82.652">  2  9  1 -1</clus>
<clus scale="   91.200">  7  8 -1 -1</clus>
<clus scale="  129.054">  1  5  2 -1</clus>
<clus scale="   82.652">  2  5  1 -1</clus>
</clustering>
</event>
<event>
 9    2  0.1723348E-004  0.1556014E+03  0.7546771E-02  0.1222695E+00
         21   -1    0    0  501  502  0.00000000000E+00  0.00000000000E+00  0.11691072242E+03  0.11691072242E+03  0.00000000000E+00 0. -1.
          2   -1    0    0  502    0 -0.00000000000E+00 -0.00000000000E+00 -0.58006325570E+03  0.58006325570E+03  0.00000000000E+00 0. -1.
         24    2    1    2    0    0  0.12427429320E+02  0.17985480698E+02 -0.39286612198E+03  0.40168543865E+03  0.80805218338E+02 0.  0.
         23    2    1    2    0    0  0.70972190783E+02 -0.10890973617E+03 -0.12284985248E+02  0.15895482283E+03  0.90649502707E+02 0.  0.
        -11    1    3    3    0    0 -0.21362539095E+02  0.32918591320E+02 -0.11815339911E+03  0.12449986929E+03  0.00000000000E+00 0.  1.
         12    1    3    3    0    0  0.33789968415E+02 -0.14933110622E+02 -0.27471272287E+03  0.27718556937E+03  0.00000000000E+00 0. -1.
        -13    1    4    4    0    0  0.59073904781E+02 -0.12512309796E+03 -0.10941054837E+02  0.13879921668E+03  0.00000000000E+00 0. -1.
         13    1    4    4    0    0  0.11898286002E+02  0.16213361791E+02 -0.13439304110E+01  0.20155606151E+02  0.00000000000E+00 0.  1.
          1    1    1    2  501    0 -0.83399620103E+02  0.90924255475E+02 -0.58001426058E+02  0.13633371664E+03  0.00000000000E+00 0. -1.
<scales pt_clust_5="13000.00000" pt_clust_6="13000.00000" pt_clust_7="13000.00000" pt_clust_8="13000.00000" pt_clust_9="126.46934"></scales>
<clustering>
<clus scale="   80.805">  5  6 -1 -1</clus>
<clus scale="   83.710">  2  5  1 -1</clus>
<clus scale="   90.650">  7  8 -1 -1</clus>
<clus scale="  126.469">  1  9  2 -1</clus>
<clus scale="  126.469">  1  5  2 -1</clus>
</clustering>
</event>
<event>
 9    2  0.1723348E-004  0.2157588E+03  0.7546771E-02  0.1138066E+00
         21   -1    0    0  501  502  0.00000000000E+00  0.00000000000E+00  0.23102542973E+03  0.23102542973E+03  0.00000000000E+00 0.  1.
          2   -1    0    0  502    0 -0.00000000000E+00 -0.00000000000E+00 -0.24811877430E+03  0.24811877430E+03  0.00000000000E+00 0. -1.
         23    2    1    2    0    0 -0.17563047818E+03  0.27457946162E+02 -0.27000371949E+02  0.20206718455E+03  0.92206959136E+02 0.  0.
         24    2    1    2    0    0  0.21389168583E+03 -0.32959448042E+02 -0.15007565883E+02  0.23108872214E+03  0.79629090068E+02 0.  0.
        -11    1    4    4    0    0  0.18176505337E+03 -0.20948320470E+02 -0.41661240852E+02  0.18765134091E+03  0.00000000000E+00 0.  1.
         12    1    4    4    0    0  0.32126632463E+02 -0.12011127571E+02  0.26653674969E+02  0.43437381232E+02  0.00000000000E+00 0. -1.
        -13    1    3    3    0    0 -0.12718586777E+03  0.48617297479E+02 -0.49136165114E+02  0.14475582647E+03  0.00000000000E+00 0. -1.
         13    1    3    3    0    0 -0.48444610406E+02 -0.21159351318E+02  0.22135793165E+02  0.57311358077E+02  0.00000000000E+00 0.  1.
          1    1    1    2  501    0 -0.38261207654E+02  0.55015018796E+01  0.24914593262E+02  0.45988297332E+02  0.00000000000E+00 0. -1.
<scales pt_clust_5="13000.00000" pt_clust_6="13000.00000" pt_clust_7="13000.00000" pt_clust_8="13000.00000" pt_clust_9="38.65471"></scales>
<clustering>
<clus scale="   38.655">  1  9  2 -1</clus>
<clus scale="   79.629">  5  6 -1 -1</clus>
<clus scale="   92.207">  7  8 -1 -1</clus>
<clus scale="  210.691">  1  5  2 -1</clus>
<clus scale="   38.655">  1  5  2 -1</clus>
</clustering>
</event>
<event>
 9    2  0.1723348E-004  0.9849486E+02  0.7546771E-02  0.1289125E+00
         -1   -1    0    0    0  501 -0.00000000000E+00  0.00000000000E+00  0.15649821024E+03  0.15649821024E+03  0.00000000000E+00 0.  1.
         21   -1    0    0  501  502  0.00000000000E+00 -0.00000000000E+00 -0.11116673541E+03  0.11116673541E+03  0.00000000000E+00 0. -1.
         23    2    1    2    0    0  0.42941916997E+02  0.44310990441E+01  0.89368379029E+02  0.13453051952E+03  0.90819109430E+02 0.  0.
         24    2    1    2    0    0 -0.17461949059E+02 -0.21898896372E+02 -0.54245048722E+02  0.10059892361E+03  0.79957093457E+02 0.  0.
        -11    1    4    4    0    0  0.55431428104E+01 -0.47720166444E+02 -0.20343832006E+02  0.52170990199E+02  0.00000000000E+00 0.  1.
         12    1    4    4    0    0 -0.23005091869E+02  0.25821270072E+02 -0.33901216716E+02  0.48427933415E+02  0.00000000000E+00 0. -1.
        -11    1    3    3    0    0  0.62031023201E+02  0.20228381164E+02  0.88219877071E+02  0.10972594021E+03  0.00000000000E+00 0. -1.
         11    1    3    3    0    0 -0.19089106205E+02 -0.15797282120E+02  0.11485019582E+01  0.24804579312E+02  0.00000000000E+00 0.  1.
         -2    1    1    2    0  502 -0.25479967938E+02  0.17467797328E+02  0.10208144521E+02  0.32535502519E+02  0.00000000000E+00 0.  1.
<scales pt_clust_5="13000.00000" pt_clust_6="13000.00000" pt_clust_7="13000.00000" pt_clust_8="13000.00000" pt_clust_9="30.89262"></scales>
<clustering>
<clus scale="   30.893">  2  9  1 -1</clus>
<clus scale="   79.957">  5  6 -1 -1</clus>
<clus scale="   88.579">  2  5  1 -1</clus>
<clus scale="   90.819">  7  8 -1 -1</clus>
<clus scale="   30.893">  2  5  1 -1</clus>
</clustering>
</event>
<event>
 9    2  0.1723348E-004  0.2077945E+03  0.7546771E-02  0.1144565E+00
          2   -1    0    0  502    0 -0.00000000000E+00  0.00000000000E+00  0.25576325246E+03  0.25576325246E+03  0.00000000000E+00 0. -1.
         21   -1    0    0  501  502  0.00000000000E+00 -0.00000000000E+00 -0.62281922708E+03  0.62281922708E+03  0.00000000000E+00 0.  1.
         24    2    1    2    0    0 -0.18735538304E+03  0.15807295998E+02  0.18761455497E+03  0.27755137616E+03  0.80521022156E+02 0.  0.
         23    2    1    2    0    0  0.15486667284E+03 -0.34476973011E+02 -0.38207974782E+03  0.42441952086E+03  0.94734618627E+02 0.  0.
        -11    1    3    3    0    0 -0.57759219301E+02  0.14060034361E+02  0.14312171084E+02  0.61144502792E+02  0.00000000000E+00 0.  1.
         12    1    3    3    0    0 -0.12959616374E+03  0.17472616365E+01  0.17330238389E+03  0.21640687337E+03  0.00000000000E+00 0. -1.
        -11    1    4    4    0    0  0.67487141914E+02 -0.54590071139E+02 -0.25117502405E+03  0.26575079096E+03  0.00000000000E+00 0.  1.
         11    1    4    4    0    0  0.87379530931E+02  0.20113098127E+02 -0.13090472377E+03  0.15866872990E+03  0.00000000000E+00 0. -1.
          1    1    1    2  501    0  0.32488710197E+02  0.18669677014E+02 -0.17259078177E+03  0.17661158253E+03  0.00000000000E+00 0. -1.
<scales pt_clust_5="13000.00000" pt_clust_6="13000.00000" pt_clust_7="13000.00000" pt_clust_8="13000.00000" pt_clust_9="37.47096"></scales>
<clustering>
<clus scale="   37.471">  2  9  1 -1</clus>
<clus scale="   80.521">  5  6 -1 -1</clus>
<clus scale="   94.735">  7  8 -1 -1</clus>
<clus scale="  201.711">  1  5  2 -1</clus>
<clus scale="   37.471">  2  5  1 -1</clus>
</clustering>
</event>
<event>
 9    2  0.1723348E-004  0.9714160E+02  0.7546771E-02  0.1291527E+00
          2   -1    0    0  502    0 -0.00000000000E+00  0.00000000000E+00  0.27290582245E+03  0.27290582245E+03  0.00000000000E+00 0. -1.
         21   -1    0    0  501  502  0.00000000000E+00 -0.00000000000E+00 -0.11489184974E+03  0.11489184974E+03  0.00000000000E+00 0.  1.
         23    2    1    2    0    0 -0.35262232057E+02 -0.49510749292E+00  0.23244124096E+03  0.25202875736E+03  0.90806904435E+02 0.  0.
         24    2    1    2    0    0  0.27837587717E+02  0.21136905086E+02 -0.45506855407E+02  0.99470162361E+02  0.81251087775E+02 0.  0.
        -11    1    4    4    0    0  0.16568635626E+02  0.37184578791E+02 -0.61781224947E+02  0.73987379615E+02  0.00000000000E+00 0.  1.
         12    1    4    4    0    0  0.11268952091E+02 -0.16047673705E+02  0.16274369540E+02  0.25482782746E+02  0.00000000000E+00 0. -1.
        -13    1    3    3    0    0  0.14170138824E+02  0.29019830297E+02  0.13536341800E+03  0.13916248890E+03  0.00000000000E+00 0.  1.
         13    1    3    3    0    0 -0.49432370881E+02 -0.29514937790E+02  0.97077822968E+02  0.11286626846E+03  0.00000000000E+00 0. -1.
          1    1    1    2  501    0  0.74246443402E+01 -0.20641797593E+02 -0.28920412846E+02  0.36298752467E+02  0.00000000000E+00 0. -1.
<scales pt_clust_5="13000.00000" pt_clust_6="13000.00000" pt_clust_7="13000.00000" pt_clust_8="13000.00000" pt_clust_9="21.93648"></scales>
<clustering>
<clus scale="   21.936">  2  9  1 -1</clus>
<clus scale="   81.251">  5  6 -1 -1</clus>
<clus scale="   88.274">  2  5  1 -1</clus>
<clus scale="   90.807">  7  8 -1 -1</clus>
<clus scale="   21.936">  2  5  1 -1</clus>
</clustering>
</event>
<event>
 9    2  0.1723348E-004  0.9005502E+02  0.7546771E-02  0.1307158E+00
          2   -1    0    0  502    0 -0.00000000000E+00  0.00000000000E+00  0.28904600510E+03  0.28904600510E+03  0.00000000000E+00 0. -1.
         21   -1    0    0  501  502  0.00000000000E+00 -0.00000000000E+00 -0.76853469794E+02  0.76853469794E+02  0.00000000000E+00 0.  1.
         23    2    1    2    0    0 -0.13722967522E+02  0.17035812122E+02  0.21956291806E+03  0.23762731168E+03  0.88206153633E+02 0.  0.
         24    2    1    2    0    0  0.21506261917E+02  0.22711993756E+02  0.12639305844E+01  0.86859374000E+02  0.81022215282E+02 0.  0.
        -13    1    4    4    0    0 -0.99599288541E+01 -0.20541111942E+02 -0.18960590667E+02  0.29675603803E+02  0.00000000000E+00 0.  1.
         14    1    4    4    0    0  0.31466190771E+02  0.43253105698E+02  0.20224521251E+02  0.57183770198E+02  0.00000000000E+00 0. -1.
        -13    1    3    3    0    0 -0.27964668209E+02 -0.24098623288E+02  0.47582376099E+02  0.60223324615E+02  0.00000000000E+00 0.  1.
         13    1    3    3    0    0  0.14241700687E+02  0.41134435410E+02  0.17198054196E+03  0.17740398707E+03  0.00000000000E+00 0. -1.
          1    1    1    2  501    0 -0.77832943955E+01 -0.39747805878E+02 -0.86343133337E+01  0.41412789214E+02  0.00000000000E+00 0. -1.
<scales pt_clust_5="13000.00000" pt_clust_6="13000.00000" pt_clust_7="13000.00000" pt_clust_8="13000.00000" pt_clust_9="40.50269"></scales>
<clustering>
<clus scale="   40.503">  2  9  1 -1</clus>
<clus scale="   81.022">  5  6 -1 -1</clus>
<clus scale="   83.031">  2  5  1 -1</clus>
<clus scale="   88.206">  7  8 -1 -1</clus>
<clus scale="   40.503">  2  5  1 -1</clus>
</clustering>
</event>
<event>
 9    2  0.1723348E-004  0.1609595E+03  0.7546771E-02  0.1189451E+00
         21   -1    0    0  501  502  0.00000000000E+00  0.00000000000E+00  0.44515612019E+03  0.44515612019E+03  0.00000000000E+00 0. -1.
          2   -1    0    0  502    0 -0.00000000000E+00 -0.00000000000E+00 -0.12496465011E+03  0.12496465011E+03  0.00000000000E+00 0. -1.
         24    2    1    2    0    0 -0.93822765825E+02 -0.98251750768E+02 -0.35491201845E+02  0.16182215643E+03  0.80440456160E+02 0.  0.
         23    2    1    2    0    0  0.49081155005E+02  0.11094916671E+03  0.24886128737E+03  0.29179177155E+03  0.92151072800E+02 0.  0.
        -13    1    3    3    0    0  0.10906211961E+02 -0.31360947982E+02 -0.12302517537E+02  0.35409129549E+02  0.00000000000E+00 0.  1.
         14    1    3    3    0    0 -0.10472897779E+03 -0.66890802786E+02 -0.23188684308E+02  0.12641302688E+03  0.00000000000E+00 0. -1.
        -13    1    4    4    0    0  0.28618901909E+02  0.10537962805E+03  0.12435950505E+03  0.16549680979E+03  0.00000000000E+00 0.  1.
         13    1    4    4    0    0  0.20462253097E+02  0.55695386572E+01  0.12450178232E+03  0.12629496175E+03  0.00000000000E+00 0. -1.
          1    1    1    2  501    0  0.44741610820E+02 -0.12697415943E+02  0.10682138455E+03  0.11650684232E+03  0.00000000000E+00 0. -1.
<scales pt_clust_5="13000.00000" pt_clust_6="13000.00000" pt_clust_7="13000.00000" pt_clust_8="13000.00000" pt_clust_9="46.50845"></scales>
<clustering>
<clus scale="   46.508">  1  9  2 -1</clus>
<clus scale="   80.440">  5  6 -1 -1</clus>
<clus scale="   92.151">  7  8 -1 -1</clus>
<clus scale="  154.554">  2  5  1 -1</clus>
<clus scale="   46.508">  1  5  2 -1</clus>
</clustering>
</event>
<event>
 9    2  0.1723348E-004  0.1221609E+03  0.7546771E-02  0.1243838E+00
          2   -1    0    0  502    0 -0.00000000000E+00  0.00000000000E+00  0.19813562227E+03  0.19813562227E+03  0.00000000000E+00 0. -1.
         21   -1    0    0  501  502  0.00000000000E+00 -0.00000000000E+00 -0.97054701231E+02  0.97054701231E+02  0.00000000000E+00 0. -1.
         23    2    1    2    0    0 -0.73700445418E+02  0.24156004011E+02  0.56271638026E+02  0.13445411310E+03  0.94319367575E+02 0.  0.
         24    2    1    2    0    0  0.81101808480E+02  0.12066685261E+02  0.45432143786E+02  0.12375984837E+03  0.80804159228E+02 0.  0.
        -13    1    4    4    0    0  0.41267612776E+02  0.24059970548E+02  0.62610065860E+02  0.78752259612E+02  0.00000000000E+00 0.  1.
         14    1    4    4    0    0  0.39834195704E+02 -0.11993285287E+02 -0.17177922073E+02  0.45007588762E+02  0.00000000000E+00 0. -1.
        -13    1    3    3    0    0 -0.96538769123E+02  0.22131196638E+02  0.48181758006E+02  0.11014084444E+03  0.00000000000E+00 0. -1.
         13    1    3    3    0    0  0.22838323706E+02  0.20248073733E+01  0.80898800198E+01  0.24313268668E+02  0.00000000000E+00 0.  1.
          1    1    1    2  501    0 -0.74013630623E+01 -0.36222689272E+02 -0.62286076938E+00  0.36976362028E+02  0.00000000000E+00 0. -1.
<scales pt_clust_5="13000.00000" pt_clust_6="13000.00000" pt_clust_7="13000.00000" pt_clust_8="13000.00000" pt_clust_9="36.97112"></scales>
<clustering>
<clus scale="   36.971">  2  9  1 -1</clus>
<clus scale="   80.804">  5  6 -1 -1</clus>
<clus scale="   94.319">  7  8 -1 -1</clus>
<clus scale="  112.056">  2  5  1 -1</clus>
<clus scale="   36.971">  2  5  1 -1</clus>
</clustering>
</event>
<event>
 9    2  0.1723348E-004  0.4299600E+03  0.7546771E-02  0.1067750E+00
         21   -1    0    0  501  502  0.00000000000E+00  0.00000000000E+00  0.20032095403E+03  0.20032095403E+03  0.00000000000E+00 0.  1.
         -1   -1    0    0    0  501 -0.00000000000E+00 -0.00000000000E+00 -0.15380726034E+04  0.15380726034E+04  0.00000000000E+00 0.  1.
         23    2    1    2    0    0 -0.27656622251E+02  0.13291488734E+03 -0.24934079757E+03  0.29830687041E+03  0.91569097233E+02 0.  0.
         24    2    1    2    0    0  0.28531281558E+03  0.23413337587E+03 -0.85445335157E+03  0.93427322988E+03  0.80957381555E+02 0.  0.
        -11    1    4    4    0    0  0.24908252272E+03  0.22708163434E+03 -0.80370575271E+03  0.87152229387E+03  0.00000000000E+00 0.  1.
         12    1    4    4    0    0  0.36230292865E+02  0.70517415242E+01 -0.50747598868E+02  0.62750936012E+02  0.00000000000E+00 0. -1.
        -11    1    3    3    0    0 -0.58061302852E+01  0.11793742958E+03 -0.12815857781E+03  0.17426293212E+03  0.00000000000E+00 0.  1.
         11    1    3    3    0    0 -0.21850491966E+02  0.14977457762E+02 -0.12118221976E+03  0.12404393829E+03  0.00000000000E+00 0. -1.
         -2    1    1    2    0  502 -0.25765619333E+03 -0.36704826321E+03 -0.23395750019E+03  0.50581345709E+03  0.00000000000E+00 0.  1.
<scales pt_clust_5="13000.00000" pt_clust_6="13000.00000" pt_clust_7="13000.00000" pt_clust_8="13000.00000" pt_clust_9="422.26943"></scales>
<clustering>
<clus scale="   80.957">  5  6 -1 -1</clus>
<clus scale="   91.569">  7  8 -1 -1</clus>
<clus scale="  163.756">  2  7  1 -1</clus>
<clus scale="  422.269">  1  9  2 -1</clus>
<clus scale="  422.269">  1  5  2 -1</clus>
</clustering>
</event>
<event>
 9    2  0.1723348E-004  0.1259910E+03  0.7546771E-02  0.1236517E+00
         21   -1    0    0  501  502  0.00000000000E+00  0.00000000000E+00  0.39757729299E+03  0.39757729299E+03  0.00000000000E+00 0.  1.
         -3   -1    0    0    0  501 -0.00000000000E+00 -0.00000000000E+00 -0.77317880447E+02  0.77317880447E+02  0.00000000000E+00 0.  1.
         24    2    1    2    0    0 -0.52205498137E+02  0.81024878311E+02  0.10315647081E+03  0.16287669656E+03  0.81222631519E+02 0.  0.
         23    2    1    2    0    0  0.76699739520E+02 -0.25556446921E+02  0.21955952434E+03  0.25133281514E+03  0.91792250303E+02 0.  0.
        -13    1    3    3    0    0 -0.72846091363E+02  0.68494696975E+02  0.93422209654E+02  0.13684219304E+03  0.00000000000E+00 0.  1.
         14    1    3    3    0    0  0.20640593226E+02  0.12530181336E+02  0.97342611606E+01  0.26034503517E+02  0.00000000000E+00 0. -1.
        -11    1    4    4    0    0  0.71354654691E+02  0.21338925484E+02  0.14667092297E+03  0.16449679673E+03  0.00000000000E+00 0. -1.
         11    1    4    4    0    0  0.53450848291E+01 -0.46895372405E+02  0.72888601369E+02  0.86836018417E+02  0.00000000000E+00 0.  1.
         -4    1    1    2    0  502 -0.24494241383E+02 -0.55468431390E+02 -0.24565826160E+01  0.60685661733E+02  0.00000000000E+00 0.  1.
<scales pt_clust_5="13000.00000" pt_clust_6="13000.00000" pt_clust_7="13000.00000" pt_clust_8="13000.00000" pt_clust_9="60.63595"></scales>
<clustering>
<clus scale="   60.636">  1  9  2 -1</clus>
<clus scale="   81.223">  5  6 -1 -1</clus>
<clus scale="   91.792">  7  8 -1 -1</clus>
<clus scale="  118.512">  2  5  1 -1</clus>
<clus scale="   60.636">  1  5  2 -1</clus>
</clustering>
</event>
<event>
 9    2  0.1723348E-004  0.1798865E+03  0.7546771E-02  0.1190100E+00
          2   -1    0    0  502    0 -0.00000000000E+00  0.00000000000E+00  0.14229952296E+03  0.14229952296E+03  0.00000000000E+00 0. -1.
         21   -1    0    0  501  502  0.00000000000E+00 -0.00000000000E+00 -0.43178619832E+03  0.43178619832E+03  0.00000000000E+00 0. -1.
         23    2    1    2    0    0  0.12698121998E+02 -0.70523749567E+02 -0.91298344274E+02  0.14229517046E+03  0.82326704743E+02 0.  0.
         24    2    1    2    0    0  0.65534863816E+02 -0.88222363767E+02  0.31719654962E+02  0.14165539159E+03  0.83559018740E+02 0.  0.
        -11    1    4    4    0    0  0.12515981508E+02 -0.45840651012E+02  0.52362280593E+02  0.70709430115E+02  0.00000000000E+00 0.  1.
         12    1    4    4    0    0  0.53018882308E+02 -0.42381712755E+02 -0.20642625631E+02  0.70945961479E+02  0.00000000000E+00 0. -1.
        -13    1    3    3    0    0  0.22498264678E+02 -0.27065013731E+02 -0.91188819061E+02  0.97745013190E+02  0.00000000000E+00 0.  1.
         13    1    3    3    0    0 -0.98001426799E+01 -0.43458735836E+02 -0.10952521270E+00  0.44550157270E+02  0.00000000000E+00 0. -1.
          1    1    1    2  501    0 -0.78232985814E+02  0.15874611333E+03 -0.22990798606E+03  0.29013515923E+03  0.00000000000E+00 0. -1.
<scales pt_clust_5="13000.00000" pt_clust_6="13000.00000" pt_clust_7="13000.00000" pt_clust_8="13000.00000" pt_clust_9="159.30172"></scales>
<clustering>
<clus scale="   82.327">  7  8 -1 -1</clus>
<clus scale="   83.559">  5  6 -1 -1</clus>
<clus scale="  109.145">  1  7  2 -1</clus>
<clus scale="  159.302">  2  9  1 -1</clus>
<clus scale="  159.302">  2  5  1 -1</clus>
</clustering>
</event>
<event>
 9    2  0.1723348E-004  0.1074076E+03  0.7546771E-02  0.1270262E+00
          2   -1    0    0  502    0 -0.00000000000E+00  0.00000000000E+00  0.30310747084E+03  0.30310747084E+03  0.00000000000E+00 0. -1.
         21   -1    0    0  501  502  0.00000000000E+00 -0.00000000000E+00 -0.17798763740E+03  0.17798763740E+03  0.00000000000E+00 0.  1.
         24    2    1    2    0    0 -0.34538472362E+02  0.52069887676E+02  0.91738996624E+02  0.13683862485E+03  0.80028660324E+02 0.  0.
         23    2    1    2    0    0 -0.28343668367E+02 -0.34357660210E+02 -0.13186643439E+03  0.16656420088E+03  0.91493519682E+02 0.  0.
        -11    1    3    3    0    0 -0.42818953815E+01  0.66701789759E+02  0.51298982334E+02  0.84255854240E+02  0.00000000000E+00 0.  1.
         12    1    3    3    0    0 -0.30256576981E+02 -0.14631902083E+02  0.40440014290E+02  0.52582770610E+02  0.00000000000E+00 0. -1.
        -13    1    4    4    0    0  0.65970062126E+01 -0.28426719101E+02 -0.12756887957E+03  0.13086411993E+03  0.00000000000E+00 0.  1.
         13    1    4    4    0    0 -0.34940674580E+02 -0.59309411094E+01 -0.42975548227E+01  0.35700080952E+02  0.00000000000E+00 0. -1.
          1    1    1    2  501    0  0.62882140729E+02 -0.17712227466E+02  0.16524727120E+03  0.17769228251E+03  0.00000000000E+00 0. -1.
<scales pt_clust_5="13000.00000" pt_clust_6="13000.00000" pt_clust_7="13000.00000" pt_clust_8="13000.00000" pt_clust_9="65.32910"></scales>
<clustering>
<clus scale="   65.329">  2  9  1 -1</clus>
<clus scale="   80.029">  5  6 -1 -1</clus>
<clus scale="   91.494">  7  8 -1 -1</clus>
<clus scale="   97.826">  1  5  2 -1</clus>
<clus scale="   65.329">  2  5  1 -1</clus>
</clustering>
</event>
<event>
 9    2  0.1723348E-004  0.1751845E+03  0.7546771E-02  0.1173942E+00
         21   -1    0    0  501  502  0.00000000000E+00  0.00000000000E+00  0.16594466297E+03  0.16594466297E+03  0.00000000000E+00 0. -1.
         -1   -1    0    0    0  501 -0.00000000000E+00 -0.00000000000E+00 -0.62084787652E+03  0.62084787652E+03  0.00000000000E+00 0.  1.
         24    2    1    2    0    0 -0.15739379016E+03  0.18025913961E+02 -0.47135077009E+03  0.50373311695E+03  0.80484569315E+02 0.  0.
         23    2    1    2    0    0  0.80287660372E+02 -0.10775064604E+03  0.24948140262E+02  0.16445022087E+03  0.91461223000E+02 0.  0.
        -13    1    3    3    0    0 -0.16567789053E+03  0.97278993260E+01 -0.44129489461E+03  0.47147108018E+03  0.00000000000E+00 0.  1.
         14    1    3    3    0    0  0.82841003776E+01  0.82980146351E+01 -0.30055875483E+02  0.32262036777E+02  0.00000000000E+00 0. -1.
        -13    1    4    4    0    0 -0.20690557658E+02 -0.17078815629E+02  0.36331462113E+01  0.27073693337E+02  0.00000000000E+00 0.  1.
         13    1    4    4    0    0  0.10097821803E+03 -0.90671830409E+02  0.21314994051E+02  0.13737652754E+03  0.00000000000E+00 0. -1.
         -2    1    1    2    0  502  0.77106129785E+02  0.89724732077E+02 -0.85005837284E+01  0.11860920167E+03  0.00000000000E+00 0.  1.
<scales pt_clust_5="13000.00000" pt_clust_6="13000.00000" pt_clust_7="13000.00000" pt_clust_8="13000.00000" pt_clust_9="118.30420"></scales>
<clustering>
<clus scale="   80.485">  5  6 -1 -1</clus>
<clus scale="   91.461">  7  8 -1 -1</clus>
<clus scale="  118.304">  1  9  2 -1</clus>
<clus scale="  169.712">  2  5  1 -1</clus>
<clus scale="  118.304">  1  5  2 -1</clus>
</clustering>
</event>
<event>
 9    2  0.1723348E-004  0.1319818E+03  0.7546771E-02  0.1231832E+00
          2   -1    0    0  502    0 -0.00000000000E+00  0.00000000000E+00  0.11886189031E+04  0.11886189031E+04  0.00000000000E+00 0. -1.
         21   -1    0    0  501  502  0.00000000000E+00 -0.00000000000E+00 -0.57622354383E+02  0.57622354383E+02  0.00000000000E+00 0.  1.
         23    2    1    2    0    0  0.62937920308E+02 -0.17150379091E+02  0.36140906303E+02  0.11910647714E+03  0.92870180755E+02 0.  0.
         24    2    1    2    0    0  0.44601123301E+02  0.87526427145E+02  0.37187214201E+03  0.39281701813E+03  0.79788370588E+02 0.  0.
        -11    1    4    4    0    0  0.66288243401E+02  0.49489412208E+02  0.23809025588E+03  0.25205218325E+03  0.00000000000E+00 0.  1.
         12    1    4    4    0    0 -0.21687120100E+02  0.38037014936E+02  0.13378188613E+03  0.14076483489E+03  0.00000000000E+00 0. -1.
        -11    1    3    3    0    0  0.16198041089E+02 -0.25420695970E+02 -0.26758946402E+02  0.40306693381E+02  0.00000000000E+00 0.  1.
         11    1    3    3    0    0  0.46739879219E+02  0.82703168799E+01  0.62899852705E+02  0.78799783763E+02  0.00000000000E+00 0. -1.
          1    1    1    2  501    0 -0.10753904361E+03 -0.70376048054E+02  0.72298350042E+03  0.73431776222E+03  0.00000000000E+00 0. -1.
<scales pt_clust_5="13000.00000" pt_clust_6="13000.00000" pt_clust_7="13000.00000" pt_clust_8="13000.00000" pt_clust_9="105.13341"></scales>
<clustering>
<clus scale="   79.788">  5  6 -1 -1</clus>
<clus scale="   92.870">  7  8 -1 -1</clus>
<clus scale="  113.491">  1  7  2 -1</clus>
<clus scale="  105.133">  2  9  1 -1</clus>
<clus scale="  105.133">  2  5  1 -1</clus>
</clustering>
</event>
<event>
 9    2  0.1723348E-004  0.1231720E+03  0.7546771E-02  0.1240878E+00
          2   -1    0    0  502    0 -0.00000000000E+00  0.00000000000E+00  0.57092003360E+03  0.57092003360E+03  0.00000000000E+00 0. -1.
         21   -1    0    0  501  502  0.00000000000E+00 -0.00000000000E+00 -0.75190445883E+02  0.75190445883E+02  0.00000000000E+00 0. -1.
         24    2    1    2    0    0 -0.24878559000E+02  0.66946664868E+02  0.14757485292E+03  0.18236776406E+03  0.79867800272E+02 0.  0.
         23    2    1    2    0    0 -0.20696599742E+02 -0.13170643358E+03  0.71492695000E+02  0.17597057117E+03  0.89886053392E+02 0.  0.
        -13    1    3    3    0    0  0.15220153062E+02  0.58854532332E+02  0.11498606072E+03  0.13006653372E+03  0.00000000000E+00 0.  1.
         14    1    3    3    0    0 -0.40098712063E+02  0.80921325360E+01  0.32588792205E+02  0.52301230343E+02  0.00000000000E+00 0. -1.
        -13    1    4    4    0    0  0.15950177316E+02 -0.52577558610E+02  0.69696399037E+02  0.88749061204E+02  0.00000000000E+00 0.  1.
         13    1    4    4    0    0 -0.36646777058E+02 -0.79128874969E+02  0.17962959632E+01  0.87221509971E+02  0.00000000000E+00 0. -1.
          1    1    1    2  501    0  0.45575158742E+02  0.64759768711E+02  0.27666203979E+03  0.28777214424E+03  0.00000000000E+00 0. -1.
<scales pt_clust_5="13000.00000" pt_clust_6="13000.00000" pt_clust_7="13000.00000" pt_clust_8="13000.00000" pt_clust_9="79.18920"></scales>
<clustering>
<clus scale="   79.189">  2  9  1 -1</clus>
<clus scale="   79.868">  5  6 -1 -1</clus>
<clus scale="   89.886">  7  8 -1 -1</clus>
<clus scale="  116.063">  1  5  2 -1</clus>
<clus scale="   79.189">  2  5  1 -1</clus>
</clustering>
</event>
<event>
 9    2  0.1723348E-004  0.1379877E+03  0.7546771E-02  0.1219103E+00
          2   -1    0    0  502    0 -0.00000000000E+00  0.00000000000E+00  0.66825584187E+03  0.66825584187E+03  0.00000000000E+00 0. -1.
         21   -1    0    0  501  502  0.00000000000E+00 -0.00000000000E+00 -0.49817294502E+02  0.49817294502E+02  0.00000000000E+00 0. -1.
         24    2    1    2    0    0 -0.10192835460E+03 -0.61604919558E+02  0.37437401728E+03  0.40120660760E+03  0.81401975273E+02 0.  0.
         23    2    1    2    0    0  0.80403807122E+02  0.16495367023E+02  0.23476972773E+03  0.26602785034E+03  0.94430518196E+02 0.  0.
        -13    1    3    3    0    0 -0.33461806528E+02  0.87407270984E+01  0.18175634994E+03  0.18501746823E+03  0.00000000000E+00 0.  1.
         14    1    3    3    0    0 -0.68466548067E+02 -0.70345646657E+02  0.19261766734E+03  0.21618913936E+03  0.00000000000E+00 0. -1.
        -13    1    4    4    0    0 -0.19189261535E+02  0.13836120972E+02  0.65160567173E+02  0.69322186320E+02  0.00000000000E+00 0.  1.
         13    1    4    4    0    0  0.99593068657E+02  0.26592460510E+01  0.16960916056E+03  0.19670566402E+03  0.00000000000E+00 0. -1.
          1    1    1    2  501    0  0.21524547473E+02  0.45109552536E+02  0.92948023535E+01  0.50838678431E+02  0.00000000000E+00 0. -1.
<scales pt_clust_5="13000.00000" pt_clust_6="13000.00000" pt_clust_7="13000.00000" pt_clust_8="13000.00000" pt_clust_9="49.98178"></scales>
<clustering>
<clus scale="   49.982">  2  9  1 -1</clus>
<clus scale="   81.402">  5  6 -1 -1</clus>
<clus scale="   94.431">  7  8 -1 -1</clus>
<clus scale="  129.421">  1  5  2 -1</clus>
<clus scale="   49.982">  2  5  1 -1</clus>
</clustering>
</event>
<event>
 9    2  0.1723348E-004  0.1361163E+03  0.7546771E-02  0.1220461E+00
         -3   -1    0    0    0  501 -0.00000000000E+00  0.00000000000E+00  0.10553989599E+03  0.10553989599E+03  0.00000000000E+00 0.  1.
         21   -1    0    0  501  502  0.00000000000E+00 -0.00000000000E+00 -0.31810084209E+03  0.31810084209E+03  0.00000000000E+00 0.  1.
         23    2    1    2    0    0 -0.10319192689E+03  0.29842704712E+02 -0.66206886546E+01  0.14000035867E+03  0.89538294102E+02 0.  0.
         24    2    1    2    0    0  0.66497155688E+02 -0.78253731879E+02 -0.16311827476E+03  0.20931773153E+03  0.81613864673E+02 0.  0.
        -11    1    4    4    0    0  0.67826071978E+02 -0.87546605924E+02 -0.16595236694E+03  0.19951183509E+03  0.00000000000E+00 0.  1.
         12    1    4    4    0    0 -0.13289162903E+01  0.92928740450E+01  0.28340921825E+01  0.98058964415E+01  0.00000000000E+00 0. -1.
        -11    1    3    3    0    0 -0.37301679348E+02  0.49564072655E+02 -0.27882487295E+02  0.68010629155E+02  0.00000000000E+00 0.  1.
         11    1    3    3    0    0 -0.65890247540E+02 -0.19721367944E+02  0.21261798640E+02  0.71989729517E+02  0.00000000000E+00 0. -1.
         -4    1    1    2    0  502  0.36694771201E+02  0.48411027168E+02 -0.42821982686E+02  0.74322647868E+02  0.00000000000E+00 0.  1.
<scales pt_clust_5="13000.00000" pt_clust_6="13000.00000" pt_clust_7="13000.00000" pt_clust_8="13000.00000" pt_clust_9="60.74647"></scales>
<clustering>
<clus scale="   60.746">  2  9  1 -1</clus>
<clus scale="   81.614">  5  6 -1 -1</clus>
<clus scale="   89.538">  7  8 -1 -1</clus>
<clus scale="  131.040">  2  5  1 -1</clus>
<clus scale="   60.746">  2  5  1 -1</clus>
</clustering>
</event>
<event>
 9    2  0.1723348E-004  0.1087808E+03  0.7546771E-02  0.1265695E+00
         21   -1    0    0  501  502  0.00000000000E+00  0.00000000000E+00  0.22001155630E+02  0.22001155630E+02  0.00000000000E+00 0.  1.
          2   -1    0    0  502    0 -0.00000000000E+00 -0.00000000000E+00 -0.90616102705E+03  0.90616102705E+03  0.00000000000E+00 0. -1.
         24    2    1    2    0    0  0.16892696346E+02 -0.41582553695E+02 -0.29413499943E+03  0.30927245956E+03  0.84377629659E+02 0.  0.
         23    2    1    2    0    0 -0.41861423124E+02  0.72412000201E+02 -0.27831734953E+03  0.30466771300E+03  0.91465795667E+02 0.  0.
        -11    1    3    3    0    0  0.28528243852E+02  0.14515652833E+02 -0.57584353635E+02  0.65882643071E+02  0.00000000000E+00 0.  1.
         12    1    3    3    0    0 -0.11635547506E+02 -0.56098206527E+02 -0.23655064580E+03  0.24338981648E+03  0.00000000000E+00 0. -1.
        -11    1    4    4    0    0 -0.41099225551E+02 -0.51069462932E+01 -0.59262158558E+02  0.72299589751E+02  0.00000000000E+00 0.  1.
         11    1    4    4    0    0 -0.76219757338E+00  0.77518946494E+02 -0.21905519097E+03  0.23236812325E+03  0.00000000000E+00 0. -1.
          1    1    1    2  501    0  0.24968726779E+02 -0.30829446506E+02 -0.31170752246E+03  0.31422201012E+03  0.00000000000E+00 0. -1.
<scales pt_clust_5="13000.00000" pt_clust_6="13000.00000" pt_clust_7="13000.00000" pt_clust_8="13000.00000" pt_clust_9="39.67233"></scales>
<clustering>
<clus scale="   39.672">  1  9  2 -1</clus>
<clus scale="   84.378">  5  6 -1 -1</clus>
<clus scale="   91.466">  7  8 -1 -1</clus>
<clus scale="  102.892">  2  5  1 -1</clus>
<clus scale="   39.672">  1  5  2 -1</clus>
</clustering>
</event>
<event>
 9    2  0.1723348E-004  0.1091962E+03  0.7546771E-02  0.1266338E+00
         -3   -1    0    0    0  501 -0.00000000000E+00  0.00000000000E+00  0.97283508069E+03  0.97283508069E+03  0.00000000000E+00 0.  1.
         21   -1    0    0  501  502  0.00000000000E+00 -0.00000000000E+00 -0.47616999658E+02  0.47616999658E+02  0.00000000000E+00 0.  1.
         24    2    1    2    0    0 -0.61496099182E+02 -0.17565206738E+02  0.77274265403E+03  0.77983186929E+03  0.83163864171E+02 0.  0.
         23    2    1    2    0    0  0.23780417935E+02  0.18964169462E+02  0.17199497276E+03  0.19812971358E+03  0.93530555161E+02 0.  0.
        -13    1    3    3    0    0 -0.55393244854E+02  0.59582661346E+01  0.23398120383E+03  0.24052258991E+03  0.00000000000E+00 0.  1.
         14    1    3    3    0    0 -0.61028543276E+01 -0.23523472873E+02  0.53876145020E+03  0.53930927939E+03  0.00000000000E+00 0. -1.
        -13    1    4    4    0    0 -0.77075640253E+01 -0.31344605385E+02  0.98551986761E+02  0.10370335059E+03  0.00000000000E+00 0.  1.
         13    1    4    4    0    0  0.31487981961E+02  0.50308774847E+02  0.73442985999E+02  0.94426362987E+02  0.00000000000E+00 0. -1.
         -4    1    1    2    0  502  0.37715681246E+02 -0.13989627238E+01 -0.19519545762E+02  0.42490497471E+02  0.00000000000E+00 0.  1.
<scales pt_clust_5="13000.00000" pt_clust_6="13000.00000" pt_clust_7="13000.00000" pt_clust_8="13000.00000" pt_clust_9="37.74162"></scales>
<clustering>
<clus scale="   37.742">  2  9  1 -1</clus>
<clus scale="   83.164">  5  6 -1 -1</clus>
<clus scale="   93.531">  7  8 -1 -1</clus>
<clus scale="  100.459">  1  5  2 -1</clus>
<clus scale="   37.742">  2  5  1 -1</clus>
</clustering>
</event>
<event>
 9    2  0.1723348E-004  0.9536823E+02  0.7546771E-02  0.1295763E+00
          2   -1    0    0  502    0 -0.00000000000E+00  0.00000000000E+00  0.35513163705E+03  0.35513163705E+03  0.00000000000E+00 0. -1.
         21   -1    0    0  501  502  0.00000000000E+00 -0.00000000000E+00 -0.11361629834E+03  0.11361629834E+03  0.00000000000E+00 0. -1.
         23    2    1    2    0    0  0.26724638190E+02  0.96005707765E+01  0.23260067937E+03  0.25121344421E+03  0.90546900916E+02 0.  0.
         24    2    1    2    0    0 -0.48912688817E+02 -0.19052490346E+01 -0.81080269882E+02  0.12452580957E+03  0.80849155743E+02 0.  0.
        -11    1    4    4    0    0 -0.34137863190E+02  0.18612860857E+02  0.73857379930E+00  0.38889301661E+02  0.00000000000E+00 0.  1.
         12    1    4    4    0    0 -0.14774825627E+02 -0.20518109892E+02 -0.81818843681E+02  0.85636507911E+02  0.00000000000E+00 0. -1.
        -11    1    3    3    0    0  0.43970030198E+02  0.34512785871E+02  0.94208235119E+02  0.10954308517E+03  0.00000000000E+00 0.  1.
         11    1    3    3    0    0 -0.17245392009E+02 -0.24912215094E+02  0.13839244425E+03  0.14167035905E+03  0.00000000000E+00 0. -1.
          1    1    1    2  501    0  0.22188050627E+02 -0.76953217420E+01  0.89994929223E+02  0.93008681601E+02  0.00000000000E+00 0. -1.
<scales pt_clust_5="13000.00000" pt_clust_6="13000.00000" pt_clust_7="13000.00000" pt_clust_8="13000.00000" pt_clust_9="23.48464"></scales>
<clustering>
<clus scale="   23.485">  2  9  1 -1</clus>
<clus scale="   80.849">  5  6 -1 -1</clus>
<clus scale="   86.215">  2  5  1 -1</clus>
<clus scale="   90.547">  7  8 -1 -1</clus>
<clus scale="   23.485">  2  5  1 -1</clus>
</clustering>
</event>
<event>
 9    2  0.1723348E-004  0.1226948E+03  0.7546771E-02  0.1253800E+00
          2   -1    0    0  502    0 -0.00000000000E+00  0.00000000000E+00  0.48285381298E+03  0.48285381298E+03  0.00000000000E+00 0. -1.
         21   -1    0    0  501  502  0.00000000000E+00 -0.00000000000E+00 -0.55341882130E+02  0.55341882130E+02  0.00000000000E+00 0. -1.
         24    2    1    2    0    0  0.23202014951E+02  0.37828832785E+02  0.24506737455E+03  0.26127962958E+03  0.78991598771E+02 0.  0.
         23    2    1    2    0    0 -0.21284662854E+02  0.57789234468E+02  0.11559960108E+03  0.16023385153E+03  0.92298358140E+02 0.  0.
        -11    1    3    3    0    0  0.32288453799E+01  0.24140148097E+02  0.12352698836E+02  0.27308631624E+02  0.00000000000E+00 0.  1.
         12    1    3    3    0    0  0.19973169571E+02  0.13688684687E+02  0.23271467571E+03  0.23397099795E+03  0.00000000000E+00 0. -1.
        -11    1    4    4    0    0 -0.34048312426E+02  0.41782164080E+02  0.12616491206E+03  0.13719556060E+03  0.00000000000E+00 0.  1.
         11    1    4    4    0    0  0.12763649572E+02  0.16007070388E+02 -0.10565310984E+02  0.23038290930E+02  0.00000000000E+00 0. -1.
          1    1    1    2  501    0 -0.19173520963E+01 -0.95618067253E+02  0.66844955222E+02  0.11668221400E+03  0.00000000000E+00 0. -1.
<scales pt_clust_5="13000.00000" pt_clust_6="13000.00000" pt_clust_7="13000.00000" pt_clust_8="13000.00000" pt_clust_9="80.83951"></scales>
<clustering>
<clus scale="   78.992">  5  6 -1 -1</clus>
<clus scale="   90.604">  1  5  2 -1</clus>
<clus scale="   80.840">  2  9  1 -1</clus>
<clus scale="   92.298">  7  8 -1 -1</clus>
<clus scale="   80.840">  2  5  1 -1</clus>
</clustering>
</event>
<event>
 9    2  0.1723348E-004  0.1112741E+03  0.7546771E-02  0.1262852E+00
         21   -1    0    0  501  502  0.00000000000E+00  0.00000000000E+00  0.25017823391E+03  0.25017823391E+03  0.00000000000E+00 0.  1.
         -1   -1    0    0    0  501 -0.00000000000E+00 -0.00000000000E+00 -0.11930559122E+03  0.11930559122E+03  0.00000000000E+00 0.  1.
         23    2    1    2    0    0 -0.56123976397E+02  0.40562809104E+02 -0.27168870631E+02  0.11760165588E+03  0.91086550743E+02 0.  0.
         24    2    1    2    0    0  0.58372484094E+02 -0.14400182322E+02  0.80388226103E+01  0.99598401078E+02  0.78996877648E+02 0.  0.
        -13    1    4    4    0    0  0.49559285574E+01  0.29634509463E+02  0.25570743955E+01  0.30154668103E+02  0.00000000000E+00 0.  1.
         14    1    4    4    0    0  0.53416555536E+02 -0.44034691785E+02  0.54817482149E+01  0.69443732974E+02  0.00000000000E+00 0. -1.
        -13    1    3    3    0    0 -0.29767602882E+02 -0.33980622129E+01  0.28905073477E+02  0.41631241645E+02  0.00000000000E+00 0. -1.
         13    1    3    3    0    0 -0.26356373515E+02  0.43960871317E+02 -0.56073944108E+02  0.75970414239E+02  0.00000000000E+00 0.  1.
         -2    1    1    2    0  502 -0.22485076963E+01 -0.26162626782E+02  0.15000269071E+03  0.15228376816E+03  0.00000000000E+00 0.  1.
<scales pt_clust_5="13000.00000" pt_clust_6="13000.00000" pt_clust_7="13000.00000" pt_clust_8="13000.00000" pt_clust_9="26.25907"></scales>
<clustering>
<clus scale="   26.259">  1  9  2 -1</clus>
<clus scale="   78.997">  5  6 -1 -1</clus>
<clus scale="   91.087">  7  8 -1 -1</clus>
<clus scale="  101.615">  1  5  2 -1</clus>
<clus scale="   26.259">  1  5  2 -1</clus>
</clustering>
</event>
<event>
 9    2  0.1723348E-004  0.2040566E+03  0.7546771E-02  0.1177306E+00
          2   -1    0    0  502    0 -0.00000000000E+00  0.00000000000E+00  0.75131109320E+03  0.75131109320E+03  0.00000000000E+00 0. -1.
         21   -1    0    0  501  502  0.00000000000E+00 -0.00000000000E+00 -0.18707620157E+03  0.18707620157E+03  0.00000000000E+00 0. -1.
         23    2    1    2    0    0 -0.59075307205E+01  0.36384147347E+02  0.19810386227E+02  0.10145940713E+03  0.92427565125E+02 0.  0.
         24    2    1    2    0    0  0.79450084459E+02 -0.20487227080E+03  0.60065920715E+03  0.64468039966E+03  0.80847828061E+02 0.  0.
        -11    1    4    4    0    0  0.34761238142E+02 -0.13408037911E+02  0.10753973268E+03  0.11381086619E+03  0.00000000000E+00 0.  1.
         12    1    4    4    0    0  0.44688846317E+02 -0.19146423289E+03  0.49311947448E+03  0.53086953347E+03  0.00000000000E+00 0. -1.
        -11    1    3    3    0    0 -0.46636916015E+02  0.23490456157E+02  0.25928984476E+02  0.58301935661E+02  0.00000000000E+00 0.  1.
         11    1    3    3    0    0  0.40729385294E+02  0.12893691191E+02 -0.61185982491E+01  0.43157471468E+02  0.00000000000E+00 0. -1.
          1    1    1    2  501    0 -0.73542553739E+02  0.16848812346E+03 -0.56234701741E+02  0.19224748798E+03  0.00000000000E+00 0. -1.
<scales pt_clust_5="13000.00000" pt_clust_6="13000.00000" pt_clust_7="13000.00000" pt_clust_8="13000.00000" pt_clust_9="187.35716"></scales>
<clustering>
<clus scale="   80.848">  5  6 -1 -1</clus>
<clus scale="   92.428">  7  8 -1 -1</clus>
<clus scale="   99.507">  1  7  2 -1</clus>
<clus scale="  187.357">  2  9  1 -1</clus>
<clus scale="  187.357">  2  5  1 -1</clus>
</clustering>
</event>
<event>
 9    2  0.1723348E-004  0.1197325E+03  0.7546771E-02  0.1246516E+00
         -3   -1    0    0    0  501 -0.00000000000E+00  0.00000000000E+00  0.13983004319E+03  0.13983004319E+03  0.00000000000E+00 0.  1.
         21   -1    0    0  501  502  0.00000000000E+00 -0.00000000000E+00 -0.22859341800E+03  0.22859341800E+03  0.00000000000E+00 0. -1.
         24    2    1    2    0    0 -0.88490212733E+02  0.30211751551E+00  0.79792266005E+02  0.14394440788E+03  0.80762477801E+02 0.  0.
         23    2    1    2    0    0  0.39072487856E+02  0.55259683224E+01 -0.11097713649E+03  0.14837805281E+03  0.90238163206E+02 0.  0.
        -11    1    3    3    0    0 -0.97088389984E+02  0.19101344037E+02  0.62912845346E+02  0.11725631294E+03  0.00000000000E+00 0.  1.
         12    1    3    3    0    0  0.85981772513E+01 -0.18799226521E+02  0.16879420659E+02  0.26688094942E+02  0.00000000000E+00 0. -1.
        -13    1    4    4    0    0  0.30187481459E+02 -0.14153622519E+02  0.19570862723E+01  0.33398192375E+02  0.00000000000E+00 0.  1.
         13    1    4    4    0    0  0.88850063970E+01  0.19679590841E+02 -0.11293422277E+03  0.11497986044E+03  0.00000000000E+00 0. -1.
         -4    1    1    2    0  502  0.49417724877E+02 -0.58280858379E+01 -0.57578504322E+02  0.76101000496E+02  0.00000000000E+00 0.  1.
<scales pt_clust_5="13000.00000" pt_clust_6="13000.00000" pt_clust_7="13000.00000" pt_clust_8="13000.00000" pt_clust_9="49.76021"></scales>
<clustering>
<clus scale="   49.760">  2  9  1 -1</clus>
<clus scale="   80.762">  5  6 -1 -1</clus>
<clus scale="   90.238">  7  8 -1 -1</clus>
<clus scale="  112.763">  1  5  2 -1</clus>
<clus scale="   49.760">  2  5  1 -1</clus>
</clustering>
</event>
<event>
 9    2  0.1723348E-004  0.1952693E+03  0.7546771E-02  0.1154450E+00
          2   -1    0    0  502    0 -0.00000000000E+00  0.00000000000E+00  0.10520336873E+04  0.10520336873E+04  0.00000000000E+00 0. -1.
         21   -1    0    0  501  502  0.00000000000E+00 -0.00000000000E+00 -0.60152943198E+02  0.60152943198E+02  0.00000000000E+00 0.  1.
         23    2    1    2    0    0  0.89162161408E+02 -0.13437711423E+03  0.40886738079E+03  0.44878891122E+03  0.90729553639E+02 0.  0.
         24    2    1    2    0    0 -0.17719453954E+03  0.98821960559E+02  0.37170623051E+03  0.43174156692E+03  0.84092651746E+02 0.  0.
        -13    1    4    4    0    0 -0.17270339304E+03  0.11066920854E+03  0.36076788500E+03  0.41500313557E+03  0.00000000000E+00 0.  1.
         14    1    4    4    0    0 -0.44911465026E+01 -0.11847247981E+02  0.10938345505E+02  0.16738431349E+02  0.00000000000E+00 0. -1.
        -13    1    3    3    0    0  0.15704306314E+02 -0.39391115837E+02  0.22653006223E+03  0.23046508268E+03  0.00000000000E+00 0. -1.
         13    1    3    3    0    0  0.73457855094E+02 -0.94985998395E+02  0.18233731856E+03  0.21832382854E+03  0.00000000000E+00 0.  1.
          1    1    1    2  501    0  0.88032378131E+02  0.35555153673E+02  0.21130713282E+03  0.23165615237E+03  0.00000000000E+00 0. -1.
<scales pt_clust_5="13000.00000" pt_clust_6="13000.00000" pt_clust_7="13000.00000" pt_clust_8="13000.00000" pt_clust_9="94.94144"></scales>
<clustering>
<clus scale="   84.093">  5  6 -1 -1</clus>
<clus scale="   90.730">  7  8 -1 -1</clus>
<clus scale="   94.941">  2  9  1 -1</clus>
<clus scale="  192.275">  2  5  1 -1</clus>
<clus scale="   94.941">  2  5  1 -1</clus>
</clustering>
</event>
<event>
 9    2  0.1723348E-004  0.1120416E+03  0.7546771E-02  0.1262223E+00
         -1   -1    0    0    0  501 -0.00000000000E+00  0.00000000000E+00  0.48928414384E+03  0.48928414384E+03  0.00000000000E+00 0.  1.
         21   -1    0    0  501  502  0.00000000000E+00 -0.00000000000E+00 -0.91901522707E+02  0.91901522707E+02  0.00000000000E+00 0. -1.
         24    2    1    2    0    0  0.82878539742E+02  0.24469764048E+02  0.97906772314E+02  0.15384567527E+03  0.81333474238E+02 0.  0.
         23    2    1    2    0    0  0.23003251222E+02 -0.61107894121E+02  0.57627358990E+01  0.11298239405E+03  0.92024387800E+02 0.  0.
        -11    1    3    3    0    0  0.33643523839E+02  0.51557820256E+02  0.60661211280E+02  0.86428456423E+02  0.00000000000E+00 0.  1.
         12    1    3    3    0    0  0.49235015903E+02 -0.27088056208E+02  0.37245561035E+02  0.67417218846E+02  0.00000000000E+00 0. -1.
        -11    1    4    4    0    0 -0.81664369293E+01 -0.45926926366E+02  0.42044473672E+02  0.62798973112E+02  0.00000000000E+00 0.  1.
         11    1    4    4    0    0  0.31169688151E+02 -0.15180967755E+02 -0.36281737773E+02  0.50183420940E+02  0.00000000000E+00 0. -1.
         -2    1    1    2    0  502 -0.10588179096E+03  0.36638130073E+02  0.29371311292E+03  0.31435759723E+03  0.00000000000E+00 0.  1.
<scales pt_clust_5="13000.00000" pt_clust_6="13000.00000" pt_clust_7="13000.00000" pt_clust_8="13000.00000" pt_clust_9="112.04159"></scales>
<clustering>
<clus scale="   81.333">  5  6 -1 -1</clus>
<clus scale="   92.024">  7  8 -1 -1</clus>
<clus scale="  112.042">  2  9  1 -1</clus>
<clus scale="  100.776">  1  5  2 -1</clus>
<clus scale="  112.042">  2  5  1 -1</clus>
</clustering>
</event>
<event>
 9    2  0.1723348E-004  0.1379373E+03  0.7546771E-02  0.1219100E+00
         21   -1    0    0  501  502  0.00000000000E+00  0.00000000000E+00  0.29579965518E+02  0.29579965518E+02  0.00000000000E+00 0. -1.
          2   -1    0    0  502    0 -0.00000000000E+00 -0.00000000000E+00 -0.94305190986E+03  0.94305190986E+03  0.00000000000E+00 0. -1.
         24    2    1    2    0    0 -0.40539236767E+02 -0.90046212951E+02 -0.54160490298E+03  0.55651669653E+03  0.81383121079E+02 0.  0.
         23    2    1    2    0    0  0.24687664288E+02  0.10267747712E+03 -0.36956407708E+03  0.39571604090E+03  0.94135184091E+02 0.  0.
        -13    1    3    3    0    0 -0.66361983945E+01 -0.93553334676E+02 -0.40640716465E+03  0.41708877836E+03  0.00000000000E+00 0.  1.
         14    1    3    3    0    0 -0.33903038373E+02  0.35071217255E+01 -0.13519773833E+03  0.13942791817E+03  0.00000000000E+00 0. -1.
        -11    1    4    4    0    0 -0.30053358015E+02  0.31004948210E+02 -0.18915338867E+03  0.19401936910E+03  0.00000000000E+00 0. -1.
         11    1    4    4    0    0  0.54741022302E+02  0.71672528906E+02 -0.18041068841E+03  0.20169667180E+03  0.00000000000E+00 0.  1.
          1    1    1    2  501    0  0.15851572479E+02 -0.12631264165E+02 -0.23029642785E+01  0.20399137946E+02  0.00000000000E+00 0. -1.
<scales pt_clust_5="13000.00000" pt_clust_6="13000.00000" pt_clust_7="13000.00000" pt_clust_8="13000.00000" pt_clust_9="20.26872"></scales>
<clustering>
<clus scale="   20.269">  1  9  2 -1</clus>
<clus scale="   81.383">  5  6 -1 -1</clus>
<clus scale="   94.135">  7  8 -1 -1</clus>
<clus scale="  129.570">  2  5  1 -1</clus>
<clus scale="   20.269">  1  5  2 -1</clus>
</clustering>
</event>
<event>
 9    2  0.1723348E-004  0.1210527E+03  0.7546771E-02  0.1246490E+00
          2   -1    0    0  502    0 -0.00000000000E+00  0.00000000000E+00  0.52296561190E+03  0.52296561190E+03  0.00000000000E+00 0. -1.
         21   -1    0    0  501  502  0.00000000000E+00 -0.00000000000E+00 -0.12660855499E+03  0.12660855499E+03  0.00000000000E+00 0. -1.
         24    2    1    2    0    0  0.12061764381E+02 -0.76958717587E+02  0.41638546974E+03  0.43089419991E+03  0.78897539464E+02 0.  0.
         23    2    1    2    0    0  0.64131737775E+02  0.63086158815E+02  0.18989707759E+02  0.13196023801E+03  0.94658080437E+02 0.  0.
        -13    1    3    3    0    0 -0.22618214756E+02 -0.68874555915E+02  0.23058455242E+03  0.24171165447E+03  0.00000000000E+00 0.  1.
         14    1    3    3    0    0  0.34679979138E+02 -0.80841616717E+01  0.18580091732E+03  0.18918254544E+03  0.00000000000E+00 0. -1.
        -13    1    4    4    0    0  0.11234839326E+02  0.61439177954E+02 -0.20710464108E+02  0.65802108825E+02  0.00000000000E+00 0.  1.
         13    1    4    4    0    0  0.52896898449E+02  0.16469808611E+01  0.39700171867E+02  0.66158129189E+02  0.00000000000E+00 0. -1.
          1    1    1    2  501    0 -0.76193502157E+02  0.13872558772E+02 -0.39018120595E+02  0.86719728969E+02  0.00000000000E+00 0. -1.
<scales pt_clust_5="13000.00000" pt_clust_6="13000.00000" pt_clust_7="13000.00000" pt_clust_8="13000.00000" pt_clust_9="77.44610"></scales>
<clustering>
<clus scale="   77.446">  2  9  1 -1</clus>
<clus scale="   78.898">  5  6 -1 -1</clus>
<clus scale="   94.658">  7  8 -1 -1</clus>
<clus scale="  109.172">  1  5  2 -1</clus>
<clus scale="   77.446">  2  5  1 -1</clus>
</clustering>
</event>
<event>
 9    2  0.1723348E-004  0.9383434E+02  0.7546771E-02  0.1299636E+00
          2   -1    0    0  502    0 -0.00000000000E+00  0.00000000000E+00  0.46457629522E+03  0.46457629522E+03  0.00000000000E+00 0. -1.
         21   -1    0    0  501  502  0.00000000000E+00 -0.00000000000E+00 -0.48667845074E+02  0.48667845074E+02  0.00000000000E+00 0. -1.
         24    2    1    2    0    0  0.51245297345E+01  0.22154499496E+02  0.33413446036E+03  0.34486455778E+03  0.82271762842E+02 0.  0.
         23    2    1    2    0    0 -0.30178726553E+02  0.19235210754E+02  0.53131749615E+02  0.11215504326E+03  0.92059882914E+02 0.  0.
        -11    1    3    3    0    0  0.15978892522E+02 -0.26472858589E+02  0.77549434240E+02  0.83486837280E+02  0.00000000000E+00 0.  1.
         12    1    3    3    0    0 -0.10854362787E+02  0.48627358084E+02  0.25658502612E+03  0.26137772050E+03  0.00000000000E+00 0. -1.
        -11    1    4    4    0    0 -0.61736686409E+02  0.38702090333E+00  0.29217912692E+02  0.68302669465E+02  0.00000000000E+00 0.  1.
         11    1    4    4    0    0  0.31557959857E+02  0.18848189850E+02  0.23913836922E+02  0.43852373793E+02  0.00000000000E+00 0. -1.
          1    1    1    2  501    0  0.25054196818E+02 -0.41389710249E+02  0.28642240179E+02  0.56224539262E+02  0.00000000000E+00 0. -1.
<scales pt_clust_5="13000.00000" pt_clust_6="13000.00000" pt_clust_7="13000.00000" pt_clust_8="13000.00000" pt_clust_9="48.38203"></scales>
<clustering>
<clus scale="   48.382">  2  9  1 -1</clus>
<clus scale="   82.272">  5  6 -1 -1</clus>
<clus scale="   84.253">  1  5  2 -1</clus>
<clus scale="   92.060">  7  8 -1 -1</clus>
<clus scale="   48.382">  2  5  1 -1</clus>
</clustering>
</event>
<event>
 9    2  0.1723348E-004  0.2161460E+03  0.7546771E-02  0.1169426E+00
         21   -1    0    0  501  502  0.00000000000E+00  0.00000000000E+00  0.26569754894E+03  0.26569754894E+03  0.00000000000E+00 0. -1.
          2   -1    0    0  502    0 -0.00000000000E+00 -0.00000000000E+00 -0.16146252340E+04  0.16146252340E+04  0.00000000000E+00 0. -1.
         24    2    1    2    0    0  0.55950648501E+02  0.19679904517E+01 -0.99508454185E+02  0.14118710781E+03  0.83051302836E+02 0.  0.
         23    2    1    2    0    0 -0.20688209553E+03  0.12112814648E+03 -0.14423530691E+04  0.14649889505E+04  0.91312758528E+02 0.  0.
        -11    1    3    3    0    0  0.77454470212E+02  0.77037217192E+01 -0.75198966142E+02  0.10822858584E+03  0.00000000000E+00 0.  1.
         12    1    3    3    0    0 -0.21503821711E+02 -0.57357312675E+01 -0.24309488044E+02  0.32958521968E+02  0.00000000000E+00 0. -1.
        -11    1    4    4    0    0  0.12275111318E+01  0.26005023855E+02 -0.10354528461E+03  0.10676794469E+03  0.00000000000E+00 0.  1.
         11    1    4    4    0    0 -0.20810960667E+03  0.95123122622E+02 -0.13388077845E+04  0.13582210059E+04  0.00000000000E+00 0. -1.
          1    1    1    2  501    0  0.15093144703E+03 -0.12309613693E+03  0.19293383828E+03  0.27414672456E+03  0.00000000000E+00 0. -1.
<scales pt_clust_5="13000.00000" pt_clust_6="13000.00000" pt_clust_7="13000.00000" pt_clust_8="13000.00000" pt_clust_9="195.91088"></scales>
<clustering>
<clus scale="   83.051">  5  6 -1 -1</clus>
<clus scale="   91.313">  7  8 -1 -1</clus>
<clus scale="  100.159">  2  5  1 -1</clus>
<clus scale="  195.911">  1  9  2 -1</clus>
<clus scale="  195.911">  1  5  2 -1</clus>
</clustering>
</event>
<event>
 9    2  0.1723348E-004  0.1575968E+03  0.7546771E-02  0.1199194E+00
         21   -1    0    0  501  502  0.00000000000E+00  0.00000000000E+00  0.10700122242E+03  0.10700122242E+03  0.00000000000E+00 0.  1.
         -1   -1    0    0    0  501 -0.00000000000E+00 -0.00000000000E+00 -0.59546595423E+03  0.59546595423E+03  0.00000000000E+00 0.  1.
         24    2    1    2    0    0 -0.11147963421E+03  0.35330534573E+02 -0.46394487960E+03  0.48485209469E+03  0.78490425568E+02 0.  0.
         23    2    1    2    0    0  0.42703944349E+02 -0.60063605284E+02 -0.40549769301E+02  0.14279009586E+03  0.11538398565E+03 0.  0.
        -13    1    3    3    0    0 -0.72669695105E+02 -0.11698933477E+02 -0.32304565893E+03  0.33132498756E+03  0.00000000000E+00 0.  1.
         14    1    3    3    0    0 -0.38809939101E+02  0.47029468050E+02 -0.14089922068E+03  0.15352710713E+03  0.00000000000E+00 0. -1.
        -13    1    4    4    0    0  0.43065112733E+01 -0.29331451754E+02 -0.76386076081E+02  0.81937248675E+02  0.00000000000E+00 0. -1.
         13    1    4    4    0    0  0.38397433075E+02 -0.30732153530E+02  0.35836306780E+02  0.60852847189E+02  0.00000000000E+00 0.  1.
         -2    1    1    2    0  502  0.68775689858E+02  0.24733070710E+02  0.16029917090E+02  0.74824986095E+02  0.00000000000E+00 0.  1.
<scales pt_clust_5="13000.00000" pt_clust_6="13000.00000" pt_clust_7="13000.00000" pt_clust_8="13000.00000" pt_clust_9="73.08776"></scales>
<clustering>
<clus scale="   73.088">  1  9  2 -1</clus>
<clus scale="   78.490">  5  6 -1 -1</clus>
<clus scale="  115.384">  7  8 -1 -1</clus>
<clus scale="  132.981">  2  5  1 -1</clus>
<clus scale="   73.088">  1  5  2 -1</clus>
</clustering>
</event>
<event>
 9    2  0.1723348E-004  0.9931394E+02  0.7546771E-02  0.1285100E+00
         21   -1    0    0  501  502  0.00000000000E+00  0.00000000000E+00  0.13264505619E+02  0.13264505619E+02  0.00000000000E+00 0. -1.
          2   -1    0    0  502    0 -0.00000000000E+00 -0.00000000000E+00 -0.11184604938E+04  0.11184604938E+04  0.00000000000E+00 0. -1.
         24    2    1    2    0    0 -0.10523088846E+02 -0.48480702385E+02 -0.67202960982E+03  0.67855366258E+03  0.79687907696E+02 0.  0.
         23    2    1    2    0    0  0.39205550119E+02  0.34854311036E+02 -0.32633140756E+03  0.34171698244E+03  0.86754886732E+02 0.  0.
        -13    1    3    3    0    0 -0.36011737354E+02  0.28005990397E+00 -0.18899241108E+03  0.19239297053E+03  0.00000000000E+00 0.  1.
         14    1    3    3    0    0  0.25488648508E+02 -0.48760762289E+02 -0.48303719873E+03  0.48616069206E+03  0.00000000000E+00 0. -1.
        -11    1    4    4    0    0 -0.11599118102E+02  0.39855206065E+02 -0.21855044544E+03  0.22245735365E+03  0.00000000000E+00 0.  1.
         11    1    4    4    0    0  0.50804668221E+02 -0.50008950286E+01 -0.10778096212E+03  0.11925962879E+03  0.00000000000E+00 0. -1.
          1    1    1    2  501    0 -0.28682461273E+02  0.13626391349E+02 -0.10683497078E+03  0.11145435437E+03  0.00000000000E+00 0. -1.
<scales pt_clust_5="13000.00000" pt_clust_6="13000.00000" pt_clust_7="13000.00000" pt_clust_8="13000.00000" pt_clust_9="31.75472"></scales>
<clustering>
<clus scale="   31.755">  1  9  2 -1</clus>
<clus scale="   79.688">  5  6 -1 -1</clus>
<clus scale="   86.755">  7  8 -1 -1</clus>
<clus scale="   93.204">  2  5  1 -1</clus>
<clus scale="   31.755">  1  5  2 -1</clus>
</clustering>
</event>
<event>
 9    2  0.1723348E-004  0.1077849E+03  0.7546771E-02  0.1268010E+00
         21   -1    0    0  501  502  0.00000000000E+00  0.00000000000E+00  0.76232771654E+02  0.76232771654E+02  0.00000000000E+00 0. -1.
          2   -1    0    0  502    0 -0.00000000000E+00 -0.00000000000E+00 -0.22296418632E+03  0.22296418632E+03  0.00000000000E+00 0. -1.
         23    2    1    2    0    0 -0.48828842621E+02  0.65548717404E+01 -0.96414749328E+02  0.14059012675E+03  0.89680307961E+02 0.  0.
         24    2    1    2    0    0  0.72524752072E+02 -0.21901506726E+02 -0.62729161333E+02  0.12776715894E+03  0.81547431367E+02 0.  0.
        -11    1    4    4    0    0  0.71188536932E+02 -0.97175350853E+01 -0.87098298190E+01  0.72374715296E+02  0.00000000000E+00 0.  1.
         12    1    4    4    0    0  0.13362151395E+01 -0.12183971640E+02 -0.54019331514E+02  0.55392443646E+02  0.00000000000E+00 0. -1.
        -11    1    3    3    0    0 -0.71159936223E+02  0.20423532796E+02 -0.58023567871E+02  0.94061637470E+02  0.00000000000E+00 0. -1.
         11    1    3    3    0    0  0.22331093602E+02 -0.13868661055E+02 -0.38391181457E+02  0.46528489279E+02  0.00000000000E+00 0.  1.
          1    1    1    2  501    0 -0.23695909450E+02  0.15346634985E+02  0.12412495992E+02  0.30839672287E+02  0.00000000000E+00 0. -1.
<scales pt_clust_5="13000.00000" pt_clust_6="13000.00000" pt_clust_7="13000.00000" pt_clust_8="13000.00000" pt_clust_9="28.23146"></scales>
<clustering>
<clus scale="   28.231">  1  9  2 -1</clus>
<clus scale="   81.547">  5  6 -1 -1</clus>
<clus scale="   89.680">  7  8 -1 -1</clus>
<clus scale="  101.119">  1  5  2 -1</clus>
<clus scale="   28.231">  1  5  2 -1</clus>
</clustering>
</event>
<event>
 9    2  0.1723348E-004  0.1717360E+03  0.7546771E-02  0.1177257E+00
          4   -1    0    0  502    0 -0.00000000000E+00  0.00000000000E+00  0.15033547531E+03  0.15033547531E+03  0.00000000000E+00 0. -1.
         21   -1    0    0  501  502  0.00000000000E+00 -0.00000000000E+00 -0.30737809631E+03  0.30737809631E+03  0.00000000000E+00 0.  1.
         24    2    1    2    0    0 -0.13013012534E+03 -0.54979263071E+02  0.31967144041E+02  0.16582607532E+03  0.80745402763E+02 0.  0.
         23    2    1    2    0    0  0.15664553449E+03  0.48344699958E+02 -0.18705849288E+03  0.26448509106E+03  0.89924691508E+02 0.  0.
        -11    1    3    3    0    0 -0.21588145253E+02  0.16852939548E+02  0.22284067405E+02  0.35307920457E+02  0.00000000000E+00 0.  1.
         12    1    3    3    0    0 -0.10854198009E+03 -0.71832202619E+02  0.96830766362E+01  0.13051815486E+03  0.00000000000E+00 0. -1.
        -13    1    4    4    0    0  0.13057305066E+03  0.32210238045E+02 -0.19097274365E+03  0.23357527654E+03  0.00000000000E+00 0.  1.
         13    1    4    4    0    0  0.26072483828E+02  0.16134461913E+02  0.39142507716E+01  0.30909814514E+02  0.00000000000E+00 0. -1.
          3    1    1    2  501    0 -0.26515409151E+02  0.66345631130E+01 -0.19512721632E+01  0.27402405245E+02  0.00000000000E+00 0. -1.
<scales pt_clust_5="13000.00000" pt_clust_6="13000.00000" pt_clust_7="13000.00000" pt_clust_8="13000.00000" pt_clust_9="27.33286"></scales>
<clustering>
<clus scale="   27.333">  2  9  1 -1</clus>
<clus scale="   80.745">  5  6 -1 -1</clus>
<clus scale="   89.925">  7  8 -1 -1</clus>
<clus scale="  167.113">  1  5  2 -1</clus>
<clus scale="   27.333">  2  5  1 -1</clus>
</clustering>
</event>
<event>
 9    2  0.1723348E-004  0.9497649E+02  0.7546771E-02  0.1298162E+00
          2   -1    0    0  502    0 -0.00000000000E+00  0.00000000000E+00  0.63879231548E+03  0.63879231548E+03  0.00000000000E+00 0. -1.
         21   -1    0    0  501  502  0.00000000000E+00 -0.00000000000E+00 -0.32936474790E+02  0.32936474790E+02  0.00000000000E+00 0. -1.
         24    2    1    2    0    0 -0.25039214852E+02  0.24352637359E+02  0.40988260465E+03  0.41912712970E+03  0.80273208696E+02 0.  0.
         23    2    1    2    0    0  0.39369708702E+01  0.13512969622E+02  0.18609480852E+03  0.20814165355E+03  0.92160566937E+02 0.  0.
        -11    1    3    3    0    0 -0.47575198917E+01 -0.29547564998E+02  0.13542642883E+03  0.13869394441E+03  0.00000000000E+00 0.  1.
         12    1    3    3    0    0 -0.20281694960E+02  0.53900202357E+02  0.27445617582E+03  0.28043318529E+03  0.00000000000E+00 0. -1.
        -11    1    4    4    0    0  0.32889093971E+02 -0.27427027340E+02  0.77994263990E+02  0.88977747478E+02  0.00000000000E+00 0.  1.
         11    1    4    4    0    0 -0.28952123101E+02  0.40939996962E+02  0.10810054453E+03  0.11916390608E+03  0.00000000000E+00 0. -1.
          1    1    1    2  501    0  0.21102243982E+02 -0.37865606981E+02  0.98784275203E+01  0.44460007011E+02  0.00000000000E+00 0. -1.
<scales pt_clust_5="13000.00000" pt_clust_6="13000.00000" pt_clust_7="13000.00000" pt_clust_8="13000.00000" pt_clust_9="43.34869"></scales>
<clustering>
<clus scale="   43.349">  2  9  1 -1</clus>
<clus scale="   80.273">  5  6 -1 -1</clus>
<clus scale="   83.491">  1  5  2 -1</clus>
<clus scale="   92.161">  7  8 -1 -1</clus>
<clus scale="   43.349">  2  5  1 -1</clus>
</clustering>
</event>
<event>
 9    2  0.1723348E-004  0.9818781E+02  0.7546771E-02  0.1285955E+00
         21   -1    0    0  501  502  0.00000000000E+00  0.00000000000E+00  0.49542958631E+02  0.49542958631E+02  0.00000000000E+00 0.  1.
         -1   -1    0    0    0  501 -0.00000000000E+00 -0.00000000000E+00 -0.40335007507E+03  0.40335007507E+03  0.00000000000E+00 0.  1.
         23    2    1    2    0    0  0.52256006966E+02  0.11869499951E+02 -0.27537890143E+03  0.29449769981E+03  0.89575557758E+02 0.  0.
         24    2    1    2    0    0 -0.13949698800E+02  0.29454926299E+01 -0.78561157547E+02  0.11732375097E+03  0.85963579750E+02 0.  0.
        -13    1    4    4    0    0  0.44397693748E+01  0.42898980437E+02 -0.37426689186E+02  0.57103337364E+02  0.00000000000E+00 0.  1.
         14    1    4    4    0    0 -0.18389468175E+02 -0.39953487807E+02 -0.41134468361E+02  0.60220413608E+02  0.00000000000E+00 0. -1.
        -13    1    3    3    0    0  0.18536835412E+02  0.48984189991E+02 -0.16825986161E+03  0.17622271751E+03  0.00000000000E+00 0.  1.
         13    1    3    3    0    0  0.33719171554E+02 -0.37114690041E+02 -0.10711903982E+03  0.11827498230E+03  0.00000000000E+00 0. -1.
         -2    1    1    2    0  502 -0.38306308165E+02 -0.14814992580E+02  0.13294253062E+00  0.41071582927E+02  0.00000000000E+00 0.  1.
<scales pt_clust_5="13000.00000" pt_clust_6="13000.00000" pt_clust_7="13000.00000" pt_clust_8="13000.00000" pt_clust_9="41.07137"></scales>
<clustering>
<clus scale="   41.071">  1  9  2 -1</clus>
<clus scale="   85.964">  5  6 -1 -1</clus>
<clus scale="   89.576">  7  8 -1 -1</clus>
<clus scale="   94.904">  1  5  2 -1</clus>
<clus scale="   41.071">  1  5  2 -1</clus>
</clustering>
</event>
<event>
 9    2  0.1723348E-004  0.1806219E+03  0.7546771E-02  0.1186800E+00
          2   -1    0    0  502    0 -0.00000000000E+00  0.00000000000E+00  0.66410614044E+03  0.66410614044E+03  0.00000000000E+00 0. -1.
         21   -1    0    0  501  502  0.00000000000E+00 -0.00000000000E+00 -0.14209530324E+03  0.14209530324E+03  0.00000000000E+00 0. -1.
         24    2    1    2    0    0  0.71428641572E+00 -0.84161695317E+02  0.23424888330E+03  0.26139501209E+03  0.79819244910E+02 0.  0.
         23    2    1    2    0    0 -0.15555103355E+03  0.42761777694E+02  0.33114897844E+03  0.37876184318E+03  0.88182732192E+02 0.  0.
        -11    1    3    3    0    0  0.23351701995E+02 -0.85607273843E+01  0.11993259572E+03  0.12248434820E+03  0.00000000000E+00 0.  1.
         12    1    3    3    0    0 -0.22637415579E+02 -0.75600967932E+02  0.11431628758E+03  0.13891066389E+03  0.00000000000E+00 0. -1.
        -13    1    4    4    0    0 -0.86847500746E+01 -0.19970790754E+02  0.22920727093E+02  0.31616721805E+02  0.00000000000E+00 0.  1.
         13    1    4    4    0    0 -0.14686628347E+03  0.62732568448E+02  0.30822825134E+03  0.34714512137E+03  0.00000000000E+00 0. -1.
          1    1    1    2  501    0  0.15483674713E+03  0.41399917623E+02 -0.43387024537E+02  0.16604458841E+03  0.00000000000E+00 0. -1.
<scales pt_clust_5="13000.00000" pt_clust_6="13000.00000" pt_clust_7="13000.00000" pt_clust_8="13000.00000" pt_clust_9="157.63269"></scales>
<clustering>
<clus scale="   79.819">  5  6 -1 -1</clus>
<clus scale="   88.183">  7  8 -1 -1</clus>
<clus scale="  115.995">  1  5  2 -1</clus>
<clus scale="  157.633">  2  9  1 -1</clus>
<clus scale="  157.633">  2  5  1 -1</clus>
</clustering>
</event>
<event>
 9    2  0.1723348E-004  0.2001750E+03  0.7546771E-02  0.1150883E+00
         21   -1    0    0  501  502  0.00000000000E+00  0.00000000000E+00  0.10391836042E+03  0.10391836042E+03  0.00000000000E+00 0. -1.
          2   -1    0    0  502    0 -0.00000000000E+00 -0.00000000000E+00 -0.49882079378E+03  0.49882079378E+03  0.00000000000E+00 0. -1.
         24    2    1    2    0    0  0.64746280193E+02 -0.16570836631E+03 -0.21687635855E+03  0.29126966690E+03  0.78430354400E+02 0.  0.
         23    2    1    2    0    0 -0.11016385159E+03  0.14408428762E+03 -0.12749268250E+03  0.24016745151E+03  0.92356182990E+02 0.  0.
        -11    1    3    3    0    0  0.11781496747E+02 -0.46138593040E+02 -0.11823460240E+03  0.12746369929E+03  0.00000000000E+00 0.  1.
         12    1    3    3    0    0  0.52964783446E+02 -0.11956977327E+03 -0.98641756157E+02  0.16380596761E+03  0.00000000000E+00 0. -1.
        -11    1    4    4    0    0 -0.89815833779E+02  0.15035751884E+03 -0.89665825117E+02  0.19675931405E+03  0.00000000000E+00 0. -1.
         11    1    4    4    0    0 -0.20348017807E+02 -0.62732312187E+01 -0.37826857379E+02  0.43408137460E+02  0.00000000000E+00 0.  1.
          1    1    1    2  501    0  0.45417571393E+02  0.21624078688E+02 -0.50533392305E+02  0.71302035793E+02  0.00000000000E+00 0. -1.
<scales pt_clust_5="13000.00000" pt_clust_6="13000.00000" pt_clust_7="13000.00000" pt_clust_8="13000.00000" pt_clust_9="50.30267"></scales>
<clustering>
<clus scale="   50.303">  1  9  2 -1</clus>
<clus scale="   78.430">  5  6 -1 -1</clus>
<clus scale="   92.356">  7  8 -1 -1</clus>
<clus scale="  194.143">  2  5  1 -1</clus>
<clus scale="   50.303">  1  5  2 -1</clus>
</clustering>
</event>
<event>
 9    2  0.1723348E-004  0.4362106E+03  0.7546771E-02  0.1031916E+00
          2   -1    0    0  502    0 -0.00000000000E+00  0.00000000000E+00  0.11900038994E+04  0.11900038994E+04  0.00000000000E+00 0. -1.
         21   -1    0    0  501  502  0.00000000000E+00 -0.00000000000E+00 -0.21425574082E+03  0.21425574082E+03  0.00000000000E+00 0. -1.
         24    2    1    2    0    0  0.14244767238E+03 -0.14272233249E+03  0.12704545999E+03  0.25162799346E+03  0.80716136114E+02 0.  0.
         23    2    1    2    0    0  0.16590848630E+03 -0.44430875303E+02 -0.40455946450E+02  0.19309376849E+03  0.78414229082E+02 0.  0.
        -11    1    3    3    0    0  0.84808880971E+02 -0.86911587304E+02  0.28832485531E+02  0.12480978536E+03  0.00000000000E+00 0.  1.
         12    1    3    3    0    0  0.57638791407E+02 -0.55810745189E+02  0.98212974459E+02  0.12681820810E+03  0.00000000000E+00 0. -1.
        -11    1    4    4    0    0  0.15298900938E+03 -0.24780295757E+02 -0.56127536378E+02  0.16483325026E+03  0.00000000000E+00 0. -1.
         11    1    4    4    0    0  0.12919476914E+02 -0.19650579547E+02  0.15671589928E+02  0.28260518239E+02  0.00000000000E+00 0.  1.
          1    1    1    2  501    0 -0.30835615868E+03  0.18715320780E+03  0.88915864509E+03  0.95953787831E+03  0.00000000000E+00 0. -1.
<scales pt_clust_5="13000.00000" pt_clust_6="13000.00000" pt_clust_7="13000.00000" pt_clust_8="13000.00000" pt_clust_9="360.70760"></scales>
<clustering>
<clus scale="   78.414">  7  8 -1 -1</clus>
<clus scale="   80.716">  5  6 -1 -1</clus>
<clus scale="  188.507">  5  7 -1 -1</clus>
<clus scale="  360.708">  2  9  1 -1</clus>
<clus scale="  360.708">  2  5  1 -1</clus>
</clustering>
</event>
<event>
 9    2  0.1723348E-004  0.2730307E+03  0.7546771E-02  0.1142910E+00
          2   -1    0    0  502    0 -0.00000000000E+00  0.00000000000E+00  0.12273575505E+04  0.12273575505E+04  0.00000000000E+00 0. -1.
         21   -1    0    0  501  502  0.00000000000E+00 -0.00000000000E+00 -0.88074823058E+02  0.88074823058E+02  0.00000000000E+00 0. -1.
         24    2    1    2    0    0  0.77302947952E+01 -0.44489404591E+02  0.58383902659E+02  0.10939738674E+03  0.80746786662E+02 0.  0.
         23    2    1    2    0    0  0.25263096990E+03  0.93451207960E+01  0.61617460603E+03  0.67218884013E+03  0.90867780053E+02 0.  0.
        -11    1    3    3    0    0  0.17627652023E+02 -0.40734388002E+02 -0.54259958448E+01  0.44715387873E+02  0.00000000000E+00 0.  1.
         12    1    3    3    0    0 -0.98973572280E+01 -0.37550165892E+01  0.63809898504E+02  0.64681998862E+02  0.00000000000E+00 0. -1.
        -13    1    4    4    0    0  0.30504440702E+02  0.33331428354E+02  0.99494236979E+02  0.10927309006E+03  0.00000000000E+00 0.  1.
         13    1    4    4    0    0  0.22212652920E+03 -0.23986307558E+02  0.51668036905E+03  0.56291575008E+03  0.00000000000E+00 0. -1.
          1    1    1    2  501    0 -0.26036126470E+03  0.35144283795E+02  0.46472421875E+03  0.53384614669E+03  0.00000000000E+00 0. -1.
<scales pt_clust_5="13000.00000" pt_clust_6="13000.00000" pt_clust_7="13000.00000" pt_clust_8="13000.00000" pt_clust_9="257.46615"></scales>
<clustering>
<clus scale="   80.747">  5  6 -1 -1</clus>
<clus scale="   90.868">  7  8 -1 -1</clus>
<clus scale="   92.515">  1  5  2 -1</clus>
<clus scale="  257.466">  2  9  1 -1</clus>
<clus scale="  257.466">  2  5  1 -1</clus>
</clustering>
</event>
<event>
 9    2  0.1723348E-004  0.2782187E+03  0.7546771E-02  0.1097176E+00
         -3   -1    0    0    0  501 -0.00000000000E+00  0.00000000000E+00  0.53836065421E+03  0.53836065421E+03  0.00000000000E+00 0.  1.
         21   -1    0    0  501  502  0.00000000000E+00 -0.00000000000E+00 -0.42299426562E+03  0.42299426562E+03  0.00000000000E+00 0.  1.
         23    2    1    2    0    0 -0.20830045028E+03  0.16626215318E+03  0.35135813763E+03  0.45013499367E+03  0.90204160012E+02 0.  0.
         24    2    1    2    0    0  0.27166104403E+03 -0.40676714847E+02 -0.23612643797E+03  0.37055619486E+03  0.78114536852E+02 0.  0.
        -13    1    4    4    0    0  0.25014439001E+03 -0.18678700061E+02 -0.18816281116E+03  0.31357033213E+03  0.00000000000E+00 0.  1.
         14    1    4    4    0    0  0.21516654027E+02 -0.21998014786E+02 -0.47963626805E+02  0.56985862732E+02  0.00000000000E+00 0. -1.
        -11    1    3    3    0    0 -0.17940600495E+03  0.17078592098E+03  0.33498771010E+03  0.41661866417E+03  0.00000000000E+00 0.  1.
         11    1    3    3    0    0 -0.28894445325E+02 -0.45237677970E+01  0.16370427529E+02  0.33516329501E+02  0.00000000000E+00 0. -1.
         -4    1    1    2    0  502 -0.63360593756E+02 -0.12558543833E+03  0.13468892616E+00  0.14066373130E+03  0.00000000000E+00 0.  1.
<scales pt_clust_5="13000.00000" pt_clust_6="13000.00000" pt_clust_7="13000.00000" pt_clust_8="13000.00000" pt_clust_9="140.66367"></scales>
<clustering>
<clus scale="   78.115">  5  6 -1 -1</clus>
<clus scale="   90.204">  7  8 -1 -1</clus>
<clus scale="  140.664">  2  9  1 -1</clus>
<clus scale="  274.537">  2  5  1 -1</clus>
<clus scale="  140.664">  2  5  1 -1</clus>
</clustering>
</event>
<event>
 9    2  0.1723348E-004  0.1128548E+03  0.7546771E-02  0.1257591E+00
         21   -1    0    0  501  502  0.00000000000E+00  0.00000000000E+00  0.37713311955E+03  0.37713311955E+03  0.00000000000E+00 0.  1.
         -1   -1    0    0    0  501 -0.00000000000E+00 -0.00000000000E+00 -0.12061259588E+03  0.12061259588E+03  0.00000000000E+00 0.  1.
         24    2    1    2    0    0  0.63974789691E+02 -0.28039516855E+02 -0.77481054160E+02  0.13295658993E+03  0.82432716986E+02 0.  0.
         23    2    1    2    0    0 -0.71881541358E+02  0.78548965903E+01  0.21231584513E+03  0.24118753507E+03  0.88683445977E+02 0.  0.
        -13    1    3    3    0    0  0.21963614707E+02 -0.34206006687E+01 -0.81136560493E+02  0.84126347410E+02  0.00000000000E+00 0.  1.
         14    1    3    3    0    0  0.42011174984E+02 -0.24618916186E+02  0.36555063322E+01  0.48830242517E+02  0.00000000000E+00 0. -1.
        -11    1    4    4    0    0  0.20329286892E+02 -0.55212051505E+01  0.44685690451E+02  0.49402171440E+02  0.00000000000E+00 0.  1.
         11    1    4    4    0    0 -0.92210828250E+02  0.13376101741E+02  0.16763015468E+03  0.19178536363E+03  0.00000000000E+00 0. -1.
         -2    1    1    2    0  502  0.79067516668E+01  0.20184620265E+02  0.12168573270E+03  0.12360159044E+03  0.00000000000E+00 0.  1.
<scales pt_clust_5="13000.00000" pt_clust_6="13000.00000" pt_clust_7="13000.00000" pt_clust_8="13000.00000" pt_clust_9="21.67800"></scales>
<clustering>
<clus scale="   21.678">  1  9  2 -1</clus>
<clus scale="   82.433">  5  6 -1 -1</clus>
<clus scale="   88.683">  7  8 -1 -1</clus>
<clus scale="  108.012">  2  5  1 -1</clus>
<clus scale="   21.678">  1  5  2 -1</clus>
</clustering>
</event>
<event>
 9    2  0.1723348E-004  0.9312094E+02  0.7546771E-02  0.1301141E+00
         21   -1    0    0  501  502  0.00000000000E+00  0.00000000000E+00  0.58455346659E+02  0.58455346659E+02  0.00000000000E+00 0.  1.
          2   -1    0    0  502    0 -0.00000000000E+00 -0.00000000000E+00 -0.38156842527E+03  0.38156842527E+03  0.00000000000E+00 0. -1.
         23    2    1    2    0    0 -0.13583022694E+02  0.13367480366E+02 -0.26765820021E+03  0.28353501327E+03  0.91586044630E+02 0.  0.
         24    2    1    2    0    0 -0.21251747161E+02 -0.21582327078E+02  0.33950340786E+01  0.87610190906E+02  0.82137602197E+02 0.  0.
        -13    1    4    4    0    0 -0.48531652675E+02 -0.14417348432E+02  0.20503225294E+02  0.54622005590E+02  0.00000000000E+00 0.  1.
         14    1    4    4    0    0  0.27279905513E+02 -0.71649786457E+01 -0.17108191215E+02  0.32988185316E+02  0.00000000000E+00 0. -1.
        -13    1    3    3    0    0 -0.41992875306E+02 -0.18660784052E+02 -0.93367077230E+02  0.10406266164E+03  0.00000000000E+00 0. -1.
         13    1    3    3    0    0  0.28409852612E+02  0.32028264418E+02 -0.17429112299E+03  0.17947235163E+03  0.00000000000E+00 0.  1.
          1    1    1    2  501    0  0.34834769856E+02  0.82148467122E+01 -0.58849912480E+02  0.68878567757E+02  0.00000000000E+00 0. -1.
<scales pt_clust_5="13000.00000" pt_clust_6="13000.00000" pt_clust_7="13000.00000" pt_clust_8="13000.00000" pt_clust_9="35.79031"></scales>
<clustering>
<clus scale="   35.790">  1  9  2 -1</clus>
<clus scale="   82.138">  5  6 -1 -1</clus>
<clus scale="   83.846">  1  5  2 -1</clus>
<clus scale="   91.586">  7  8 -1 -1</clus>
<clus scale="   35.790">  1  5  2 -1</clus>
</clustering>
</event>
<event>
 9    2  0.1723348E-004  0.9211961E+02  0.7546771E-02  0.1300214E+00
         21   -1    0    0  501  502  0.00000000000E+00  0.00000000000E+00  0.89232647096E+02  0.89232647096E+02  0.00000000000E+00 0.  1.
          2   -1    0    0  502    0 -0.00000000000E+00 -0.00000000000E+00 -0.22279308105E+03  0.22279308105E+03  0.00000000000E+00 0. -1.
         23    2    1    2    0    0 -0.36972679387E+02 -0.10243375608E+02 -0.85848623570E+02  0.12722006556E+03  0.85691616557E+02 0.  0.
         24    2    1    2    0    0  0.28092485857E+01  0.42495257314E+02  0.27735664137E+02  0.95925713835E+02  0.81355618969E+02 0.  0.
        -11    1    4    4    0    0 -0.13503575513E+02  0.30225472932E+02  0.53586474658E+02  0.62987586331E+02  0.00000000000E+00 0.  1.
         12    1    4    4    0    0  0.16312824099E+02  0.12269784383E+02 -0.25850810521E+02  0.32938127504E+02  0.00000000000E+00 0. -1.
        -13    1    3    3    0    0  0.20043190778E+02 -0.19793899479E+02 -0.54759976261E+02  0.61580702767E+02  0.00000000000E+00 0. -1.
         13    1    3    3    0    0 -0.57015870165E+02  0.95505238709E+01 -0.31088647309E+02  0.65639362796E+02  0.00000000000E+00 0.  1.
          1    1    1    2  501    0  0.34163430801E+02 -0.32251881706E+02 -0.75447474520E+02  0.88879948746E+02  0.00000000000E+00 0. -1.
<scales pt_clust_5="13000.00000" pt_clust_6="13000.00000" pt_clust_7="13000.00000" pt_clust_8="13000.00000" pt_clust_9="46.98219"></scales>
<clustering>
<clus scale="   46.982">  1  9  2 -1</clus>
<clus scale="   81.356">  5  6 -1 -1</clus>
<clus scale="   85.692">  7  8 -1 -1</clus>
<clus scale="   88.101">  1  5  2 -1</clus>
<clus scale="   46.982">  1  5  2 -1</clus>
</clustering>
</event>
<event>
 9    2  0.1723348E-004  0.8972631E+02  0.7546771E-02  0.1312094E+00
         21   -1    0    0  501  502  0.00000000000E+00  0.00000000000E+00  0.21434029086E+03  0.21434029086E+03  0.00000000000E+00 0. -1.
          2   -1    0    0  502    0 -0.00000000000E+00 -0.00000000000E+00 -0.79293050839E+02  0.79293050839E+02  0.00000000000E+00 0. -1.
         23    2    1    2    0    0 -0.10205600532E+02 -0.48121617833E+01 -0.75640098267E+01  0.90496404451E+02  0.89471077956E+02 0.  0.
         24    2    1    2    0    0 -0.15558788296E+02 -0.24061416126E+02  0.35092936647E+02  0.88866753444E+02  0.76451017167E+02 0.  0.
        -13    1    4    4    0    0  0.20569699346E+02 -0.17927727402E+02 -0.11482349701E+02  0.29603383179E+02  0.00000000000E+00 0.  1.
         14    1    4    4    0    0 -0.36128487642E+02 -0.61336887248E+01  0.46575286348E+02  0.59263370265E+02  0.00000000000E+00 0. -1.
        -11    1    3    3    0    0  0.14308333501E+02 -0.32719241629E+02 -0.30395954761E+02  0.46895535461E+02  0.00000000000E+00 0. -1.
         11    1    3    3    0    0 -0.24513934033E+02  0.27907079845E+02  0.22831944934E+02  0.43600868991E+02  0.00000000000E+00 0.  1.
          1    1    1    2  501    0  0.25764388829E+02  0.28873577910E+02  0.10751831320E+03  0.11427018380E+03  0.00000000000E+00 0. -1.
<scales pt_clust_5="13000.00000" pt_clust_6="13000.00000" pt_clust_7="13000.00000" pt_clust_8="13000.00000" pt_clust_9="38.69738"></scales>
<clustering>
<clus scale="   38.697">  1  9  2 -1</clus>
<clus scale="   76.451">  5  6 -1 -1</clus>
<clus scale="   76.750">  1  5  2 -1</clus>
<clus scale="   89.471">  7  8 -1 -1</clus>
<clus scale="   38.697">  1  5  2 -1</clus>
</clustering>
</event>
<event>
 9    2  0.1723348E-004  0.4624745E+03  0.7546771E-02  0.1024066E+00
         21   -1    0    0  501  502  0.00000000000E+00  0.00000000000E+00  0.22948052495E+03  0.22948052495E+03  0.00000000000E+00 0. -1.
          2   -1    0    0  502    0 -0.00000000000E+00 -0.00000000000E+00 -0.91054600693E+03  0.91054600693E+03  0.00000000000E+00 0. -1.
         24    2    1    2    0    0  0.34311761386E+03 -0.35101162665E+02 -0.42288366039E+03  0.55130068844E+03  0.78358600568E+02 0.  0.
         23    2    1    2    0    0  0.64790855091E+02 -0.20043651141E+01 -0.10725384453E+03  0.15221078815E+03  0.86387872308E+02 0.  0.
        -11    1    3    3    0    0  0.13943707384E+03  0.27899912917E+01 -0.11799535335E+03  0.18268383898E+03  0.00000000000E+00 0.  1.
         12    1    3    3    0    0  0.20368054002E+03 -0.37891153956E+02 -0.30488830705E+03  0.36861684946E+03  0.00000000000E+00 0. -1.
        -11    1    4    4    0    0  0.46071794983E+02 -0.17020896869E+02 -0.11654927586E+03  0.12647551118E+03  0.00000000000E+00 0.  1.
         11    1    4    4    0    0  0.18719060108E+02  0.15016531755E+02  0.92954313381E+01  0.25735276976E+02  0.00000000000E+00 0. -1.
          1    1    1    2  501    0 -0.40790846896E+03  0.37105527779E+02 -0.15092797706E+03  0.43651505529E+03  0.00000000000E+00 0. -1.
<scales pt_clust_5="13000.00000" pt_clust_6="13000.00000" pt_clust_7="13000.00000" pt_clust_8="13000.00000" pt_clust_9="409.59265"></scales>
<clustering>
<clus scale="   78.359">  5  6 -1 -1</clus>
<clus scale="   86.388">  7  8 -1 -1</clus>
<clus scale="   86.523">  5  7 -1 -1</clus>
<clus scale="  409.593">  1  9  2 -1</clus>
<clus scale="  409.593">  1  5  2 -1</clus>
</clustering>
</event>
<event>
 9    2  0.1723348E-004  0.1631483E+03  0.7546771E-02  0.1197842E+00
          2   -1    0    0  502    0 -0.00000000000E+00  0.00000000000E+00  0.62457404393E+03  0.62457404393E+03  0.00000000000E+00 0. -1.
         21   -1    0    0  501  502  0.00000000000E+00 -0.00000000000E+00 -0.44216305593E+03  0.44216305593E+03  0.00000000000E+00 0. -1.
         23    2    1    2    0    0 -0.82019828200E+02 -0.15473806032E+02  0.25697149700E+03  0.28508365143E+03  0.90948596182E+02 0.  0.
         24    2    1    2    0    0 -0.39026037863E+02  0.89812078775E+02  0.32924664308E+03  0.35358978897E+03  0.83863852513E+02 0.  0.
        -13    1    4    4    0    0 -0.88915947040E+01  0.51377874994E+02  0.58044174992E+02  0.78024821345E+02  0.00000000000E+00 0.  1.
         14    1    4    4    0    0 -0.30134443159E+02  0.38434203780E+02  0.27120246809E+03  0.27556496762E+03  0.00000000000E+00 0. -1.
        -11    1    3    3    0    0 -0.64433647082E+02 -0.39704677985E+02  0.10070507474E+03  0.12597487213E+03  0.00000000000E+00 0.  1.
         11    1    3    3    0    0 -0.17586181118E+02  0.24230871953E+02  0.15626642226E+03  0.15910877929E+03  0.00000000000E+00 0. -1.
          1    1    1    2  501    0  0.12104586606E+03 -0.74338272742E+02 -0.40380715208E+03  0.42806365947E+03  0.00000000000E+00 0. -1.
<scales pt_clust_5="13000.00000" pt_clust_6="13000.00000" pt_clust_7="13000.00000" pt_clust_8="13000.00000" pt_clust_9="139.94369"></scales>
<clustering>
<clus scale="   83.864">  5  6 -1 -1</clus>
<clus scale="   90.949">  7  8 -1 -1</clus>
<clus scale="  123.444">  1  7  2 -1</clus>
<clus scale="  139.944">  2  9  1 -1</clus>
<clus scale="  139.944">  2  5  1 -1</clus>
</clustering>
</event>
<event>
 9    2  0.1723348E-004  0.1995795E+03  0.7546771E-02  0.1153291E+00
          2   -1    0    0  502    0 -0.00000000000E+00  0.00000000000E+00  0.15143948555E+04  0.15143948555E+04  0.00000000000E+00 0. -1.
         21   -1    0    0  501  502  0.00000000000E+00 -0.00000000000E+00 -0.13753055784E+03  0.13753055784E+03  0.00000000000E+00 0.  1.
         23    2    1    2    0    0 -0.29121704164E+02  0.15979878391E+03  0.33905328439E+03  0.38627080834E+03  0.88680791177E+02 0.  0.
         24    2    1    2    0    0  0.11831738685E+03  0.12709887502E+03  0.68073110029E+01  0.19176691506E+03  0.81086880371E+02 0.  0.
        -13    1    4    4    0    0  0.81231230568E+02  0.11780945291E+03 -0.20807735671E+02  0.14460477820E+03  0.00000000000E+00 0.  1.
         14    1    4    4    0    0  0.37086156282E+02  0.92894221092E+01  0.27615046674E+02  0.47162136865E+02  0.00000000000E+00 0. -1.
        -11    1    3    3    0    0  0.44850739572E+01  0.14966795166E+03  0.26691064751E+03  0.30604232615E+03  0.00000000000E+00 0. -1.
         11    1    3    3    0    0 -0.33606778121E+02  0.10130832256E+02  0.72142636875E+02  0.80228482181E+02  0.00000000000E+00 0.  1.
          1    1    1    2  501    0 -0.89195682686E+02 -0.28689765893E+03  0.10310037022E+04  0.10738876899E+04  0.00000000000E+00 0. -1.
<scales pt_clust_5="13000.00000" pt_clust_6="13000.00000" pt_clust_7="13000.00000" pt_clust_8="13000.00000" pt_clust_9="182.36481"></scales>
<clustering>
<clus scale="   81.087">  5  6 -1 -1</clus>
<clus scale="   88.681">  7  8 -1 -1</clus>
<clus scale="  185.062">  1  7  2 -1</clus>
<clus scale="  182.365">  2  9  1 -1</clus>
<clus scale="  182.365">  2  5  1 -1</clus>
</clustering>
</event>
<event>
 9    2  0.1723348E-004  0.1069418E+03  0.7546771E-02  0.1271217E+00
         -1   -1    0    0    0  501 -0.00000000000E+00  0.00000000000E+00  0.60696677292E+02  0.60696677292E+02  0.00000000000E+00 0.  1.
         21   -1    0    0  501  502  0.00000000000E+00 -0.00000000000E+00 -0.43242348130E+03  0.43242348130E+03  0.00000000000E+00 0.  1.
         23    2    1    2    0    0 -0.33067880114E+01  0.78438835836E+02 -0.80884902232E+02  0.14589148312E+03  0.92619499159E+02 0.  0.
         24    2    1    2    0    0  0.54128365943E+02 -0.19771660774E+01 -0.15754278925E+03  0.18537110497E+03  0.81295306932E+02 0.  0.
        -11    1    4    4    0    0 -0.20350854888E+02  0.57384715939E+01 -0.21952521983E+02  0.30479510697E+02  0.00000000000E+00 0.  1.
         12    1    4    4    0    0  0.74479220831E+02 -0.77156376713E+01 -0.13559026726E+03  0.15489159427E+03  0.00000000000E+00 0. -1.
        -11    1    3    3    0    0 -0.20052845259E+02  0.18836292321E+02 -0.79325969876E+02  0.83961491222E+02  0.00000000000E+00 0.  1.
         11    1    3    3    0    0  0.16746057248E+02  0.59602543516E+02 -0.15589323564E+01  0.61929991902E+02  0.00000000000E+00 0. -1.
         -2    1    1    2    0  502 -0.50821577932E+02 -0.76461669759E+02 -0.13329911252E+03  0.16185757049E+03  0.00000000000E+00 0.  1.
<scales pt_clust_5="13000.00000" pt_clust_6="13000.00000" pt_clust_7="13000.00000" pt_clust_8="13000.00000" pt_clust_9="91.81078"></scales>
<clustering>
<clus scale="   81.295">  5  6 -1 -1</clus>
<clus scale="   91.811">  2  9  1 -1</clus>
<clus scale="   92.619">  7  8 -1 -1</clus>
<clus scale="   97.299">  2  5  1 -1</clus>
<clus scale="   91.811">  2  5  1 -1</clus>
</clustering>
</event>
<event>
 9    2  0.1723348E-004  0.1622550E+03  0.7546771E-02  0.1217391E+00
          2   -1    0    0  502    0 -0.00000000000E+00  0.00000000000E+00  0.31789472391E+03  0.31789472391E+03  0.00000000000E+00 0. -1.
         21   -1    0    0  501  502  0.00000000000E+00 -0.00000000000E+00 -0.11506957586E+03  0.11506957586E+03  0.00000000000E+00 0. -1.
         24    2    1    2    0    0 -0.79002247263E+01 -0.19923092777E+02  0.43877791791E+02  0.93464366617E+02  0.79693061418E+02 0.  0.
         23    2    1    2    0    0 -0.81117229745E+01  0.14635343296E+03  0.10104912992E+03  0.19952415667E+03  0.90076828595E+02 0.  0.
        -13    1    3    3    0    0 -0.36057846527E+02  0.10051831117E+02  0.35302999016E+02  0.51453953633E+02  0.00000000000E+00 0.  1.
         14    1    3    3    0    0  0.28157621801E+02 -0.29974923894E+02  0.85747927746E+01  0.42010412983E+02  0.00000000000E+00 0. -1.
        -11    1    4    4    0    0 -0.24592719271E+00  0.12615446493E+03  0.11743267668E+03  0.17235267057E+03  0.00000000000E+00 0. -1.
         11    1    4    4    0    0 -0.78657957818E+01  0.20198968031E+02 -0.16383546754E+02  0.27171486103E+02  0.00000000000E+00 0.  1.
          1    1    1    2  501    0  0.16011947701E+02 -0.12643034018E+03  0.57898226344E+02  0.13997577648E+03  0.00000000000E+00 0. -1.
<scales pt_clust_5="13000.00000" pt_clust_6="13000.00000" pt_clust_7="13000.00000" pt_clust_8="13000.00000" pt_clust_9="134.95505"></scales>
<clustering>
<clus scale="   79.693">  5  6 -1 -1</clus>
<clus scale="   82.525">  1  5  2 -1</clus>
<clus scale="   90.077">  7  8 -1 -1</clus>
<clus scale="  134.955">  2  9  1 -1</clus>
<clus scale="  134.955">  2  5  1 -1</clus>
</clustering>
</event>
<event>
 9    2  0.1723348E-004  0.1128336E+03  0.7546771E-02  0.1259350E+00
          2   -1    0    0  502    0 -0.00000000000E+00  0.00000000000E+00  0.47023137253E+03  0.47023137253E+03  0.00000000000E+00 0. -1.
         21   -1    0    0  501  502  0.00000000000E+00 -0.00000000000E+00 -0.40162978069E+02  0.40162978069E+02  0.00000000000E+00 0. -1.
         23    2    1    2    0    0 -0.55997016255E+02  0.41250349721E+02  0.30367656429E+03  0.32451777891E+03  0.90857448493E+02 0.  0.
         24    2    1    2    0    0  0.59097051720E+02 -0.19373368520E+02  0.64618306850E+02  0.12027031658E+03  0.80135101798E+02 0.  0.
        -11    1    4    4    0    0  0.43376669302E+02 -0.24708444656E+01  0.81033283356E+02  0.91945818412E+02  0.00000000000E+00 0.  1.
         12    1    4    4    0    0  0.15720382418E+02 -0.16902524054E+02 -0.16414976505E+02  0.28324498168E+02  0.00000000000E+00 0. -1.
        -13    1    3    3    0    0  0.73038217665E+01  0.33065937846E+02  0.36359343213E+02  0.49686053344E+02  0.00000000000E+00 0.  1.
         13    1    3    3    0    0 -0.63300838021E+02  0.81844118753E+01  0.26731722108E+03  0.27483172557E+03  0.00000000000E+00 0. -1.
          1    1    1    2  501    0 -0.31000354654E+01 -0.21876981201E+02  0.61773523313E+02  0.65606255105E+02  0.00000000000E+00 0. -1.
<scales pt_clust_5="13000.00000" pt_clust_6="13000.00000" pt_clust_7="13000.00000" pt_clust_8="13000.00000" pt_clust_9="22.09554"></scales>
<clustering>
<clus scale="   22.096">  2  9  1 -1</clus>
<clus scale="   80.135">  5  6 -1 -1</clus>
<clus scale="   90.857">  7  8 -1 -1</clus>
<clus scale="  104.393">  2  5  1 -1</clus>
<clus scale="   22.096">  2  5  1 -1</clus>
</clustering>
</event>
<event>
 9    2  0.1723348E-004  0.1526020E+03  0.7546771E-02  0.1200592E+00
         -3   -1    0    0    0  501 -0.00000000000E+00  0.00000000000E+00  0.48545160983E+03  0.48545160983E+03  0.00000000000E+00 0.  1.
         21   -1    0    0  501  502  0.00000000000E+00 -0.00000000000E+00 -0.14283362780E+03  0.14283362780E+03  0.00000000000E+00 0. -1.
         23    2    1    2    0    0  0.94395449313E+01 -0.14372252583E+03  0.88606043507E+02  0.19526410821E+03  0.97630792126E+02 0.  0.
         24    2    1    2    0    0  0.60082950379E+02  0.73453476499E+02 -0.33747531345E+02  0.12875705144E+03  0.80212893519E+02 0.  0.
        -11    1    4    4    0    0 -0.12921897385E+02  0.21313419888E+02 -0.29949772888E+02  0.38964422174E+02  0.00000000000E+00 0.  1.
         12    1    4    4    0    0  0.73004847764E+02  0.52140056611E+02 -0.37977584570E+01  0.89792629262E+02  0.00000000000E+00 0. -1.
        -11    1    3    3    0    0 -0.28758841389E+02 -0.13003803096E+03  0.72251823947E+02  0.15151662126E+03  0.00000000000E+00 0.  1.
         11    1    3    3    0    0  0.38198386321E+02 -0.13684494868E+02  0.16354219560E+02  0.43747486953E+02  0.00000000000E+00 0. -1.
         -4    1    1    2    0  502 -0.69522495310E+02  0.70269049329E+02  0.28775946987E+03  0.30426407797E+03  0.00000000000E+00 0.  1.
<scales pt_clust_5="13000.00000" pt_clust_6="13000.00000" pt_clust_7="13000.00000" pt_clust_8="13000.00000" pt_clust_9="98.84901"></scales>
<clustering>
<clus scale="   80.213">  5  6 -1 -1</clus>
<clus scale="   97.631">  7  8 -1 -1</clus>
<clus scale="   98.849">  2  9  1 -1</clus>
<clus scale="  142.091">  2  5  1 -1</clus>
<clus scale="   98.849">  2  5  1 -1</clus>
</clustering>
</event>
<event>
 9    2  0.1723348E-004  0.1682379E+03  0.7546771E-02  0.1181122E+00
         21   -1    0    0  501  502  0.00000000000E+00  0.00000000000E+00  0.12011516245E+03  0.12011516245E+03  0.00000000000E+00 0.  1.
          2   -1    0    0  502    0 -0.00000000000E+00 -0.00000000000E+00 -0.51288735309E+03  0.51288735309E+03  0.00000000000E+00 0. -1.
         24    2    1    2    0    0 -0.11521372036E+03  0.87586295565E+02 -0.33263489128E+03  0.37172696935E+03  0.81175170577E+02 0.  0.
         23    2    1    2    0    0  0.11190371972E+03 -0.57172316673E+02  0.36776870492E+02  0.15964719121E+03  0.91343150679E+02 0.  0.
        -13    1    3    3    0    0 -0.70053286280E+02  0.66892813922E+01 -0.17875842016E+03  0.19211137963E+03  0.00000000000E+00 0.  1.
         14    1    3    3    0    0 -0.45160434081E+02  0.80897014173E+02 -0.15387647111E+03  0.17961558972E+03  0.00000000000E+00 0. -1.
        -11    1    4    4    0    0  0.60899108810E+02 -0.76193888962E+02  0.39281608538E+02  0.10515348277E+03  0.00000000000E+00 0. -1.
         11    1    4    4    0    0  0.51004610914E+02  0.19021572290E+02 -0.25047380467E+01  0.54493708440E+02  0.00000000000E+00 0.  1.
          1    1    1    2  501    0  0.33100006370E+01 -0.30413978893E+02 -0.96914169854E+02  0.10162835497E+03  0.00000000000E+00 0. -1.
<scales pt_clust_5="13000.00000" pt_clust_6="13000.00000" pt_clust_7="13000.00000" pt_clust_8="13000.00000" pt_clust_9="30.59358"></scales>
<clustering>
<clus scale="   30.594">  1  9  2 -1</clus>
<clus scale="   81.175">  5  6 -1 -1</clus>
<clus scale="   91.343">  7  8 -1 -1</clus>
<clus scale="  162.941">  2  5  1 -1</clus>
<clus scale="   30.594">  1  5  2 -1</clus>
</clustering>
</event>
<event>
 9    2  0.1723348E-004  0.3025127E+03  0.7546771E-02  0.1084475E+00
          4   -1    0    0  502    0 -0.00000000000E+00  0.00000000000E+00  0.20054142072E+03  0.20054142072E+03  0.00000000000E+00 0. -1.
         21   -1    0    0  501  502  0.00000000000E+00 -0.00000000000E+00 -0.60687985364E+03  0.60687985364E+03  0.00000000000E+00 0. -1.
         24    2    1    2    0    0  0.18843320068E+03 -0.16411932702E+03 -0.16566940084E+03  0.30979748850E+03  0.78012235465E+02 0.  0.
         23    2    1    2    0    0 -0.26876680884E+03  0.19870528649E+03 -0.17522922008E+03  0.38838988002E+03  0.91771623712E+02 0.  0.
        -11    1    3    3    0    0  0.13270881989E+03 -0.67166459371E+02 -0.79703831450E+02  0.16874734039E+03  0.00000000000E+00 0.  1.
         12    1    3    3    0    0  0.55724380796E+02 -0.96952867649E+02 -0.85965569392E+02  0.14105014811E+03  0.00000000000E+00 0. -1.
        -13    1    4    4    0    0 -0.19885792779E+03  0.18552754163E+03 -0.16032929133E+03  0.31570623339E+03  0.00000000000E+00 0.  1.
         13    1    4    4    0    0 -0.69908881059E+02  0.13177744861E+02 -0.14899928754E+02  0.72683646630E+02  0.00000000000E+00 0. -1.
          3    1    1    2  501    0  0.80333608160E+02 -0.34585959468E+02 -0.65439811998E+02  0.10923390585E+03  0.00000000000E+00 0. -1.
<scales pt_clust_5="13000.00000" pt_clust_6="13000.00000" pt_clust_7="13000.00000" pt_clust_8="13000.00000" pt_clust_9="87.46243"></scales>
<clustering>
<clus scale="   78.012">  5  6 -1 -1</clus>
<clus scale="   87.462">  2  9  1 -1</clus>
<clus scale="   91.772">  7  8 -1 -1</clus>
<clus scale="  298.627">  1  5  2 -1</clus>
<clus scale="   87.462">  2  5  1 -1</clus>
</clustering>
</event>
<event>
 9    2  0.1723348E-004  0.1302723E+03  0.7546771E-02  0.1240935E+00
         21   -1    0    0  501  502  0.00000000000E+00  0.00000000000E+00  0.68228232666E+03  0.68228232666E+03  0.00000000000E+00 0.  1.
         -1   -1    0    0    0  501 -0.00000000000E+00 -0.00000000000E+00 -0.99816891391E+02  0.99816891391E+02  0.00000000000E+00 0.  1.
         23    2    1    2    0    0  0.15952950637E+02 -0.22211854995E+02  0.92019355087E+02  0.13442187157E+03  0.94094711380E+02 0.  0.
         24    2    1    2    0    0 -0.43167165780E+02 -0.77703915179E+02 -0.24526356897E+02  0.12239610220E+03  0.80485781456E+02 0.  0.
        -11    1    4    4    0    0 -0.49109083180E+02 -0.47056789067E+02  0.17322381841E+02  0.70186240537E+02  0.00000000000E+00 0.  1.
         12    1    4    4    0    0  0.59419174001E+01 -0.30647126112E+02 -0.41848738739E+02  0.52209861667E+02  0.00000000000E+00 0. -1.
        -13    1    3    3    0    0 -0.33124531333E+02 -0.27493050184E+01  0.69470178899E+02  0.77012330249E+02  0.00000000000E+00 0. -1.
         13    1    3    3    0    0  0.49077481970E+02 -0.19462549976E+02  0.22549176188E+02  0.57409541323E+02  0.00000000000E+00 0.  1.
         -2    1    1    2    0  502  0.27214215143E+02  0.99915770173E+02  0.51497243708E+03  0.52528124427E+03  0.00000000000E+00 0.  1.
<scales pt_clust_5="13000.00000" pt_clust_6="13000.00000" pt_clust_7="13000.00000" pt_clust_8="13000.00000" pt_clust_9="102.43487"></scales>
<clustering>
<clus scale="   80.486">  5  6 -1 -1</clus>
<clus scale="   94.095">  7  8 -1 -1</clus>
<clus scale="   97.988">  2  7  1 -1</clus>
<clus scale="  102.435">  1  9  2 -1</clus>
<clus scale="  102.435">  1  5  2 -1</clus>
</clustering>
</event>
<event>
 9    2  0.1723348E-004  0.1053772E+03  0.7546771E-02  0.1272696E+00
          4   -1    0    0  502    0 -0.00000000000E+00  0.00000000000E+00  0.10322945542E+04  0.10322945542E+04  0.00000000000E+00 0. -1.
         21   -1    0    0  501  502  0.00000000000E+00 -0.00000000000E+00 -0.12741785519E+02  0.12741785519E+02  0.00000000000E+00 0. -1.
         23    2    1    2    0    0  0.23765965600E+02 -0.51545989939E+02  0.51675524305E+03  0.52796568788E+03  0.92141066638E+02 0.  0.
         24    2    1    2    0    0 -0.44183809824E+01  0.45952103665E+02  0.35267009626E+03  0.36559832551E+03  0.84586174383E+02 0.  0.
        -13    1    4    4    0    0 -0.39840379620E+02  0.26743593571E+01  0.12873630895E+03  0.13478666584E+03  0.00000000000E+00 0.  1.
         14    1    4    4    0    0  0.35421998637E+02  0.43277744308E+02  0.22393378732E+03  0.23081165968E+03  0.00000000000E+00 0. -1.
        -11    1    3    3    0    0  0.34643344860E+02 -0.74822252753E+02  0.40218570800E+03  0.41055069671E+03  0.00000000000E+00 0. -1.
         11    1    3    3    0    0 -0.10877379260E+02  0.23276262814E+02  0.11456953505E+03  0.11741499118E+03  0.00000000000E+00 0.  1.
          3    1    1    2  501    0 -0.19347584618E+02  0.55938862740E+01  0.15012742941E+03  0.15147232637E+03  0.00000000000E+00 0. -1.
<scales pt_clust_5="13000.00000" pt_clust_6="13000.00000" pt_clust_7="13000.00000" pt_clust_8="13000.00000" pt_clust_9="20.14003"></scales>
<clustering>
<clus scale="   20.140">  2  9  1 -1</clus>
<clus scale="   84.586">  5  6 -1 -1</clus>
<clus scale="   92.141">  7  8 -1 -1</clus>
<clus scale="   98.839">  2  5  1 -1</clus>
<clus scale="   20.140">  2  5  1 -1</clus>
</clustering>
</event>
<event>
 9    2  0.1723348E-004  0.1122115E+03  0.7546771E-02  0.1263025E+00
         21   -1    0    0  501  502  0.00000000000E+00  0.00000000000E+00  0.11291897580E+03  0.11291897580E+03  0.00000000000E+00 0. -1.
         -3   -1    0    0    0  501 -0.00000000000E+00 -0.00000000000E+00 -0.18831937862E+03  0.18831937862E+03  0.00000000000E+00 0.  1.
         23    2    1    2    0    0  0.70488352626E+02 -0.16784311186E+02 -0.96239313036E+02  0.15322777293E+03  0.94691203732E+02 0.  0.
         24    2    1    2    0    0 -0.33008956400E+02 -0.11566176619E+02  0.43155513840E+02  0.95986682207E+02  0.78279480978E+02 0.  0.
        -13    1    4    4    0    0 -0.44107933020E+02 -0.73181102790E+01 -0.62736898718E+01  0.45148905612E+02  0.00000000000E+00 0.  1.
         14    1    4    4    0    0  0.11098976620E+02 -0.42480663401E+01  0.49429203711E+02  0.50837776596E+02  0.00000000000E+00 0. -1.
        -13    1    3    3    0    0  0.35321005234E+02 -0.38896820104E+02 -0.98487022160E+02  0.11162539836E+03  0.00000000000E+00 0. -1.
         13    1    3    3    0    0  0.35167347392E+02  0.22112508918E+02  0.22477091239E+01  0.41602374566E+02  0.00000000000E+00 0.  1.
         -4    1    1    2    0  502 -0.37479396226E+02  0.28350487805E+02 -0.22316603618E+02  0.52023899290E+02  0.00000000000E+00 0.  1.
<scales pt_clust_5="13000.00000" pt_clust_6="13000.00000" pt_clust_7="13000.00000" pt_clust_8="13000.00000" pt_clust_9="46.99423"></scales>
<clustering>
<clus scale="   46.994">  1  9  2 -1</clus>
<clus scale="   78.279">  5  6 -1 -1</clus>
<clus scale="   94.691">  7  8 -1 -1</clus>
<clus scale="   98.756">  1  5  2 -1</clus>
<clus scale="   46.994">  1  5  2 -1</clus>
</clustering>
</event>
<event>
 9    2  0.1723348E-004  0.9157918E+02  0.7546771E-02  0.1305908E+00
         -1   -1    0    0    0  501 -0.00000000000E+00  0.00000000000E+00  0.11279414606E+03  0.11279414606E+03  0.00000000000E+00 0.  1.
         21   -1    0    0  501  502  0.00000000000E+00 -0.00000000000E+00 -0.19256675601E+03  0.19256675601E+03  0.00000000000E+00 0.  1.
         24    2    1    2    0    0 -0.18374240311E+01 -0.10200904010E+01  0.59406779354E+02  0.99933686401E+02  0.80331560006E+02 0.  0.
         23    2    1    2    0    0  0.29881540904E+02  0.38638120758E+02 -0.10483324474E+03  0.14727873035E+03  0.91187742313E+02 0.  0.
        -11    1    3    3    0    0  0.16002339025E+02  0.35923353451E+02  0.29753015345E+02  0.49313325780E+02  0.00000000000E+00 0.  1.
         12    1    3    3    0    0 -0.17839763056E+02 -0.36943443852E+02  0.29653764009E+02  0.50620360621E+02  0.00000000000E+00 0. -1.
        -13    1    4    4    0    0 -0.43206528049E+01 -0.28051772058E+02 -0.31937340539E+02  0.42726615557E+02  0.00000000000E+00 0. -1.
         13    1    4    4    0    0  0.34202193708E+02  0.66689892816E+02 -0.72895904197E+02  0.10455211479E+03  0.00000000000E+00 0.  1.
         -2    1    1    2    0  502 -0.28044116872E+02 -0.37618030357E+02 -0.34346144559E+02  0.58148485321E+02  0.00000000000E+00 0.  1.
<scales pt_clust_5="13000.00000" pt_clust_6="13000.00000" pt_clust_7="13000.00000" pt_clust_8="13000.00000" pt_clust_9="46.92109"></scales>
<clustering>
<clus scale="   46.921">  2  9  1 -1</clus>
<clus scale="   80.332">  5  6 -1 -1</clus>
<clus scale="   80.776">  1  5  2 -1</clus>
<clus scale="   91.188">  7  8 -1 -1</clus>
<clus scale="   46.921">  2  5  1 -1</clus>
</clustering>
</event>
<event>
 9    2  0.1723348E-004  0.1180528E+03  0.7546771E-02  0.1258599E+00
         21   -1    0    0  501  502  0.00000000000E+00  0.00000000000E+00  0.59838088245E+02  0.59838088245E+02  0.00000000000E+00 0.  1.
          2   -1    0    0  502    0 -0.00000000000E+00 -0.00000000000E+00 -0.10666967483E+04  0.10666967483E+04  0.00000000000E+00 0. -1.
         24    2    1    2    0    0  0.40783462570E+02  0.21058667830E+02 -0.20349473132E+03  0.22353447186E+03  0.80316848311E+02 0.  0.
         23    2    1    2    0    0  0.52195320466E+02  0.69898495976E+02 -0.30465257868E+02  0.11923342537E+03  0.75354671855E+02 0.  0.
        -13    1    3    3    0    0  0.10394434347E+01  0.44728604657E+02 -0.80010368372E+02  0.91669992714E+02  0.00000000000E+00 0.  1.
         14    1    3    3    0    0  0.39744019135E+02 -0.23669936827E+02 -0.12348436295E+03  0.13186447914E+03  0.00000000000E+00 0. -1.
        -13    1    4    4    0    0  0.63424573479E+02  0.32954943747E+02 -0.36329546898E+02  0.80178181671E+02  0.00000000000E+00 0. -1.
         13    1    4    4    0    0 -0.11229253013E+02  0.36943552229E+02  0.58642890297E+01  0.39055243699E+02  0.00000000000E+00 0.  1.
          1    1    1    2  501    0 -0.92978783036E+02 -0.90957163806E+02 -0.77289867082E+03  0.78376693927E+03  0.00000000000E+00 0. -1.
<scales pt_clust_5="13000.00000" pt_clust_6="13000.00000" pt_clust_7="13000.00000" pt_clust_8="13000.00000" pt_clust_9="90.87434"></scales>
<clustering>
<clus scale="   75.355">  7  8 -1 -1</clus>
<clus scale="   80.317">  5  6 -1 -1</clus>
<clus scale="   92.507">  2  5  1 -1</clus>
<clus scale="   90.874">  1  9  2 -1</clus>
<clus scale="   90.874">  1  5  2 -1</clus>
</clustering>
</event>
<event>
 9    2  0.1723348E-004  0.1060788E+03  0.7546771E-02  0.1278861E+00
         21   -1    0    0  501  502  0.00000000000E+00  0.00000000000E+00  0.19328578056E+03  0.19328578056E+03  0.00000000000E+00 0.  1.
         -3   -1    0    0    0  501 -0.00000000000E+00 -0.00000000000E+00 -0.21518273905E+03  0.21518273905E+03  0.00000000000E+00 0.  1.
         24    2    1    2    0    0  0.38382216006E+02 -0.40865913304E+02 -0.15853401620E+03  0.18185455272E+03  0.69244687007E+02 0.  0.
         23    2    1    2    0    0 -0.35931090970E+02  0.63293676974E+00  0.17906845288E+02  0.10122830679E+03  0.92925083163E+02 0.  0.
        -11    1    3    3    0    0  0.15943083707E+02 -0.56745669759E+02 -0.85768959619E+02  0.10407001196E+03  0.00000000000E+00 0.  1.
         12    1    3    3    0    0  0.22439132299E+02  0.15879756455E+02 -0.72765056579E+02  0.77784540767E+02  0.00000000000E+00 0. -1.
        -11    1    4    4    0    0  0.18899625991E+02 -0.21403366902E+02 -0.16370361479E+02  0.32913351581E+02  0.00000000000E+00 0.  1.
         11    1    4    4    0    0 -0.54830716961E+02  0.22036303672E+02  0.34277206767E+02  0.68314955213E+02  0.00000000000E+00 0. -1.
         -4    1    1    2    0  502 -0.24511250353E+01  0.40232976534E+02  0.11873021242E+03  0.12538566009E+03  0.00000000000E+00 0.  1.
<scales pt_clust_5="13000.00000" pt_clust_6="13000.00000" pt_clust_7="13000.00000" pt_clust_8="13000.00000" pt_clust_9="40.30757"></scales>
<clustering>
<clus scale="   40.308">  1  9  2 -1</clus>
<clus scale="   69.245">  5  6 -1 -1</clus>
<clus scale="   86.096">  2  5  1 -1</clus>
<clus scale="   92.925">  7  8 -1 -1</clus>
<clus scale="   40.308">  1  5  2 -1</clus>
</clustering>
</event>
<event>
 9    2  0.1723348E-004  0.1429876E+03  0.7546771E-02  0.1231022E+00
          2   -1    0    0  502    0 -0.00000000000E+00  0.00000000000E+00  0.10450422156E+04  0.10450422156E+04  0.00000000000E+00 0. -1.
         21   -1    0    0  501  502  0.00000000000E+00 -0.00000000000E+00 -0.83831101543E+02  0.83831101543E+02  0.00000000000E+00 0. -1.
         23    2    1    2    0    0  0.23320748312E+01 -0.79092195005E+01  0.13849912332E+03  0.16558327535E+03  0.90375990100E+02 0.  0.
         24    2    1    2    0    0 -0.53343804124E+02 -0.98509605947E+02  0.83338116494E+03  0.84479534056E+03  0.81272981025E+02 0.  0.
        -11    1    4    4    0    0 -0.45836070473E+02 -0.46568373622E+02  0.22899740947E+03  0.23813729721E+03  0.00000000000E+00 0.  1.
         12    1    4    4    0    0 -0.75077336506E+01 -0.51941232325E+02  0.60438375547E+03  0.60665804335E+03  0.00000000000E+00 0. -1.
        -11    1    3    3    0    0 -0.12523180809E+02 -0.45422920042E+02  0.52213354767E+02  0.70329980369E+02  0.00000000000E+00 0. -1.
         11    1    3    3    0    0  0.14855255640E+02  0.37513700541E+02  0.86285768558E+02  0.95253294977E+02  0.00000000000E+00 0.  1.
          1    1    1    2  501    0  0.51011729292E+02  0.10641882545E+03 -0.10669174243E+02  0.11849470121E+03  0.00000000000E+00 0. -1.
<scales pt_clust_5="13000.00000" pt_clust_6="13000.00000" pt_clust_7="13000.00000" pt_clust_8="13000.00000" pt_clust_9="117.64415"></scales>
<clustering>
<clus scale="   81.273">  5  6 -1 -1</clus>
<clus scale="   90.376">  7  8 -1 -1</clus>
<clus scale="   90.751">  1  7  2 -1</clus>
<clus scale="  117.644">  2  9  1 -1</clus>
<clus scale="  117.644">  2  5  1 -1</clus>
</clustering>
</event>
<event>
 9    2  0.1723348E-004  0.9274513E+02  0.7546771E-02  0.1302158E+00
         -1   -1    0    0    0  501 -0.00000000000E+00  0.00000000000E+00  0.95991752850E+02  0.95991752850E+02  0.00000000000E+00 0.  1.
         21   -1    0    0  501  502  0.00000000000E+00 -0.00000000000E+00 -0.39120671448E+03  0.39120671448E+03  0.00000000000E+00 0.  1.
         24    2    1    2    0    0  0.11815030772E+02  0.31244000534E+02  0.36849231180E+02  0.94439414041E+02  0.80281719989E+02 0.  0.
         23    2    1    2    0    0  0.37063081853E+02  0.54930915907E+01 -0.61341704583E+02  0.11521743575E+03  0.90046691716E+02 0.  0.
        -11    1    3    3    0    0  0.36470403608E+02  0.43221611499E+02  0.35953870751E+02  0.67014019890E+02  0.00000000000E+00 0.  1.
         12    1    3    3    0    0 -0.24655372835E+02 -0.11977610964E+02  0.89536042935E+00  0.27425394151E+02  0.00000000000E+00 0. -1.
        -13    1    4    4    0    0  0.63634084179E+02  0.20073160413E+02 -0.36674052722E+02  0.76139441693E+02  0.00000000000E+00 0.  1.
         13    1    4    4    0    0 -0.26571002326E+02 -0.14580068822E+02 -0.24667651861E+02  0.39077994061E+02  0.00000000000E+00 0. -1.
         -2    1    1    2    0  502 -0.48878112625E+02 -0.36737092125E+02 -0.27072248823E+03  0.27754161754E+03  0.00000000000E+00 0.  1.
<scales pt_clust_5="13000.00000" pt_clust_6="13000.00000" pt_clust_7="13000.00000" pt_clust_8="13000.00000" pt_clust_9="61.14478"></scales>
<clustering>
<clus scale="   61.145">  2  9  1 -1</clus>
<clus scale="   80.282">  5  6 -1 -1</clus>
<clus scale="   83.297">  1  5  2 -1</clus>
<clus scale="   90.047">  7  8 -1 -1</clus>
<clus scale="   61.145">  2  5  1 -1</clus>
</clustering>
</event>
<event>
 9    2  0.1723348E-004  0.9460883E+02  0.7546771E-02  0.1298192E+00
         21   -1    0    0  501  502  0.00000000000E+00  0.00000000000E+00  0.18464532141E+03  0.18464532141E+03  0.00000000000E+00 0. -1.
          2   -1    0    0  502    0 -0.00000000000E+00 -0.00000000000E+00 -0.25941687394E+03  0.25941687394E+03  0.00000000000E+00 0. -1.
         23    2    1    2    0    0 -0.27044688984E+02 -0.13471177491E+02 -0.20064871018E+03  0.22267878327E+03  0.91722667836E+02 0.  0.
         24    2    1    2    0    0 -0.18971471532E+02 -0.54814573723E+02  0.69457630908E+02  0.12156560883E+03  0.81174383488E+02 0.  0.
        -13    1    4    4    0    0 -0.25077123745E+02 -0.90816007259E+01  0.70540468746E+02  0.75414158736E+02  0.00000000000E+00 0.  1.
         14    1    4    4    0    0  0.61056522126E+01 -0.45732972997E+02 -0.10828378379E+01  0.46151450095E+02  0.00000000000E+00 0. -1.
        -11    1    3    3    0    0 -0.35582495753E+02  0.16646827301E+02 -0.30662137779E+02  0.49833699004E+02  0.00000000000E+00 0.  1.
         11    1    3    3    0    0  0.85378067698E+01 -0.30118004792E+02 -0.16998657240E+03  0.17284508426E+03  0.00000000000E+00 0. -1.
          1    1    1    2  501    0  0.46016160516E+02  0.68285751214E+02  0.56419526744E+02  0.99817803249E+02  0.00000000000E+00 0. -1.
<scales pt_clust_5="13000.00000" pt_clust_6="13000.00000" pt_clust_7="13000.00000" pt_clust_8="13000.00000" pt_clust_9="82.34337"></scales>
<clustering>
<clus scale="   81.174">  5  6 -1 -1</clus>
<clus scale="   82.343">  1  9  2 -1</clus>
<clus scale="   84.422">  1  5  2 -1</clus>
<clus scale="   91.723">  7  8 -1 -1</clus>
<clus scale="   82.343">  1  5  2 -1</clus>
</clustering>
</event>
<event>
 9    2  0.1723348E-004  0.1060577E+03  0.7546771E-02  0.1273675E+00
          2   -1    0    0  502    0 -0.00000000000E+00  0.00000000000E+00  0.10496980083E+04  0.10496980083E+04  0.00000000000E+00 0. -1.
         21   -1    0    0  501  502  0.00000000000E+00 -0.00000000000E+00 -0.31475179004E+02  0.31475179004E+02  0.00000000000E+00 0. -1.
         24    2    1    2    0    0 -0.44439794833E+02 -0.28830426633E+02  0.83773421157E+03  0.84325846499E+03  0.80499320936E+02 0.  0.
         23    2    1    2    0    0  0.22473950040E+02  0.37467520444E+02  0.18699516963E+03  0.21343140259E+03  0.93149753765E+02 0.  0.
        -11    1    3    3    0    0  0.49085310846E+01 -0.23997075359E+02  0.74666053834E+02  0.78580995783E+02  0.00000000000E+00 0.  1.
         12    1    3    3    0    0 -0.49348325917E+02 -0.48333512746E+01  0.76306815774E+03  0.76467746921E+03  0.00000000000E+00 0. -1.
        -13    1    4    4    0    0  0.44167695718E+02  0.44217051104E+02  0.68289029346E+02  0.92570645900E+02  0.00000000000E+00 0.  1.
         13    1    4    4    0    0 -0.21693745678E+02 -0.67495306596E+01  0.11870614028E+03  0.12086075668E+03  0.00000000000E+00 0. -1.
          1    1    1    2  501    0  0.21965844792E+02 -0.86370938111E+01 -0.65065519116E+01  0.24483319724E+02  0.00000000000E+00 0. -1.
<scales pt_clust_5="13000.00000" pt_clust_6="13000.00000" pt_clust_7="13000.00000" pt_clust_8="13000.00000" pt_clust_9="23.60292"></scales>
<clustering>
<clus scale="   23.603">  2  9  1 -1</clus>
<clus scale="   80.499">  5  6 -1 -1</clus>
<clus scale="   93.150">  7  8 -1 -1</clus>
<clus scale="   95.139">  1  5  2 -1</clus>
<clus scale="   23.603">  2  5  1 -1</clus>
</clustering>
</event>
<event>
 9    2  0.1723348E-004  0.1122984E+03  0.7546771E-02  0.1260606E+00
          2   -1    0    0  502    0 -0.00000000000E+00  0.00000000000E+00  0.51741933293E+03  0.51741933293E+03  0.00000000000E+00 0. -1.
         21   -1    0    0  501  502  0.00000000000E+00 -0.00000000000E+00 -0.84952745374E+02  0.84952745374E+02  0.00000000000E+00 0.  1.
         24    2    1    2    0    0  0.55600368330E+02 -0.40709427782E+02  0.43902902759E+03  0.45158240154E+03  0.80196757120E+02 0.  0.
         23    2    1    2    0    0 -0.41846270246E+02  0.12992333151E+02  0.27172363546E+02  0.10501359652E+03  0.91485556562E+02 0.  0.
        -13    1    3    3    0    0  0.45148555301E+02  0.20786050401E+01  0.10043891220E+03  0.11013940135E+03  0.00000000000E+00 0.  1.
         14    1    3    3    0    0  0.10451813029E+02 -0.42788032823E+02  0.33859011538E+03  0.34144300020E+03  0.00000000000E+00 0. -1.
        -11    1    4    4    0    0 -0.26127496684E+01 -0.22222567657E+02  0.44259460282E+02  0.49594039949E+02  0.00000000000E+00 0. -1.
         11    1    4    4    0    0 -0.39233520577E+02  0.35214900808E+02 -0.17087096735E+02  0.55419556572E+02  0.00000000000E+00 0.  1.
          1    1    1    2  501    0 -0.13754098085E+02  0.27717094632E+02 -0.33734803580E+02  0.45776080234E+02  0.00000000000E+00 0. -1.
<scales pt_clust_5="13000.00000" pt_clust_6="13000.00000" pt_clust_7="13000.00000" pt_clust_8="13000.00000" pt_clust_9="30.94208"></scales>
<clustering>
<clus scale="   30.942">  2  9  1 -1</clus>
<clus scale="   80.197">  5  6 -1 -1</clus>
<clus scale="   91.486">  7  8 -1 -1</clus>
<clus scale="  103.309">  1  5  2 -1</clus>
<clus scale="   30.942">  2  5  1 -1</clus>
</clustering>
</event>
<event>
 9    2  0.1723348E-004  0.1342554E+03  0.7546771E-02  0.1236204E+00
         21   -1    0    0  501  502  0.00000000000E+00  0.00000000000E+00  0.20809916783E+03  0.20809916783E+03  0.00000000000E+00 0. -1.
         -3   -1    0    0    0  501 -0.00000000000E+00 -0.00000000000E+00 -0.17498695927E+03  0.17498695927E+03  0.00000000000E+00 0.  1.
         24    2    1    2    0    0 -0.35174992720E+01 -0.38240670918E+02 -0.29081590048E+02  0.96005537680E+02  0.83045786600E+02 0.  0.
         23    2    1    2    0    0  0.62553146363E+02  0.10479493087E+03  0.87884177717E+02  0.19448106067E+03  0.12330604450E+03 0.  0.
        -13    1    3    3    0    0 -0.23118062549E+02 -0.33869098826E+02  0.18027547942E+02  0.44794566145E+02  0.00000000000E+00 0.  1.
         14    1    3    3    0    0  0.19600563277E+02 -0.43715720916E+01 -0.47109137990E+02  0.51210971534E+02  0.00000000000E+00 0. -1.
        -13    1    4    4    0    0  0.46190820421E+02  0.32558532324E+02 -0.23100598297E+02  0.61051515624E+02  0.00000000000E+00 0.  1.
         13    1    4    4    0    0  0.16362325942E+02  0.72236398549E+02  0.11098477601E+03  0.13342954505E+03  0.00000000000E+00 0. -1.
         -4    1    1    2    0  502 -0.59035647091E+02 -0.66554259955E+02 -0.25690379108E+02  0.92599528748E+02  0.00000000000E+00 0.  1.
<scales pt_clust_5="13000.00000" pt_clust_6="13000.00000" pt_clust_7="13000.00000" pt_clust_8="13000.00000" pt_clust_9="88.96452"></scales>
<clustering>
<clus scale="   83.046">  5  6 -1 -1</clus>
<clus scale="   88.965">  1  9  2 -1</clus>
<clus scale="   98.573">  2  5  1 -1</clus>
<clus scale="  123.306">  7  8 -1 -1</clus>
<clus scale="   88.965">  1  5  2 -1</clus>
</clustering>
</event>
<event>
 9    2  0.1723348E-004  0.1244152E+03  0.7546771E-02  0.1239435E+00
         -1   -1    0    0    0  501 -0.00000000000E+00  0.00000000000E+00  0.50301274473E+03  0.50301274473E+03  0.00000000000E+00 0.  1.
         21   -1    0    0  501  502  0.00000000000E+00 -0.00000000000E+00 -0.91776982598E+02  0.91776982598E+02  0.00000000000E+00 0.  1.
         23    2    1    2    0    0 -0.44851842271E+02 -0.60995063893E+02  0.26975325291E+03  0.29490147538E+03  0.92021612413E+02 0.  0.
         24    2    1    2    0    0 -0.55129599383E+01  0.11456027085E+03  0.17071865691E+03  0.22076431733E+03  0.80234503846E+02 0.  0.
        -13    1    4    4    0    0 -0.12099890381E+02  0.49690075409E+02  0.13928877986E+03  0.14838084491E+03  0.00000000000E+00 0.  1.
         14    1    4    4    0    0  0.65869304430E+01  0.64870195439E+02  0.31429877049E+02  0.72383472424E+02  0.00000000000E+00 0. -1.
        -11    1    3    3    0    0  0.34160090729E+01 -0.50700127678E+02  0.21613008520E+03  0.22202339019E+03  0.00000000000E+00 0.  1.
         11    1    3    3    0    0 -0.48267851344E+02 -0.10294936214E+02  0.53623167709E+02  0.72878085185E+02  0.00000000000E+00 0. -1.
         -2    1    1    2    0  502  0.50364802210E+02 -0.53565206955E+02 -0.29236147684E+02  0.79123934616E+02  0.00000000000E+00 0.  1.
<scales pt_clust_5="13000.00000" pt_clust_6="13000.00000" pt_clust_7="13000.00000" pt_clust_8="13000.00000" pt_clust_9="73.52445"></scales>
<clustering>
<clus scale="   73.524">  2  9  1 -1</clus>
<clus scale="   80.235">  5  6 -1 -1</clus>
<clus scale="   92.022">  7  8 -1 -1</clus>
<clus scale="  115.969">  2  5  1 -1</clus>
<clus scale="   73.524">  2  5  1 -1</clus>
</clustering>
</event>
<event>
 9    2  0.1723348E-004  0.1237875E+03  0.7546771E-02  0.1241205E+00
         -1   -1    0    0    0  501 -0.00000000000E+00  0.00000000000E+00  0.20982445824E+03  0.20982445824E+03  0.00000000000E+00 0.  1.
         21   -1    0    0  501  502  0.00000000000E+00 -0.00000000000E+00 -0.26296520357E+03  0.26296520357E+03  0.00000000000E+00 0.  1.
         23    2    1    2    0    0  0.70275263166E+02 -0.46928692202E+02  0.16185259875E+03  0.20627799309E+03  0.95986623782E+02 0.  0.
         24    2    1    2    0    0 -0.25611134430E+02  0.45629151528E+02 -0.86354942614E+02  0.13033380146E+03  0.82412220044E+02 0.  0.
        -13    1    4    4    0    0 -0.45984549939E+02  0.48214280172E+02 -0.35513051639E+02  0.75500811137E+02  0.00000000000E+00 0.  1.
         14    1    4    4    0    0  0.20373415509E+02 -0.25851286440E+01 -0.50841890975E+02  0.54832990321E+02  0.00000000000E+00 0. -1.
        -11    1    3    3    0    0  0.78991615062E+02 -0.26540757679E+02  0.16404497838E+03  0.18399685324E+03  0.00000000000E+00 0.  1.
         11    1    3    3    0    0 -0.87163518958E+01 -0.20387934523E+02 -0.21923796352E+01  0.22281139849E+02  0.00000000000E+00 0. -1.
         -2    1    1    2    0  502 -0.44664128736E+02  0.12995406744E+01 -0.12863840147E+03  0.13617786727E+03  0.00000000000E+00 0.  1.
<scales pt_clust_5="13000.00000" pt_clust_6="13000.00000" pt_clust_7="13000.00000" pt_clust_8="13000.00000" pt_clust_9="44.68303"></scales>
<clustering>
<clus scale="   44.683">  2  9  1 -1</clus>
<clus scale="   82.412">  5  6 -1 -1</clus>
<clus scale="   95.987">  7  8 -1 -1</clus>
<clus scale="  113.586">  2  5  1 -1</clus>
<clus scale="   44.683">  2  5  1 -1</clus>
</clustering>
</event>
<event>
 9    2  0.1723348E-004  0.9934347E+02  0.7546771E-02  0.1286696E+00
          2   -1    0    0  502    0 -0.00000000000E+00  0.00000000000E+00  0.40727592852E+03  0.40727592852E+03  0.00000000000E+00 0. -1.
         21   -1    0    0  501  502  0.00000000000E+00 -0.00000000000E+00 -0.34017563297E+02  0.34017563297E+02  0.00000000000E+00 0.  1.
         23    2    1    2    0    0 -0.35079992645E+02  0.26741879825E+02  0.26728463464E+03  0.28570874326E+03  0.90789184583E+02 0.  0.
         24    2    1    2    0    0  0.36156201670E+02 -0.25405126837E+01  0.73864319241E+02  0.11536188573E+03  0.80862240254E+02 0.  0.
        -13    1    4    4    0    0  0.45341977686E+02  0.11055534121E+02  0.78338174450E+01  0.47323233944E+02  0.00000000000E+00 0.  1.
         14    1    4    4    0    0 -0.91857760155E+01 -0.13596046805E+02  0.66030501796E+02  0.68038651788E+02  0.00000000000E+00 0. -1.
        -11    1    3    3    0    0 -0.61549694066E+02  0.96717204375E+01  0.22179057835E+03  0.23037570979E+03  0.00000000000E+00 0. -1.
         11    1    3    3    0    0  0.26469701422E+02  0.17070159388E+02  0.45494056292E+02  0.55333033468E+02  0.00000000000E+00 0.  1.
          1    1    1    2  501    0 -0.10762090256E+01 -0.24201367141E+02  0.32109411336E+02  0.40222862824E+02  0.00000000000E+00 0. -1.
<scales pt_clust_5="13000.00000" pt_clust_6="13000.00000" pt_clust_7="13000.00000" pt_clust_8="13000.00000" pt_clust_9="24.22528"></scales>
<clustering>
<clus scale="   24.225">  2  9  1 -1</clus>
<clus scale="   80.862">  5  6 -1 -1</clus>
<clus scale="   90.361">  2  5  1 -1</clus>
<clus scale="   90.789">  7  8 -1 -1</clus>
<clus scale="   24.225">  2  5  1 -1</clus>
</clustering>
</event>
<event>
 9    2  0.1723348E-004  0.2989677E+03  0.7546771E-02  0.1086065E+00
         21   -1    0    0  501  502  0.00000000000E+00  0.00000000000E+00  0.61040036856E+03  0.61040036856E+03  0.00000000000E+00 0. -1.
          2   -1    0    0  502    0 -0.00000000000E+00 -0.00000000000E+00 -0.30006799877E+03  0.30006799877E+03  0.00000000000E+00 0. -1.
         23    2    1    2    0    0 -0.20250580340E+03 -0.22464132965E+03 -0.10486164525E+03  0.33216967848E+03  0.88704020537E+02 0.  0.
         24    2    1    2    0    0  0.18148877304E+03  0.17590571888E+03  0.14351541593E+03  0.30148442524E+03  0.80094864867E+02 0.  0.
        -11    1    4    4    0    0  0.99701875572E+02  0.14322765435E+03  0.75217389056E+02  0.19003231457E+03  0.00000000000E+00 0.  1.
         12    1    4    4    0    0  0.81786897465E+02  0.32678064532E+02  0.68298026870E+02  0.11145211067E+03  0.00000000000E+00 0. -1.
        -13    1    3    3    0    0 -0.29289644576E+02  0.42284013413E+00 -0.21004565930E+02  0.36045164212E+02  0.00000000000E+00 0.  1.
         13    1    3    3    0    0 -0.17321615882E+03 -0.22506416978E+03 -0.83857079321E+02  0.29612451427E+03  0.00000000000E+00 0. -1.
          1    1    1    2  501    0  0.21017030363E+02  0.48735610768E+02  0.27167859912E+03  0.27681426361E+03  0.00000000000E+00 0. -1.
<scales pt_clust_5="13000.00000" pt_clust_6="13000.00000" pt_clust_7="13000.00000" pt_clust_8="13000.00000" pt_clust_9="53.07424"></scales>
<clustering>
<clus scale="   53.074">  1  9  2 -1</clus>
<clus scale="   80.095">  5  6 -1 -1</clus>
<clus scale="   88.704">  7  8 -1 -1</clus>
<clus scale="  296.527">  1  5  2 -1</clus>
<clus scale="   53.074">  1  5  2 -1</clus>
</clustering>
</event>
<event>
 9    2  0.1723348E-004  0.9816149E+02  0.7546771E-02  0.1289864E+00
          4   -1    0    0  502    0 -0.00000000000E+00  0.00000000000E+00  0.88136659885E+02  0.88136659885E+02  0.00000000000E+00 0. -1.
         21   -1    0    0  501  502  0.00000000000E+00 -0.00000000000E+00 -0.27359825526E+03  0.27359825526E+03  0.00000000000E+00 0. -1.
         24    2    1    2    0    0 -0.93044211889E+01 -0.51970458452E+02 -0.73777392105E+02  0.12121060445E+03  0.80382872799E+02 0.  0.
         23    2    1    2    0    0 -0.12881636576E+02  0.10071243993E+02 -0.15220118731E+03  0.17815932591E+03  0.91149204461E+02 0.  0.
        -13    1    3    3    0    0 -0.15582041614E+02  0.14000608422E+02 -0.43646600558E+02  0.48413250225E+02  0.00000000000E+00 0.  1.
         14    1    3    3    0    0  0.62776204252E+01 -0.65971066873E+02 -0.30130791547E+02  0.72797354223E+02  0.00000000000E+00 0. -1.
        -13    1    4    4    0    0  0.11889660775E+02 -0.36822745848E+02 -0.76497010276E+02  0.85726724108E+02  0.00000000000E+00 0.  1.
         13    1    4    4    0    0 -0.24771297350E+02  0.46893989841E+02 -0.75704177038E+02  0.92432601806E+02  0.00000000000E+00 0. -1.
          3    1    1    2  501    0  0.22186057764E+02  0.41899214458E+02  0.40516984042E+02  0.62364984785E+02  0.00000000000E+00 0. -1.
<scales pt_clust_5="13000.00000" pt_clust_6="13000.00000" pt_clust_7="13000.00000" pt_clust_8="13000.00000" pt_clust_9="47.41063"></scales>
<clustering>
<clus scale="   47.411">  2  9  1 -1</clus>
<clus scale="   80.383">  5  6 -1 -1</clus>
<clus scale="   88.255">  1  5  2 -1</clus>
<clus scale="   91.149">  7  8 -1 -1</clus>
<clus scale="   47.411">  2  5  1 -1</clus>
</clustering>
</event>
<event>
 9    2  0.1723348E-004  0.2302279E+03  0.7546771E-02  0.1140262E+00
          2   -1    0    0  502    0 -0.00000000000E+00  0.00000000000E+00  0.20802686129E+04  0.20802686129E+04  0.00000000000E+00 0. -1.
         21   -1    0    0  501  502  0.00000000000E+00 -0.00000000000E+00 -0.52832311203E+02  0.52832311203E+02  0.00000000000E+00 0. -1.
         24    2    1    2    0    0  0.10495766862E+03  0.97495616840E+02  0.33727379920E+03  0.37523070807E+03  0.80764850966E+02 0.  0.
         23    2    1    2    0    0 -0.21819291352E+03  0.86109204190E+02  0.11293623312E+04  0.11570126763E+04  0.90532399063E+02 0.  0.
        -11    1    3    3    0    0  0.38245347412E+02  0.57733123878E+02  0.24512355251E+03  0.25471822900E+03  0.00000000000E+00 0.  1.
         12    1    3    3    0    0  0.66712321204E+02  0.39762492962E+02  0.92150246687E+02  0.12051247907E+03  0.00000000000E+00 0. -1.
        -11    1    4    4    0    0 -0.11874878255E+03  0.92938998584E+02  0.72852355143E+03  0.74396605824E+03  0.00000000000E+00 0.  1.
         11    1    4    4    0    0 -0.99444130969E+02 -0.68297943942E+01  0.40083877978E+03  0.41304661802E+03  0.00000000000E+00 0. -1.
          1    1    1    2  501    0  0.11323524490E+03 -0.18360482103E+03  0.56080017124E+03  0.60085753974E+03  0.00000000000E+00 0. -1.
<scales pt_clust_5="13000.00000" pt_clust_6="13000.00000" pt_clust_7="13000.00000" pt_clust_8="13000.00000" pt_clust_9="211.68081"></scales>
<clustering>
<clus scale="   80.765">  5  6 -1 -1</clus>
<clus scale="   90.532">  7  8 -1 -1</clus>
<clus scale="  164.452">  1  5  2 -1</clus>
<clus scale="  211.681">  2  9  1 -1</clus>
<clus scale="  211.681">  2  5  1 -1</clus>
</clustering>
</event>
<event>
 9    2  0.1723348E-004  0.2048766E+03  0.7546771E-02  0.1179534E+00
         21   -1    0    0  501  502  0.00000000000E+00  0.00000000000E+00  0.78166382447E+02  0.78166382447E+02  0.00000000000E+00 0.  1.
          2   -1    0    0  502    0 -0.00000000000E+00 -0.00000000000E+00 -0.95466865884E+03  0.95466865884E+03  0.00000000000E+00 0. -1.
         23    2    1    2    0    0 -0.14433115635E+02 -0.41899055847E+01 -0.18679522125E+03  0.20889035208E+03  0.92286804982E+02 0.  0.
         24    2    1    2    0    0 -0.14397539629E+03  0.11691763433E+03 -0.15559958396E+03  0.25555082203E+03  0.81831193057E+02 0.  0.
        -11    1    4    4    0    0 -0.15014177036E+02  0.35516230943E+02 -0.12652656299E+01  0.38580164199E+02  0.00000000000E+00 0.  1.
         12    1    4    4    0    0 -0.12896121925E+03  0.81401403384E+02 -0.15433431833E+03  0.21697065783E+03  0.00000000000E+00 0. -1.
        -13    1    3    3    0    0  0.28523083552E+02 -0.31437230811E+02 -0.78459694042E+02  0.89206442399E+02  0.00000000000E+00 0.  1.
         13    1    3    3    0    0 -0.42956199187E+02  0.27247325226E+02 -0.10833552721E+03  0.11968390968E+03  0.00000000000E+00 0. -1.
          1    1    1    2  501    0  0.15840851192E+03 -0.11272772874E+03 -0.53410747118E+03  0.56839386718E+03  0.00000000000E+00 0. -1.
<scales pt_clust_5="13000.00000" pt_clust_6="13000.00000" pt_clust_7="13000.00000" pt_clust_8="13000.00000" pt_clust_9="187.82469"></scales>
<clustering>
<clus scale="   81.831">  5  6 -1 -1</clus>
<clus scale="   92.287">  7  8 -1 -1</clus>
<clus scale="   93.503">  2  7  1 -1</clus>
<clus scale="  187.825">  1  9  2 -1</clus>
<clus scale="  187.825">  1  5  2 -1</clus>
</clustering>
</event>
<event>
 9    2  0.1723348E-004  0.9401947E+02  0.7546771E-02  0.1299929E+00
         21   -1    0    0  501  502  0.00000000000E+00  0.00000000000E+00  0.41738101621E+03  0.41738101621E+03  0.00000000000E+00 0.  1.
          2   -1    0    0  502    0 -0.00000000000E+00 -0.00000000000E+00 -0.61189857812E+02  0.61189857812E+02  0.00000000000E+00 0. -1.
         23    2    1    2    0    0 -0.53411831760E+01  0.21610368860E+02 -0.96780824611E+01  0.94857163792E+02  0.91698854750E+02 0.  0.
         24    2    1    2    0    0 -0.16668471315E+02 -0.15980157038E+02  0.20915089690E+03  0.22535726574E+03  0.80675871214E+02 0.  0.
        -11    1    4    4    0    0  0.30731008775E+02  0.43996307763E+01  0.98334063003E+02  0.10311808570E+03  0.00000000000E+00 0.  1.
         12    1    4    4    0    0 -0.47399480090E+02 -0.20379787814E+02  0.11081683389E+03  0.12223918005E+03  0.00000000000E+00 0. -1.
        -13    1    3    3    0    0  0.45948610633E+01 -0.35141888979E+02 -0.11360025707E+02  0.37217137091E+02  0.00000000000E+00 0.  1.
         13    1    3    3    0    0 -0.99360442394E+01  0.56752257839E+02  0.16819432463E+01  0.57640026700E+02  0.00000000000E+00 0. -1.
          1    1    1    2  501    0  0.22009654491E+02 -0.56302118220E+01  0.15671834397E+03  0.15835644449E+03  0.00000000000E+00 0. -1.
<scales pt_clust_5="13000.00000" pt_clust_6="13000.00000" pt_clust_7="13000.00000" pt_clust_8="13000.00000" pt_clust_9="22.71837"></scales>
<clustering>
<clus scale="   22.718">  1  9  2 -1</clus>
<clus scale="   80.676">  5  6 -1 -1</clus>
<clus scale="   83.304">  1  5  2 -1</clus>
<clus scale="   91.699">  7  8 -1 -1</clus>
<clus scale="   22.718">  1  5  2 -1</clus>
</clustering>
</event>
<event>
 9    2  0.1723348E-004  0.1060722E+03  0.7546771E-02  0.1272365E+00
         21   -1    0    0  501  502  0.00000000000E+00  0.00000000000E+00  0.30869930870E+02  0.30869930870E+02  0.00000000000E+00 0.  1.
          2   -1    0    0  502    0 -0.00000000000E+00 -0.00000000000E+00 -0.55996054107E+03  0.55996054107E+03  0.00000000000E+00 0. -1.
         24    2    1    2    0    0 -0.27162309195E+02  0.47131814370E+02 -0.34858756123E+03  0.36204975426E+03  0.81286762432E+02 0.  0.
         23    2    1    2    0    0 -0.19902284498E+01 -0.58929233169E+02 -0.14677260228E+03  0.18266355629E+03  0.91362806895E+02 0.  0.
        -11    1    3    3    0    0 -0.66246510260E+01 -0.21225625979E+02 -0.45120824466E+02  0.50302107311E+02  0.00000000000E+00 0.  1.
         12    1    3    3    0    0 -0.20537658169E+02  0.68357440349E+02 -0.30346673676E+03  0.31174764695E+03  0.00000000000E+00 0. -1.
        -11    1    4    4    0    0  0.23736044138E+02 -0.53828008824E+02 -0.14487980019E+03  0.15636818995E+03  0.00000000000E+00 0. -1.
         11    1    4    4    0    0 -0.25726272588E+02 -0.51012243451E+01 -0.18928020930E+01  0.26295366338E+02  0.00000000000E+00 0.  1.
          1    1    1    2  501    0  0.29152537645E+02  0.11797418800E+02 -0.33730446692E+02  0.46117161399E+02  0.00000000000E+00 0. -1.
<scales pt_clust_5="13000.00000" pt_clust_6="13000.00000" pt_clust_7="13000.00000" pt_clust_8="13000.00000" pt_clust_9="31.44916"></scales>
<clustering>
<clus scale="   31.449">  1  9  2 -1</clus>
<clus scale="   81.287">  5  6 -1 -1</clus>
<clus scale="   91.363">  7  8 -1 -1</clus>
<clus scale="   97.528">  2  5  1 -1</clus>
<clus scale="   31.449">  1  5  2 -1</clus>
</clustering>
</event>
<event>
 9    2  0.1723348E-004  0.1548119E+03  0.7546771E-02  0.1211012E+00
          2   -1    0    0  502    0 -0.00000000000E+00  0.00000000000E+00  0.41753920290E+03  0.41753920290E+03  0.00000000000E+00 0. -1.
         21   -1    0    0  501  502  0.00000000000E+00 -0.00000000000E+00 -0.19642847649E+03  0.19642847649E+03  0.00000000000E+00 0.  1.
         23    2    1    2    0    0 -0.27066381517E+02 -0.70455428267E+02 -0.79349145784E+02  0.13463751036E+03  0.78322511946E+02 0.  0.
         24    2    1    2    0    0  0.76962292040E+02 -0.96030241996E+02  0.18961240121E+02  0.14850006135E+03  0.80918093284E+02 0.  0.
        -11    1    4    4    0    0  0.71045155728E+02 -0.99443843062E+02 -0.62549983532E+01  0.12237490380E+03  0.00000000000E+00 0.  1.
         12    1    4    4    0    0  0.59171363117E+01  0.34136010660E+01  0.25216238474E+02  0.26125157553E+02  0.00000000000E+00 0. -1.
        -13    1    3    3    0    0  0.20343552414E+02 -0.12310553508E+02  0.21369693718E+01  0.23874180417E+02  0.00000000000E+00 0. -1.
         13    1    3    3    0    0 -0.47409933930E+02 -0.58144874760E+02 -0.81486115156E+02  0.11076332994E+03  0.00000000000E+00 0.  1.
          1    1    1    2  501    0 -0.49895910523E+02  0.16648567026E+03  0.28149863208E+03  0.33083010768E+03  0.00000000000E+00 0. -1.
<scales pt_clust_5="13000.00000" pt_clust_6="13000.00000" pt_clust_7="13000.00000" pt_clust_8="13000.00000" pt_clust_9="131.98105"></scales>
<clustering>
<clus scale="   78.323">  7  8 -1 -1</clus>
<clus scale="   80.918">  5  6 -1 -1</clus>
<clus scale="  108.770">  1  7  2 -1</clus>
<clus scale="  131.981">  2  9  1 -1</clus>
<clus scale="  131.981">  2  5  1 -1</clus>
</clustering>
</event>
<event>
 9    2  0.1723348E-004  0.1738432E+03  0.7546771E-02  0.1189498E+00
         -1   -1    0    0    0  501 -0.00000000000E+00  0.00000000000E+00  0.97168650904E+03  0.97168650904E+03  0.00000000000E+00 0.  1.
         21   -1    0    0  501  502  0.00000000000E+00 -0.00000000000E+00 -0.71494446180E+02  0.71494446180E+02  0.00000000000E+00 0. -1.
         23    2    1    2    0    0  0.81052101747E+02  0.10941244792E+02  0.56406508356E+02  0.13490556679E+03  0.91261512870E+02 0.  0.
         24    2    1    2    0    0 -0.17306961655E+02 -0.15554284570E+03  0.46626604098E+03  0.49901502025E+03  0.84373347052E+02 0.  0.
        -11    1    4    4    0    0  0.23675324557E+02 -0.64574138222E+02  0.27280031706E+03  0.28133672585E+03  0.00000000000E+00 0.  1.
         12    1    4    4    0    0 -0.40982286212E+02 -0.90968707478E+02  0.19346572391E+03  0.21767829440E+03  0.00000000000E+00 0. -1.
        -13    1    3    3    0    0  0.90954797779E+02 -0.16755765801E+02  0.36703078307E+02  0.99501994371E+02  0.00000000000E+00 0. -1.
         13    1    3    3    0    0 -0.99026960316E+01  0.27697010593E+02  0.19703430049E+02  0.35403572421E+02  0.00000000000E+00 0.  1.
         -2    1    1    2    0  502 -0.63745140092E+02  0.14460160091E+03  0.37751951352E+03  0.40926036818E+03  0.00000000000E+00 0.  1.
<scales pt_clust_5="13000.00000" pt_clust_6="13000.00000" pt_clust_7="13000.00000" pt_clust_8="13000.00000" pt_clust_9="151.99541"></scales>
<clustering>
<clus scale="   84.373">  5  6 -1 -1</clus>
<clus scale="   91.262">  7  8 -1 -1</clus>
<clus scale="  122.547">  1  7  2 -1</clus>
<clus scale="  151.995">  2  9  1 -1</clus>
<clus scale="  151.995">  2  5  1 -1</clus>
</clustering>
</event>
<event>
 9    2  0.1723348E-004  0.1008336E+03  0.7546771E-02  0.1284196E+00
          2   -1    0    0  502    0 -0.00000000000E+00  0.00000000000E+00  0.49320633438E+03  0.49320633438E+03  0.00000000000E+00 0. -1.
         21   -1    0    0  501  502  0.00000000000E+00 -0.00000000000E+00 -0.88989249068E+02  0.88989249068E+02  0.00000000000E+00 0.  1.
         23    2    1    2    0    0  0.23105968851E+02  0.28884495220E+02  0.80145343643E+02  0.12761147470E+03  0.92158626868E+02 0.  0.
         24    2    1    2    0    0 -0.81250387923E+02  0.37925101642E+02  0.21831121778E+01  0.12073296603E+03  0.80819207092E+02 0.  0.
        -11    1    4    4    0    0 -0.45852348310E+02 -0.17441966415E+01 -0.33403067015E+02  0.56756012487E+02  0.00000000000E+00 0.  1.
         12    1    4    4    0    0 -0.35398039613E+02  0.39669298283E+02  0.35586179193E+02  0.63976953540E+02  0.00000000000E+00 0. -1.
        -11    1    3    3    0    0  0.46629050679E+02  0.43676969756E+02  0.76366602615E+02  0.99568087504E+02  0.00000000000E+00 0.  1.
         11    1    3    3    0    0 -0.23523081827E+02 -0.14792474536E+02  0.37787410283E+01  0.28043387194E+02  0.00000000000E+00 0. -1.
          1    1    1    2  501    0  0.58144419071E+02 -0.66809596862E+02  0.32188862949E+03  0.33385114272E+03  0.00000000000E+00 0. -1.
<scales pt_clust_5="13000.00000" pt_clust_6="13000.00000" pt_clust_7="13000.00000" pt_clust_8="13000.00000" pt_clust_9="88.56807"></scales>
<clustering>
<clus scale="   80.819">  5  6 -1 -1</clus>
<clus scale="   88.568">  2  9  1 -1</clus>
<clus scale="   90.587">  2  5  1 -1</clus>
<clus scale="   92.159">  7  8 -1 -1</clus>
<clus scale="   88.568">  2  5  1 -1</clus>
</clustering>
</event>
<event>
 9    2  0.1723348E-004  0.1674877E+03  0.7546771E-02  0.1181637E+00
          2   -1    0    0  502    0 -0.00000000000E+00  0.00000000000E+00  0.11386427927E+04  0.11386427927E+04  0.00000000000E+00 0. -1.
         21   -1    0    0  501  502  0.00000000000E+00 -0.00000000000E+00 -0.11358691777E+03  0.11358691777E+03  0.00000000000E+00 0. -1.
         23    2    1    2    0    0  0.12291701854E+03  0.70286026902E+02  0.75925457253E+03  0.77779155459E+03  0.91888396764E+02 0.  0.
         24    2    1    2    0    0 -0.13162769856E+03 -0.44024967277E+02  0.35003146172E+03  0.38578016739E+03  0.83906284518E+02 0.  0.
        -13    1    4    4    0    0 -0.86964440481E+02 -0.62303906945E+02  0.28772940207E+03  0.30697361376E+03  0.00000000000E+00 0.  1.
         14    1    4    4    0    0 -0.44663258083E+02  0.18278939668E+02  0.62302059655E+02  0.78806553631E+02  0.00000000000E+00 0. -1.
        -11    1    3    3    0    0  0.99340909049E+02  0.92711512943E+02  0.63203666071E+03  0.64647844614E+03  0.00000000000E+00 0. -1.
         11    1    3    3    0    0  0.23576109490E+02 -0.22425486041E+02  0.12721791183E+03  0.13131310846E+03  0.00000000000E+00 0.  1.
          1    1    1    2  501    0  0.87106800248E+01 -0.26261059625E+02 -0.84230159283E+02  0.88657988540E+02  0.00000000000E+00 0. -1.
<scales pt_clust_5="13000.00000" pt_clust_6="13000.00000" pt_clust_7="13000.00000" pt_clust_8="13000.00000" pt_clust_9="27.66802"></scales>
<clustering>
<clus scale="   27.668">  2  9  1 -1</clus>
<clus scale="   83.906">  5  6 -1 -1</clus>
<clus scale="   91.888">  7  8 -1 -1</clus>
<clus scale="  163.245">  2  5  1 -1</clus>
<clus scale="   27.668">  2  5  1 -1</clus>
</clustering>
</event>
<event>
 9    2  0.1723348E-004  0.1350671E+03  0.7546771E-02  0.1223707E+00
          2   -1    0    0  502    0 -0.00000000000E+00  0.00000000000E+00  0.39942802889E+03  0.39942802889E+03  0.00000000000E+00 0. -1.
         21   -1    0    0  501  502  0.00000000000E+00 -0.00000000000E+00 -0.66157958356E+02  0.66157958356E+02  0.00000000000E+00 0.  1.
         23    2    1    2    0    0  0.19233695897E+02 -0.95922872305E+02  0.20110067296E+03  0.24277343872E+03  0.94479253787E+02 0.  0.
         24    2    1    2    0    0 -0.41160174529E+02  0.86459839179E+02  0.45259311852E+02  0.13268107532E+03  0.79914946542E+02 0.  0.
        -11    1    4    4    0    0  0.14209762683E+01  0.78496346732E+02  0.15234221389E+02  0.79973602677E+02  0.00000000000E+00 0.  1.
         12    1    4    4    0    0 -0.42581150797E+02  0.79634924471E+01  0.30025090464E+02  0.52707472644E+02  0.00000000000E+00 0. -1.
        -13    1    3    3    0    0 -0.34640406097E+02 -0.28218421491E+02  0.40284979185E+02  0.60159094025E+02  0.00000000000E+00 0.  1.
         13    1    3    3    0    0  0.53874101994E+02 -0.67704450814E+02  0.16081569377E+03  0.18261434470E+03  0.00000000000E+00 0. -1.
          1    1    1    2  501    0  0.21926478632E+02  0.94630331262E+01  0.86910085723E+02  0.90131473202E+02  0.00000000000E+00 0. -1.
<scales pt_clust_5="13000.00000" pt_clust_6="13000.00000" pt_clust_7="13000.00000" pt_clust_8="13000.00000" pt_clust_9="23.88137"></scales>
<clustering>
<clus scale="   23.881">  2  9  1 -1</clus>
<clus scale="   79.915">  5  6 -1 -1</clus>
<clus scale="   94.479">  7  8 -1 -1</clus>
<clus scale="  125.312">  2  5  1 -1</clus>
<clus scale="   23.881">  2  5  1 -1</clus>
</clustering>
</event>
<event>
 9    2  0.1723348E-004  0.1140875E+03  0.7546771E-02  0.1257332E+00
         21   -1    0    0  501  502  0.00000000000E+00  0.00000000000E+00  0.14530463193E+03  0.14530463193E+03  0.00000000000E+00 0.  1.
          2   -1    0    0  502    0 -0.00000000000E+00 -0.00000000000E+00 -0.14578390047E+03  0.14578390047E+03  0.00000000000E+00 0. -1.
         23    2    1    2    0    0 -0.53823467385E+02 -0.47210458541E+01  0.74792415164E+00  0.10583621219E+03  0.91002695038E+02 0.  0.
         24    2    1    2    0    0  0.92405626379E+02 -0.28158981364E+01  0.40008838470E+02  0.12828040797E+03  0.79425605728E+02 0.  0.
        -13    1    4    4    0    0  0.90447443148E+02 -0.16511238547E+02  0.55591965292E+02  0.10744220575E+03  0.00000000000E+00 0.  1.
         14    1    4    4    0    0  0.19581832312E+01  0.13695340411E+02 -0.15583126822E+02  0.20838202228E+02  0.00000000000E+00 0. -1.
        -13    1    3    3    0    0 -0.70526452515E+02 -0.21771845269E+02 -0.17421613037E+02  0.75838686378E+02  0.00000000000E+00 0.  1.
         13    1    3    3    0    0  0.16702985130E+02  0.17050799415E+02  0.18169537189E+02  0.29997525808E+02  0.00000000000E+00 0. -1.
          1    1    1    2  501    0 -0.38582158994E+02  0.75369439905E+01 -0.41236031164E+02  0.56971912233E+02  0.00000000000E+00 0. -1.
<scales pt_clust_5="13000.00000" pt_clust_6="13000.00000" pt_clust_7="13000.00000" pt_clust_8="13000.00000" pt_clust_9="39.31145"></scales>
<clustering>
<clus scale="   39.311">  1  9  2 -1</clus>
<clus scale="   79.426">  5  6 -1 -1</clus>
<clus scale="   91.003">  7  8 -1 -1</clus>
<clus scale="  105.085">  1  5  2 -1</clus>
<clus scale="   39.311">  1  5  2 -1</clus>
</clustering>
</event>
<event>
 9    2  0.1723348E-004  0.1275056E+03  0.7546771E-02  0.1235672E+00
         -1   -1    0    0    0  501 -0.00000000000E+00  0.00000000000E+00  0.21914566293E+03  0.21914566293E+03  0.00000000000E+00 0.  1.
         21   -1    0    0  501  502  0.00000000000E+00 -0.00000000000E+00 -0.14833136292E+03  0.14833136292E+03  0.00000000000E+00 0.  1.
         23    2    1    2    0    0  0.53908524092E+02  0.89107718381E+00 -0.15546053198E+02  0.10829781608E+03  0.92627286523E+02 0.  0.
         24    2    1    2    0    0 -0.10045202259E+03 -0.79792918488E+02  0.32355165195E+02  0.15283844550E+03  0.76519376792E+02 0.  0.
        -13    1    4    4    0    0 -0.64134616435E+02 -0.90693840680E+02  0.28811701733E+02  0.11475511282E+03  0.00000000000E+00 0.  1.
         14    1    4    4    0    0 -0.36317406151E+02  0.10900922192E+02  0.35434634627E+01  0.38083332673E+02  0.00000000000E+00 0. -1.
        -11    1    3    3    0    0 -0.52333575448E+01  0.32771309678E+02 -0.23466993790E+02  0.40645375712E+02  0.00000000000E+00 0.  1.
         11    1    3    3    0    0  0.59141881637E+02 -0.31880232495E+02  0.79209405915E+01  0.67652440365E+02  0.00000000000E+00 0. -1.
         -2    1    1    2    0  502  0.46543498494E+02  0.78901841305E+02  0.54005188013E+02  0.10634076427E+03  0.00000000000E+00 0.  1.
<scales pt_clust_5="13000.00000" pt_clust_6="13000.00000" pt_clust_7="13000.00000" pt_clust_8="13000.00000" pt_clust_9="91.60680"></scales>
<clustering>
<clus scale="   76.519">  5  6 -1 -1</clus>
<clus scale="   91.607">  2  9  1 -1</clus>
<clus scale="   92.627">  7  8 -1 -1</clus>
<clus scale="  116.332">  2  5  1 -1</clus>
<clus scale="   91.607">  2  5  1 -1</clus>
</clustering>
</event>
<event>
 9    2  0.1723348E-004  0.1195608E+03  0.7546771E-02  0.1252852E+00
         -1   -1    0    0    0  501 -0.00000000000E+00  0.00000000000E+00  0.20029569505E+03  0.20029569505E+03  0.00000000000E+00 0.  1.
         21   -1    0    0  501  502  0.00000000000E+00 -0.00000000000E+00 -0.28441151215E+03  0.28441151215E+03  0.00000000000E+00 0.  1.
         24    2    1    2    0    0 -0.55394990344E+02  0.15441261837E+02  0.67411948377E+02  0.12041592664E+03  0.81538868537E+02 0.  0.
         23    2    1    2    0    0 -0.16193394157E+02  0.71463212746E+02 -0.20781846120E+03  0.23841067473E+03  0.91005056007E+02 0.  0.
        -11    1    3    3    0    0 -0.56945480093E+02 -0.11629867609E+02  0.12904253180E+02  0.59536218168E+02  0.00000000000E+00 0.  1.
         12    1    3    3    0    0  0.15504897495E+01  0.27071129446E+02  0.54507695197E+02  0.60879708472E+02  0.00000000000E+00 0. -1.
        -11    1    4    4    0    0 -0.48222627105E+02  0.24230686667E+02 -0.13837312942E+03  0.14852498405E+03  0.00000000000E+00 0.  1.
         11    1    4    4    0    0  0.32029232948E+02  0.47232526079E+02 -0.69445331784E+02  0.89885690683E+02  0.00000000000E+00 0. -1.
         -2    1    1    2    0  502  0.71588384500E+02 -0.86904474582E+02  0.56290695731E+02  0.12588060583E+03  0.00000000000E+00 0.  1.
<scales pt_clust_5="13000.00000" pt_clust_6="13000.00000" pt_clust_7="13000.00000" pt_clust_8="13000.00000" pt_clust_9="77.54277"></scales>
<clustering>
<clus scale="   81.539">  5  6 -1 -1</clus>
<clus scale="   91.005">  7  8 -1 -1</clus>
<clus scale="   99.778">  1  5  2 -1</clus>
<clus scale="   77.543">  2  9  1 -1</clus>
<clus scale="   77.543">  2  5  1 -1</clus>
</clustering>
</event>
<event>
 9    2  0.1723348E-004  0.1624758E+03  0.7546771E-02  0.1204840E+00
         21   -1    0    0  501  502  0.00000000000E+00  0.00000000000E+00  0.78037011941E+02  0.78037011941E+02  0.00000000000E+00 0. -1.
          4   -1    0    0  502    0 -0.00000000000E+00 -0.00000000000E+00 -0.60278761284E+03  0.60278761284E+03  0.00000000000E+00 0. -1.
         23    2    1    2    0    0 -0.62069764259E+02 -0.29023154524E+02 -0.71006788509E+02  0.12874776081E+03  0.82698384297E+02 0.  0.
         24    2    1    2    0    0  0.43323467040E+02 -0.12770140603E+03 -0.21100259803E+03  0.26253013426E+03  0.78837827959E+02 0.  0.
        -11    1    4    4    0    0 -0.72396629757E+01 -0.59666280974E+02 -0.41578821252E+02  0.73084035070E+02  0.00000000000E+00 0.  1.
         12    1    4    4    0    0  0.50563130015E+02 -0.68035125058E+02 -0.16942377678E+03  0.18944609919E+03  0.00000000000E+00 0. -1.
        -13    1    3    3    0    0  0.13962240190E+02 -0.28066064045E+02 -0.19881202766E+02  0.37120214514E+02  0.00000000000E+00 0.  1.
         13    1    3    3    0    0 -0.76032004448E+02 -0.95709047829E+00 -0.51125585743E+02  0.91627546296E+02  0.00000000000E+00 0. -1.
          3    1    1    2  501    0  0.18746297219E+02  0.15672456056E+03 -0.24274121436E+03  0.28954672971E+03  0.00000000000E+00 0. -1.
<scales pt_clust_5="13000.00000" pt_clust_6="13000.00000" pt_clust_7="13000.00000" pt_clust_8="13000.00000" pt_clust_9="142.06694"></scales>
<clustering>
<clus scale="   78.838">  5  6 -1 -1</clus>
<clus scale="   82.698">  7  8 -1 -1</clus>
<clus scale="  107.397">  2  7  1 -1</clus>
<clus scale="  142.067">  1  9  2 -1</clus>
<clus scale="  142.067">  1  5  2 -1</clus>
</clustering>
</event>
<event>
 9    2  0.1723348E-004  0.1114689E+03  0.7546771E-02  0.1259941E+00
         21   -1    0    0  501  502  0.00000000000E+00  0.00000000000E+00  0.11346082536E+03  0.11346082536E+03  0.00000000000E+00 0.  1.
         -1   -1    0    0    0  501 -0.00000000000E+00 -0.00000000000E+00 -0.37911696691E+03  0.37911696691E+03  0.00000000000E+00 0.  1.
         23    2    1    2    0    0  0.21242205807E+02 -0.63271800445E+02 -0.23975001890E+03  0.26522296460E+03  0.91698404275E+02 0.  0.
         24    2    1    2    0    0  0.59861225258E+02  0.63674886492E+02 -0.63194086799E+02  0.13808937366E+03  0.86239927251E+02 0.  0.
        -13    1    4    4    0    0  0.73339974542E+02  0.18716427573E+02 -0.42359642943E+02  0.86737511362E+02  0.00000000000E+00 0.  1.
         14    1    4    4    0    0 -0.13478749285E+02  0.44958458919E+02 -0.20834443855E+02  0.51351862297E+02  0.00000000000E+00 0. -1.
        -11    1    3    3    0    0 -0.31058717503E+02 -0.35843217230E+02 -0.15374277172E+03  0.16089195136E+03  0.00000000000E+00 0.  1.
         11    1    3    3    0    0  0.52300923310E+02 -0.27428583214E+02 -0.86007247180E+02  0.10433101324E+03  0.00000000000E+00 0. -1.
         -2    1    1    2    0  502 -0.81103431065E+02 -0.40308604705E+00  0.37287964152E+02  0.89265454009E+02  0.00000000000E+00 0.  1.
<scales pt_clust_5="13000.00000" pt_clust_6="13000.00000" pt_clust_7="13000.00000" pt_clust_8="13000.00000" pt_clust_9="81.10443"></scales>
<clustering>
<clus scale="   81.104">  1  9  2 -1</clus>
<clus scale="   86.240">  5  6 -1 -1</clus>
<clus scale="   91.698">  7  8 -1 -1</clus>
<clus scale="  107.024">  1  5  2 -1</clus>
<clus scale="   81.104">  1  5  2 -1</clus>
</clustering>
</event>
<event>
 9    2  0.1723348E-004  0.1444697E+03  0.7546771E-02  0.1224074E+00
         -1   -1    0    0    0  501 -0.00000000000E+00  0.00000000000E+00  0.45070325256E+03  0.45070325256E+03  0.00000000000E+00 0.  1.
         21   -1    0    0  501  502  0.00000000000E+00 -0.00000000000E+00 -0.11803159077E+03  0.11803159077E+03  0.00000000000E+00 0.  1.
         23    2    1    2    0    0 -0.18285446262E+02  0.41986989814E+02  0.37246378184E+02  0.10823256014E+03  0.90717856726E+02 0.  0.
         24    2    1    2    0    0 -0.97698831365E+02 -0.80384526094E+02  0.30367710321E+03  0.33804896156E+03  0.77785498070E+02 0.  0.
        -11    1    4    4    0    0 -0.10235421093E+03 -0.85641132585E+02  0.30288395321E+03  0.33098259350E+03  0.00000000000E+00 0.  1.
         12    1    4    4    0    0  0.46553795624E+01  0.52566064905E+01  0.79315000139E+00  0.70663680623E+01  0.00000000000E+00 0. -1.
        -13    1    3    3    0    0 -0.34825114777E+02  0.63079494280E+02  0.37913676060E+02  0.81420255773E+02  0.00000000000E+00 0.  1.
         13    1    3    3    0    0  0.16539668515E+02 -0.21092504466E+02 -0.66729787672E+00  0.26812304371E+02  0.00000000000E+00 0. -1.
         -2    1    1    2    0  502  0.11598427763E+03  0.38397536280E+02 -0.82518196138E+01  0.12245332162E+03  0.00000000000E+00 0.  1.
<scales pt_clust_5="13000.00000" pt_clust_6="13000.00000" pt_clust_7="13000.00000" pt_clust_8="13000.00000" pt_clust_9="121.74116"></scales>
<clustering>
<clus scale="   77.785">  5  6 -1 -1</clus>
<clus scale="   90.718">  7  8 -1 -1</clus>
<clus scale="  101.622">  1  7  2 -1</clus>
<clus scale="  121.741">  2  9  1 -1</clus>
<clus scale="  121.741">  2  5  1 -1</clus>
</clustering>
</event>
<event>
 9    2  0.1723348E-004  0.9744641E+02  0.7546771E-02  0.1289407E+00
          2   -1    0    0  502    0 -0.00000000000E+00  0.00000000000E+00  0.58799839873E+03  0.58799839873E+03  0.00000000000E+00 0. -1.
         21   -1    0    0  501  502  0.00000000000E+00 -0.00000000000E+00 -0.33279838162E+02  0.33279838162E+02  0.00000000000E+00 0.  1.
         24    2    1    2    0    0  0.19170558939E+02 -0.47291130394E+01  0.30666700955E+03  0.31877764296E+03  0.84762350519E+02 0.  0.
         23    2    1    2    0    0 -0.73414963197E+02 -0.55344876925E+01  0.17774968400E+03  0.21311295832E+03  0.91661308457E+02 0.  0.
        -11    1    3    3    0    0 -0.94381571217E+01  0.31529964487E+02  0.66371068585E+02  0.74083305916E+02  0.00000000000E+00 0.  1.
         12    1    3    3    0    0  0.28608716060E+02 -0.36259077526E+02  0.24029594096E+03  0.24469433704E+03  0.00000000000E+00 0. -1.
        -13    1    4    4    0    0  0.13665564750E+02 -0.23710861542E+02  0.55974499970E+02  0.62306478491E+02  0.00000000000E+00 0. -1.
         13    1    4    4    0    0 -0.87080527948E+02  0.18176373850E+02  0.12177518403E+03  0.15080647983E+03  0.00000000000E+00 0.  1.
          1    1    1    2  501    0  0.54244404259E+02  0.10263600732E+02  0.70301867029E+02  0.89387635617E+02  0.00000000000E+00 0. -1.
<scales pt_clust_5="13000.00000" pt_clust_6="13000.00000" pt_clust_7="13000.00000" pt_clust_8="13000.00000" pt_clust_9="55.20686"></scales>
<clustering>
<clus scale="   55.207">  2  9  1 -1</clus>
<clus scale="   84.762">  5  6 -1 -1</clus>
<clus scale="   90.987">  1  5  2 -1</clus>
<clus scale="   91.661">  7  8 -1 -1</clus>
<clus scale="   55.207">  2  5  1 -1</clus>
</clustering>
</event>
<event>
 9    2  0.1723348E-004  0.1067120E+03  0.7546771E-02  0.1272655E+00
          2   -1    0    0  502    0 -0.00000000000E+00  0.00000000000E+00  0.24042529312E+03  0.24042529312E+03  0.00000000000E+00 0. -1.
         21   -1    0    0  501  502  0.00000000000E+00 -0.00000000000E+00 -0.84776218841E+02  0.84776218841E+02  0.00000000000E+00 0.  1.
         24    2    1    2    0    0  0.25217593813E+02 -0.29115648785E+02  0.44094460614E+02  0.96657255566E+02  0.76906797844E+02 0.  0.
         23    2    1    2    0    0 -0.91193767274E+02  0.44564189933E+01  0.78315379444E+02  0.15066114032E+03  0.90715586777E+02 0.  0.
        -11    1    3    3    0    0  0.47040212937E+02 -0.34847206776E+02  0.16125113159E+02  0.60721731922E+02  0.00000000000E+00 0.  1.
         12    1    3    3    0    0 -0.21822619124E+02  0.57315579902E+01  0.27969347456E+02  0.35935523643E+02  0.00000000000E+00 0. -1.
        -13    1    4    4    0    0 -0.21360802401E+02  0.32735418210E+02 -0.37360935012E+01  0.39266396311E+02  0.00000000000E+00 0. -1.
         13    1    4    4    0    0 -0.69832964873E+02 -0.28278999217E+02  0.82051472946E+02  0.11139474401E+03  0.00000000000E+00 0.  1.
          1    1    1    2  501    0  0.65976173460E+02  0.24659229792E+02  0.33239234219E+02  0.77883116077E+02  0.00000000000E+00 0. -1.
<scales pt_clust_5="13000.00000" pt_clust_6="13000.00000" pt_clust_7="13000.00000" pt_clust_8="13000.00000" pt_clust_9="70.43389"></scales>
<clustering>
<clus scale="   70.434">  2  9  1 -1</clus>
<clus scale="   76.907">  5  6 -1 -1</clus>
<clus scale="   90.716">  7  8 -1 -1</clus>
<clus scale="   95.251">  1  5  2 -1</clus>
<clus scale="   70.434">  2  5  1 -1</clus>
</clustering>
</event>
<event>
 9    2  0.1723348E-004  0.8955755E+02  0.7546771E-02  0.1305181E+00
          2   -1    0    0  502    0 -0.00000000000E+00  0.00000000000E+00  0.43851854660E+03  0.43851854660E+03  0.00000000000E+00 0. -1.
         21   -1    0    0  501  502  0.00000000000E+00 -0.00000000000E+00 -0.57391363612E+02  0.57391363612E+02  0.00000000000E+00 0. -1.
         24    2    1    2    0    0 -0.49419276149E+02  0.31441268828E+02  0.35735762941E+03  0.36945008514E+03  0.73198851545E+02 0.  0.
         23    2    1    2    0    0  0.31266310058E+01 -0.14560650986E+02  0.11890339255E+01  0.72257942072E+02  0.70696591234E+02 0.  0.
        -13    1    3    3    0    0 -0.93657883953E+01  0.45651490903E+02  0.12872729885E+03  0.13690322890E+03  0.00000000000E+00 0.  1.
         14    1    3    3    0    0 -0.40053487754E+02 -0.14210222075E+02  0.22863033056E+03  0.23254685623E+03  0.00000000000E+00 0. -1.
        -11    1    4    4    0    0  0.23099636639E+02 -0.32229363220E+02  0.14792667205E+02  0.42321957297E+02  0.00000000000E+00 0.  1.
         11    1    4    4    0    0 -0.19973005634E+02  0.17668712234E+02 -0.13603633279E+02  0.29935984775E+02  0.00000000000E+00 0. -1.
          1    1    1    2  501    0  0.46292645143E+02 -0.16880617842E+02  0.22580519644E+02  0.54201882998E+02  0.00000000000E+00 0. -1.
<scales pt_clust_5="13000.00000" pt_clust_6="13000.00000" pt_clust_7="13000.00000" pt_clust_8="13000.00000" pt_clust_9="49.27438"></scales>
<clustering>
<clus scale="   49.274">  2  9  1 -1</clus>
<clus scale="   70.697">  7  8 -1 -1</clus>
<clus scale="   73.199">  5  6 -1 -1</clus>
<clus scale="   87.524">  2  7  1 -1</clus>
<clus scale="   49.274">  2  5  1 -1</clus>
</clustering>
</event>
<event>
 9    2  0.1723348E-004  0.2215391E+03  0.7546771E-02  0.1149334E+00
         -1   -1    0    0    0  501 -0.00000000000E+00  0.00000000000E+00  0.18996774954E+03  0.18996774954E+03  0.00000000000E+00 0.  1.
         21   -1    0    0  501  502  0.00000000000E+00 -0.00000000000E+00 -0.64006911953E+03  0.64006911953E+03  0.00000000000E+00 0.  1.
         24    2    1    2    0    0 -0.64922473201E+02 -0.10747494154E+03  0.55518344023E+02  0.15860871226E+03  0.79426988449E+02 0.  0.
         23    2    1    2    0    0  0.49402881571E+01  0.25514935117E+03 -0.38836928529E+03  0.47355633767E+03  0.91100523272E+02 0.  0.
        -13    1    3    3    0    0 -0.67051026506E+02 -0.11319354090E+03  0.33499759779E+02  0.13576027314E+03  0.00000000000E+00 0.  1.
         14    1    3    3    0    0  0.21285533054E+01  0.57185993623E+01  0.22018584244E+02  0.22848439114E+02  0.00000000000E+00 0. -1.
        -11    1    4    4    0    0 -0.28695930631E+02  0.77691079071E+02 -0.74349758590E+02  0.11129800899E+03  0.00000000000E+00 0. -1.
         11    1    4    4    0    0  0.33636218788E+02  0.17745827209E+03 -0.31401952670E+03  0.36225832868E+03  0.00000000000E+00 0.  1.
         -2    1    1    2    0  502  0.59982185044E+02 -0.14767440962E+03 -0.11725042872E+03  0.19787181915E+03  0.00000000000E+00 0.  1.
<scales pt_clust_5="13000.00000" pt_clust_6="13000.00000" pt_clust_7="13000.00000" pt_clust_8="13000.00000" pt_clust_9="201.94137"></scales>
<clustering>
<clus scale="   79.427">  5  6 -1 -1</clus>
<clus scale="   91.101">  7  8 -1 -1</clus>
<clus scale="  148.575">  1  5  2 -1</clus>
<clus scale="  201.941">  2  9  1 -1</clus>
<clus scale="  201.941">  2  5  1 -1</clus>
</clustering>
</event>
<event>
 9    2  0.1723348E-004  0.9508135E+02  0.7546771E-02  0.1297730E+00
          2   -1    0    0  502    0 -0.00000000000E+00  0.00000000000E+00  0.37011616459E+02  0.37011616459E+02  0.00000000000E+00 0. -1.
         21   -1    0    0  501  502  0.00000000000E+00 -0.00000000000E+00 -0.38174840646E+03  0.38174840646E+03  0.00000000000E+00 0. -1.
         23    2    1    2    0    0 -0.43603314643E+01  0.12069130787E+02 -0.82219794581E+02  0.12376427004E+03  0.91612354573E+02 0.  0.
         24    2    1    2    0    0  0.14140754426E+02 -0.49453079102E+02 -0.20114547375E+03  0.22247210199E+03  0.79929760336E+02 0.  0.
        -13    1    4    4    0    0  0.31529010792E+02 -0.16174510133E+01 -0.28678590670E+02  0.42651567757E+02  0.00000000000E+00 0.  1.
         14    1    4    4    0    0 -0.17388256367E+02 -0.47835628088E+02 -0.17246688308E+03  0.17982053423E+03  0.00000000000E+00 0. -1.
        -11    1    3    3    0    0 -0.44117235215E+02  0.10943726748E+02 -0.19419534393E+02  0.49428877331E+02  0.00000000000E+00 0.  1.
         11    1    3    3    0    0  0.39756903751E+02  0.11254040382E+01 -0.62800260188E+02  0.74335392713E+02  0.00000000000E+00 0. -1.
          1    1    1    2  501    0 -0.97804229614E+01  0.37383948315E+02 -0.61371521676E+02  0.72523650885E+02  0.00000000000E+00 0. -1.
<scales pt_clust_5="13000.00000" pt_clust_6="13000.00000" pt_clust_7="13000.00000" pt_clust_8="13000.00000" pt_clust_9="38.64216"></scales>
<clustering>
<clus scale="   38.642">  2  9  1 -1</clus>
<clus scale="   79.930">  5  6 -1 -1</clus>
<clus scale="   83.883">  2  5  1 -1</clus>
<clus scale="   91.612">  7  8 -1 -1</clus>
<clus scale="   38.642">  2  5  1 -1</clus>
</clustering>
</event>
<event>
 9    2  0.1723348E-004  0.1167606E+03  0.7546771E-02  0.1251890E+00
         21   -1    0    0  501  502  0.00000000000E+00  0.00000000000E+00  0.21511102047E+03  0.21511102047E+03  0.00000000000E+00 0.  1.
          4   -1    0    0  502    0 -0.00000000000E+00 -0.00000000000E+00 -0.13148897641E+03  0.13148897641E+03  0.00000000000E+00 0. -1.
         23    2    1    2    0    0 -0.66428009718E+02  0.25786705344E+02 -0.85603824469E+01  0.11521577242E+03  0.90131900113E+02 0.  0.
         24    2    1    2    0    0  0.81774685284E+02  0.19625865057E+02 -0.11947689646E+02  0.11675044633E+03  0.80097725918E+02 0.  0.
        -11    1    4    4    0    0  0.25355116785E+02  0.43559651619E+02  0.10497912276E+02  0.51483311456E+02  0.00000000000E+00 0.  1.
         12    1    4    4    0    0  0.56419568499E+02 -0.23933786561E+02 -0.22445601921E+02  0.65267134872E+02  0.00000000000E+00 0. -1.
        -11    1    3    3    0    0 -0.47991303779E+02  0.76303283589E+01  0.38174586317E+02  0.61795519173E+02  0.00000000000E+00 0.  1.
         11    1    3    3    0    0 -0.18436705939E+02  0.18156376985E+02 -0.46734968764E+02  0.53420253243E+02  0.00000000000E+00 0. -1.
          3    1    1    2  501    0 -0.15346675566E+02 -0.45412570402E+02  0.10413011615E+03  0.11463377814E+03  0.00000000000E+00 0. -1.
<scales pt_clust_5="13000.00000" pt_clust_6="13000.00000" pt_clust_7="13000.00000" pt_clust_8="13000.00000" pt_clust_9="47.93560"></scales>
<clustering>
<clus scale="   47.936">  1  9  2 -1</clus>
<clus scale="   80.098">  5  6 -1 -1</clus>
<clus scale="   90.132">  7  8 -1 -1</clus>
<clus scale="  109.201">  1  5  2 -1</clus>
<clus scale="   47.936">  1  5  2 -1</clus>
</clustering>
</event>
<event>
 9    2  0.1723348E-004  0.1105540E+03  0.7546771E-02  0.1263417E+00
         21   -1    0    0  501  502  0.00000000000E+00  0.00000000000E+00  0.92195081179E+02  0.92195081179E+02  0.00000000000E+00 0. -1.
          2   -1    0    0  502    0 -0.00000000000E+00 -0.00000000000E+00 -0.41986718367E+03  0.41986718367E+03  0.00000000000E+00 0. -1.
         23    2    1    2    0    0  0.79257768534E+02  0.11398221423E+02 -0.32625798276E+03  0.34814167205E+03  0.91359942950E+02 0.  0.
         24    2    1    2    0    0 -0.79912115702E+01  0.18144256618E+02 -0.16304875500E+02  0.85349511870E+02  0.81397891255E+02 0.  0.
        -11    1    4    4    0    0 -0.42130254593E+02 -0.27315564776E+01 -0.16512599485E+02  0.45333053004E+02  0.00000000000E+00 0.  1.
         12    1    4    4    0    0  0.34139043023E+02  0.20875813096E+02  0.20772398566E+00  0.40016458866E+02  0.00000000000E+00 0. -1.
        -11    1    3    3    0    0  0.33211691399E+02  0.50886384934E+02 -0.15783971774E+03  0.16913254303E+03  0.00000000000E+00 0.  1.
         11    1    3    3    0    0  0.46046077135E+02 -0.39488163511E+02 -0.16841826503E+03  0.17900912902E+03  0.00000000000E+00 0. -1.
          1    1    1    2  501    0 -0.71266556964E+02 -0.29542478042E+02  0.14890755776E+02  0.78571080926E+02  0.00000000000E+00 0. -1.
<scales pt_clust_5="13000.00000" pt_clust_6="13000.00000" pt_clust_7="13000.00000" pt_clust_8="13000.00000" pt_clust_9="77.14713"></scales>
<clustering>
<clus scale="   77.147">  1  9  2 -1</clus>
<clus scale="   81.398">  5  6 -1 -1</clus>
<clus scale="   91.360">  7  8 -1 -1</clus>
<clus scale="  102.475">  1  5  2 -1</clus>
<clus scale="   77.147">  1  5  2 -1</clus>
</clustering>
</event>
<event>
 9    2  0.1723348E-004  0.1553885E+03  0.7546771E-02  0.1216207E+00
          2   -1    0    0  502    0 -0.00000000000E+00  0.00000000000E+00  0.77206962230E+03  0.77206962230E+03  0.00000000000E+00 0. -1.
         21   -1    0    0  501  502  0.00000000000E+00 -0.00000000000E+00 -0.66698823358E+02  0.66698823358E+02  0.00000000000E+00 0. -1.
         23    2    1    2    0    0 -0.21047443582E+02  0.14600013322E+02  0.15028717718E+03  0.17851231814E+03  0.92866876948E+02 0.  0.
         24    2    1    2    0    0 -0.10343422407E+03 -0.67630550749E+02  0.48687926033E+03  0.50873134934E+03  0.80521062811E+02 0.  0.
        -11    1    4    4    0    0  0.12617681993E+01 -0.24583517125E+02  0.34357000242E+02  0.42265172883E+02  0.00000000000E+00 0.  1.
         12    1    4    4    0    0 -0.10469599227E+03 -0.43047033624E+02  0.45252226009E+03  0.46646617646E+03  0.00000000000E+00 0. -1.
        -11    1    3    3    0    0  0.14633345779E+02 -0.24873857013E+02  0.13738124097E+02  0.31962159268E+02  0.00000000000E+00 0. -1.
         11    1    3    3    0    0 -0.35680789361E+02  0.39473870335E+02  0.13654905308E+03  0.14655015888E+03  0.00000000000E+00 0.  1.
          1    1    1    2  501    0  0.12448166765E+03  0.53030537427E+02  0.68204361427E+02  0.15152477817E+03  0.00000000000E+00 0. -1.
<scales pt_clust_5="13000.00000" pt_clust_6="13000.00000" pt_clust_7="13000.00000" pt_clust_8="13000.00000" pt_clust_9="132.89828"></scales>
<clustering>
<clus scale="   80.521">  5  6 -1 -1</clus>
<clus scale="   92.867">  7  8 -1 -1</clus>
<clus scale="   96.335">  1  7  2 -1</clus>
<clus scale="  132.898">  2  9  1 -1</clus>
<clus scale="  132.898">  2  5  1 -1</clus>
</clustering>
</event>
<event>
 9    2  0.1723348E-004  0.1128739E+03  0.7546771E-02  0.1258827E+00
          4   -1    0    0  502    0 -0.00000000000E+00  0.00000000000E+00  0.29787145202E+03  0.29787145202E+03  0.00000000000E+00 0. -1.
         21   -1    0    0  501  502  0.00000000000E+00 -0.00000000000E+00 -0.88040998633E+02  0.88040998633E+02  0.00000000000E+00 0.  1.
         23    2    1    2    0    0 -0.21725844707E+01 -0.53600752048E+02  0.90875950943E+02  0.13946641218E+03  0.91184872223E+02 0.  0.
         24    2    1    2    0    0 -0.75807206410E+02  0.74535827588E+02  0.62529815978E+02  0.14794288921E+03  0.81699439669E+02 0.  0.
        -13    1    4    4    0    0 -0.79762416726E+02  0.34115430208E+02  0.19783153803E+02  0.88979092345E+02  0.00000000000E+00 0.  1.
         14    1    4    4    0    0  0.39552103160E+01  0.40420397381E+02  0.42746662176E+02  0.58963796861E+02  0.00000000000E+00 0. -1.
        -11    1    3    3    0    0  0.42691230955E+02 -0.38272138108E+02  0.39905146366E+02  0.69854981657E+02  0.00000000000E+00 0.  1.
         11    1    3    3    0    0 -0.44863815425E+02 -0.15328613940E+02  0.50970804577E+02  0.69611430521E+02  0.00000000000E+00 0. -1.
          3    1    1    2  501    0  0.77979790880E+02 -0.20935075540E+02  0.56424686469E+02  0.98503149273E+02  0.00000000000E+00 0. -1.
<scales pt_clust_5="13000.00000" pt_clust_6="13000.00000" pt_clust_7="13000.00000" pt_clust_8="13000.00000" pt_clust_9="80.74114"></scales>
<clustering>
<clus scale="   80.741">  2  9  1 -1</clus>
<clus scale="   81.699">  5  6 -1 -1</clus>
<clus scale="   91.185">  7  8 -1 -1</clus>
<clus scale="  105.360">  2  5  1 -1</clus>
<clus scale="   80.741">  2  5  1 -1</clus>
</clustering>
</event>
<event>
 9    2  0.1723348E-004  0.2127188E+03  0.7546771E-02  0.1139847E+00
         21   -1    0    0  501  502  0.00000000000E+00  0.00000000000E+00  0.30997190806E+03  0.30997190806E+03  0.00000000000E+00 0. -1.
          2   -1    0    0  502    0 -0.00000000000E+00 -0.00000000000E+00 -0.20635365640E+04  0.20635365640E+04  0.00000000000E+00 0. -1.
         24    2    1    2    0    0 -0.13961176895E+03  0.13597937054E+03 -0.18754612883E+04  0.18873035426E+04  0.81103532600E+02 0.  0.
         23    2    1    2    0    0  0.21696566922E+03 -0.19587152809E+02  0.21518169293E+03  0.31817851256E+03  0.86467604958E+02 0.  0.
        -11    1    3    3    0    0 -0.11184338572E+02  0.48919733672E+02 -0.29426094242E+03  0.29850918245E+03  0.00000000000E+00 0.  1.
         12    1    3    3    0    0 -0.12842743038E+03  0.87059636873E+02 -0.15812003459E+04  0.15887943602E+04  0.00000000000E+00 0. -1.
        -11    1    4    4    0    0  0.37173275165E+02 -0.35161738839E+02  0.28678127647E+02  0.58656928576E+02  0.00000000000E+00 0.  1.
         11    1    4    4    0    0  0.17979239405E+03  0.15574586030E+02  0.18650356528E+03  0.25952158398E+03  0.00000000000E+00 0. -1.
          1    1    1    2  501    0 -0.77353900266E+02 -0.11639221774E+03 -0.93285060608E+02  0.16802641688E+03  0.00000000000E+00 0. -1.
<scales pt_clust_5="13000.00000" pt_clust_6="13000.00000" pt_clust_7="13000.00000" pt_clust_8="13000.00000" pt_clust_9="139.75255"></scales>
<clustering>
<clus scale="   81.104">  5  6 -1 -1</clus>
<clus scale="   86.468">  7  8 -1 -1</clus>
<clus scale="  139.753">  1  9  2 -1</clus>
<clus scale="  210.595">  2  5  1 -1</clus>
<clus scale="  139.753">  1  5  2 -1</clus>
</clustering>
</event>
<event>
 9    2  0.1723348E-004  0.1396137E+03  0.7546771E-02  0.1216492E+00
          2   -1    0    0  502    0 -0.00000000000E+00  0.00000000000E+00  0.30831366381E+03  0.30831366381E+03  0.00000000000E+00 0. -1.
         21   -1    0    0  501  502  0.00000000000E+00 -0.00000000000E+00 -0.27994973933E+03  0.27994973933E+03  0.00000000000E+00 0.  1.
         24    2    1    2    0    0  0.10117714732E+03 -0.22360797147E+02  0.25642744859E+03  0.28775282958E+03  0.79434464503E+02 0.  0.
         23    2    1    2    0    0 -0.12008643665E+03  0.44548950613E+02 -0.15104073392E+03  0.21815533336E+03  0.91504562210E+02 0.  0.
        -13    1    3    3    0    0 -0.16513412685E+01 -0.27399853070E+02  0.48327125003E+02  0.55578681950E+02  0.00000000000E+00 0.  1.
         14    1    3    3    0    0  0.10282848858E+03  0.50390559231E+01  0.20810032359E+03  0.23217414763E+03  0.00000000000E+00 0. -1.
        -13    1    4    4    0    0 -0.10269309799E+03  0.34319196523E+02 -0.16225872104E+03  0.19506812189E+03  0.00000000000E+00 0.  1.
         13    1    4    4    0    0 -0.17393338658E+02  0.10229754090E+02  0.11217987124E+02  0.23087211471E+02  0.00000000000E+00 0. -1.
          1    1    1    2  501    0  0.18909289337E+02 -0.22188153466E+02 -0.77022790195E+02  0.82355240191E+02  0.00000000000E+00 0. -1.
<scales pt_clust_5="13000.00000" pt_clust_6="13000.00000" pt_clust_7="13000.00000" pt_clust_8="13000.00000" pt_clust_9="29.15262"></scales>
<clustering>
<clus scale="   29.153">  2  9  1 -1</clus>
<clus scale="   79.434">  5  6 -1 -1</clus>
<clus scale="   91.505">  7  8 -1 -1</clus>
<clus scale="  132.018">  1  5  2 -1</clus>
<clus scale="   29.153">  2  5  1 -1</clus>
</clustering>
</event>
<event>
 9    2  0.1723348E-004  0.1202638E+03  0.7546771E-02  0.1247654E+00
         21   -1    0    0  501  502  0.00000000000E+00  0.00000000000E+00  0.85500282165E+02  0.85500282165E+02  0.00000000000E+00 0.  1.
         -1   -1    0    0    0  501 -0.00000000000E+00 -0.00000000000E+00 -0.39813914752E+03  0.39813914752E+03  0.00000000000E+00 0.  1.
         24    2    1    2    0    0 -0.58003379282E+02 -0.51068459690E+02 -0.16087064169E+03  0.19569163831E+03  0.80271254890E+02 0.  0.
         23    2    1    2    0    0 -0.24751365171E+02  0.99551426985E+02 -0.51445015779E+02  0.14915408876E+03  0.95274528872E+02 0.  0.
        -11    1    3    3    0    0 -0.70065203723E+02 -0.30812130355E+02 -0.15257787295E+03  0.17070010973E+03  0.00000000000E+00 0.  1.
         12    1    3    3    0    0  0.12061824440E+02 -0.20256329335E+02 -0.82927687424E+01  0.24991528572E+02  0.00000000000E+00 0. -1.
        -13    1    4    4    0    0 -0.14802838623E+02  0.15205841010E+02 -0.60145350686E+02  0.63779344942E+02  0.00000000000E+00 0. -1.
         13    1    4    4    0    0 -0.99485265481E+01  0.84345585975E+02  0.87003349067E+01  0.85374743815E+02  0.00000000000E+00 0.  1.
         -2    1    1    2    0  502  0.82754744454E+02 -0.48482967295E+02 -0.10032320788E+03  0.13879370262E+03  0.00000000000E+00 0.  1.
<scales pt_clust_5="13000.00000" pt_clust_6="13000.00000" pt_clust_7="13000.00000" pt_clust_8="13000.00000" pt_clust_9="95.91118"></scales>
<clustering>
<clus scale="   80.271">  5  6 -1 -1</clus>
<clus scale="   95.275">  7  8 -1 -1</clus>
<clus scale="   95.911">  1  9  2 -1</clus>
<clus scale="  108.764">  2  5  1 -1</clus>
<clus scale="   95.911">  1  5  2 -1</clus>
</clustering>
</event>
<event>
 9    2  0.1739612E-004  0.1360923E+03  0.7546771E-02  0.1235517E+00
         21   -1    0    0  501  502  0.00000000000E+00  0.00000000000E+00  0.44860378554E+03  0.44860378554E+03  0.00000000000E+00 0. -1.
          2   -1    0    0  502    0 -0.00000000000E+00 -0.00000000000E+00 -0.85542707332E+03  0.85542707332E+03  0.00000000000E+00 0. -1.
         24    2    1    2    0    0 -0.29595384381E+02  0.43366078519E+02 -0.80352184950E+03  0.80923333879E+03  0.80341337007E+02 0.  0.
         23    2    1    2    0    0 -0.41647979590E+02  0.41443067937E+02  0.29823515068E+02  0.11156716104E+03  0.90031701568E+02 0.  0.
        -13    1    3    3    0    0  0.22689100838E+02  0.15728729782E+02 -0.11895305407E+03  0.12211477105E+03  0.00000000000E+00 0.  1.
         14    1    3    3    0    0 -0.52284485219E+02  0.27637348737E+02 -0.68456879544E+03  0.68711856773E+03  0.00000000000E+00 0. -1.
        -13    1    4    4    0    0 -0.18495943736E+02  0.68975328319E+02  0.22332212002E+02  0.74822613857E+02  0.00000000000E+00 0.  1.
         13    1    4    4    0    0 -0.23152035854E+02 -0.27532260383E+02  0.74913030667E+01  0.36744547182E+02  0.00000000000E+00 0. -1.
          1    1    1    2  501    0  0.71243363971E+02 -0.84809146456E+02  0.36687504665E+03  0.38323035903E+03  0.00000000000E+00 0. -1.
<scales pt_clust_5="13000.00000" pt_clust_6="13000.00000" pt_clust_7="13000.00000" pt_clust_8="13000.00000" pt_clust_9="102.05592"></scales>
<clustering>
<clus scale="   80.341">  5  6 -1 -1</clus>
<clus scale="   90.032">  7  8 -1 -1</clus>
<clus scale="   95.975">  2  5  1 -1</clus>
<clus scale="  102.056">  1  9  2 -1</clus>
<clus scale="  102.056">  1  5  2 -1</clus>
</clustering>
</event>
<event>
 9    2  0.1723348E-004  0.9152202E+02  0.7546771E-02  0.1300783E+00
         21   -1    0    0  501  502  0.00000000000E+00  0.00000000000E+00  0.58081319751E+02  0.58081319751E+02  0.00000000000E+00 0.  1.
          2   -1    0    0  502    0 -0.00000000000E+00 -0.00000000000E+00 -0.29888619879E+03  0.29888619879E+03  0.00000000000E+00 0. -1.
         24    2    1    2    0    0 -0.39541995309E+02  0.46392715889E+02 -0.15639407343E+03  0.18617522292E+03  0.80537282959E+02 0.  0.
         23    2    1    2    0    0  0.28447286715E+02  0.15417797728E+02 -0.35604660039E+02  0.91258202314E+02  0.77546186656E+02 0.  0.
        -11    1    3    3    0    0 -0.42420399081E+02  0.59498758656E+02 -0.78946780585E+02  0.10757409867E+03  0.00000000000E+00 0.  1.
         12    1    3    3    0    0  0.28784037714E+01 -0.13106042767E+02 -0.77447292843E+02  0.78601124254E+02  0.00000000000E+00 0. -1.
        -11    1    4    4    0    0  0.77703525256E+01 -0.22612159661E+02  0.12136775516E+02  0.26813978870E+02  0.00000000000E+00 0.  1.
         11    1    4    4    0    0  0.20676934189E+02  0.38029957389E+02 -0.47741435555E+02  0.64444223444E+02  0.00000000000E+00 0. -1.
          1    1    1    2  501    0  0.11094708595E+02 -0.61810513618E+02 -0.48806145576E+02  0.79534093309E+02  0.00000000000E+00 0. -1.
<scales pt_clust_5="13000.00000" pt_clust_6="13000.00000" pt_clust_7="13000.00000" pt_clust_8="13000.00000" pt_clust_9="62.79835"></scales>
<clustering>
<clus scale="   62.798">  1  9  2 -1</clus>
<clus scale="   77.546">  7  8 -1 -1</clus>
<clus scale="   80.537">  5  6 -1 -1</clus>
<clus scale="   88.901">  1  7  2 -1</clus>
<clus scale="   62.798">  1  5  2 -1</clus>
</clustering>
</event>
<event>
 9    2  0.1723348E-004  0.1573124E+03  0.7546771E-02  0.1210203E+00
         21   -1    0    0  501  502  0.00000000000E+00  0.00000000000E+00  0.72661597818E+02  0.72661597818E+02  0.00000000000E+00 0. -1.
          2   -1    0    0  502    0 -0.00000000000E+00 -0.00000000000E+00 -0.11667007135E+04  0.11667007135E+04  0.00000000000E+00 0. -1.
         23    2    1    2    0    0  0.51679696365E+02  0.64205421116E+01 -0.16118671244E+03  0.19262616929E+03  0.91715159332E+02 0.  0.
         24    2    1    2    0    0  0.48046764161E+01  0.13369233659E+03 -0.70900049254E+02  0.17164531035E+03  0.80861423435E+02 0.  0.
        -11    1    4    4    0    0 -0.19606086368E+02  0.14373172118E+02 -0.38645679902E+02  0.45656054084E+02  0.00000000000E+00 0.  1.
         12    1    4    4    0    0  0.24410762784E+02  0.11931916448E+03 -0.32254369351E+02  0.12598925626E+03  0.00000000000E+00 0. -1.
        -11    1    3    3    0    0 -0.52166180205E+01  0.39354742261E+02 -0.62891740037E+02  0.74373246580E+02  0.00000000000E+00 0. -1.
         11    1    3    3    0    0  0.56896314385E+02 -0.32934200149E+02 -0.98294972405E+02  0.11825292271E+03  0.00000000000E+00 0.  1.
          1    1    1    2  501    0 -0.56484372781E+02 -0.14011287871E+03 -0.86195235397E+03  0.87509083166E+03  0.00000000000E+00 0. -1.
<scales pt_clust_5="13000.00000" pt_clust_6="13000.00000" pt_clust_7="13000.00000" pt_clust_8="13000.00000" pt_clust_9="134.93941"></scales>
<clustering>
<clus scale="   80.861">  5  6 -1 -1</clus>
<clus scale="   91.715">  7  8 -1 -1</clus>
<clus scale="  105.469">  2  7  1 -1</clus>
<clus scale="  134.939">  1  9  2 -1</clus>
<clus scale="  134.939">  1  5  2 -1</clus>
</clustering>
</event>
<event>
 9    2  0.1723348E-004  0.4475547E+03  0.7546771E-02  0.1046441E+00
          2   -1    0    0  502    0 -0.00000000000E+00  0.00000000000E+00  0.16646515717E+04  0.16646515717E+04  0.00000000000E+00 0. -1.
         21   -1    0    0  501  502  0.00000000000E+00 -0.00000000000E+00 -0.24312190205E+03  0.24312190205E+03  0.00000000000E+00 0. -1.
         24    2    1    2    0    0 -0.25029655876E+03  0.26188601011E+02  0.53878562084E+03  0.60020330828E+03  0.81362496851E+02 0.  0.
         23    2    1    2    0    0 -0.27556306205E+03  0.23620640365E+03  0.29316384829E+03  0.47511338455E+03  0.89773158234E+02 0.  0.
        -11    1    3    3    0    0 -0.77337052234E+02 -0.17880356380E+02  0.10908774101E+03  0.13491057049E+03  0.00000000000E+00 0.  1.
         12    1    3    3    0    0 -0.17295950653E+03  0.44068957392E+02  0.42969787983E+03  0.46529273778E+03  0.00000000000E+00 0. -1.
        -11    1    4    4    0    0 -0.17603614532E+03  0.12319998171E+03  0.22063229308E+03  0.30797007761E+03  0.00000000000E+00 0.  1.
         11    1    4    4    0    0 -0.99526916728E+02  0.11300642194E+03  0.72531555214E+02  0.16714330694E+03  0.00000000000E+00 0. -1.
          1    1    1    2  501    0  0.52585962081E+03 -0.26239500466E+03  0.58958020053E+03  0.83245678094E+03  0.00000000000E+00 0. -1.
<scales pt_clust_5="13000.00000" pt_clust_6="13000.00000" pt_clust_7="13000.00000" pt_clust_8="13000.00000" pt_clust_9="438.45887"></scales>
<clustering>
<clus scale="   81.362">  5  6 -1 -1</clus>
<clus scale="   89.773">  7  8 -1 -1</clus>
<clus scale="  264.488">  1  5  2 -1</clus>
<clus scale="  438.459">  2  9  1 -1</clus>
<clus scale="  438.459">  2  5  1 -1</clus>
</clustering>
</event>
<event>
 9    2  0.1723348E-004  0.9464974E+02  0.7546771E-02  0.1298739E+00
          2   -1    0    0  502    0 -0.00000000000E+00  0.00000000000E+00  0.10338684908E+04  0.10338684908E+04  0.00000000000E+00 0. -1.
         21   -1    0    0  501  502  0.00000000000E+00 -0.00000000000E+00 -0.17343980006E+02  0.17343980006E+02  0.00000000000E+00 0.  1.
         23    2    1    2    0    0  0.35474863164E+02  0.44725687958E+02  0.38423048193E+03  0.39920643929E+03  0.92053597716E+02 0.  0.
         24    2    1    2    0    0 -0.35797666195E+01  0.17708457868E+02  0.24790005742E+03  0.26127076943E+03  0.80508212508E+02 0.  0.
        -11    1    4    4    0    0 -0.21433709971E+02 -0.26928679522E+02  0.10610763443E+03  0.11154993406E+03  0.00000000000E+00 0.  1.
         12    1    4    4    0    0  0.17853943351E+02  0.44637137390E+02  0.14179242299E+03  0.14972083537E+03  0.00000000000E+00 0. -1.
        -13    1    3    3    0    0  0.28747854883E+02  0.71652893844E+02  0.23322494893E+03  0.24567143334E+03  0.00000000000E+00 0.  1.
         13    1    3    3    0    0  0.67270082809E+01 -0.26927205887E+02  0.15100553299E+03  0.15353500595E+03  0.00000000000E+00 0. -1.
          1    1    1    2  501    0 -0.31895096544E+02 -0.62434145826E+02  0.38439397143E+03  0.39073526207E+03  0.00000000000E+00 0. -1.
<scales pt_clust_5="13000.00000" pt_clust_6="13000.00000" pt_clust_7="13000.00000" pt_clust_8="13000.00000" pt_clust_9="70.10938"></scales>
<clustering>
<clus scale="   70.109">  2  9  1 -1</clus>
<clus scale="   80.508">  5  6 -1 -1</clus>
<clus scale="   83.464">  2  5  1 -1</clus>
<clus scale="   92.054">  7  8 -1 -1</clus>
<clus scale="   70.109">  2  5  1 -1</clus>
</clustering>
</event>
<event>
 9    2  0.1992673E-004  0.9652272E+02  0.7546771E-02  0.1287793E+00
          2   -1    0    0  502    0 -0.00000000000E+00  0.00000000000E+00  0.75673462098E+03  0.75673462098E+03  0.00000000000E+00 0. -1.
         21   -1    0    0  501  502  0.00000000000E+00 -0.00000000000E+00 -0.27262617114E+03  0.27262617114E+03  0.00000000000E+00 0. -1.
         24    2    1    2    0    0  0.49102039317E+02  0.28539938563E+02  0.71997839885E+03  0.72660923243E+03  0.79790622769E+02 0.  0.
         23    2    1    2    0    0 -0.20274289278E+02  0.14122493758E+02 -0.27263913363E+02  0.87885088575E+02  0.79812130571E+02 0.  0.
        -13    1    3    3    0    0  0.23679947325E+02  0.23390516287E+02  0.87774017858E+02  0.93872969317E+02  0.00000000000E+00 0.  1.
         14    1    3    3    0    0  0.25422091992E+02  0.51494222761E+01  0.63220438099E+03  0.63273626311E+03  0.00000000000E+00 0. -1.
        -11    1    4    4    0    0 -0.84743875423E+01 -0.32484612070E+02 -0.20494885783E+02  0.39333263389E+02  0.00000000000E+00 0.  1.
         11    1    4    4    0    0 -0.11799901735E+02  0.46607105827E+02 -0.67690275795E+01  0.48551825186E+02  0.00000000000E+00 0. -1.
          1    1    1    2  501    0 -0.28827750039E+02 -0.42662432321E+02 -0.20860603565E+03  0.21486647112E+03  0.00000000000E+00 0. -1.
<scales pt_clust_5="13000.00000" pt_clust_6="13000.00000" pt_clust_7="13000.00000" pt_clust_8="13000.00000" pt_clust_9="51.48905"></scales>
<clustering>
<clus scale="   51.489">  2  9  1 -1</clus>
<clus scale="   79.791">  5  6 -1 -1</clus>
<clus scale="   79.812">  7  8 -1 -1</clus>
<clus scale="   96.505">  1  5  2 -1</clus>
<clus scale="   51.489">  2  5  1 -1</clus>
</clustering>
</event>
<event>
 9    2  0.1723348E-004  0.1043003E+03  0.7546771E-02  0.1277521E+00
         21   -1    0    0  501  502  0.00000000000E+00  0.00000000000E+00  0.24647800760E+03  0.24647800760E+03  0.00000000000E+00 0.  1.
          2   -1    0    0  502    0 -0.00000000000E+00 -0.00000000000E+00 -0.10289747247E+03  0.10289747247E+03  0.00000000000E+00 0. -1.
         24    2    1    2    0    0 -0.33475884695E+02 -0.13094427117E+02 -0.95403174478E+01  0.85774522238E+02  0.77292639562E+02 0.  0.
         23    2    1    2    0    0  0.65952544285E+02  0.53944198274E+02  0.27277664068E+02  0.12736606759E+03  0.90655003126E+02 0.  0.
        -11    1    3    3    0    0  0.55649582326E+01  0.24598929381E+02 -0.17817281134E+02  0.30879306887E+02  0.00000000000E+00 0.  1.
         12    1    3    3    0    0 -0.39040842927E+02 -0.37693356498E+02  0.82769636857E+01  0.54895215351E+02  0.00000000000E+00 0. -1.
        -13    1    4    4    0    0  0.64045811166E+02  0.42391537069E+01  0.40502329639E+02  0.75896475928E+02  0.00000000000E+00 0.  1.
         13    1    4    4    0    0  0.19067331187E+01  0.49705044567E+02 -0.13224665571E+02  0.51469591664E+02  0.00000000000E+00 0. -1.
          1    1    1    2  501    0 -0.32476659590E+02 -0.40849771157E+02  0.12584318851E+03  0.13623489023E+03  0.00000000000E+00 0. -1.
<scales pt_clust_5="13000.00000" pt_clust_6="13000.00000" pt_clust_7="13000.00000" pt_clust_8="13000.00000" pt_clust_9="52.18656"></scales>
<clustering>
<clus scale="   52.187">  1  9  2 -1</clus>
<clus scale="   77.293">  5  6 -1 -1</clus>
<clus scale="   90.655">  7  8 -1 -1</clus>
<clus scale="   92.921">  2  5  1 -1</clus>
<clus scale="   52.187">  1  5  2 -1</clus>
</clustering>
</event>
<event>
 9    2  0.1723348E-004  0.1397239E+03  0.7546771E-02  0.1229989E+00
          2   -1    0    0  502    0 -0.00000000000E+00  0.00000000000E+00  0.47861902355E+03  0.47861902355E+03  0.00000000000E+00 0. -1.
         21   -1    0    0  501  502  0.00000000000E+00 -0.00000000000E+00 -0.11394237179E+03  0.11394237179E+03  0.00000000000E+00 0. -1.
         23    2    1    2    0    0  0.40151707909E+02  0.43531767724E+01  0.31334366003E+03  0.32871834925E+03  0.90776616232E+02 0.  0.
         24    2    1    2    0    0  0.94373016995E+02 -0.10541640891E+02  0.34730204769E+02  0.12815645415E+03  0.78743235186E+02 0.  0.
        -13    1    4    4    0    0 -0.20403942621E+01 -0.24996297382E+02  0.13739927309E+01  0.25117044961E+02  0.00000000000E+00 0.  1.
         14    1    4    4    0    0  0.96413411257E+02  0.14454656491E+02  0.33356212038E+02  0.10303940919E+03  0.00000000000E+00 0. -1.
        -13    1    3    3    0    0  0.19059204333E+02 -0.37315615885E+02  0.75642120461E+02  0.86472185392E+02  0.00000000000E+00 0. -1.
         13    1    3    3    0    0  0.21092503576E+02  0.41668792658E+02  0.23770153957E+03  0.24224616385E+03  0.00000000000E+00 0.  1.
          1    1    1    2  501    0 -0.13452472490E+03  0.61884641183E+01  0.16602786959E+02  0.13568659194E+03  0.00000000000E+00 0. -1.
<scales pt_clust_5="13000.00000" pt_clust_6="13000.00000" pt_clust_7="13000.00000" pt_clust_8="13000.00000" pt_clust_9="115.42217"></scales>
<clustering>
<clus scale="   78.743">  5  6 -1 -1</clus>
<clus scale="   90.777">  7  8 -1 -1</clus>
<clus scale="   99.355">  1  7  2 -1</clus>
<clus scale="  115.422">  2  9  1 -1</clus>
<clus scale="  115.422">  2  5  1 -1</clus>
</clustering>
</event>
<event>
 9    2  0.1723348E-004  0.1321269E+03  0.7546771E-02  0.1240773E+00
         21   -1    0    0  501  502  0.00000000000E+00  0.00000000000E+00  0.45748637888E+03  0.45748637888E+03  0.00000000000E+00 0.  1.
         -1   -1    0    0    0  501 -0.00000000000E+00 -0.00000000000E+00 -0.17948022273E+03  0.17948022273E+03  0.00000000000E+00 0.  1.
         23    2    1    2    0    0 -0.25483660130E+02  0.10042810359E+02 -0.72042464949E+02  0.11861349643E+03  0.90159690583E+02 0.  0.
         24    2    1    2    0    0  0.86219434614E+02  0.75186132513E+02 -0.13381250871E+02  0.14015464029E+03  0.79859375731E+02 0.  0.
        -13    1    4    4    0    0  0.47735040176E+02  0.76953272182E+02 -0.33670745746E+02  0.96613452890E+02  0.00000000000E+00 0.  1.
         14    1    4    4    0    0  0.38484394437E+02 -0.17671396692E+01  0.20289494875E+02  0.43541187399E+02  0.00000000000E+00 0. -1.
        -13    1    3    3    0    0 -0.38783542863E+02 -0.18220782953E+02 -0.31449113515E+01  0.42965690915E+02  0.00000000000E+00 0. -1.
         13    1    3    3    0    0  0.13299882732E+02  0.28263593312E+02 -0.68897553598E+02  0.75647805516E+02  0.00000000000E+00 0.  1.
         -2    1    1    2    0  502 -0.60735774483E+02 -0.85228942873E+02  0.36342987197E+03  0.37819846489E+03  0.00000000000E+00 0.  1.
<scales pt_clust_5="13000.00000" pt_clust_6="13000.00000" pt_clust_7="13000.00000" pt_clust_8="13000.00000" pt_clust_9="105.26158"></scales>
<clustering>
<clus scale="   79.859">  5  6 -1 -1</clus>
<clus scale="   90.160">  7  8 -1 -1</clus>
<clus scale="   94.229">  2  7  1 -1</clus>
<clus scale="  105.262">  1  9  2 -1</clus>
<clus scale="  105.262">  1  5  2 -1</clus>
</clustering>
</event>
<event>
 9    2  0.2482750E-004  0.3005771E+03  0.7546771E-02  0.1130586E+00
          2   -1    0    0  502    0 -0.00000000000E+00  0.00000000000E+00  0.11910101531E+04  0.11910101531E+04  0.00000000000E+00 0. -1.
         21   -1    0    0  501  502  0.00000000000E+00 -0.00000000000E+00 -0.11540925846E+03  0.11540925846E+03  0.00000000000E+00 0. -1.
         24    2    1    2    0    0 -0.19861267779E+02 -0.39671140406E+02  0.17395595038E+03  0.19749577001E+03  0.82314258558E+02 0.  0.
         23    2    1    2    0    0  0.24505022208E+03  0.17041817166E+03  0.22684314555E+03  0.38562403636E+03  0.90311240510E+02 0.  0.
        -11    1    3    3    0    0 -0.39752431665E+02 -0.32527944416E+02  0.49761882303E+02  0.71516207405E+02  0.00000000000E+00 0.  1.
         12    1    3    3    0    0  0.19891163887E+02 -0.71431959905E+01  0.12419406808E+03  0.12597956261E+03  0.00000000000E+00 0. -1.
        -11    1    4    4    0    0  0.20580202338E+03  0.17770359593E+03  0.19628626330E+03  0.33535255776E+03  0.00000000000E+00 0. -1.
         11    1    4    4    0    0  0.39248198695E+02 -0.72854242740E+01  0.30556882247E+02  0.50271478597E+02  0.00000000000E+00 0.  1.
          1    1    1    2  501    0 -0.22518895430E+03 -0.13074703125E+03  0.67480179868E+03  0.72329960516E+03  0.00000000000E+00 0. -1.
<scales pt_clust_5="13000.00000" pt_clust_6="13000.00000" pt_clust_7="13000.00000" pt_clust_8="13000.00000" pt_clust_9="286.68894"></scales>
<clustering>
<clus scale="   82.314">  5  6 -1 -1</clus>
<clus scale="   90.311">  7  8 -1 -1</clus>
<clus scale="   93.509">  1  5  2 -1</clus>
<clus scale="  286.689">  2  9  1 -1</clus>
<clus scale="  286.689">  2  5  1 -1</clus>
</clustering>
</event>
<event>
 9    2  0.1723348E-004  0.1528131E+03  0.7546771E-02  0.1200335E+00
         -3   -1    0    0    0  501 -0.00000000000E+00  0.00000000000E+00  0.10338643898E+03  0.10338643898E+03  0.00000000000E+00 0.  1.
         21   -1    0    0  501  502  0.00000000000E+00 -0.00000000000E+00 -0.40842790921E+03  0.40842790921E+03  0.00000000000E+00 0.  1.
         23    2    1    2    0    0 -0.12370213563E+03  0.61223203753E+02 -0.88092006974E+01  0.16575895292E+03  0.91367004005E+02 0.  0.
         24    2    1    2    0    0  0.60257819598E+02 -0.57516378851E+02 -0.22485827583E+03  0.25048778168E+03  0.72413713529E+02 0.  0.
        -11    1    4    4    0    0  0.82364974827E+01 -0.55960052944E+02 -0.94646090424E+02  0.11025991950E+03  0.00000000000E+00 0.  1.
         12    1    4    4    0    0  0.52021322115E+02 -0.15563259073E+01 -0.13021218540E+03  0.14022786218E+03  0.00000000000E+00 0. -1.
        -11    1    3    3    0    0 -0.25561674335E+02  0.69217872281E+01 -0.41233133972E+02  0.49004914757E+02  0.00000000000E+00 0. -1.
         11    1    3    3    0    0 -0.98140461291E+02  0.54301416525E+02  0.32423933274E+02  0.11675403817E+03  0.00000000000E+00 0.  1.
         -4    1    1    2    0  502  0.63444316028E+02 -0.37068249023E+01 -0.71373993716E+02  0.95567613584E+02  0.00000000000E+00 0.  1.
<scales pt_clust_5="13000.00000" pt_clust_6="13000.00000" pt_clust_7="13000.00000" pt_clust_8="13000.00000" pt_clust_9="63.55251"></scales>
<clustering>
<clus scale="   63.553">  2  9  1 -1</clus>
<clus scale="   72.414">  5  6 -1 -1</clus>
<clus scale="   91.367">  7  8 -1 -1</clus>
<clus scale="  142.294">  2  5  1 -1</clus>
<clus scale="   63.553">  2  5  1 -1</clus>
</clustering>
</event>
<event>
 9    2  0.1723348E-004  0.1103206E+03  0.7546771E-02  0.1264024E+00
         21   -1    0    0  501  502  0.00000000000E+00  0.00000000000E+00  0.34729843756E+03  0.34729843756E+03  0.00000000000E+00 0.  1.
          4   -1    0    0  502    0 -0.00000000000E+00 -0.00000000000E+00 -0.13413484547E+03  0.13413484547E+03  0.00000000000E+00 0. -1.
         23    2    1    2    0    0  0.58691093942E+02  0.24779535875E+02 -0.49126447139E+02  0.12126237440E+03  0.90733046523E+02 0.  0.
         24    2    1    2    0    0 -0.76208245287E+02  0.52051236836E+02  0.25274418639E+03  0.28079243841E+03  0.80297831885E+02 0.  0.
        -11    1    4    4    0    0 -0.67378719620E+02 -0.15400608437E+01  0.12577678919E+03  0.14269570542E+03  0.00000000000E+00 0.  1.
         12    1    4    4    0    0 -0.88295256668E+01  0.53591297680E+02  0.12696739720E+03  0.13809673299E+03  0.00000000000E+00 0. -1.
        -13    1    3    3    0    0 -0.18384253811E+02  0.25774949164E+02 -0.39174821969E+01  0.31901025992E+02  0.00000000000E+00 0.  1.
         13    1    3    3    0    0  0.77075347753E+02 -0.99541328894E+00 -0.45208964942E+02  0.89361348412E+02  0.00000000000E+00 0. -1.
          3    1    1    2  501    0  0.17517151345E+02 -0.76830772711E+02  0.95458528386E+01  0.79378470211E+02  0.00000000000E+00 0. -1.
<scales pt_clust_5="13000.00000" pt_clust_6="13000.00000" pt_clust_7="13000.00000" pt_clust_8="13000.00000" pt_clust_9="78.80244"></scales>
<clustering>
<clus scale="   78.802">  1  9  2 -1</clus>
<clus scale="   80.298">  5  6 -1 -1</clus>
<clus scale="   90.733">  7  8 -1 -1</clus>
<clus scale="  101.911">  1  5  2 -1</clus>
<clus scale="   78.802">  1  5  2 -1</clus>
</clustering>
</event>
<event>
 9    2  0.1723348E-004  0.1339601E+03  0.7546771E-02  0.1235008E+00
         21   -1    0    0  501  502  0.00000000000E+00  0.00000000000E+00  0.30905700934E+03  0.30905700934E+03  0.00000000000E+00 0.  1.
          2   -1    0    0  502    0 -0.00000000000E+00 -0.00000000000E+00 -0.22019097134E+03  0.22019097134E+03  0.00000000000E+00 0. -1.
         24    2    1    2    0    0 -0.57807755900E+02  0.43447253795E+01 -0.63274137023E+01  0.10188134811E+03  0.83541364893E+02 0.  0.
         23    2    1    2    0    0 -0.42737215126E+02 -0.85179725111E+02  0.21435179047E+03  0.25174687832E+03  0.91365997726E+02 0.  0.
        -13    1    3    3    0    0 -0.18154385616E+02  0.28231265456E+02 -0.34140489847E+02  0.47876498549E+02  0.00000000000E+00 0.  1.
         14    1    3    3    0    0 -0.39653370284E+02 -0.23886540077E+02  0.27813076145E+02  0.54004849563E+02  0.00000000000E+00 0. -1.
        -11    1    4    4    0    0  0.22867030309E+02 -0.52934674597E+02  0.11198599191E+03  0.12595968893E+03  0.00000000000E+00 0.  1.
         11    1    4    4    0    0 -0.65604245435E+02 -0.32245050513E+02  0.10236579856E+03  0.12578718940E+03  0.00000000000E+00 0. -1.
          1    1    1    2  501    0  0.10054497103E+03  0.80834999731E+02 -0.11915833877E+03  0.17561975424E+03  0.00000000000E+00 0. -1.
<scales pt_clust_5="13000.00000" pt_clust_6="13000.00000" pt_clust_7="13000.00000" pt_clust_8="13000.00000" pt_clust_9="97.96726"></scales>
<clustering>
<clus scale="   83.541">  5  6 -1 -1</clus>
<clus scale="   91.366">  7  8 -1 -1</clus>
<clus scale="  101.685">  2  5  1 -1</clus>
<clus scale="   97.967">  1  9  2 -1</clus>
<clus scale="   97.967">  1  5  2 -1</clus>
</clustering>
</event>
<event>
 9    2  0.1723348E-004  0.9525859E+02  0.7546771E-02  0.1296709E+00
         21   -1    0    0  501  502  0.00000000000E+00  0.00000000000E+00  0.34823308827E+02  0.34823308827E+02  0.00000000000E+00 0.  1.
          2   -1    0    0  502    0 -0.00000000000E+00 -0.00000000000E+00 -0.46090850016E+03  0.46090850016E+03  0.00000000000E+00 0. -1.
         24    2    1    2    0    0 -0.97687743330E+01  0.29954057553E+02 -0.11129049702E+03  0.14037788375E+03  0.79546847860E+02 0.  0.
         23    2    1    2    0    0 -0.19481913445E+02 -0.29698546978E+02 -0.10313607093E+03  0.14168352281E+03  0.90419150978E+02 0.  0.
        -11    1    3    3    0    0 -0.12414804623E+02  0.45439258043E+02 -0.26303546460E+02  0.53951182579E+02  0.00000000000E+00 0.  1.
         12    1    3    3    0    0  0.26460302898E+01 -0.15485200490E+02 -0.84986950558E+02  0.86426701173E+02  0.00000000000E+00 0. -1.
        -13    1    4    4    0    0 -0.55829806682E+02 -0.16646838801E+02 -0.67096744960E+02  0.88859764463E+02  0.00000000000E+00 0.  1.
         13    1    4    4    0    0  0.36347893237E+02 -0.13051708177E+02 -0.36039325970E+02  0.52823758343E+02  0.00000000000E+00 0. -1.
          1    1    1    2  501    0  0.29250687778E+02 -0.25551057453E+00 -0.21165862338E+03  0.21367040243E+03  0.00000000000E+00 0. -1.
<scales pt_clust_5="13000.00000" pt_clust_6="13000.00000" pt_clust_7="13000.00000" pt_clust_8="13000.00000" pt_clust_9="29.25182"></scales>
<clustering>
<clus scale="   29.252">  1  9  2 -1</clus>
<clus scale="   79.547">  5  6 -1 -1</clus>
<clus scale="   85.008">  2  5  1 -1</clus>
<clus scale="   90.419">  7  8 -1 -1</clus>
<clus scale="   29.252">  1  5  2 -1</clus>
</clustering>
</event>
<event>
 9    2  0.1723348E-004  0.1346060E+03  0.7546771E-02  0.1241464E+00
         21   -1    0    0  501  502  0.00000000000E+00  0.00000000000E+00  0.16329714302E+03  0.16329714302E+03  0.00000000000E+00 0. -1.
          2   -1    0    0  502    0 -0.00000000000E+00 -0.00000000000E+00 -0.23145854630E+03  0.23145854630E+03  0.00000000000E+00 0. -1.
         24    2    1    2    0    0 -0.30029486491E+02  0.18899323231E+02 -0.27481322874E+02  0.92074580051E+02  0.80396210776E+02 0.  0.
         23    2    1    2    0    0 -0.24012681581E+02  0.96903032723E+02  0.57277343625E+02  0.14166434463E+03  0.82591075898E+02 0.  0.
        -13    1    3    3    0    0  0.27825814084E+02  0.43135004701E+01 -0.10324051469E+02  0.29991136265E+02  0.00000000000E+00 0.  1.
         14    1    3    3    0    0 -0.57855300575E+02  0.14585822761E+02 -0.17157271405E+02  0.62083443786E+02  0.00000000000E+00 0. -1.
        -11    1    4    4    0    0 -0.19434868830E+02  0.36245795497E+02  0.68413121012E+02  0.79823724194E+02  0.00000000000E+00 0. -1.
         11    1    4    4    0    0 -0.45778127518E+01  0.60657237226E+02 -0.11135777387E+02  0.61840620432E+02  0.00000000000E+00 0.  1.
          1    1    1    2  501    0  0.54042168073E+02 -0.11580235595E+03 -0.97957424024E+02  0.16101676464E+03  0.00000000000E+00 0. -1.
<scales pt_clust_5="13000.00000" pt_clust_6="13000.00000" pt_clust_7="13000.00000" pt_clust_8="13000.00000" pt_clust_9="106.28969"></scales>
<clustering>
<clus scale="   80.396">  5  6 -1 -1</clus>
<clus scale="   82.591">  7  8 -1 -1</clus>
<clus scale="   87.878">  2  5  1 -1</clus>
<clus scale="  106.290">  1  9  2 -1</clus>
<clus scale="  106.290">  1  5  2 -1</clus>
</clustering>
</event>
<event>
 9    2  0.1723348E-004  0.1418814E+03  0.7546771E-02  0.1214911E+00
          2   -1    0    0  502    0 -0.00000000000E+00  0.00000000000E+00  0.13035465637E+04  0.13035465637E+04  0.00000000000E+00 0. -1.
         21   -1    0    0  501  502  0.00000000000E+00 -0.00000000000E+00 -0.39754558429E+02  0.39754558429E+02  0.00000000000E+00 0. -1.
         24    2    1    2    0    0  0.10202400242E+03  0.44210195575E+02  0.95341173472E+03  0.96264582862E+03  0.73004225948E+02 0.  0.
         23    2    1    2    0    0 -0.96759777749E+02 -0.20159140742E+02  0.32498308181E+03  0.35203000061E+03  0.92424414119E+02 0.  0.
        -13    1    3    3    0    0  0.25759407485E+02  0.41588450400E+02  0.22551109435E+03  0.23075614825E+03  0.00000000000E+00 0.  1.
         14    1    3    3    0    0  0.76264594930E+02  0.26217451753E+01  0.72790064036E+03  0.73188968037E+03  0.00000000000E+00 0. -1.
        -13    1    4    4    0    0 -0.10730777046E+03  0.32679251577E+01  0.28450450779E+03  0.30408625732E+03  0.00000000000E+00 0.  1.
         13    1    4    4    0    0  0.10547992710E+02 -0.23427065899E+02  0.40478574017E+02  0.47943743296E+02  0.00000000000E+00 0. -1.
          1    1    1    2  501    0 -0.52642246662E+01 -0.24051054833E+02 -0.14602811216E+02  0.28625292930E+02  0.00000000000E+00 0. -1.
<scales pt_clust_5="13000.00000" pt_clust_6="13000.00000" pt_clust_7="13000.00000" pt_clust_8="13000.00000" pt_clust_9="24.62042"></scales>
<clustering>
<clus scale="   24.620">  2  9  1 -1</clus>
<clus scale="   73.004">  5  6 -1 -1</clus>
<clus scale="   92.424">  7  8 -1 -1</clus>
<clus scale="  130.068">  1  5  2 -1</clus>
<clus scale="   24.620">  2  5  1 -1</clus>
</clustering>
</event>
