<event>
 9    2  0.3402837E-005  0.1233162E+03  0.7546771E-02  0.1241255E+00
          2   -1    0    0  502    0  0.00000000000E+00  0.00000000000E+00  0.92173620839E+02  0.92173620839E+02  0.00000000000E+00 0. -1.
         -1   -1    0    0    0  501 -0.00000000000E+00 -0.00000000000E+00 -0.26777785687E+03  0.26777785687E+03  0.00000000000E+00 0.  1.
         23    2    1    2    0    0  0.59283716978E+02 -0.56612945027E+02 -0.14287302624E+03  0.18873189970E+03  0.92127323281E+02 0.  0.
         24    2    1    2    0    0 -0.27902606803E+02  0.79489450355E+02  0.57460020862E+01  0.11655144830E+03  0.80337384673E+02 0.  0.
        -11    1    4    4    0    0 -0.62757409827E+01  0.30293075347E+02 -0.36751173947E+02  0.48038569143E+02  0.00000000000E+00 0.  1.
         12    1    4    4    0    0 -0.21626865821E+02  0.49196375008E+02  0.42497176034E+02  0.68512879154E+02  0.00000000000E+00 0. -1.
        -13    1    3    3    0    0  0.34387532879E+02  0.19647304096E+02 -0.69624240134E+02  0.80100273345E+02  0.00000000000E+00 0.  1.
         13    1    3    3    0    0  0.24896184100E+02 -0.76260249123E+02 -0.73248786106E+02  0.10863162636E+03  0.00000000000E+00 0. -1.
         21    1    1    2  502  501 -0.31381110175E+02 -0.22876505328E+02 -0.38477211875E+02  0.54668129705E+02  0.00000000000E+00 0.  1.
<scales pt_clust_5="13000.00000" pt_clust_6="13000.00000" pt_clust_7="13000.00000" pt_clust_8="13000.00000" pt_clust_9="38.83437"></scales>
<clustering>
<clus scale="   38.834">  2  9  1 -1</clus>
<clus scale="   80.337">  5  6 -1 -1</clus>
<clus scale="   92.127">  7  8 -1 -1</clus>
<clus scale="  114.776">  1  5  2 -1</clus>
<clus scale="  114.776">  1  5  2 -1</clus>
</clustering>
</event>
<event>
 9    2  0.3402837E-005  0.1803157E+03  0.7546771E-02  0.1202927E+00
          2   -1    0    0  502    0  0.00000000000E+00  0.00000000000E+00  0.13409800413E+04  0.13409800413E+04  0.00000000000E+00 0. -1.
         -1   -1    0    0    0  501 -0.00000000000E+00 -0.00000000000E+00 -0.67336871743E+02  0.67336871743E+02  0.00000000000E+00 0.  1.
         23    2    1    2    0    0 -0.13252694284E+03 -0.86936740306E+02  0.90206593367E+02  0.20340426587E+03  0.90081510281E+02 0.  0.
         24    2    1    2    0    0  0.10591082638E+02  0.11292909585E+02  0.37437498867E+03  0.38322475294E+03  0.80404466827E+02 0.  0.
        -13    1    4    4    0    0 -0.22568825598E+02 -0.23534116972E+02  0.18421868224E+03  0.18708214623E+03  0.00000000000E+00 0.  1.
         14    1    4    4    0    0  0.33159908236E+02  0.34827026558E+02  0.19015630643E+03  0.19614260671E+03  0.00000000000E+00 0. -1.
        -13    1    3    3    0    0 -0.66290518350E+02 -0.80509853492E+02  0.88589680964E+02  0.13683713277E+03  0.00000000000E+00 0. -1.
         13    1    3    3    0    0 -0.66236424487E+02 -0.64268868148E+01  0.16169124029E+01  0.66567133097E+02  0.00000000000E+00 0.  1.
         21    1    1    2  502  501  0.12193586020E+03  0.75643830721E+02  0.80906158757E+03  0.82168789428E+03  0.00000000000E+00 0. -1.
<scales pt_clust_5="13000.00000" pt_clust_6="13000.00000" pt_clust_7="13000.00000" pt_clust_8="13000.00000" pt_clust_9="156.20201"></scales>
<clustering>
<clus scale="   80.404">  5  6 -1 -1</clus>
<clus scale="   81.881">  1  5  2 -1</clus>
<clus scale="   90.082">  7  8 -1 -1</clus>
<clus scale="  156.202">  1  9  2 -1</clus>
<clus scale="   81.881">  1  5  2 -1</clus>
</clustering>
</event>
<event>
 9    2  0.3402837E-005  0.1021415E+03  0.7546771E-02  0.1286451E+00
         -1   -1    0    0    0  501 -0.00000000000E+00  0.00000000000E+00  0.24448157854E+03  0.24448157854E+03  0.00000000000E+00 0.  1.
          2   -1    0    0  502    0  0.00000000000E+00 -0.00000000000E+00 -0.10045946074E+03  0.10045946074E+03  0.00000000000E+00 0. -1.
         23    2    1    2    0    0  0.33205256154E+02  0.42604238981E+02  0.14848603863E+03  0.18493393756E+03  0.96097592977E+02 0.  0.
         24    2    1    2    0    0 -0.18412094874E+02 -0.26352696643E+02 -0.58840394431E+02  0.10135771016E+03  0.76011338200E+02 0.  0.
        -11    1    4    4    0    0  0.24824472759E+02 -0.24811896987E+01 -0.42599303409E+02  0.49367108494E+02  0.00000000000E+00 0.  1.
         12    1    4    4    0    0 -0.43236567633E+02 -0.23871506944E+02 -0.16241091022E+02  0.51990601671E+02  0.00000000000E+00 0. -1.
        -13    1    3    3    0    0 -0.22554785232E+01  0.45877995393E+02  0.14133465146E+03  0.14861144420E+03  0.00000000000E+00 0.  1.
         13    1    3    3    0    0  0.35460734678E+02 -0.32737564120E+01  0.71513871716E+01  0.36322493353E+02  0.00000000000E+00 0. -1.
         21    1    1    2  502  501 -0.14793161281E+02 -0.16251542338E+02  0.54376473602E+02  0.58649391561E+02  0.00000000000E+00 0.  1.
<scales pt_clust_5="13000.00000" pt_clust_6="13000.00000" pt_clust_7="13000.00000" pt_clust_8="13000.00000" pt_clust_9="21.97613"></scales>
<clustering>
<clus scale="   21.976">  1  9  2 -1</clus>
<clus scale="   76.011">  5  6 -1 -1</clus>
<clus scale="   83.522">  2  5  1 -1</clus>
<clus scale="   96.098">  7  8 -1 -1</clus>
<clus scale="   83.522">  2  5  1 -1</clus>
</clustering>
</event>
<event>
 9    2  0.3402837E-005  0.1054507E+03  0.7546771E-02  0.1271517E+00
          2   -1    0    0  502    0  0.00000000000E+00  0.00000000000E+00  0.23715330491E+03  0.23715330491E+03  0.00000000000E+00 0. -1.
         -1   -1    0    0    0  501 -0.00000000000E+00 -0.00000000000E+00 -0.98826060712E+02  0.98826060712E+02  0.00000000000E+00 0.  1.
         24    2    1    2    0    0 -0.17176467789E+02  0.56755429249E+01  0.94239606499E+01  0.82924385318E+02  0.80376612349E+02 0.  0.
         23    2    1    2    0    0  0.71271979978E+02 -0.62261668808E+02  0.11800954484E+03  0.17401709304E+03  0.86020261936E+02 0.  0.
        -11    1    3    3    0    0 -0.16362659962E+01 -0.21042761601E+02 -0.27567361430E+02  0.34719369212E+02  0.00000000000E+00 0.  1.
         12    1    3    3    0    0 -0.15540201792E+02  0.26718304526E+02  0.36991322080E+02  0.48205016106E+02  0.00000000000E+00 0. -1.
        -11    1    4    4    0    0  0.42650923948E+01 -0.60499337665E+02  0.61041810970E+02  0.86049192661E+02  0.00000000000E+00 0.  1.
         11    1    4    4    0    0  0.67006887583E+02 -0.17623311430E+01  0.56967733865E+02  0.87967900375E+02  0.00000000000E+00 0. -1.
         21    1    1    2  502  501 -0.54095512189E+02  0.56586125883E+02  0.10893738718E+02  0.79037887274E+02  0.00000000000E+00 0. -1.
<scales pt_clust_5="13000.00000" pt_clust_6="13000.00000" pt_clust_7="13000.00000" pt_clust_8="13000.00000" pt_clust_9="78.28355"></scales>
<clustering>
<clus scale="   78.284">  2  9  1 -1</clus>
<clus scale="   80.377">  5  6 -1 -1</clus>
<clus scale="   86.020">  7  8 -1 -1</clus>
<clus scale="  100.900">  2  5  1 -1</clus>
<clus scale="  105.451">  1  5  2 -1</clus>
</clustering>
</event>
<event>
 9    2  0.3402837E-005  0.2522228E+03  0.7546771E-02  0.1112279E+00
          2   -1    0    0  502    0  0.00000000000E+00  0.00000000000E+00  0.20875127331E+04  0.20875127331E+04  0.00000000000E+00 0. -1.
         -1   -1    0    0    0  501 -0.00000000000E+00 -0.00000000000E+00 -0.35372715885E+02  0.35372715885E+02  0.00000000000E+00 0.  1.
         23    2    1    2    0    0 -0.21139684186E+03  0.52427938067E+02  0.81572063566E+03  0.84874068319E+03  0.86736834350E+02 0.  0.
         24    2    1    2    0    0  0.24466933397E+03 -0.74268647346E+02  0.10895124809E+04  0.11219418986E+04  0.79606927407E+02 0.  0.
        -11    1    4    4    0    0  0.30960107103E+02 -0.11277113486E+02  0.58598229672E+02  0.67226884809E+02  0.00000000000E+00 0.  1.
         12    1    4    4    0    0  0.21370922687E+03 -0.62991533859E+02  0.10309142512E+04  0.10547150138E+04  0.00000000000E+00 0. -1.
        -13    1    3    3    0    0 -0.14705240861E+03  0.41233501383E+01  0.42265999566E+03  0.44752975859E+03  0.00000000000E+00 0. -1.
         13    1    3    3    0    0 -0.64344433255E+02  0.48304587929E+02  0.39306064000E+03  0.40121092460E+03  0.00000000000E+00 0.  1.
         21    1    1    2  502  501 -0.33272492108E+02  0.21840709279E+02  0.14690690075E+03  0.15220286726E+03  0.00000000000E+00 0. -1.
<scales pt_clust_5="13000.00000" pt_clust_6="13000.00000" pt_clust_7="13000.00000" pt_clust_8="13000.00000" pt_clust_9="39.80044"></scales>
<clustering>
<clus scale="   39.800">  2  9  1 -1</clus>
<clus scale="   79.607">  5  6 -1 -1</clus>
<clus scale="   86.737">  7  8 -1 -1</clus>
<clus scale="  249.861">  1  5  2 -1</clus>
<clus scale="  249.861">  1  5  2 -1</clus>
</clustering>
</event>
<event>
 9    2  0.3402837E-005  0.2859234E+03  0.7546771E-02  0.1122524E+00
         -1   -1    0    0    0  501 -0.00000000000E+00  0.00000000000E+00  0.27151239190E+03  0.27151239190E+03  0.00000000000E+00 0.  1.
          2   -1    0    0  502    0  0.00000000000E+00 -0.00000000000E+00 -0.11869053875E+04  0.11869053875E+04  0.00000000000E+00 0. -1.
         24    2    1    2    0    0 -0.97415454044E+02 -0.73534201210E+01  0.16036442514E+03  0.20807485625E+03  0.89635670792E+02 0.  0.
         23    2    1    2    0    0  0.24774972224E+03  0.15822902261E+03 -0.95926868798E+03  0.10075807669E+04  0.92769810425E+02 0.  0.
        -13    1    3    3    0    0 -0.31127622082E+02  0.21917035582E+01  0.13149341152E+03  0.13514529105E+03  0.00000000000E+00 0.  1.
         14    1    3    3    0    0 -0.66287831961E+02 -0.95451236792E+01  0.28871013623E+02  0.72929565197E+02  0.00000000000E+00 0. -1.
        -11    1    4    4    0    0  0.13593919906E+03  0.40982345195E+02 -0.53220027915E+03  0.55081408441E+03  0.00000000000E+00 0.  1.
         11    1    4    4    0    0  0.11181052318E+03  0.11724667741E+03 -0.42706840883E+03  0.45676668253E+03  0.00000000000E+00 0. -1.
         21    1    1    2  502  501 -0.15033426820E+03 -0.15087560248E+03 -0.11648873275E+03  0.24276215619E+03  0.00000000000E+00 0.  1.
<scales pt_clust_5="13000.00000" pt_clust_6="13000.00000" pt_clust_7="13000.00000" pt_clust_8="13000.00000" pt_clust_9="270.45505"></scales>
<clustering>
<clus scale="   89.636">  5  6 -1 -1</clus>
<clus scale="   92.770">  7  8 -1 -1</clus>
<clus scale="  132.584">  1  5  2 -1</clus>
<clus scale="  270.455">  1  9  2 -1</clus>
<clus scale="  285.923">  2  5  1 -1</clus>
</clustering>
</event>
<event>
 9    2  0.3402837E-005  0.9957895E+02  0.7546771E-02  0.1287156E+00
          2   -1    0    0  502    0  0.00000000000E+00  0.00000000000E+00  0.80746511123E+03  0.80746511123E+03  0.00000000000E+00 0. -1.
         -1   -1    0    0    0  501 -0.00000000000E+00 -0.00000000000E+00 -0.12395549812E+03  0.12395549812E+03  0.00000000000E+00 0.  1.
         23    2    1    2    0    0 -0.19912066410E+02 -0.31625251995E+02 -0.94180293187E+02  0.13691291971E+03  0.92079167065E+02 0.  0.
         24    2    1    2    0    0  0.63578855267E+02  0.24057865031E+02  0.66715855823E+03  0.67542270864E+03  0.80462673416E+02 0.  0.
        -11    1    4    4    0    0 -0.92794886522E+00 -0.23849294761E+02  0.11521142689E+03  0.11765765099E+03  0.00000000000E+00 0.  1.
         12    1    4    4    0    0  0.64506804132E+02  0.47907159792E+02  0.55194713135E+03  0.55776505765E+03  0.00000000000E+00 0. -1.
        -13    1    3    3    0    0  0.84938674546E+01 -0.32702830144E+02  0.46220939219E+01  0.34102560548E+02  0.00000000000E+00 0. -1.
         13    1    3    3    0    0 -0.28405933865E+02  0.10775781488E+01 -0.98802387108E+02  0.10281035917E+03  0.00000000000E+00 0.  1.
         21    1    1    2  502  501 -0.43666788856E+02  0.75673869637E+01  0.11053134806E+03  0.11908498100E+03  0.00000000000E+00 0.  1.
<scales pt_clust_5="13000.00000" pt_clust_6="13000.00000" pt_clust_7="13000.00000" pt_clust_8="13000.00000" pt_clust_9="44.31765"></scales>
<clustering>
<clus scale="   44.318">  1  9  2 -1</clus>
<clus scale="   80.463">  5  6 -1 -1</clus>
<clus scale="   88.947">  1  5  2 -1</clus>
<clus scale="   92.079">  7  8 -1 -1</clus>
<clus scale="   44.318">  1  5  2 -1</clus>
</clustering>
</event>
<event>
 9    2  0.3402837E-005  0.8768954E+02  0.7546771E-02  0.1315909E+00
          2   -1    0    0  502    0  0.00000000000E+00  0.00000000000E+00  0.23926388948E+03  0.23926388948E+03  0.00000000000E+00 0. -1.
         -1   -1    0    0    0  501 -0.00000000000E+00 -0.00000000000E+00 -0.75278199662E+02  0.75278199662E+02  0.00000000000E+00 0.  1.
         24    2    1    2    0    0 -0.86139618580E+01  0.11023109959E+02  0.14733641058E+02  0.78580709703E+02  0.75908750922E+02 0.  0.
         23    2    1    2    0    0  0.12933847526E+01  0.18239150259E+02  0.17502489872E+03  0.19628631778E+03  0.86949778197E+02 0.  0.
        -11    1    3    3    0    0 -0.22238677328E+02 -0.15264553841E+02  0.33891120382E+02  0.43314817488E+02  0.00000000000E+00 0.  1.
         12    1    3    3    0    0  0.13624715470E+02  0.26287663800E+02 -0.19157479324E+02  0.35265892216E+02  0.00000000000E+00 0. -1.
        -13    1    4    4    0    0  0.45580143890E+01  0.46506695138E+02  0.51561463707E+02  0.69586153274E+02  0.00000000000E+00 0.  1.
         13    1    4    4    0    0 -0.32646296365E+01 -0.28267544879E+02  0.12346343502E+03  0.12670016451E+03  0.00000000000E+00 0. -1.
         21    1    1    2  502  501  0.73205771055E+01 -0.29262260218E+02 -0.25772849964E+02  0.39675061658E+02  0.00000000000E+00 0.  1.
<scales pt_clust_5="13000.00000" pt_clust_6="13000.00000" pt_clust_7="13000.00000" pt_clust_8="13000.00000" pt_clust_9="30.16406"></scales>
<clustering>
<clus scale="   30.164">  2  9  1 -1</clus>
<clus scale="   75.909">  5  6 -1 -1</clus>
<clus scale="   76.755">  2  5  1 -1</clus>
<clus scale="   86.950">  7  8 -1 -1</clus>
<clus scale="   87.690">  1  5  2 -1</clus>
</clustering>
</event>
<event>
 9    2  0.3402837E-005  0.1835475E+03  0.7546771E-02  0.1165590E+00
         -1   -1    0    0    0  501 -0.00000000000E+00  0.00000000000E+00  0.73285859442E+02  0.73285859442E+02  0.00000000000E+00 0.  1.
          2   -1    0    0  502    0  0.00000000000E+00 -0.00000000000E+00 -0.69373203840E+03  0.69373203840E+03  0.00000000000E+00 0. -1.
         23    2    1    2    0    0  0.16976172636E+03  0.62544328469E+02 -0.15103660286E+03  0.25241865404E+03  0.90400689957E+02 0.  0.
         24    2    1    2    0    0 -0.14247416545E+03 -0.55780033595E+02 -0.44520126787E+03  0.47749925927E+03  0.79944191277E+02 0.  0.
        -13    1    4    4    0    0 -0.33943267102E+02 -0.15158595223E+02 -0.34339354323E+02  0.50607505827E+02  0.00000000000E+00 0.  1.
         14    1    4    4    0    0 -0.10853089835E+03 -0.40621438372E+02 -0.41086191355E+03  0.42689175344E+03  0.00000000000E+00 0. -1.
        -11    1    3    3    0    0  0.84504858902E+02  0.37737065628E+02 -0.20904355830E+02  0.94879657424E+02  0.00000000000E+00 0.  1.
         11    1    3    3    0    0  0.85256867454E+02  0.24807262841E+02 -0.13013224703E+03  0.15753899661E+03  0.00000000000E+00 0. -1.
         21    1    1    2  502  501 -0.27287560908E+02 -0.67642948739E+01 -0.24208308235E+02  0.37099984543E+02  0.00000000000E+00 0. -1.
<scales pt_clust_5="13000.00000" pt_clust_6="13000.00000" pt_clust_7="13000.00000" pt_clust_8="13000.00000" pt_clust_9="28.11346"></scales>
<clustering>
<clus scale="   28.113">  1  9  2 -1</clus>
<clus scale="   79.944">  5  6 -1 -1</clus>
<clus scale="   90.401">  7  8 -1 -1</clus>
<clus scale="  178.629">  2  5  1 -1</clus>
<clus scale="  178.629">  2  5  1 -1</clus>
</clustering>
</event>
<event>
 9    2  0.3402837E-005  0.1155554E+03  0.7546771E-02  0.1252385E+00
          2   -1    0    0  502    0  0.00000000000E+00  0.00000000000E+00  0.72876243874E+03  0.72876243874E+03  0.00000000000E+00 0. -1.
         -1   -1    0    0    0  501 -0.00000000000E+00 -0.00000000000E+00 -0.38775654740E+02  0.38775654740E+02  0.00000000000E+00 0.  1.
         24    2    1    2    0    0  0.18006069874E+02 -0.59431693771E+02  0.12669049372E+03  0.16265866046E+03  0.80938333605E+02 0.  0.
         23    2    1    2    0    0 -0.10723848918E+02  0.81311688638E+02  0.56882834288E+03  0.58116512250E+03  0.86374905499E+02 0.  0.
        -13    1    3    3    0    0 -0.28031100571E+01 -0.41128900412E+02  0.95920485973E+01  0.42325539233E+02  0.00000000000E+00 0.  1.
         14    1    3    3    0    0  0.20809179931E+02 -0.18302793359E+02  0.11709844512E+03  0.12033312122E+03  0.00000000000E+00 0. -1.
        -13    1    4    4    0    0 -0.44848495937E+02  0.70046811995E+02  0.39737910924E+03  0.40599027072E+03  0.00000000000E+00 0.  1.
         13    1    4    4    0    0  0.34124647019E+02  0.11264876643E+02  0.17144923364E+03  0.17517485178E+03  0.00000000000E+00 0. -1.
         21    1    1    2  502  501 -0.72822209562E+01 -0.21879994867E+02 -0.55320526009E+01  0.23714310520E+02  0.00000000000E+00 0. -1.
<scales pt_clust_5="13000.00000" pt_clust_6="13000.00000" pt_clust_7="13000.00000" pt_clust_8="13000.00000" pt_clust_9="23.06003"></scales>
<clustering>
<clus scale="   23.060">  2  9  1 -1</clus>
<clus scale="   80.938">  5  6 -1 -1</clus>
<clus scale="   86.375">  7  8 -1 -1</clus>
<clus scale="  111.550">  2  5  1 -1</clus>
<clus scale="  115.555">  1  5  2 -1</clus>
</clustering>
</event>
<event>
 9    2  0.3402837E-005  0.1538711E+03  0.7546771E-02  0.1198449E+00
         -1   -1    0    0    0  501 -0.00000000000E+00  0.00000000000E+00  0.24625917774E+03  0.24625917774E+03  0.00000000000E+00 0.  1.
          2   -1    0    0  502    0  0.00000000000E+00 -0.00000000000E+00 -0.11775335117E+03  0.11775335117E+03  0.00000000000E+00 0. -1.
         24    2    1    2    0    0 -0.40425312222E+02  0.11952569700E+03  0.82170828841E+02  0.16902697947E+03  0.76795029563E+02 0.  0.
         23    2    1    2    0    0  0.16486369367E+02 -0.12108849189E+03  0.12557112284E+02  0.15355535686E+03  0.92126778457E+02 0.  0.
        -13    1    3    3    0    0 -0.44169086530E+02  0.12741424032E+03  0.64862979868E+02  0.14964124765E+03  0.00000000000E+00 0.  1.
         14    1    3    3    0    0  0.37437743083E+01 -0.78885433284E+01  0.17307848973E+02  0.19385731814E+02  0.00000000000E+00 0. -1.
        -13    1    4    4    0    0  0.54975304408E+01 -0.78590175303E+02 -0.37267669102E+02  0.87152267069E+02  0.00000000000E+00 0. -1.
         13    1    4    4    0    0  0.10988838926E+02 -0.42498316584E+02  0.49824781386E+02  0.66403089789E+02  0.00000000000E+00 0.  1.
         21    1    1    2  502  501  0.23938942855E+02  0.15627948904E+01  0.33777885444E+02  0.41430192589E+02  0.00000000000E+00 0.  1.
<scales pt_clust_5="13000.00000" pt_clust_6="13000.00000" pt_clust_7="13000.00000" pt_clust_8="13000.00000" pt_clust_9="23.98990"></scales>
<clustering>
<clus scale="   23.990">  1  9  2 -1</clus>
<clus scale="   76.795">  5  6 -1 -1</clus>
<clus scale="   92.127">  7  8 -1 -1</clus>
<clus scale="  145.212">  1  5  2 -1</clus>
<clus scale="  153.871">  2  5  1 -1</clus>
</clustering>
</event>
<event>
 9    2  0.3402837E-005  0.9988386E+02  0.7546771E-02  0.1290773E+00
         -1   -1    0    0    0  501 -0.00000000000E+00  0.00000000000E+00  0.16868810600E+03  0.16868810600E+03  0.00000000000E+00 0.  1.
          2   -1    0    0  502    0  0.00000000000E+00 -0.00000000000E+00 -0.42889940024E+03  0.42889940024E+03  0.00000000000E+00 0. -1.
         23    2    1    2    0    0 -0.56692431598E+02 -0.54031558727E+02  0.65132400267E+02  0.13684094680E+03  0.91377097877E+02 0.  0.
         24    2    1    2    0    0  0.89074122600E+01  0.38181665546E+02 -0.37867210796E+03  0.38740798251E+03  0.71799707455E+02 0.  0.
        -11    1    4    4    0    0  0.36544664628E+02  0.39568793431E+01 -0.20374976268E+03  0.20703897024E+03  0.00000000000E+00 0.  1.
         12    1    4    4    0    0 -0.27637252368E+02  0.34224786203E+02 -0.17492234528E+03  0.18036901227E+03  0.00000000000E+00 0. -1.
        -13    1    3    3    0    0 -0.55971116391E+02 -0.13798521970E+02  0.75782103634E+02  0.95216029689E+02  0.00000000000E+00 0.  1.
         13    1    3    3    0    0 -0.72131520738E+00 -0.40233036757E+02 -0.10649703367E+02  0.41624917106E+02  0.00000000000E+00 0. -1.
         21    1    1    2  502  501  0.47785019338E+02  0.15849893180E+02  0.53328413440E+02  0.73338576936E+02  0.00000000000E+00 0.  1.
<scales pt_clust_5="13000.00000" pt_clust_6="13000.00000" pt_clust_7="13000.00000" pt_clust_8="13000.00000" pt_clust_9="50.34508"></scales>
<clustering>
<clus scale="   50.345">  1  9  2 -1</clus>
<clus scale="   71.800">  5  6 -1 -1</clus>
<clus scale="   82.354">  2  5  1 -1</clus>
<clus scale="   91.377">  7  8 -1 -1</clus>
<clus scale="   82.354">  2  5  1 -1</clus>
</clustering>
</event>
<event>
 9    2  0.3402837E-005  0.9368816E+02  0.7546771E-02  0.1295566E+00
         -1   -1    0    0    0  501 -0.00000000000E+00  0.00000000000E+00  0.21675987282E+03  0.21675987282E+03  0.00000000000E+00 0.  1.
          2   -1    0    0  502    0  0.00000000000E+00 -0.00000000000E+00 -0.16198932038E+03  0.16198932038E+03  0.00000000000E+00 0. -1.
         23    2    1    2    0    0  0.28038211451E+02 -0.75570010905E+01  0.99572111984E+01  0.95814139239E+02  0.90763173460E+02 0.  0.
         24    2    1    2    0    0 -0.19780859898E+02 -0.13042341967E+02 -0.10055713626E+03  0.13588032769E+03  0.88262906690E+02 0.  0.
        -11    1    4    4    0    0  0.36051042837E+01  0.30270618157E+02 -0.87590704878E+01  0.31717951011E+02  0.00000000000E+00 0.  1.
         12    1    4    4    0    0 -0.23385964182E+02 -0.43312960124E+02 -0.91798065774E+02  0.10416237668E+03  0.00000000000E+00 0. -1.
        -11    1    3    3    0    0 -0.11687198776E+02 -0.39672183485E+02 -0.70907716873E+01  0.41961313145E+02  0.00000000000E+00 0. -1.
         11    1    3    3    0    0  0.39725410227E+02  0.32115182395E+02  0.17047982886E+02  0.53852826095E+02  0.00000000000E+00 0.  1.
         21    1    1    2  502  501 -0.82573515527E+01  0.20599343057E+02  0.14537047750E+03  0.14705472627E+03  0.00000000000E+00 0.  1.
<scales pt_clust_5="13000.00000" pt_clust_6="13000.00000" pt_clust_7="13000.00000" pt_clust_8="13000.00000" pt_clust_9="22.19272"></scales>
<clustering>
<clus scale="   22.193">  1  9  2 -1</clus>
<clus scale="   88.263">  5  6 -1 -1</clus>
<clus scale="   90.763">  7  8 -1 -1</clus>
<clus scale="   91.268">  2  5  1 -1</clus>
<clus scale="   91.268">  2  5  1 -1</clus>
</clustering>
</event>
<event>
 9    2  0.3402837E-005  0.2123648E+03  0.7546771E-02  0.1140880E+00
         -1   -1    0    0    0  501 -0.00000000000E+00  0.00000000000E+00  0.93251918029E+02  0.93251918029E+02  0.00000000000E+00 0.  1.
          2   -1    0    0  502    0  0.00000000000E+00 -0.00000000000E+00 -0.87536639320E+03  0.87536639320E+03  0.00000000000E+00 0. -1.
         23    2    1    2    0    0 -0.17331203113E+03 -0.12738559570E+02 -0.61631570286E+02  0.20700861432E+03  0.94099866686E+02 0.  0.
         24    2    1    2    0    0  0.19378219247E+03  0.65270729122E+01 -0.70411508951E+03  0.73467430288E+03  0.79838156499E+02 0.  0.
        -11    1    4    4    0    0  0.13582369154E+03  0.35813748903E+02 -0.40737489886E+03  0.43091183323E+03  0.00000000000E+00 0.  1.
         12    1    4    4    0    0  0.57958500927E+02 -0.29286675990E+02 -0.29674019065E+03  0.30376246965E+03  0.00000000000E+00 0. -1.
        -13    1    3    3    0    0 -0.14957036523E+03  0.38764009102E+01 -0.82910596772E+02  0.17105697208E+03  0.00000000000E+00 0.  1.
         13    1    3    3    0    0 -0.23741665905E+02 -0.16614960480E+02  0.21279026486E+02  0.35951642242E+02  0.00000000000E+00 0. -1.
         21    1    1    2  502  501 -0.20470161336E+02  0.62114866577E+01 -0.16367815379E+02  0.26935394036E+02  0.00000000000E+00 0.  1.
<scales pt_clust_5="13000.00000" pt_clust_6="13000.00000" pt_clust_7="13000.00000" pt_clust_8="13000.00000" pt_clust_9="21.39182"></scales>
<clustering>
<clus scale="   21.392">  1  9  2 -1</clus>
<clus scale="   79.838">  5  6 -1 -1</clus>
<clus scale="   94.100">  7  8 -1 -1</clus>
<clus scale="  206.442">  2  5  1 -1</clus>
<clus scale="  206.442">  2  5  1 -1</clus>
</clustering>
</event>
<event>
 9    2  0.3402837E-005  0.1162487E+03  0.7546771E-02  0.1254571E+00
         -3   -1    0    0    0  501 -0.00000000000E+00  0.00000000000E+00  0.52826227045E+03  0.52826227045E+03  0.00000000000E+00 0.  1.
          4   -1    0    0  502    0  0.00000000000E+00 -0.00000000000E+00 -0.36057652810E+02  0.36057652810E+02  0.00000000000E+00 0. -1.
         24    2    1    2    0    0  0.64229834841E+02  0.15994731145E+02  0.29826669530E+03  0.31584548695E+03  0.80087745590E+02 0.  0.
         23    2    1    2    0    0 -0.69298457625E+02  0.64345078891E+01  0.10783921977E+03  0.15935794914E+03  0.94456230676E+02 0.  0.
        -13    1    3    3    0    0  0.65013031636E+02 -0.18726647895E+02  0.22118271728E+03  0.23129888899E+03  0.00000000000E+00 0.  1.
         14    1    3    3    0    0 -0.78319679443E+00  0.34721379040E+02  0.77083978022E+02  0.84546597964E+02  0.00000000000E+00 0. -1.
        -11    1    4    4    0    0 -0.90262191367E+01  0.24048917104E+02 -0.85814488190E+01  0.27082546217E+02  0.00000000000E+00 0. -1.
         11    1    4    4    0    0 -0.60272238489E+02 -0.17614409215E+02  0.11642066859E+03  0.13227540293E+03  0.00000000000E+00 0.  1.
         21    1    1    2  502  501  0.50686227842E+01 -0.22429239034E+02  0.86098702569E+02  0.89116487165E+02  0.00000000000E+00 0.  1.
<scales pt_clust_5="13000.00000" pt_clust_6="13000.00000" pt_clust_7="13000.00000" pt_clust_8="13000.00000" pt_clust_9="22.99482"></scales>
<clustering>
<clus scale="   22.995">  1  9  2 -1</clus>
<clus scale="   80.088">  5  6 -1 -1</clus>
<clus scale="   94.456">  7  8 -1 -1</clus>
<clus scale="  104.909">  1  5  2 -1</clus>
<clus scale="  116.249">  2  5  1 -1</clus>
</clustering>
</event>
<event>
 9    2  0.3402837E-005  0.1246326E+03  0.7546771E-02  0.1239427E+00
          2   -1    0    0  502    0  0.00000000000E+00  0.00000000000E+00  0.15138275472E+03  0.15138275472E+03  0.00000000000E+00 0. -1.
         -1   -1    0    0    0  501 -0.00000000000E+00 -0.00000000000E+00 -0.38719407714E+03  0.38719407714E+03  0.00000000000E+00 0.  1.
         23    2    1    2    0    0 -0.19951820308E+02  0.83771522484E+02 -0.29075158655E+03  0.31634123789E+03  0.90108548961E+02 0.  0.
         24    2    1    2    0    0  0.91113851805E+02 -0.63133342204E+02  0.60757992390E+02  0.14791322067E+03  0.76806473166E+02 0.  0.
        -13    1    4    4    0    0  0.29664309144E+02 -0.12810130256E+00 -0.13659537288E+02  0.32658392579E+02  0.00000000000E+00 0.  1.
         14    1    4    4    0    0  0.61449542661E+02 -0.63005240901E+02  0.74417529678E+02  0.11525482809E+03  0.00000000000E+00 0. -1.
        -13    1    3    3    0    0  0.19342422844E+02  0.55515638312E+02 -0.23623754697E+03  0.24344258875E+03  0.00000000000E+00 0.  1.
         13    1    3    3    0    0 -0.39294243152E+02  0.28255884172E+02 -0.54514039579E+02  0.72898649141E+02  0.00000000000E+00 0. -1.
         21    1    1    2  502  501 -0.71162031497E+02 -0.20638180280E+02 -0.58177282638E+01  0.74322373309E+02  0.00000000000E+00 0. -1.
<scales pt_clust_5="13000.00000" pt_clust_6="13000.00000" pt_clust_7="13000.00000" pt_clust_8="13000.00000" pt_clust_9="74.09433"></scales>
<clustering>
<clus scale="   74.094">  1  9  2 -1</clus>
<clus scale="   76.806">  5  6 -1 -1</clus>
<clus scale="   90.109">  7  8 -1 -1</clus>
<clus scale="  115.382">  1  5  2 -1</clus>
<clus scale="   74.094">  1  5  2 -1</clus>
</clustering>
</event>
<event>
 9    2  0.3402837E-005  0.1005747E+03  0.7546771E-02  0.1284266E+00
          2   -1    0    0  502    0  0.00000000000E+00  0.00000000000E+00  0.16658703702E+03  0.16658703702E+03  0.00000000000E+00 0. -1.
         -1   -1    0    0    0  501 -0.00000000000E+00 -0.00000000000E+00 -0.25983524798E+03  0.25983524798E+03  0.00000000000E+00 0.  1.
         23    2    1    2    0    0 -0.14825660577E+01 -0.17209174221E+02 -0.55049754206E+02  0.10778002838E+03  0.91036835396E+02 0.  0.
         24    2    1    2    0    0 -0.10014051681E+02  0.46776380126E+02  0.12285993046E+03  0.15448929144E+03  0.80523708847E+02 0.  0.
        -11    1    4    4    0    0  0.35287071798E+02  0.19979596437E+02  0.45824886337E+02  0.61190537812E+02  0.00000000000E+00 0.  1.
         12    1    4    4    0    0 -0.45301123479E+02  0.26796783689E+02  0.77035044125E+02  0.93298753624E+02  0.00000000000E+00 0. -1.
        -13    1    3    3    0    0 -0.23806812353E+02 -0.48261916876E+02 -0.26073245183E+02  0.59797918436E+02  0.00000000000E+00 0.  1.
         13    1    3    3    0    0  0.22324246295E+02  0.31052742655E+02 -0.28976509023E+02  0.47982109939E+02  0.00000000000E+00 0. -1.
         21    1    1    2  502  501  0.11496617739E+02 -0.29567205905E+02 -0.16105838722E+03  0.16415296519E+03  0.00000000000E+00 0.  1.
<scales pt_clust_5="13000.00000" pt_clust_6="13000.00000" pt_clust_7="13000.00000" pt_clust_8="13000.00000" pt_clust_9="31.72368"></scales>
<clustering>
<clus scale="   31.724">  2  9  1 -1</clus>
<clus scale="   80.524">  5  6 -1 -1</clus>
<clus scale="   91.037">  7  8 -1 -1</clus>
<clus scale="   91.168">  1  5  2 -1</clus>
<clus scale="   91.168">  1  5  2 -1</clus>
</clustering>
</event>
<event>
 9    2  0.3402837E-005  0.1047515E+03  0.7546771E-02  0.1273365E+00
          2   -1    0    0  502    0  0.00000000000E+00  0.00000000000E+00  0.39272146468E+03  0.39272146468E+03  0.00000000000E+00 0. -1.
         -1   -1    0    0    0  501 -0.00000000000E+00 -0.00000000000E+00 -0.93358125750E+02  0.93358125750E+02  0.00000000000E+00 0.  1.
         24    2    1    2    0    0 -0.36802684689E+02  0.22037598528E+02  0.44194279950E+01  0.93226783625E+02  0.82653544946E+02 0.  0.
         23    2    1    2    0    0  0.31889674602E+02 -0.48558878868E+02  0.33108911352E+03  0.34775301025E+03  0.89091183538E+02 0.  0.
        -13    1    3    3    0    0 -0.51124120755E+02  0.21851910616E+02 -0.24652047933E+02  0.60818625337E+02  0.00000000000E+00 0.  1.
         14    1    3    3    0    0  0.14321436067E+02  0.18568791143E+00  0.29071475928E+02  0.32408158288E+02  0.00000000000E+00 0. -1.
        -11    1    4    4    0    0  0.43583679680E+02  0.98455965722E+01  0.17698923763E+03  0.18254222291E+03  0.00000000000E+00 0. -1.
         11    1    4    4    0    0 -0.11694005077E+02 -0.58404475440E+02  0.15409987588E+03  0.16521078734E+03  0.00000000000E+00 0.  1.
         21    1    1    2  502  501  0.49130100865E+01  0.26521280340E+02 -0.36145202587E+02  0.45099796552E+02  0.00000000000E+00 0. -1.
<scales pt_clust_5="13000.00000" pt_clust_6="13000.00000" pt_clust_7="13000.00000" pt_clust_8="13000.00000" pt_clust_9="26.97250"></scales>
<clustering>
<clus scale="   26.973">  2  9  1 -1</clus>
<clus scale="   82.654">  5  6 -1 -1</clus>
<clus scale="   89.091">  7  8 -1 -1</clus>
<clus scale="   99.334">  2  5  1 -1</clus>
<clus scale="  104.752">  1  5  2 -1</clus>
</clustering>
</event>
<event>
 9    2  0.3402837E-005  0.9786945E+02  0.7546771E-02  0.1287245E+00
         -1   -1    0    0    0  501 -0.00000000000E+00  0.00000000000E+00  0.14046402256E+03  0.14046402256E+03  0.00000000000E+00 0.  1.
          2   -1    0    0  502    0  0.00000000000E+00 -0.00000000000E+00 -0.72932679311E+03  0.72932679311E+03  0.00000000000E+00 0. -1.
         23    2    1    2    0    0 -0.48109277429E+01 -0.26292828363E+02 -0.93459922523E+02  0.13049716303E+03  0.87064887255E+02 0.  0.
         24    2    1    2    0    0 -0.16484281562E+01  0.48362508326E+02 -0.61254180376E+03  0.61991891075E+03  0.82160483305E+02 0.  0.
        -11    1    4    4    0    0 -0.11355583140E+02  0.40685628034E+02 -0.11992492143E+03  0.12714659404E+03  0.00000000000E+00 0.  1.
         12    1    4    4    0    0  0.97071549840E+01  0.76768802919E+01 -0.49261688233E+03  0.49277231670E+03  0.00000000000E+00 0. -1.
        -13    1    3    3    0    0  0.20316730112E+02  0.25335301203E+02 -0.24021087989E+02  0.40393807418E+02  0.00000000000E+00 0. -1.
         13    1    3    3    0    0 -0.25127657855E+02 -0.51628129566E+02 -0.69438834534E+02  0.90103355616E+02  0.00000000000E+00 0.  1.
         21    1    1    2  502  501  0.64593558991E+01 -0.22069679963E+02  0.11713895573E+03  0.11937474190E+03  0.00000000000E+00 0.  1.
<scales pt_clust_5="13000.00000" pt_clust_6="13000.00000" pt_clust_7="13000.00000" pt_clust_8="13000.00000" pt_clust_9="22.99552"></scales>
<clustering>
<clus scale="   22.996">  1  9  2 -1</clus>
<clus scale="   82.160">  5  6 -1 -1</clus>
<clus scale="   87.065">  7  8 -1 -1</clus>
<clus scale="   93.533">  2  5  1 -1</clus>
<clus scale="   93.533">  2  5  1 -1</clus>
</clustering>
</event>
<event>
 9    2  0.3402837E-005  0.1214206E+03  0.7546771E-02  0.1244458E+00
         -1   -1    0    0    0  501 -0.00000000000E+00  0.00000000000E+00  0.15188541483E+03  0.15188541483E+03  0.00000000000E+00 0.  1.
          2   -1    0    0  502    0  0.00000000000E+00 -0.00000000000E+00 -0.23920852378E+03  0.23920852378E+03  0.00000000000E+00 0. -1.
         24    2    1    2    0    0  0.83128057352E+02 -0.58711227174E+02  0.45986938374E+02  0.13756502120E+03  0.80324681395E+02 0.  0.
         23    2    1    2    0    0 -0.60142085755E+02  0.43888423121E+02 -0.17034056602E+03  0.20749273898E+03  0.92163247193E+02 0.  0.
        -13    1    3    3    0    0  0.84615155670E+02 -0.45041017187E+02  0.63736627849E+02  0.11511201296E+03  0.00000000000E+00 0.  1.
         14    1    3    3    0    0 -0.14870983179E+01 -0.13670209988E+02 -0.17749689475E+02  0.22453008239E+02  0.00000000000E+00 0. -1.
        -13    1    4    4    0    0 -0.83396379015E+01  0.35387429242E+02 -0.84806604029E+01  0.37332844916E+02  0.00000000000E+00 0.  1.
         13    1    4    4    0    0 -0.51802447853E+02  0.85009938797E+01 -0.16185990562E+03  0.17015989406E+03  0.00000000000E+00 0. -1.
         21    1    1    2  502  501 -0.22985971597E+02  0.14822804053E+02  0.37030518696E+02  0.46036178438E+02  0.00000000000E+00 0.  1.
<scales pt_clust_5="13000.00000" pt_clust_6="13000.00000" pt_clust_7="13000.00000" pt_clust_8="13000.00000" pt_clust_9="27.35088"></scales>
<clustering>
<clus scale="   27.351">  1  9  2 -1</clus>
<clus scale="   80.325">  5  6 -1 -1</clus>
<clus scale="   92.163">  7  8 -1 -1</clus>
<clus scale="  112.699">  1  5  2 -1</clus>
<clus scale="  121.421">  2  5  1 -1</clus>
</clustering>
</event>
<event>
 9    2  0.3402837E-005  0.9341725E+02  0.7546771E-02  0.1300762E+00
          2   -1    0    0  502    0  0.00000000000E+00  0.00000000000E+00  0.67603962884E+03  0.67603962884E+03  0.00000000000E+00 0. -1.
         -1   -1    0    0    0  501 -0.00000000000E+00 -0.00000000000E+00 -0.26961101639E+02  0.26961101639E+02  0.00000000000E+00 0.  1.
         23    2    1    2    0    0 -0.23513252508E+02  0.92974645019E+00  0.10856185602E+03  0.14326528460E+03  0.90473906269E+02 0.  0.
         24    2    1    2    0    0  0.77128954385E+01 -0.24801632419E+02  0.51342914827E+03  0.52032412618E+03  0.80331166224E+02 0.  0.
        -11    1    4    4    0    0  0.30045863349E+02 -0.26946968694E+02  0.12732143562E+03  0.13356511893E+03  0.00000000000E+00 0.  1.
         12    1    4    4    0    0 -0.22332967911E+02  0.21453362745E+01  0.38610771265E+03  0.38675900725E+03  0.00000000000E+00 0. -1.
        -11    1    3    3    0    0 -0.46692714384E+00  0.34153124189E+02  0.82900792637E+01  0.35147963341E+02  0.00000000000E+00 0.  1.
         11    1    3    3    0    0 -0.23046325364E+02 -0.33223377739E+02  0.10027177676E+03  0.10811732126E+03  0.00000000000E+00 0. -1.
         21    1    1    2  502  501  0.15800357070E+02  0.23871885969E+02  0.27087522911E+02  0.39411319703E+02  0.00000000000E+00 0.  1.
<scales pt_clust_5="13000.00000" pt_clust_6="13000.00000" pt_clust_7="13000.00000" pt_clust_8="13000.00000" pt_clust_9="28.62723"></scales>
<clustering>
<clus scale="   28.627">  2  9  1 -1</clus>
<clus scale="   80.331">  5  6 -1 -1</clus>
<clus scale="   83.632">  1  5  2 -1</clus>
<clus scale="   90.474">  7  8 -1 -1</clus>
<clus scale="   83.632">  1  5  2 -1</clus>
</clustering>
</event>
<event>
 9    2  0.3402837E-005  0.1801872E+03  0.7546771E-02  0.1169743E+00
          2   -1    0    0  502    0  0.00000000000E+00  0.00000000000E+00  0.54984805314E+03  0.54984805314E+03  0.00000000000E+00 0. -1.
         -1   -1    0    0    0  501 -0.00000000000E+00 -0.00000000000E+00 -0.13916812052E+03  0.13916812052E+03  0.00000000000E+00 0.  1.
         24    2    1    2    0    0 -0.24742439508E+02  0.76225915191E+02 -0.46569053072E+02  0.11772527841E+03  0.72580892897E+02 0.  0.
         23    2    1    2    0    0 -0.23030694305E+01 -0.17768163013E+03  0.41027139982E+03  0.45626213701E+03  0.90974998474E+02 0.  0.
        -11    1    3    3    0    0 -0.27038548831E+02  0.60690392121E+02 -0.65384163164E+02  0.93217464090E+02  0.00000000000E+00 0.  1.
         12    1    3    3    0    0  0.22961093221E+01  0.15535523070E+02  0.18815110093E+02  0.24507814323E+02  0.00000000000E+00 0. -1.
        -13    1    4    4    0    0  0.20842977644E+02 -0.34973142926E+02  0.17859815926E+03  0.18317983768E+03  0.00000000000E+00 0.  1.
         13    1    4    4    0    0 -0.23146047074E+02 -0.14270848720E+03  0.23167324056E+03  0.27308229933E+03  0.00000000000E+00 0. -1.
         21    1    1    2  502  501  0.27045508939E+02  0.10145571494E+03  0.46977585870E+02  0.11502875824E+03  0.00000000000E+00 0.  1.
<scales pt_clust_5="13000.00000" pt_clust_6="13000.00000" pt_clust_7="13000.00000" pt_clust_8="13000.00000" pt_clust_9="104.99867"></scales>
<clustering>
<clus scale="   72.581">  5  6 -1 -1</clus>
<clus scale="   90.975">  7  8 -1 -1</clus>
<clus scale="  104.999">  2  9  1 -1</clus>
<clus scale="  171.636">  2  5  1 -1</clus>
<clus scale="  180.187">  1  5  2 -1</clus>
</clustering>
</event>
<event>
 9    2  0.3402837E-005  0.1021161E+03  0.7546771E-02  0.1281699E+00
         -1   -1    0    0    0  501 -0.00000000000E+00  0.00000000000E+00  0.80353782422E+02  0.80353782422E+02  0.00000000000E+00 0.  1.
          2   -1    0    0  502    0  0.00000000000E+00 -0.00000000000E+00 -0.16625857735E+03  0.16625857735E+03  0.00000000000E+00 0. -1.
         23    2    1    2    0    0 -0.56707341258E+02 -0.13137444902E+02 -0.13123525978E+02  0.10993434145E+03  0.92331021244E+02 0.  0.
         24    2    1    2    0    0  0.32104160523E+02  0.19692387082E+02 -0.65148660032E+02  0.11009718899E+03  0.80365265436E+02 0.  0.
        -11    1    4    4    0    0  0.39256738551E+02  0.18627365202E+02  0.10893739171E+01  0.43465583990E+02  0.00000000000E+00 0.  1.
         12    1    4    4    0    0 -0.71525780276E+01  0.10650218798E+01 -0.66238033949E+02  0.66631605005E+02  0.00000000000E+00 0. -1.
        -13    1    3    3    0    0 -0.68804412473E+02  0.14187065650E+02 -0.29110172681E+02  0.76044211884E+02  0.00000000000E+00 0.  1.
         13    1    3    3    0    0  0.12097071215E+02 -0.27324510552E+02  0.15986646704E+02  0.33890129562E+02  0.00000000000E+00 0. -1.
         21    1    1    2  502  501  0.24603180734E+02 -0.65549421803E+01 -0.76326089220E+01  0.26580829336E+02  0.00000000000E+00 0. -1.
<scales pt_clust_5="13000.00000" pt_clust_6="13000.00000" pt_clust_7="13000.00000" pt_clust_8="13000.00000" pt_clust_9="25.46142"></scales>
<clustering>
<clus scale="   25.461">  1  9  2 -1</clus>
<clus scale="   80.365">  5  6 -1 -1</clus>
<clus scale="   91.440">  2  5  1 -1</clus>
<clus scale="   92.331">  7  8 -1 -1</clus>
<clus scale="   91.440">  2  5  1 -1</clus>
</clustering>
</event>
<event>
 9    2  0.3402837E-005  0.1065387E+03  0.7546771E-02  0.1271541E+00
          2   -1    0    0  502    0  0.00000000000E+00  0.00000000000E+00  0.35702132959E+03  0.35702132959E+03  0.00000000000E+00 0. -1.
         -1   -1    0    0    0  501 -0.00000000000E+00 -0.00000000000E+00 -0.53344119125E+02  0.53344119125E+02  0.00000000000E+00 0.  1.
         24    2    1    2    0    0 -0.66099841166E+02  0.21589046091E+02  0.85425433887E+02  0.13686632737E+03  0.81237989271E+02 0.  0.
         23    2    1    2    0    0  0.48306551994E+02 -0.27913037919E+01  0.22417571072E+03  0.24694635782E+03  0.91577508274E+02 0.  0.
        -13    1    3    3    0    0 -0.51395835889E+02  0.25385236376E+02  0.78969565585E+01  0.57864532275E+02  0.00000000000E+00 0.  1.
         14    1    3    3    0    0 -0.14704005277E+02 -0.37961902848E+01  0.77528477329E+02  0.79001795098E+02  0.00000000000E+00 0. -1.
        -11    1    4    4    0    0 -0.26828281524E+01 -0.25041221004E+02  0.12565100397E+02  0.28145018462E+02  0.00000000000E+00 0.  1.
         11    1    4    4    0    0  0.50989380147E+02  0.22249917212E+02  0.21161061032E+03  0.21880133936E+03  0.00000000000E+00 0. -1.
         21    1    1    2  502  501  0.17793289171E+02 -0.18797742299E+02 -0.59239341387E+01  0.26552763524E+02  0.00000000000E+00 0.  1.
<scales pt_clust_5="13000.00000" pt_clust_6="13000.00000" pt_clust_7="13000.00000" pt_clust_8="13000.00000" pt_clust_9="25.88351"></scales>
<clustering>
<clus scale="   25.884">  2  9  1 -1</clus>
<clus scale="   81.238">  5  6 -1 -1</clus>
<clus scale="   91.578">  7  8 -1 -1</clus>
<clus scale="   97.794">  2  5  1 -1</clus>
<clus scale="  106.539">  1  5  2 -1</clus>
</clustering>
</event>
<event>
 9    2  0.3402837E-005  0.9566504E+02  0.7546771E-02  0.1295451E+00
          2   -1    0    0  502    0  0.00000000000E+00  0.00000000000E+00  0.22364885204E+03  0.22364885204E+03  0.00000000000E+00 0. -1.
         -1   -1    0    0    0  501 -0.00000000000E+00 -0.00000000000E+00 -0.67008436634E+02  0.67008436634E+02  0.00000000000E+00 0.  1.
         23    2    1    2    0    0 -0.26053567505E+02 -0.35898533839E+01  0.16548519456E+02  0.10032863237E+03  0.95395521643E+02 0.  0.
         24    2    1    2    0    0 -0.10506555713E+02  0.81845292481E+01  0.12102480052E+03  0.14884000986E+03  0.85609415145E+02 0.  0.
        -11    1    4    4    0    0  0.22226879298E+02 -0.28814639933E+02  0.41249422912E+02  0.55007567919E+02  0.00000000000E+00 0.  1.
         12    1    4    4    0    0 -0.32733435011E+02  0.36999169181E+02  0.79775377611E+02  0.93832441941E+02  0.00000000000E+00 0. -1.
        -11    1    3    3    0    0  0.33084970934E+02  0.13141927206E+02 -0.32775070431E+01  0.35750071396E+02  0.00000000000E+00 0.  1.
         11    1    3    3    0    0 -0.59138538439E+02 -0.16731780590E+02  0.19826026499E+02  0.64578560972E+02  0.00000000000E+00 0. -1.
         21    1    1    2  502  501  0.36560123218E+02 -0.45946758642E+01  0.19067095429E+02  0.41488646448E+02  0.00000000000E+00 0.  1.
<scales pt_clust_5="13000.00000" pt_clust_6="13000.00000" pt_clust_7="13000.00000" pt_clust_8="13000.00000" pt_clust_9="36.84771"></scales>
<clustering>
<clus scale="   36.848">  2  9  1 -1</clus>
<clus scale="   85.609">  5  6 -1 -1</clus>
<clus scale="   85.910">  1  5  2 -1</clus>
<clus scale="   95.396">  7  8 -1 -1</clus>
<clus scale="   85.910">  1  5  2 -1</clus>
</clustering>
</event>
<event>
 9    2  0.3402837E-005  0.8573125E+02  0.7546771E-02  0.1322863E+00
          2   -1    0    0  502    0  0.00000000000E+00  0.00000000000E+00  0.48886563399E+02  0.48886563399E+02  0.00000000000E+00 0. -1.
         -1   -1    0    0    0  501 -0.00000000000E+00 -0.00000000000E+00 -0.42697849880E+03  0.42697849880E+03  0.00000000000E+00 0.  1.
         24    2    1    2    0    0  0.14701685185E+02 -0.43027473314E+02 -0.26271919738E+03  0.27843547798E+03  0.80233632081E+02 0.  0.
         23    2    1    2    0    0  0.80607336067E+01  0.28061527421E+02  0.66317094631E+01  0.72420814723E+02  0.65942172297E+02 0.  0.
        -13    1    3    3    0    0  0.40491801403E+01  0.23443055361E+02 -0.89120494403E+02  0.92241179671E+02  0.00000000000E+00 0.  1.
         14    1    3    3    0    0  0.10652505045E+02 -0.66470528675E+02 -0.17359870298E+03  0.18619429831E+03  0.00000000000E+00 0. -1.
        -11    1    4    4    0    0  0.33102480907E+02  0.32780587265E+02  0.30343767034E+01  0.46685635753E+02  0.00000000000E+00 0. -1.
         11    1    4    4    0    0 -0.25041747301E+02 -0.47190598432E+01  0.35973327597E+01  0.25735178971E+02  0.00000000000E+00 0.  1.
         21    1    1    2  502  501 -0.22762418792E+02  0.14965945892E+02 -0.12200444748E+03  0.12500876950E+03  0.00000000000E+00 0.  1.
<scales pt_clust_5="13000.00000" pt_clust_6="13000.00000" pt_clust_7="13000.00000" pt_clust_8="13000.00000" pt_clust_9="27.24165"></scales>
<clustering>
<clus scale="   27.242">  2  9  1 -1</clus>
<clus scale="   65.942">  7  8 -1 -1</clus>
<clus scale="   72.531">  1  7  2 -1</clus>
<clus scale="   80.234">  5  6 -1 -1</clus>
<clus scale="   72.531">  1  5  2 -1</clus>
</clustering>
</event>
<event>
 9    2  0.3402837E-005  0.1032128E+03  0.7546771E-02  0.1281854E+00
          2   -1    0    0  502    0  0.00000000000E+00  0.00000000000E+00  0.99179239038E+02  0.99179239038E+02  0.00000000000E+00 0. -1.
         -1   -1    0    0    0  501 -0.00000000000E+00 -0.00000000000E+00 -0.18151643405E+03  0.18151643405E+03  0.00000000000E+00 0.  1.
         23    2    1    2    0    0  0.27183714759E+02  0.33396994580E+00 -0.76999233591E+02  0.12388722151E+03  0.93167031698E+02 0.  0.
         24    2    1    2    0    0 -0.49074115410E+02 -0.41972054118E+01  0.45307753768E+02  0.10149929596E+03  0.76311396209E+02 0.  0.
        -13    1    4    4    0    0 -0.30962735565E+02 -0.40017085741E+02  0.23011435373E+02  0.55584029206E+02  0.00000000000E+00 0.  1.
         14    1    4    4    0    0 -0.18111379845E+02  0.35819880329E+02  0.22296318395E+02  0.45915266749E+02  0.00000000000E+00 0. -1.
        -11    1    3    3    0    0  0.17656093729E+02  0.45621821464E+02 -0.27481681752E+02  0.56109990834E+02  0.00000000000E+00 0. -1.
         11    1    3    3    0    0  0.95276210304E+01 -0.45287851519E+02 -0.49517551840E+02  0.67777230674E+02  0.00000000000E+00 0.  1.
         21    1    1    2  502  501  0.21890400651E+02  0.38632354660E+01 -0.50645715192E+02  0.55309155628E+02  0.00000000000E+00 0.  1.
<scales pt_clust_5="13000.00000" pt_clust_6="13000.00000" pt_clust_7="13000.00000" pt_clust_8="13000.00000" pt_clust_9="22.22868"></scales>
<clustering>
<clus scale="   22.229">  2  9  1 -1</clus>
<clus scale="   76.311">  5  6 -1 -1</clus>
<clus scale="   88.296">  1  5  2 -1</clus>
<clus scale="   93.167">  7  8 -1 -1</clus>
<clus scale="   88.296">  1  5  2 -1</clus>
</clustering>
</event>
<event>
 9    2  0.3402837E-005  0.3181068E+03  0.7546771E-02  0.1077200E+00
         -1   -1    0    0    0  501 -0.00000000000E+00  0.00000000000E+00  0.10331710872E+03  0.10331710872E+03  0.00000000000E+00 0.  1.
          2   -1    0    0  502    0  0.00000000000E+00 -0.00000000000E+00 -0.13244011263E+04  0.13244011263E+04  0.00000000000E+00 0. -1.
         24    2    1    2    0    0  0.19031176670E+03 -0.27169294870E+03 -0.38232528134E+03  0.51255527537E+03  0.80651488792E+02 0.  0.
         23    2    1    2    0    0 -0.18859499461E+03  0.21864195223E+03 -0.76848304810E+03  0.82709464595E+03  0.10073223353E+03 0.  0.
        -13    1    3    3    0    0  0.10621855145E+03 -0.21451748918E+03 -0.27828304165E+03  0.36707163484E+03  0.00000000000E+00 0.  1.
         14    1    3    3    0    0  0.84093215251E+02 -0.57175459518E+02 -0.10404223969E+03  0.14548364053E+03  0.00000000000E+00 0. -1.
        -11    1    4    4    0    0 -0.10564652824E+03  0.18211933652E+03 -0.46665677357E+03  0.51195428114E+03  0.00000000000E+00 0.  1.
         11    1    4    4    0    0 -0.82948466366E+02  0.36522615705E+02 -0.30182627453E+03  0.31514036480E+03  0.00000000000E+00 0. -1.
         21    1    1    2  502  501 -0.17167720971E+01  0.53050996475E+02 -0.70275688098E+02  0.88068313660E+02  0.00000000000E+00 0. -1.
<scales pt_clust_5="13000.00000" pt_clust_6="13000.00000" pt_clust_7="13000.00000" pt_clust_8="13000.00000" pt_clust_9="53.07877"></scales>
<clustering>
<clus scale="   53.079">  1  9  2 -1</clus>
<clus scale="   80.651">  5  6 -1 -1</clus>
<clus scale="  100.732">  7  8 -1 -1</clus>
<clus scale="  312.329">  1  5  2 -1</clus>
<clus scale="  318.107">  2  5  1 -1</clus>
</clustering>
</event>
<event>
 9    2  0.3402837E-005  0.1895853E+03  0.7546771E-02  0.1186867E+00
         -1   -1    0    0    0  501 -0.00000000000E+00  0.00000000000E+00  0.12035263897E+03  0.12035263897E+03  0.00000000000E+00 0.  1.
          2   -1    0    0  502    0  0.00000000000E+00 -0.00000000000E+00 -0.91852295180E+03  0.91852295180E+03  0.00000000000E+00 0. -1.
         23    2    1    2    0    0  0.16966592736E+02 -0.39157834118E+02  0.37456399848E+02  0.10693334205E+03  0.90612121206E+02 0.  0.
         24    2    1    2    0    0 -0.17540671205E+03  0.32742884108E+02 -0.68823019057E+03  0.71544708083E+03  0.79775429539E+02 0.  0.
        -13    1    4    4    0    0 -0.84617199220E+02  0.20854419430E+02 -0.19218067615E+03  0.21101750993E+03  0.00000000000E+00 0.  1.
         14    1    4    4    0    0 -0.90789512827E+02  0.11888464678E+02 -0.49604951443E+03  0.50442957090E+03  0.00000000000E+00 0. -1.
        -11    1    3    3    0    0 -0.30637307345E+02 -0.14961420190E+02 -0.99593527411E+01  0.35520098571E+02  0.00000000000E+00 0. -1.
         11    1    3    3    0    0  0.47603900081E+02 -0.24196413928E+02  0.47415752589E+02  0.71413243474E+02  0.00000000000E+00 0.  1.
         21    1    1    2  502  501  0.15844011931E+03  0.64149500105E+01 -0.14739652211E+03  0.21649516789E+03  0.00000000000E+00 0. -1.
<scales pt_clust_5="13000.00000" pt_clust_6="13000.00000" pt_clust_7="13000.00000" pt_clust_8="13000.00000" pt_clust_9="171.98393"></scales>
<clustering>
<clus scale="   79.775">  5  6 -1 -1</clus>
<clus scale="   90.612">  7  8 -1 -1</clus>
<clus scale="  100.159">  1  7  2 -1</clus>
<clus scale="  171.984">  1  9  2 -1</clus>
<clus scale="  189.585">  2  5  1 -1</clus>
</clustering>
</event>
<event>
 9    2  0.3402837E-005  0.9346470E+02  0.7546771E-02  0.1302614E+00
         -1   -1    0    0    0  501 -0.00000000000E+00  0.00000000000E+00  0.90836749066E+02  0.90836749066E+02  0.00000000000E+00 0.  1.
          2   -1    0    0  502    0  0.00000000000E+00 -0.00000000000E+00 -0.67643321040E+03  0.67643321040E+03  0.00000000000E+00 0. -1.
         23    2    1    2    0    0  0.25285391442E+01  0.45361556482E+02 -0.67745279040E+02  0.12254993189E+03  0.91460366598E+02 0.  0.
         24    2    1    2    0    0  0.18566189429E+02  0.15966909984E+02 -0.56089943340E+03  0.56687839157E+03  0.78379147972E+02 0.  0.
        -13    1    4    4    0    0 -0.76286277252E+01 -0.27914844685E+02 -0.14573953362E+03  0.14858481139E+03  0.00000000000E+00 0.  1.
         14    1    4    4    0    0  0.26194817154E+02  0.43881754669E+02 -0.41515989978E+03  0.41829358018E+03  0.00000000000E+00 0. -1.
        -13    1    3    3    0    0 -0.38999161122E+02  0.44200227317E+02 -0.28797284551E+02  0.65603950038E+02  0.00000000000E+00 0.  1.
         13    1    3    3    0    0  0.41527700266E+02  0.11613291653E+01 -0.38947994489E+02  0.56945981856E+02  0.00000000000E+00 0. -1.
         21    1    1    2  502  501 -0.21094728573E+02 -0.61328466466E+02  0.43048251104E+02  0.77841636004E+02  0.00000000000E+00 0.  1.
<scales pt_clust_5="13000.00000" pt_clust_6="13000.00000" pt_clust_7="13000.00000" pt_clust_8="13000.00000" pt_clust_9="64.85498"></scales>
<clustering>
<clus scale="   64.855">  1  9  2 -1</clus>
<clus scale="   78.379">  5  6 -1 -1</clus>
<clus scale="   80.709">  2  5  1 -1</clus>
<clus scale="   91.460">  7  8 -1 -1</clus>
<clus scale="   80.709">  2  5  1 -1</clus>
</clustering>
</event>
<event>
 9    2  0.3402837E-005  0.1662306E+03  0.7546771E-02  0.1186513E+00
          2   -1    0    0  502    0  0.00000000000E+00  0.00000000000E+00  0.36989572414E+03  0.36989572414E+03  0.00000000000E+00 0. -1.
         -1   -1    0    0    0  501 -0.00000000000E+00 -0.00000000000E+00 -0.10527241860E+03  0.10527241860E+03  0.00000000000E+00 0.  1.
         23    2    1    2    0    0  0.11718012493E+03  0.87180312996E+01  0.61885948125E+02  0.16536217902E+03  0.98527122786E+02 0.  0.
         24    2    1    2    0    0 -0.14186925685E+03  0.72856060871E+01  0.22393083246E+03  0.27354533730E+03  0.67097449553E+02 0.  0.
        -11    1    4    4    0    0 -0.40591387150E+02  0.30786353170E+02  0.96129998558E+02  0.10879538995E+03  0.00000000000E+00 0.  1.
         12    1    4    4    0    0 -0.10127786970E+03 -0.23500747083E+02  0.12780083390E+03  0.16474994734E+03  0.00000000000E+00 0. -1.
        -13    1    3    3    0    0  0.76167408439E+01  0.23925573672E+02 -0.16273405286E+02  0.29921088487E+02  0.00000000000E+00 0.  1.
         13    1    3    3    0    0  0.10956338409E+03 -0.15207542372E+02  0.78159353411E+02  0.13544109053E+03  0.00000000000E+00 0. -1.
         21    1    1    2  502  501  0.24689131916E+02 -0.16003637387E+02 -0.21193475051E+02  0.36260626430E+02  0.00000000000E+00 0. -1.
<scales pt_clust_5="13000.00000" pt_clust_6="13000.00000" pt_clust_7="13000.00000" pt_clust_8="13000.00000" pt_clust_9="29.42226"></scales>
<clustering>
<clus scale="   29.422">  2  9  1 -1</clus>
<clus scale="   67.097">  5  6 -1 -1</clus>
<clus scale="   98.527">  7  8 -1 -1</clus>
<clus scale="  149.757">  1  5  2 -1</clus>
<clus scale="  149.757">  1  5  2 -1</clus>
</clustering>
</event>
<event>
 9    2  0.3402837E-005  0.9408045E+02  0.7546771E-02  0.1297854E+00
         -1   -1    0    0    0  501 -0.00000000000E+00  0.00000000000E+00  0.28836638841E+02  0.28836638841E+02  0.00000000000E+00 0.  1.
          2   -1    0    0  502    0  0.00000000000E+00 -0.00000000000E+00 -0.67294042459E+03  0.67294042459E+03  0.00000000000E+00 0. -1.
         23    2    1    2    0    0 -0.11895902502E+02  0.22305299126E+01 -0.88266867035E+02  0.12586191612E+03  0.88902724099E+02 0.  0.
         24    2    1    2    0    0 -0.21923860665E+02 -0.31796291336E+02 -0.47572823759E+03  0.48407119585E+03  0.80721167001E+02 0.  0.
        -11    1    4    4    0    0 -0.38332254258E+02 -0.47716476081E+01 -0.10301089965E+03  0.11001534341E+03  0.00000000000E+00 0.  1.
         12    1    4    4    0    0  0.16408393593E+02 -0.27024643727E+02 -0.37271733793E+03  0.37405585244E+03  0.00000000000E+00 0. -1.
        -13    1    3    3    0    0 -0.38529030509E+02  0.23302532702E+02 -0.19305607763E+02  0.48991843335E+02  0.00000000000E+00 0.  1.
         13    1    3    3    0    0  0.26633128007E+02 -0.21072002789E+02 -0.68961259272E+02  0.76870072781E+02  0.00000000000E+00 0. -1.
         21    1    1    2  502  501  0.33819763167E+02  0.29565761423E+02 -0.80108681132E+02  0.91843951472E+02  0.00000000000E+00 0.  1.
<scales pt_clust_5="13000.00000" pt_clust_6="13000.00000" pt_clust_7="13000.00000" pt_clust_8="13000.00000" pt_clust_9="44.92116"></scales>
<clustering>
<clus scale="   44.921">  1  9  2 -1</clus>
<clus scale="   80.721">  5  6 -1 -1</clus>
<clus scale="   86.391">  2  5  1 -1</clus>
<clus scale="   88.903">  7  8 -1 -1</clus>
<clus scale="   86.391">  2  5  1 -1</clus>
</clustering>
</event>
<event>
 9    2  0.3402837E-005  0.1217527E+03  0.7546771E-02  0.1243500E+00
          2   -1    0    0  502    0  0.00000000000E+00  0.00000000000E+00  0.13963228705E+04  0.13963228705E+04  0.00000000000E+00 0. -1.
         -1   -1    0    0    0  501 -0.00000000000E+00 -0.00000000000E+00 -0.21916945621E+02  0.21916945621E+02  0.00000000000E+00 0.  1.
         23    2    1    2    0    0  0.49937537647E+02 -0.61840649154E+02  0.26827858410E+03  0.29438443569E+03  0.91491932637E+02 0.  0.
         24    2    1    2    0    0 -0.85961155323E+02  0.79538945449E+01  0.90104845098E+03  0.90877671018E+03  0.80834480832E+02 0.  0.
        -11    1    4    4    0    0 -0.31798333978E+02 -0.17395591586E+02  0.11783462468E+03  0.12328316764E+03  0.00000000000E+00 0.  1.
         12    1    4    4    0    0 -0.54162821345E+02  0.25349486131E+02  0.78321382630E+03  0.78549354254E+03  0.00000000000E+00 0. -1.
        -11    1    3    3    0    0  0.53536133633E+02 -0.26722662671E+01  0.74762164504E+02  0.91992607599E+02  0.00000000000E+00 0.  1.
         11    1    3    3    0    0 -0.35985959862E+01 -0.59168382886E+02  0.19351641959E+03  0.20239182809E+03  0.00000000000E+00 0. -1.
         21    1    1    2  502  501  0.36023617675E+02  0.53886754609E+02  0.20507888976E+03  0.21507867021E+03  0.00000000000E+00 0. -1.
<scales pt_clust_5="13000.00000" pt_clust_6="13000.00000" pt_clust_7="13000.00000" pt_clust_8="13000.00000" pt_clust_9="64.81885"></scales>
<clustering>
<clus scale="   64.819">  2  9  1 -1</clus>
<clus scale="   80.834">  5  6 -1 -1</clus>
<clus scale="   91.492">  7  8 -1 -1</clus>
<clus scale="  113.961">  1  5  2 -1</clus>
<clus scale="  113.961">  1  5  2 -1</clus>
</clustering>
</event>
<event>
 9    2  0.3402837E-005  0.9521270E+02  0.7546771E-02  0.1297088E+00
          2   -1    0    0  502    0  0.00000000000E+00  0.00000000000E+00  0.30951760047E+03  0.30951760047E+03  0.00000000000E+00 0. -1.
         -1   -1    0    0    0  501 -0.00000000000E+00 -0.00000000000E+00 -0.10552599538E+03  0.10552599538E+03  0.00000000000E+00 0.  1.
         23    2    1    2    0    0  0.29816435065E+02 -0.40167927403E+02 -0.16148303579E+02  0.10536555362E+03  0.91316208799E+02 0.  0.
         24    2    1    2    0    0 -0.26264335294E+02  0.55213746365E-01  0.24718474458E+03  0.26116958565E+03  0.80121383899E+02 0.  0.
        -11    1    4    4    0    0 -0.24352441458E+02  0.31984402143E+02  0.66741512042E+02  0.77913239024E+02  0.00000000000E+00 0.  1.
         12    1    4    4    0    0 -0.19118938355E+01 -0.31929188397E+02  0.18044323254E+03  0.18325634663E+03  0.00000000000E+00 0. -1.
        -13    1    3    3    0    0 -0.14211569103E+02  0.22613324080E+02 -0.96957679521E+01  0.28413712156E+02  0.00000000000E+00 0. -1.
         13    1    3    3    0    0  0.44028004168E+02 -0.62781251483E+02 -0.64525356264E+01  0.76951841464E+02  0.00000000000E+00 0.  1.
         21    1    1    2  502  501 -0.35520997710E+01  0.40112713657E+02 -0.27044835913E+02  0.48508456574E+02  0.00000000000E+00 0.  1.
<scales pt_clust_5="13000.00000" pt_clust_6="13000.00000" pt_clust_7="13000.00000" pt_clust_8="13000.00000" pt_clust_9="40.26968"></scales>
<clustering>
<clus scale="   40.270">  2  9  1 -1</clus>
<clus scale="   80.121">  5  6 -1 -1</clus>
<clus scale="   84.535">  1  5  2 -1</clus>
<clus scale="   91.316">  7  8 -1 -1</clus>
<clus scale="   84.535">  1  5  2 -1</clus>
</clustering>
</event>
<event>
 9    2  0.3402837E-005  0.2803470E+03  0.7546771E-02  0.1127536E+00
          2   -1    0    0  502    0  0.00000000000E+00  0.00000000000E+00  0.62229428571E+03  0.62229428571E+03  0.00000000000E+00 0. -1.
         -1   -1    0    0    0  501 -0.00000000000E+00 -0.00000000000E+00 -0.42794843503E+03  0.42794843503E+03  0.00000000000E+00 0.  1.
         23    2    1    2    0    0 -0.31671602713E+02 -0.77886729977E+02 -0.13198034343E+03  0.18124855881E+03  0.91448323618E+02 0.  0.
         24    2    1    2    0    0 -0.26238604353E+03  0.40941713424E+02  0.46521335835E+03  0.54169540246E+03  0.80546759827E+02 0.  0.
        -13    1    4    4    0    0 -0.17545949993E+03 -0.10542915723E+02  0.27655381527E+03  0.32768765911E+03  0.00000000000E+00 0.  1.
         14    1    4    4    0    0 -0.86926543599E+02  0.51484629147E+02  0.18865954308E+03  0.21400774335E+03  0.00000000000E+00 0. -1.
        -13    1    3    3    0    0 -0.17872107159E+02 -0.42388849175E+02 -0.22656518394E+01  0.46058223228E+02  0.00000000000E+00 0. -1.
         13    1    3    3    0    0 -0.13799495554E+02 -0.35497880802E+02 -0.12971469160E+03  0.13519033558E+03  0.00000000000E+00 0.  1.
         21    1    1    2  502  501  0.29405764624E+03  0.36945016552E+02 -0.13888716424E+03  0.32729875948E+03  0.00000000000E+00 0. -1.
<scales pt_clust_5="13000.00000" pt_clust_6="13000.00000" pt_clust_7="13000.00000" pt_clust_8="13000.00000" pt_clust_9="268.52684"></scales>
<clustering>
<clus scale="   80.547">  5  6 -1 -1</clus>
<clus scale="   91.448">  7  8 -1 -1</clus>
<clus scale="  124.227">  2  7  1 -1</clus>
<clus scale="  268.527">  2  9  1 -1</clus>
<clus scale="  280.347">  1  5  2 -1</clus>
</clustering>
</event>
<event>
 9    2  0.3402837E-005  0.9819393E+02  0.7546771E-02  0.1288925E+00
         -1   -1    0    0    0  501 -0.00000000000E+00  0.00000000000E+00  0.75387900395E+02  0.75387900395E+02  0.00000000000E+00 0.  1.
          2   -1    0    0  502    0  0.00000000000E+00 -0.00000000000E+00 -0.38814553000E+03  0.38814553000E+03  0.00000000000E+00 0. -1.
         24    2    1    2    0    0 -0.48574220270E+02  0.59810144135E+01  0.33058422554E+01  0.94929564589E+02  0.81274019415E+02 0.  0.
         23    2    1    2    0    0  0.34014965859E+02  0.15353885629E+02 -0.32640859736E+03  0.34077992881E+03  0.90529706407E+02 0.  0.
        -13    1    3    3    0    0 -0.23246132232E+02  0.76706929495E+01  0.42022998900E+02  0.48632855464E+02  0.00000000000E+00 0.  1.
         14    1    3    3    0    0 -0.25328088039E+02 -0.16896785360E+01 -0.38717156644E+02  0.46296709126E+02  0.00000000000E+00 0. -1.
        -13    1    4    4    0    0  0.54920147239E+02 -0.17067265030E+02 -0.22636369903E+03  0.23355521477E+03  0.00000000000E+00 0. -1.
         13    1    4    4    0    0 -0.20905181379E+02  0.32421150659E+02 -0.10004489833E+03  0.10722471404E+03  0.00000000000E+00 0.  1.
         21    1    1    2  502  501  0.14559254411E+02 -0.21334900043E+02  0.10345125493E+02  0.27823937003E+02  0.00000000000E+00 0.  1.
<scales pt_clust_5="13000.00000" pt_clust_6="13000.00000" pt_clust_7="13000.00000" pt_clust_8="13000.00000" pt_clust_9="25.82924"></scales>
<clustering>
<clus scale="   25.829">  1  9  2 -1</clus>
<clus scale="   81.274">  5  6 -1 -1</clus>
<clus scale="   89.732">  1  5  2 -1</clus>
<clus scale="   90.530">  7  8 -1 -1</clus>
<clus scale="   98.194">  2  5  1 -1</clus>
</clustering>
</event>
<event>
 9    2  0.3402837E-005  0.1034673E+03  0.7546771E-02  0.1275680E+00
          2   -1    0    0  502    0  0.00000000000E+00  0.00000000000E+00  0.45447866916E+03  0.45447866916E+03  0.00000000000E+00 0. -1.
         -1   -1    0    0    0  501 -0.00000000000E+00 -0.00000000000E+00 -0.95021252661E+02  0.95021252661E+02  0.00000000000E+00 0.  1.
         24    2    1    2    0    0  0.55676250516E+02  0.56156875998E+02  0.70728197332E+02  0.13557302282E+03  0.84404543874E+02 0.  0.
         23    2    1    2    0    0 -0.46440961149E+02 -0.73235422737E+01  0.33251892498E+03  0.34768851597E+03  0.90044830633E+02 0.  0.
        -13    1    3    3    0    0  0.44841145371E+02  0.78731096340E+02  0.56345742426E+02  0.10669656292E+03  0.00000000000E+00 0.  1.
         14    1    3    3    0    0  0.10835105145E+02 -0.22574220342E+02  0.14382454906E+02  0.28876459905E+02  0.00000000000E+00 0. -1.
        -11    1    4    4    0    0 -0.30722723417E+01  0.38199572320E+02  0.14085154140E+03  0.14597192503E+03  0.00000000000E+00 0.  1.
         11    1    4    4    0    0 -0.43368688808E+02 -0.45523114594E+02  0.19166738358E+03  0.20171659093E+03  0.00000000000E+00 0. -1.
         21    1    1    2  502  501 -0.92352893664E+01 -0.48833333725E+02 -0.43789705806E+02  0.66238383034E+02  0.00000000000E+00 0. -1.
<scales pt_clust_5="13000.00000" pt_clust_6="13000.00000" pt_clust_7="13000.00000" pt_clust_8="13000.00000" pt_clust_9="49.69894"></scales>
<clustering>
<clus scale="   49.699">  2  9  1 -1</clus>
<clus scale="   84.405">  5  6 -1 -1</clus>
<clus scale="   90.045">  7  8 -1 -1</clus>
<clus scale="   98.598">  2  5  1 -1</clus>
<clus scale="  103.467">  1  5  2 -1</clus>
</clustering>
</event>
<event>
 9    2  0.3402837E-005  0.9599474E+02  0.7546771E-02  0.1295229E+00
         -1   -1    0    0    0  501 -0.00000000000E+00  0.00000000000E+00  0.12060058176E+03  0.12060058176E+03  0.00000000000E+00 0.  1.
          2   -1    0    0  502    0  0.00000000000E+00 -0.00000000000E+00 -0.29842696648E+03  0.29842696648E+03  0.00000000000E+00 0. -1.
         23    2    1    2    0    0  0.49695181612E+02  0.32446186072E+01  0.17783311396E+02  0.10450492958E+03  0.90138202323E+02 0.  0.
         24    2    1    2    0    0 -0.22600361221E+02  0.23873842783E+02 -0.24067860616E+03  0.25535550877E+03  0.78736952548E+02 0.  0.
        -13    1    4    4    0    0  0.49840793038E+00  0.21240656683E+02 -0.99541266238E+01  0.23462705377E+02  0.00000000000E+00 0.  1.
         14    1    4    4    0    0 -0.23098769151E+02  0.26331860999E+01 -0.23072447954E+03  0.23189280339E+03  0.00000000000E+00 0. -1.
        -11    1    3    3    0    0  0.35845496545E+02 -0.41327963087E+02  0.18717699163E+02  0.57820864897E+02  0.00000000000E+00 0.  1.
         11    1    3    3    0    0  0.13849685067E+02  0.44572581694E+02 -0.93438776689E+00  0.46684064688E+02  0.00000000000E+00 0. -1.
         21    1    1    2  502  501 -0.27094820391E+02 -0.27118461390E+02  0.45068910040E+02  0.59167109887E+02  0.00000000000E+00 0. -1.
<scales pt_clust_5="13000.00000" pt_clust_6="13000.00000" pt_clust_7="13000.00000" pt_clust_8="13000.00000" pt_clust_9="38.33458"></scales>
<clustering>
<clus scale="   38.335">  1  9  2 -1</clus>
<clus scale="   78.737">  5  6 -1 -1</clus>
<clus scale="   85.379">  2  5  1 -1</clus>
<clus scale="   90.138">  7  8 -1 -1</clus>
<clus scale="   85.379">  2  5  1 -1</clus>
</clustering>
</event>
<event>
 9    2  0.3402837E-005  0.1207948E+03  0.7546771E-02  0.1245143E+00
         -1   -1    0    0    0  501 -0.00000000000E+00  0.00000000000E+00  0.24314534794E+03  0.24314534794E+03  0.00000000000E+00 0.  1.
          2   -1    0    0  502    0  0.00000000000E+00 -0.00000000000E+00 -0.35291755449E+03  0.35291755449E+03  0.00000000000E+00 0. -1.
         23    2    1    2    0    0  0.70340803277E+02  0.77019008950E+02  0.16262536662E+03  0.21344343873E+03  0.90726706780E+02 0.  0.
         24    2    1    2    0    0 -0.33140610339E+02 -0.71384107126E+02 -0.30985581240E+03  0.32952778677E+03  0.79899605590E+02 0.  0.
        -13    1    4    4    0    0  0.21773886096E+02 -0.29275973548E+02 -0.59603117314E+02  0.69883591324E+02  0.00000000000E+00 0.  1.
         14    1    4    4    0    0 -0.54914496434E+02 -0.42108133579E+02 -0.25025269509E+03  0.25964419545E+03  0.00000000000E+00 0. -1.
        -11    1    3    3    0    0  0.55885384009E+02  0.91613799704E+02  0.96920626180E+02  0.14460246271E+03  0.00000000000E+00 0.  1.
         11    1    3    3    0    0  0.14455419268E+02 -0.14594790754E+02  0.65704740441E+02  0.68840976023E+02  0.00000000000E+00 0. -1.
         21    1    1    2  502  501 -0.37200192939E+02 -0.56349018237E+01  0.37458239227E+02  0.53091676930E+02  0.00000000000E+00 0. -1.
<scales pt_clust_5="13000.00000" pt_clust_6="13000.00000" pt_clust_7="13000.00000" pt_clust_8="13000.00000" pt_clust_9="37.62455"></scales>
<clustering>
<clus scale="   37.625">  1  9  2 -1</clus>
<clus scale="   79.900">  5  6 -1 -1</clus>
<clus scale="   90.727">  7  8 -1 -1</clus>
<clus scale="  112.889">  2  5  1 -1</clus>
<clus scale="  112.889">  2  5  1 -1</clus>
</clustering>
</event>
<event>
 9    2  0.3402837E-005  0.1183377E+03  0.7546771E-02  0.1251046E+00
          4   -1    0    0  502    0  0.00000000000E+00  0.00000000000E+00  0.11154795682E+03  0.11154795682E+03  0.00000000000E+00 0. -1.
         -3   -1    0    0    0  501 -0.00000000000E+00 -0.00000000000E+00 -0.17104110594E+03  0.17104110594E+03  0.00000000000E+00 0.  1.
         24    2    1    2    0    0  0.50962078296E+02 -0.26328613291E+02 -0.82116074218E+02  0.12779169759E+03  0.79355774999E+02 0.  0.
         23    2    1    2    0    0 -0.61239125607E+02  0.47796857365E+02  0.36011508673E+02  0.12748880652E+03  0.94455264294E+02 0.  0.
        -13    1    3    3    0    0  0.41214970260E+02 -0.26127884542E+02 -0.97814943776E+02  0.10931195429E+03  0.00000000000E+00 0.  1.
         14    1    3    3    0    0  0.97471080363E+01 -0.20072874888E+00  0.15698869558E+02  0.18479743302E+02  0.00000000000E+00 0. -1.
        -13    1    4    4    0    0 -0.82124289264E+02  0.47240091677E+02  0.11744380317E+02  0.95467039431E+02  0.00000000000E+00 0.  1.
         13    1    4    4    0    0  0.20885163658E+02  0.55676568796E+00  0.24267128356E+02  0.32021767092E+02  0.00000000000E+00 0. -1.
         21    1    1    2  502  501  0.10277047311E+02 -0.21468244073E+02 -0.13388583576E+02  0.27308558644E+02  0.00000000000E+00 0.  1.
<scales pt_clust_5="13000.00000" pt_clust_6="13000.00000" pt_clust_7="13000.00000" pt_clust_8="13000.00000" pt_clust_9="23.80133"></scales>
<clustering>
<clus scale="   23.801">  2  9  1 -1</clus>
<clus scale="   79.356">  5  6 -1 -1</clus>
<clus scale="   94.455">  7  8 -1 -1</clus>
<clus scale="  106.674">  2  5  1 -1</clus>
<clus scale="  118.338">  1  5  2 -1</clus>
</clustering>
</event>
<event>
 9    2  0.3402837E-005  0.1347213E+03  0.7546771E-02  0.1222481E+00
         -1   -1    0    0    0  501 -0.00000000000E+00  0.00000000000E+00  0.10514755385E+03  0.10514755385E+03  0.00000000000E+00 0.  1.
          2   -1    0    0  502    0  0.00000000000E+00 -0.00000000000E+00 -0.33264417563E+03  0.33264417563E+03  0.00000000000E+00 0. -1.
         23    2    1    2    0    0  0.64830844197E+02  0.99695759620E+02 -0.10331174960E+03  0.17804868666E+03  0.82980325200E+02 0.  0.
         24    2    1    2    0    0 -0.88056963863E+02 -0.52854894904E+02 -0.15407604377E+03  0.19951845165E+03  0.74300178220E+02 0.  0.
        -11    1    4    4    0    0 -0.24650522911E+02 -0.51389304976E+02 -0.42209517121E+02  0.70923566473E+02  0.00000000000E+00 0.  1.
         12    1    4    4    0    0 -0.63406440952E+02 -0.14655899279E+01 -0.11186652665E+03  0.12859488518E+03  0.00000000000E+00 0. -1.
        -13    1    3    3    0    0  0.66686614053E+02  0.35095524477E+02 -0.32175541579E+02  0.81939403269E+02  0.00000000000E+00 0.  1.
         13    1    3    3    0    0 -0.18557698561E+01  0.64600235143E+02 -0.71136208019E+02  0.96109283390E+02  0.00000000000E+00 0. -1.
         21    1    1    2  502  501  0.23226119666E+02 -0.46840864716E+02  0.29891171598E+02  0.60224591170E+02  0.00000000000E+00 0.  1.
<scales pt_clust_5="13000.00000" pt_clust_6="13000.00000" pt_clust_7="13000.00000" pt_clust_8="13000.00000" pt_clust_9="52.28307"></scales>
<clustering>
<clus scale="   52.283">  1  9  2 -1</clus>
<clus scale="   74.300">  5  6 -1 -1</clus>
<clus scale="   82.980">  7  8 -1 -1</clus>
<clus scale="  129.555">  2  5  1 -1</clus>
<clus scale="  129.555">  2  5  1 -1</clus>
</clustering>
</event>
<event>
 9    2  0.3402837E-005  0.1213791E+03  0.7546771E-02  0.1243656E+00
          2   -1    0    0  502    0  0.00000000000E+00  0.00000000000E+00  0.80760094708E+03  0.80760094708E+03  0.00000000000E+00 0. -1.
         -1   -1    0    0    0  501 -0.00000000000E+00 -0.00000000000E+00 -0.43739061216E+02  0.43739061216E+02  0.00000000000E+00 0.  1.
         23    2    1    2    0    0  0.45601926400E+02  0.12394836205E+02  0.48132245867E+02  0.11271812251E+03  0.90307775935E+02 0.  0.
         24    2    1    2    0    0 -0.83066311693E+02 -0.24693203457E+02  0.65861940488E+03  0.66922153306E+03  0.81044268137E+02 0.  0.
        -13    1    4    4    0    0 -0.16480005550E+02 -0.21458014208E+02  0.49047574126E+02  0.56015189764E+02  0.00000000000E+00 0.  1.
         14    1    4    4    0    0 -0.66586306143E+02 -0.32351892493E+01  0.60957183075E+03  0.61320634330E+03  0.00000000000E+00 0. -1.
        -11    1    3    3    0    0  0.37732451005E+02  0.46859623953E+02  0.48635686220E+02  0.77362731273E+02  0.00000000000E+00 0.  1.
         11    1    3    3    0    0  0.78694753952E+01 -0.34464787748E+02 -0.50344035330E+00  0.35355391239E+02  0.00000000000E+00 0. -1.
         21    1    1    2  502  501  0.37464385293E+02  0.12298367252E+02  0.57110235120E+02  0.69400352722E+02  0.00000000000E+00 0. -1.
<scales pt_clust_5="13000.00000" pt_clust_6="13000.00000" pt_clust_7="13000.00000" pt_clust_8="13000.00000" pt_clust_9="39.43133"></scales>
<clustering>
<clus scale="   39.431">  2  9  1 -1</clus>
<clus scale="   81.044">  5  6 -1 -1</clus>
<clus scale="   90.308">  7  8 -1 -1</clus>
<clus scale="  114.654">  1  5  2 -1</clus>
<clus scale="  114.654">  1  5  2 -1</clus>
</clustering>
</event>
<event>
 9    2  0.3402837E-005  0.1799697E+03  0.7546771E-02  0.1169045E+00
         -1   -1    0    0    0  501 -0.00000000000E+00  0.00000000000E+00  0.74399131903E+03  0.74399131903E+03  0.00000000000E+00 0.  1.
          2   -1    0    0  502    0  0.00000000000E+00 -0.00000000000E+00 -0.87233027912E+02  0.87233027912E+02  0.00000000000E+00 0. -1.
         23    2    1    2    0    0 -0.28599165660E+02 -0.13479187644E+03  0.33099515271E+03  0.36986549214E+03  0.90862142433E+02 0.  0.
         24    2    1    2    0    0  0.12057993692E+03  0.17295691123E+03  0.20600112156E+03  0.30560272221E+03  0.80640854460E+02 0.  0.
        -13    1    4    4    0    0  0.11940446434E+02  0.69267948993E+02  0.98087585885E+02  0.12067227322E+03  0.00000000000E+00 0.  1.
         14    1    4    4    0    0  0.10863949048E+03  0.10368896224E+03  0.10791353568E+03  0.18493044899E+03  0.00000000000E+00 0. -1.
        -13    1    3    3    0    0 -0.41618327165E+02 -0.21503133374E+02  0.62083632811E+02  0.77774336152E+02  0.00000000000E+00 0. -1.
         13    1    3    3    0    0  0.13019161504E+02 -0.11328874307E+03  0.26891151990E+03  0.29209115599E+03  0.00000000000E+00 0.  1.
         21    1    1    2  502  501 -0.91980771256E+02 -0.38165034787E+02  0.11976201684E+03  0.15575613259E+03  0.00000000000E+00 0.  1.
<scales pt_clust_5="13000.00000" pt_clust_6="13000.00000" pt_clust_7="13000.00000" pt_clust_8="13000.00000" pt_clust_9="99.58430"></scales>
<clustering>
<clus scale="   80.641">  5  6 -1 -1</clus>
<clus scale="   90.862">  7  8 -1 -1</clus>
<clus scale="   99.584">  2  9  1 -1</clus>
<clus scale="  175.032">  2  5  1 -1</clus>
<clus scale="   99.584">  2  5  1 -1</clus>
</clustering>
</event>
<event>
 9    2  0.3402837E-005  0.1091446E+03  0.7546771E-02  0.1266346E+00
         -1   -1    0    0    0  501 -0.00000000000E+00  0.00000000000E+00  0.42220201083E+02  0.42220201083E+02  0.00000000000E+00 0.  1.
          2   -1    0    0  502    0  0.00000000000E+00 -0.00000000000E+00 -0.63370154258E+03  0.63370154258E+03  0.00000000000E+00 0. -1.
         23    2    1    2    0    0  0.36473217484E+02 -0.32158770486E+02 -0.58508811036E+02  0.11615601884E+03  0.87775039904E+02 0.  0.
         24    2    1    2    0    0  0.50138907808E+01  0.52911329703E+02 -0.46070065306E+03  0.47388747886E+03  0.97465393781E+02 0.  0.
        -11    1    4    4    0    0 -0.10244483250E+02  0.21293698405E+02 -0.17765488694E+02  0.29563213922E+02  0.00000000000E+00 0.  1.
         12    1    4    4    0    0  0.15258374031E+02  0.31617631297E+02 -0.44293516436E+03  0.44432426494E+03  0.00000000000E+00 0. -1.
        -11    1    3    3    0    0  0.34534779703E+02  0.23862712822E+02 -0.37517336393E+02  0.56299472488E+02  0.00000000000E+00 0. -1.
         11    1    3    3    0    0  0.19384377814E+01 -0.56021483308E+02 -0.20991474642E+02  0.59856546348E+02  0.00000000000E+00 0.  1.
         21    1    1    2  502  501 -0.41487108265E+02 -0.20752559216E+02 -0.72271877409E+02  0.85878245967E+02  0.00000000000E+00 0. -1.
<scales pt_clust_5="13000.00000" pt_clust_6="13000.00000" pt_clust_7="13000.00000" pt_clust_8="13000.00000" pt_clust_9="46.38803"></scales>
<clustering>
<clus scale="   46.388">  1  9  2 -1</clus>
<clus scale="   87.775">  7  8 -1 -1</clus>
<clus scale="   97.465">  5  6 -1 -1</clus>
<clus scale="  100.586">  1  7  2 -1</clus>
<clus scale="  109.145">  2  5  1 -1</clus>
</clustering>
</event>
<event>
 9    2  0.3402837E-005  0.4066149E+03  0.7546771E-02  0.1041748E+00
         -1   -1    0    0    0  501 -0.00000000000E+00  0.00000000000E+00  0.43564649971E+03  0.43564649971E+03  0.00000000000E+00 0.  1.
          2   -1    0    0  502    0  0.00000000000E+00 -0.00000000000E+00 -0.13683836559E+04  0.13683836559E+04  0.00000000000E+00 0. -1.
         23    2    1    2    0    0 -0.33344102180E+03 -0.16174046935E+03  0.23286176635E+03  0.44731058117E+03  0.92299833978E+02 0.  0.
         24    2    1    2    0    0  0.38959974725E+03  0.87982510888E+02 -0.11925689479E+04  0.12601720672E+04  0.79272051246E+02 0.  0.
        -11    1    4    4    0    0  0.31016982562E+03  0.97336170081E+02 -0.90181996416E+03  0.95862343936E+03  0.00000000000E+00 0.  1.
         12    1    4    4    0    0  0.79429921631E+02 -0.93536591932E+01 -0.29074898377E+03  0.30154862784E+03  0.00000000000E+00 0. -1.
        -11    1    3    3    0    0 -0.17631549275E+03 -0.54347237639E+02  0.15760253962E+03  0.24265064541E+03  0.00000000000E+00 0. -1.
         11    1    3    3    0    0 -0.15712552905E+03 -0.10739323171E+03  0.75259226726E+02  0.20465993575E+03  0.00000000000E+00 0.  1.
         21    1    1    2  502  501 -0.56158725447E+02  0.73757958460E+02  0.26970025413E+02  0.96547507222E+02  0.00000000000E+00 0. -1.
<scales pt_clust_5="13000.00000" pt_clust_6="13000.00000" pt_clust_7="13000.00000" pt_clust_8="13000.00000" pt_clust_9="92.70404"></scales>
<clustering>
<clus scale="   79.272">  5  6 -1 -1</clus>
<clus scale="   92.300">  7  8 -1 -1</clus>
<clus scale="   92.704">  1  9  2 -1</clus>
<clus scale="  403.857">  2  5  1 -1</clus>
<clus scale="  403.857">  2  5  1 -1</clus>
</clustering>
</event>
<event>
 9    2  0.3402837E-005  0.1349671E+03  0.7546771E-02  0.1239356E+00
          2   -1    0    0  502    0  0.00000000000E+00  0.00000000000E+00  0.20453211567E+03  0.20453211567E+03  0.00000000000E+00 0. -1.
         -1   -1    0    0    0  501 -0.00000000000E+00 -0.00000000000E+00 -0.22626987287E+03  0.22626987287E+03  0.00000000000E+00 0.  1.
         23    2    1    2    0    0 -0.21298525351E+01  0.57376872612E+01 -0.64587156193E+02  0.11157955838E+03  0.90780172821E+02 0.  0.
         24    2    1    2    0    0 -0.75753592709E-01  0.10759025702E+03  0.12181732985E+03  0.18107749988E+03  0.79836896035E+02 0.  0.
        -13    1    4    4    0    0 -0.45811996876E+01  0.66065979545E+02  0.17187164159E+02  0.68418562215E+02  0.00000000000E+00 0.  1.
         14    1    4    4    0    0  0.45054460948E+01  0.41524277475E+02  0.10463016569E+03  0.11265893767E+03  0.00000000000E+00 0. -1.
        -11    1    3    3    0    0  0.40220163365E+02  0.20697633244E+00 -0.54431093050E+02  0.67679009086E+02  0.00000000000E+00 0.  1.
         11    1    3    3    0    0 -0.42350015900E+02  0.55307109287E+01 -0.10156063143E+02  0.43900549298E+02  0.00000000000E+00 0. -1.
         21    1    1    2  502  501  0.22056061278E+01 -0.11332794428E+03 -0.78967930857E+02  0.13814493026E+03  0.00000000000E+00 0.  1.
<scales pt_clust_5="13000.00000" pt_clust_6="13000.00000" pt_clust_7="13000.00000" pt_clust_8="13000.00000" pt_clust_9="108.82184"></scales>
<clustering>
<clus scale="   79.837">  5  6 -1 -1</clus>
<clus scale="   90.780">  7  8 -1 -1</clus>
<clus scale="   90.986">  2  7  1 -1</clus>
<clus scale="  108.822">  2  9  1 -1</clus>
<clus scale="  134.967">  1  5  2 -1</clus>
</clustering>
</event>
<event>
 9    2  0.3402837E-005  0.9535768E+02  0.7546771E-02  0.1298497E+00
         -1   -1    0    0    0  501 -0.00000000000E+00  0.00000000000E+00  0.55262160162E+03  0.55262160162E+03  0.00000000000E+00 0.  1.
          2   -1    0    0  502    0  0.00000000000E+00 -0.00000000000E+00 -0.12232791959E+03  0.12232791959E+03  0.00000000000E+00 0. -1.
         23    2    1    2    0    0 -0.53887888249E+02 -0.12791417231E+02  0.34241243259E+03  0.35912149165E+03  0.93029279921E+02 0.  0.
         24    2    1    2    0    0 -0.23757164066E+02 -0.59745418501E+01 -0.89045249098E+02  0.12170461196E+03  0.79264482530E+02 0.  0.
        -13    1    4    4    0    0 -0.19206581183E+02  0.14038148422E+02  0.59457952744E+01  0.24521722070E+02  0.00000000000E+00 0.  1.
         14    1    4    4    0    0 -0.45505828831E+01 -0.20012690272E+02 -0.94991044373E+02  0.97182889891E+02  0.00000000000E+00 0. -1.
        -13    1    3    3    0    0 -0.64410211870E+02  0.16419256020E+02  0.29537004710E+03  0.30275688610E+03  0.00000000000E+00 0.  1.
         13    1    3    3    0    0  0.10522323621E+02 -0.29210673251E+02  0.47042385490E+02  0.56364605550E+02  0.00000000000E+00 0. -1.
         21    1    1    2  502  501  0.77645052315E+02  0.18765959082E+02  0.17692649854E+03  0.19412341759E+03  0.00000000000E+00 0.  1.
<scales pt_clust_5="13000.00000" pt_clust_6="13000.00000" pt_clust_7="13000.00000" pt_clust_8="13000.00000" pt_clust_9="79.88063"></scales>
<clustering>
<clus scale="   79.264">  5  6 -1 -1</clus>
<clus scale="   79.881">  1  9  2 -1</clus>
<clus scale="   81.985">  2  5  1 -1</clus>
<clus scale="   93.029">  7  8 -1 -1</clus>
<clus scale="   81.985">  2  5  1 -1</clus>
</clustering>
</event>
<event>
 9    2  0.3402837E-005  0.9874855E+02  0.7546771E-02  0.1291060E+00
          4   -1    0    0  502    0  0.00000000000E+00  0.00000000000E+00  0.40017569816E+02  0.40017569816E+02  0.00000000000E+00 0. -1.
         -3   -1    0    0    0  501 -0.00000000000E+00 -0.00000000000E+00 -0.38247085191E+03  0.38247085191E+03  0.00000000000E+00 0.  1.
         24    2    1    2    0    0  0.48360161314E+01  0.16514657942E+02 -0.19867057920E+03  0.21489255372E+03  0.80079270890E+02 0.  0.
         23    2    1    2    0    0  0.12901510237E+02 -0.30745358906E+02 -0.52139652550E+02  0.11317351171E+03  0.94752173190E+02 0.  0.
        -13    1    3    3    0    0 -0.14787871063E+02  0.41305257477E+02 -0.15425484018E+03  0.16037256980E+03  0.00000000000E+00 0.  1.
         14    1    3    3    0    0  0.19623887195E+02 -0.24790599535E+02 -0.44415739022E+02  0.54519983921E+02  0.00000000000E+00 0. -1.
        -11    1    4    4    0    0 -0.24899408873E+02  0.11698032356E+02  0.97112627243E+01  0.29174186311E+02  0.00000000000E+00 0.  1.
         11    1    4    4    0    0  0.37800919110E+02 -0.42443391262E+02 -0.61850915274E+02  0.83999325400E+02  0.00000000000E+00 0. -1.
         21    1    1    2  502  501 -0.17737526368E+02  0.14230700964E+02 -0.91643050341E+02  0.94422356290E+02  0.00000000000E+00 0.  1.
<scales pt_clust_5="13000.00000" pt_clust_6="13000.00000" pt_clust_7="13000.00000" pt_clust_8="13000.00000" pt_clust_9="22.74055"></scales>
<clustering>
<clus scale="   22.741">  2  9  1 -1</clus>
<clus scale="   80.079">  5  6 -1 -1</clus>
<clus scale="   84.770">  2  5  1 -1</clus>
<clus scale="   94.752">  7  8 -1 -1</clus>
<clus scale="   98.749">  1  5  2 -1</clus>
</clustering>
</event>
<event>
 9    2  0.3402837E-005  0.1017624E+03  0.7546771E-02  0.1281502E+00
         -3   -1    0    0    0  501 -0.00000000000E+00  0.00000000000E+00  0.59007482217E+03  0.59007482217E+03  0.00000000000E+00 0.  1.
          4   -1    0    0  502    0  0.00000000000E+00 -0.00000000000E+00 -0.34782218665E+02  0.34782218665E+02  0.00000000000E+00 0. -1.
         23    2    1    2    0    0  0.37427598198E+02 -0.14505344563E+02  0.43972832176E+03  0.45096518153E+03  0.91637153305E+02 0.  0.
         24    2    1    2    0    0 -0.62494782753E+02  0.10704935993E+02  0.82188720529E+02  0.13197843743E+03  0.81505390243E+02 0.  0.
        -13    1    4    4    0    0 -0.22850399281E+02  0.39108709685E+02  0.67045969259E+02  0.80912260593E+02  0.00000000000E+00 0.  1.
         14    1    4    4    0    0 -0.39644383472E+02 -0.28403773692E+02  0.15142751270E+02  0.51066176838E+02  0.00000000000E+00 0. -1.
        -13    1    3    3    0    0 -0.22866331000E+02  0.12330864565E+02  0.57708158164E+02  0.63286261013E+02  0.00000000000E+00 0. -1.
         13    1    3    3    0    0  0.60293929198E+02 -0.26836209128E+02  0.38202016359E+03  0.38767892051E+03  0.00000000000E+00 0.  1.
         21    1    1    2  502  501  0.25067184555E+02  0.38004085701E+01  0.33375561220E+02  0.41913421878E+02  0.00000000000E+00 0. -1.
<scales pt_clust_5="13000.00000" pt_clust_6="13000.00000" pt_clust_7="13000.00000" pt_clust_8="13000.00000" pt_clust_9="25.35364"></scales>
<clustering>
<clus scale="   25.354">  2  9  1 -1</clus>
<clus scale="   81.505">  5  6 -1 -1</clus>
<clus scale="   91.637">  7  8 -1 -1</clus>
<clus scale="   92.743">  2  5  1 -1</clus>
<clus scale="   25.354">  2  5  1 -1</clus>
</clustering>
</event>
<event>
 9    2  0.3402837E-005  0.9266224E+02  0.7546771E-02  0.1302863E+00
         -1   -1    0    0    0  501 -0.00000000000E+00  0.00000000000E+00  0.26436855124E+03  0.26436855124E+03  0.00000000000E+00 0.  1.
          2   -1    0    0  502    0  0.00000000000E+00 -0.00000000000E+00 -0.15734444626E+03  0.15734444626E+03  0.00000000000E+00 0. -1.
         24    2    1    2    0    0 -0.23683849046E+02  0.20417320369E+02  0.14427798524E+03  0.16903955304E+03  0.82343438043E+02 0.  0.
         23    2    1    2    0    0 -0.12033145427E+01  0.63808081390E+01 -0.12611709282E+03  0.15657879763E+03  0.92570168441E+02 0.  0.
        -11    1    3    3    0    0 -0.39749866438E+02  0.43218797847E+02  0.82565993648E+02  0.10131663080E+03  0.00000000000E+00 0.  1.
         12    1    3    3    0    0  0.16066017392E+02 -0.22801477479E+02  0.61711991592E+02  0.67722922237E+02  0.00000000000E+00 0. -1.
        -13    1    4    4    0    0  0.43633346538E+02  0.55544721829E+01 -0.39852554616E+02  0.59354420229E+02  0.00000000000E+00 0. -1.
         13    1    4    4    0    0 -0.44836661081E+02  0.82633595608E+00 -0.86264538209E+02  0.97224377397E+02  0.00000000000E+00 0.  1.
         21    1    1    2  502  501  0.24887163588E+02 -0.26798128508E+02  0.88863212568E+02  0.96094646838E+02  0.00000000000E+00 0. -1.
<scales pt_clust_5="13000.00000" pt_clust_6="13000.00000" pt_clust_7="13000.00000" pt_clust_8="13000.00000" pt_clust_9="36.57199"></scales>
<clustering>
<clus scale="   36.572">  1  9  2 -1</clus>
<clus scale="   82.343">  5  6 -1 -1</clus>
<clus scale="   82.447">  1  5  2 -1</clus>
<clus scale="   92.570">  7  8 -1 -1</clus>
<clus scale="   92.662">  2  5  1 -1</clus>
</clustering>
</event>
<event>
 9    2  0.3402837E-005  0.1339775E+03  0.7546771E-02  0.1223928E+00
          2   -1    0    0  502    0  0.00000000000E+00  0.00000000000E+00  0.79942495625E+02  0.79942495625E+02  0.00000000000E+00 0. -1.
         -1   -1    0    0    0  501 -0.00000000000E+00 -0.00000000000E+00 -0.33737240454E+03  0.33737240454E+03  0.00000000000E+00 0.  1.
         24    2    1    2    0    0  0.77953239643E+02 -0.39890513990E+02 -0.17351532148E+03  0.21114943771E+03  0.82513984147E+02 0.  0.
         23    2    1    2    0    0 -0.10006876620E+03  0.23031276860E+02 -0.23581689924E+02  0.13973212057E+03  0.91786555326E+02 0.  0.
        -13    1    3    3    0    0  0.42849086219E+02 -0.41841964599E+02 -0.16419538773E+03  0.17477677061E+03  0.00000000000E+00 0.  1.
         14    1    3    3    0    0  0.35104153425E+02  0.19514506094E+01 -0.93199337487E+01  0.36372667104E+02  0.00000000000E+00 0. -1.
        -13    1    4    4    0    0 -0.36223047493E+02  0.53622234248E+02  0.12067739860E+01  0.64721785195E+02  0.00000000000E+00 0.  1.
         13    1    4    4    0    0 -0.63845718704E+02 -0.30590957388E+02 -0.24788463910E+02  0.75010335379E+02  0.00000000000E+00 0. -1.
         21    1    1    2  502  501  0.22115526553E+02  0.16859237130E+02 -0.60332897504E+02  0.66433341874E+02  0.00000000000E+00 0.  1.
<scales pt_clust_5="13000.00000" pt_clust_6="13000.00000" pt_clust_7="13000.00000" pt_clust_8="13000.00000" pt_clust_9="27.80882"></scales>
<clustering>
<clus scale="   27.809">  2  9  1 -1</clus>
<clus scale="   82.514">  5  6 -1 -1</clus>
<clus scale="   91.787">  7  8 -1 -1</clus>
<clus scale="  127.804">  2  5  1 -1</clus>
<clus scale="  133.978">  1  5  2 -1</clus>
</clustering>
</event>
<event>
 9    2  0.3402837E-005  0.1195870E+03  0.7546771E-02  0.1247298E+00
         -1   -1    0    0    0  501 -0.00000000000E+00  0.00000000000E+00  0.12689323722E+03  0.12689323722E+03  0.00000000000E+00 0.  1.
          2   -1    0    0  502    0  0.00000000000E+00 -0.00000000000E+00 -0.39146521349E+03  0.39146521349E+03  0.00000000000E+00 0. -1.
         23    2    1    2    0    0  0.40002189201E+02  0.69541521014E+02  0.80654428576E+02  0.14533299702E+03  0.90445259065E+02 0.  0.
         24    2    1    2    0    0 -0.12302961089E+02 -0.59902515173E+02 -0.31650786232E+03  0.33197776976E+03  0.79324261939E+02 0.  0.
        -11    1    4    4    0    0 -0.18772703248E+02 -0.12612959179E+02 -0.16001974877E+02  0.27704951298E+02  0.00000000000E+00 0.  1.
         12    1    4    4    0    0  0.64697421588E+01 -0.47289555994E+02 -0.30050588744E+03  0.30427281846E+03  0.00000000000E+00 0. -1.
        -13    1    3    3    0    0  0.93341015429E+01  0.77101039211E+02  0.82988493052E+02  0.11366083617E+03  0.00000000000E+00 0.  1.
         13    1    3    3    0    0  0.30668087658E+02 -0.75595181966E+01 -0.23340644764E+01  0.31672160851E+02  0.00000000000E+00 0. -1.
         21    1    1    2  502  501 -0.27699228113E+02 -0.96390058411E+01 -0.28718542522E+02  0.41047683933E+02  0.00000000000E+00 0. -1.
<scales pt_clust_5="13000.00000" pt_clust_6="13000.00000" pt_clust_7="13000.00000" pt_clust_8="13000.00000" pt_clust_9="29.32844"></scales>
<clustering>
<clus scale="   29.328">  2  9  1 -1</clus>
<clus scale="   79.324">  5  6 -1 -1</clus>
<clus scale="   90.445">  7  8 -1 -1</clus>
<clus scale="  111.414">  2  5  1 -1</clus>
<clus scale="   29.328">  2  5  1 -1</clus>
</clustering>
</event>
<event>
 9    2  0.3402837E-005  0.1212117E+03  0.7546771E-02  0.1244485E+00
          2   -1    0    0  502    0  0.00000000000E+00  0.00000000000E+00  0.57410563305E+03  0.57410563305E+03  0.00000000000E+00 0. -1.
         -1   -1    0    0    0  501 -0.00000000000E+00 -0.00000000000E+00 -0.34322473999E+02  0.34322473999E+02  0.00000000000E+00 0.  1.
         23    2    1    2    0    0 -0.76406190642E+02  0.45311305919E+02  0.17411952898E+03  0.21561603246E+03  0.91003531099E+02 0.  0.
         24    2    1    2    0    0  0.73814039971E+02 -0.22246313710E+02  0.34225315112E+03  0.35984597631E+03  0.80053083904E+02 0.  0.
        -13    1    4    4    0    0  0.59850452982E+02  0.72244759754E+01  0.11108507335E+03  0.12638893661E+03  0.00000000000E+00 0.  1.
         14    1    4    4    0    0  0.13963586989E+02 -0.29470789685E+02  0.23116807777E+03  0.23345703970E+03  0.00000000000E+00 0. -1.
        -11    1    3    3    0    0 -0.95123023499E+02  0.22719765014E+02  0.13605999470E+03  0.16756162890E+03  0.00000000000E+00 0.  1.
         11    1    3    3    0    0  0.18716832856E+02  0.22591540906E+02  0.38059534272E+02  0.48054403562E+02  0.00000000000E+00 0. -1.
         21    1    1    2  502  501  0.25921506715E+01 -0.23064992210E+02  0.23410478957E+02  0.32966098279E+02  0.00000000000E+00 0.  1.
<scales pt_clust_5="13000.00000" pt_clust_6="13000.00000" pt_clust_7="13000.00000" pt_clust_8="13000.00000" pt_clust_9="23.21019"></scales>
<clustering>
<clus scale="   23.210">  2  9  1 -1</clus>
<clus scale="   80.053">  5  6 -1 -1</clus>
<clus scale="   91.004">  7  8 -1 -1</clus>
<clus scale="  113.222">  1  5  2 -1</clus>
<clus scale="  113.222">  1  5  2 -1</clus>
</clustering>
</event>
<event>
 9    2  0.3402837E-005  0.1109883E+03  0.7546771E-02  0.1263614E+00
         -1   -1    0    0    0  501 -0.00000000000E+00  0.00000000000E+00  0.42313718230E+03  0.42313718230E+03  0.00000000000E+00 0.  1.
          2   -1    0    0  502    0  0.00000000000E+00 -0.00000000000E+00 -0.13677641479E+03  0.13677641479E+03  0.00000000000E+00 0. -1.
         23    2    1    2    0    0 -0.86238220878E+02 -0.53780995632E+02  0.78313634976E+02  0.15824302037E+03  0.92619662278E+02 0.  0.
         24    2    1    2    0    0  0.55228542895E+02 -0.28371053628E+01 -0.67576308544E+02  0.11858844949E+03  0.80239776660E+02 0.  0.
        -13    1    4    4    0    0  0.73955377535E+02  0.76737889772E+00 -0.37366374769E+02  0.82862734085E+02  0.00000000000E+00 0.  1.
         14    1    4    4    0    0 -0.18726834639E+02 -0.36044842605E+01 -0.30209933774E+02  0.35725715403E+02  0.00000000000E+00 0. -1.
        -13    1    3    3    0    0 -0.68063737895E+02 -0.77237467829E+02  0.76967321033E+02  0.12853897214E+03  0.00000000000E+00 0. -1.
         13    1    3    3    0    0 -0.18174482983E+02  0.23456472197E+02  0.13463139429E+01  0.29704048223E+02  0.00000000000E+00 0.  1.
         21    1    1    2  502  501  0.31009677982E+02  0.56618100995E+02  0.27562344108E+03  0.28308212724E+03  0.00000000000E+00 0.  1.
<scales pt_clust_5="13000.00000" pt_clust_6="13000.00000" pt_clust_7="13000.00000" pt_clust_8="13000.00000" pt_clust_9="64.55393"></scales>
<clustering>
<clus scale="   64.554">  1  9  2 -1</clus>
<clus scale="   80.240">  5  6 -1 -1</clus>
<clus scale="   92.620">  7  8 -1 -1</clus>
<clus scale="  100.888">  2  5  1 -1</clus>
<clus scale="  100.888">  2  5  1 -1</clus>
</clustering>
</event>
<event>
 9    2  0.3402837E-005  0.1982006E+03  0.7546771E-02  0.1152266E+00
         -1   -1    0    0    0  501 -0.00000000000E+00  0.00000000000E+00  0.14247042835E+03  0.14247042835E+03  0.00000000000E+00 0.  1.
          2   -1    0    0  502    0  0.00000000000E+00 -0.00000000000E+00 -0.73327919379E+03  0.73327919379E+03  0.00000000000E+00 0. -1.
         24    2    1    2    0    0 -0.15440836296E+03  0.14910068484E+02  0.30736675041E+02  0.17735741118E+03  0.80291066823E+02 0.  0.
         23    2    1    2    0    0  0.17823478964E+03 -0.19122259553E+02 -0.63814780993E+03  0.66904804914E+03  0.90881041455E+02 0.  0.
        -11    1    3    3    0    0 -0.40441167054E+02 -0.26216241557E+02  0.28873705977E+02  0.56182472452E+02  0.00000000000E+00 0.  1.
         12    1    3    3    0    0 -0.11396719591E+03  0.41126310041E+02  0.18629690639E+01  0.12117493872E+03  0.00000000000E+00 0. -1.
        -11    1    4    4    0    0  0.26586334523E+02 -0.39564029773E+02 -0.13670200230E+03  0.14477424864E+03  0.00000000000E+00 0.  1.
         11    1    4    4    0    0  0.15164845512E+03  0.20441770220E+02 -0.50144580762E+03  0.52427380050E+03  0.00000000000E+00 0. -1.
         21    1    1    2  502  501 -0.23826426681E+02  0.42121910696E+01  0.16602369447E+02  0.29344161826E+02  0.00000000000E+00 0.  1.
<scales pt_clust_5="13000.00000" pt_clust_6="13000.00000" pt_clust_7="13000.00000" pt_clust_8="13000.00000" pt_clust_9="24.19589"></scales>
<clustering>
<clus scale="   24.196">  1  9  2 -1</clus>
<clus scale="   80.291">  5  6 -1 -1</clus>
<clus scale="   90.881">  7  8 -1 -1</clus>
<clus scale="  193.574">  1  5  2 -1</clus>
<clus scale="  198.201">  2  5  1 -1</clus>
</clustering>
</event>
<event>
 9    2  0.3402837E-005  0.9435375E+02  0.7546771E-02  0.1299786E+00
          2   -1    0    0  502    0  0.00000000000E+00  0.00000000000E+00  0.19303478609E+03  0.19303478609E+03  0.00000000000E+00 0. -1.
         -1   -1    0    0    0  501 -0.00000000000E+00 -0.00000000000E+00 -0.61176047094E+02  0.61176047094E+02  0.00000000000E+00 0.  1.
         23    2    1    2    0    0 -0.19523361021E+02 -0.18700466460E+02  0.38720962303E+02  0.10337898886E+03  0.91962129949E+02 0.  0.
         24    2    1    2    0    0  0.21657160737E+02 -0.53286382085E+01  0.95612151825E+02  0.12658161742E+03  0.79898656406E+02 0.  0.
        -13    1    4    4    0    0  0.32679004352E+02  0.19868686679E+02  0.14445715400E+02  0.40882278914E+02  0.00000000000E+00 0.  1.
         14    1    4    4    0    0 -0.11021843615E+02 -0.25197324888E+02  0.81166436425E+02  0.85699338504E+02  0.00000000000E+00 0. -1.
        -11    1    3    3    0    0  0.37142041631E+02 -0.57264851519E+01  0.17952895699E+02  0.41648893776E+02  0.00000000000E+00 0. -1.
         11    1    3    3    0    0 -0.56665402653E+02 -0.12973981308E+02  0.20768066604E+02  0.61730095085E+02  0.00000000000E+00 0.  1.
         21    1    1    2  502  501 -0.21337997161E+01  0.24029104668E+02 -0.24743751364E+01  0.24250226900E+02  0.00000000000E+00 0. -1.
<scales pt_clust_5="13000.00000" pt_clust_6="13000.00000" pt_clust_7="13000.00000" pt_clust_8="13000.00000" pt_clust_9="24.12366"></scales>
<clustering>
<clus scale="   24.124">  2  9  1 -1</clus>
<clus scale="   79.899">  5  6 -1 -1</clus>
<clus scale="   82.640">  1  5  2 -1</clus>
<clus scale="   91.962">  7  8 -1 -1</clus>
<clus scale="   82.640">  1  5  2 -1</clus>
</clustering>
</event>
<event>
 9    2  0.3402837E-005  0.1028624E+03  0.7546771E-02  0.1279895E+00
          2   -1    0    0  502    0  0.00000000000E+00  0.00000000000E+00  0.15612497745E+03  0.15612497745E+03  0.00000000000E+00 0. -1.
         -1   -1    0    0    0  501 -0.00000000000E+00 -0.00000000000E+00 -0.96619710117E+02  0.96619710117E+02  0.00000000000E+00 0.  1.
         24    2    1    2    0    0 -0.97781839353E+01  0.38523121465E+02 -0.64805713566E+01  0.89582045763E+02  0.80020630774E+02 0.  0.
         23    2    1    2    0    0  0.38724875434E+02 -0.36033970599E+02  0.78221387833E+02  0.13163780265E+03  0.91716206621E+02 0.  0.
        -11    1    3    3    0    0 -0.38900564674E+02  0.35161929211E+02  0.13448389416E+02  0.54133856095E+02  0.00000000000E+00 0.  1.
         12    1    3    3    0    0  0.29122380738E+02  0.33611922532E+01 -0.19928960773E+02  0.35448189668E+02  0.00000000000E+00 0. -1.
        -11    1    4    4    0    0  0.43244679282E+02 -0.72592692874E+01  0.90082319778E+02  0.10018794146E+03  0.00000000000E+00 0. -1.
         11    1    4    4    0    0 -0.45198038482E+01 -0.28774701311E+02 -0.11860931944E+02  0.31449861192E+02  0.00000000000E+00 0.  1.
         21    1    1    2  502  501 -0.28946691498E+02 -0.24891508657E+01 -0.12235549147E+02  0.31524839153E+02  0.00000000000E+00 0.  1.
<scales pt_clust_5="13000.00000" pt_clust_6="13000.00000" pt_clust_7="13000.00000" pt_clust_8="13000.00000" pt_clust_9="29.05352"></scales>
<clustering>
<clus scale="   29.054">  2  9  1 -1</clus>
<clus scale="   80.021">  5  6 -1 -1</clus>
<clus scale="   91.716">  7  8 -1 -1</clus>
<clus scale="   92.586">  2  5  1 -1</clus>
<clus scale="  102.862">  1  5  2 -1</clus>
</clustering>
</event>
<event>
 9    2  0.3402837E-005  0.1007057E+03  0.7546771E-02  0.1280865E+00
         -1   -1    0    0    0  501 -0.00000000000E+00  0.00000000000E+00  0.87786103492E+02  0.87786103492E+02  0.00000000000E+00 0.  1.
          2   -1    0    0  502    0  0.00000000000E+00 -0.00000000000E+00 -0.44873619176E+03  0.44873619176E+03  0.00000000000E+00 0. -1.
         23    2    1    2    0    0  0.30440515491E+02  0.14384976392E+02 -0.16955293347E+02  0.97220791701E+02  0.89614997837E+02 0.  0.
         24    2    1    2    0    0 -0.16024471649E+02 -0.34913114090E+02 -0.38119648140E+03  0.39443289275E+03  0.93759480726E+02 0.  0.
        -13    1    4    4    0    0 -0.39511474788E+02 -0.56783605493E+02 -0.26628216411E+03  0.27512129219E+03  0.00000000000E+00 0.  1.
         14    1    4    4    0    0  0.23487003139E+02  0.21870491404E+02 -0.11491431729E+03  0.11931160056E+03  0.00000000000E+00 0. -1.
        -13    1    3    3    0    0  0.15967711140E+02 -0.12305268199E+02 -0.49055713497E+02  0.53036312571E+02  0.00000000000E+00 0.  1.
         13    1    3    3    0    0  0.14472804352E+02  0.26690244591E+02  0.32100420150E+02  0.44184479130E+02  0.00000000000E+00 0. -1.
         21    1    1    2  502  501 -0.14416043843E+02  0.20528137697E+02  0.37201686484E+02  0.44868610794E+02  0.00000000000E+00 0.  1.
<scales pt_clust_5="13000.00000" pt_clust_6="13000.00000" pt_clust_7="13000.00000" pt_clust_8="13000.00000" pt_clust_9="25.08439"></scales>
<clustering>
<clus scale="   25.084">  1  9  2 -1</clus>
<clus scale="   89.615">  7  8 -1 -1</clus>
<clus scale="   93.759">  5  6 -1 -1</clus>
<clus scale="   96.859">  1  7  2 -1</clus>
<clus scale="  100.706">  2  5  1 -1</clus>
</clustering>
</event>
<event>
 9    2  0.3402837E-005  0.1022230E+03  0.7546771E-02  0.1280886E+00
         -1   -1    0    0    0  501 -0.00000000000E+00  0.00000000000E+00  0.10502643360E+03  0.10502643360E+03  0.00000000000E+00 0.  1.
          2   -1    0    0  502    0  0.00000000000E+00 -0.00000000000E+00 -0.28817508804E+03  0.28817508804E+03  0.00000000000E+00 0. -1.
         23    2    1    2    0    0  0.74305639717E+02  0.25425368047E+02 -0.40882218496E+02  0.12731874802E+03  0.91492788641E+02 0.  0.
         24    2    1    2    0    0 -0.26858730194E+02  0.40744130617E+02 -0.15704716606E+03  0.18312963616E+03  0.80567832962E+02 0.  0.
        -13    1    4    4    0    0 -0.53136734236E+02  0.10889867509E+02 -0.84946288417E+02  0.10078677322E+03  0.00000000000E+00 0.  1.
         14    1    4    4    0    0  0.26278004042E+02  0.29854263108E+02 -0.72100877638E+02  0.82342862947E+02  0.00000000000E+00 0. -1.
        -11    1    3    3    0    0  0.15184992698E-01 -0.22741076698E+02  0.10394062201E+02  0.25003866281E+02  0.00000000000E+00 0.  1.
         11    1    3    3    0    0  0.74290454724E+02  0.48166444745E+02 -0.51276280697E+02  0.10231488174E+03  0.00000000000E+00 0. -1.
         21    1    1    2  502  501 -0.47446909523E+02 -0.66169498664E+02  0.14780730113E+02  0.82753137460E+02  0.00000000000E+00 0.  1.
<scales pt_clust_5="13000.00000" pt_clust_6="13000.00000" pt_clust_7="13000.00000" pt_clust_8="13000.00000" pt_clust_9="81.42243"></scales>
<clustering>
<clus scale="   80.568">  5  6 -1 -1</clus>
<clus scale="   81.422">  1  9  2 -1</clus>
<clus scale="   91.493">  7  8 -1 -1</clus>
<clus scale="   92.573">  2  5  1 -1</clus>
<clus scale="   92.573">  2  5  1 -1</clus>
</clustering>
</event>
<event>
 9    2  0.3402837E-005  0.1414074E+03  0.7546771E-02  0.1223003E+00
          2   -1    0    0  502    0  0.00000000000E+00  0.00000000000E+00  0.62210481947E+03  0.62210481947E+03  0.00000000000E+00 0. -1.
         -1   -1    0    0    0  501 -0.00000000000E+00 -0.00000000000E+00 -0.44183844741E+03  0.44183844741E+03  0.00000000000E+00 0.  1.
         23    2    1    2    0    0  0.99345531756E+02 -0.25975597644E+02 -0.35893229240E+03  0.38453802611E+03  0.92156587649E+02 0.  0.
         24    2    1    2    0    0  0.50315854319E+02  0.56554980486E+02  0.51249040065E+03  0.52433441665E+03  0.80932185881E+02 0.  0.
        -13    1    4    4    0    0  0.37101092901E+02 -0.31636685708E+01  0.89379227920E+02  0.96825339022E+02  0.00000000000E+00 0.  1.
         14    1    4    4    0    0  0.13214761418E+02  0.59718649057E+02  0.42311117273E+03  0.42750907763E+03  0.00000000000E+00 0. -1.
        -13    1    3    3    0    0  0.15978858457E+02 -0.47248214885E+02 -0.16507691994E+03  0.17244740423E+03  0.00000000000E+00 0. -1.
         13    1    3    3    0    0  0.83366673299E+02  0.21272617240E+02 -0.19385537246E+03  0.21209062188E+03  0.00000000000E+00 0.  1.
         21    1    1    2  502  501 -0.14966138608E+03 -0.30579382842E+02  0.26708263798E+02  0.15507082412E+03  0.00000000000E+00 0.  1.
<scales pt_clust_5="13000.00000" pt_clust_6="13000.00000" pt_clust_7="13000.00000" pt_clust_8="13000.00000" pt_clust_9="107.25306"></scales>
<clustering>
<clus scale="   80.932">  5  6 -1 -1</clus>
<clus scale="   92.157">  7  8 -1 -1</clus>
<clus scale="  110.816">  1  5  2 -1</clus>
<clus scale="  107.253">  1  9  2 -1</clus>
<clus scale="  110.816">  1  5  2 -1</clus>
</clustering>
</event>
<event>
 9    2  0.3402837E-005  0.1347254E+03  0.7546771E-02  0.1224403E+00
          2   -1    0    0  502    0  0.00000000000E+00  0.00000000000E+00  0.29462183285E+03  0.29462183285E+03  0.00000000000E+00 0. -1.
         -1   -1    0    0    0  501 -0.00000000000E+00 -0.00000000000E+00 -0.16663428768E+03  0.16663428768E+03  0.00000000000E+00 0.  1.
         24    2    1    2    0    0 -0.71476429602E+02  0.17461363998E+02 -0.84425798465E+02  0.13578656421E+03  0.76788647278E+02 0.  0.
         23    2    1    2    0    0  0.96600417304E+02 -0.32602492973E+02  0.24536613336E+03  0.28135204399E+03  0.92519565965E+02 0.  0.
        -11    1    3    3    0    0 -0.78480870440E+02 -0.17588193487E+00 -0.86381056616E+02  0.11670888956E+03  0.00000000000E+00 0.  1.
         12    1    3    3    0    0  0.70044408379E+01  0.17637245933E+02  0.19552581508E+01  0.19077674649E+02  0.00000000000E+00 0. -1.
        -13    1    4    4    0    0  0.11455833782E+03 -0.21652294569E+02  0.20492567352E+03  0.23576888322E+03  0.00000000000E+00 0. -1.
         13    1    4    4    0    0 -0.17957920516E+02 -0.10950198405E+02  0.40440459831E+02  0.45583160769E+02  0.00000000000E+00 0.  1.
         21    1    1    2  502  501 -0.25123987703E+02  0.15141128975E+02 -0.32952789719E+02  0.44117512339E+02  0.00000000000E+00 0.  1.
<scales pt_clust_5="13000.00000" pt_clust_6="13000.00000" pt_clust_7="13000.00000" pt_clust_8="13000.00000" pt_clust_9="29.33374"></scales>
<clustering>
<clus scale="   29.334">  2  9  1 -1</clus>
<clus scale="   76.789">  5  6 -1 -1</clus>
<clus scale="   92.520">  7  8 -1 -1</clus>
<clus scale="  124.449">  2  5  1 -1</clus>
<clus scale="  134.725">  1  5  2 -1</clus>
</clustering>
</event>
<event>
 9    2  0.3402837E-005  0.9269538E+02  0.7546771E-02  0.1298804E+00
         -1   -1    0    0    0  501 -0.00000000000E+00  0.00000000000E+00  0.35044428286E+02  0.35044428286E+02  0.00000000000E+00 0.  1.
          2   -1    0    0  502    0  0.00000000000E+00 -0.00000000000E+00 -0.62932309013E+03  0.62932309013E+03  0.00000000000E+00 0. -1.
         23    2    1    2    0    0  0.22268998097E+02 -0.56134849593E+02 -0.23395261368E+03  0.25563169487E+03  0.83466809926E+02 0.  0.
         24    2    1    2    0    0 -0.69852941742E+01  0.30724036673E+02 -0.36831932060E+03  0.37802436928E+03  0.79060363530E+02 0.  0.
        -13    1    4    4    0    0 -0.43166343553E+02  0.15839506870E+02 -0.20077784776E+03  0.20597564746E+03  0.00000000000E+00 0.  1.
         14    1    4    4    0    0  0.36181049378E+02  0.14884529803E+02 -0.16754147283E+03  0.17204872182E+03  0.00000000000E+00 0. -1.
        -11    1    3    3    0    0  0.38638904418E+02 -0.11635464644E+02 -0.17692063176E+03  0.18146420836E+03  0.00000000000E+00 0. -1.
         11    1    3    3    0    0 -0.16369906321E+02 -0.44499384949E+02 -0.57031981915E+02  0.74167486509E+02  0.00000000000E+00 0.  1.
         21    1    1    2  502  501 -0.15283703923E+02  0.25410812920E+02  0.79932724326E+01  0.30711454264E+02  0.00000000000E+00 0.  1.
<scales pt_clust_5="13000.00000" pt_clust_6="13000.00000" pt_clust_7="13000.00000" pt_clust_8="13000.00000" pt_clust_9="29.65301"></scales>
<clustering>
<clus scale="   29.653">  1  9  2 -1</clus>
<clus scale="   79.060">  5  6 -1 -1</clus>
<clus scale="   83.467">  7  8 -1 -1</clus>
<clus scale="   88.748">  2  5  1 -1</clus>
<clus scale="   88.748">  2  5  1 -1</clus>
</clustering>
</event>
<event>
 9    2  0.4442649E-005  0.1011471E+03  0.7546771E-02  0.1284246E+00
          4   -1    0    0  502    0  0.00000000000E+00  0.00000000000E+00  0.18411395396E+03  0.18411395396E+03  0.00000000000E+00 0. -1.
         -3   -1    0    0    0  501 -0.00000000000E+00 -0.00000000000E+00 -0.41204504290E+03  0.41204504290E+03  0.00000000000E+00 0.  1.
         23    2    1    2    0    0 -0.21928393483E+02 -0.70963729909E+01 -0.35283013748E+03  0.36527343725E+03  0.91675324360E+02 0.  0.
         24    2    1    2    0    0  0.43407098603E+02 -0.40238105345E+00  0.16318452736E+03  0.18635080942E+03  0.78823195066E+02 0.  0.
        -11    1    4    4    0    0  0.12390861470E+01 -0.35014590489E+02  0.72487838912E+02  0.80511140048E+02  0.00000000000E+00 0.  1.
         12    1    4    4    0    0  0.42168012456E+02  0.34612209436E+02  0.90696688451E+02  0.10583966937E+03  0.00000000000E+00 0. -1.
        -13    1    3    3    0    0 -0.20041716008E+02 -0.48424889772E+02 -0.17407267575E+03  0.18179091499E+03  0.00000000000E+00 0. -1.
         13    1    3    3    0    0 -0.18866774750E+01  0.41328516781E+02 -0.17875746173E+03  0.18348252226E+03  0.00000000000E+00 0.  1.
         21    1    1    2  502  501 -0.21478705120E+02  0.74987540443E+01 -0.38285478819E+02  0.44534750187E+02  0.00000000000E+00 0. -1.
<scales pt_clust_5="13000.00000" pt_clust_6="13000.00000" pt_clust_7="13000.00000" pt_clust_8="13000.00000" pt_clust_9="22.75008"></scales>
<clustering>
<clus scale="   22.750">  2  9  1 -1</clus>
<clus scale="   78.823">  5  6 -1 -1</clus>
<clus scale="   89.663">  1  5  2 -1</clus>
<clus scale="   91.675">  7  8 -1 -1</clus>
<clus scale="   89.663">  1  5  2 -1</clus>
</clustering>
</event>
<event>
 9    2  0.3402837E-005  0.1800751E+03  0.7546771E-02  0.1189910E+00
         -1   -1    0    0    0  501 -0.00000000000E+00  0.00000000000E+00  0.16299849254E+03  0.16299849254E+03  0.00000000000E+00 0.  1.
          2   -1    0    0  502    0  0.00000000000E+00 -0.00000000000E+00 -0.44995749540E+03  0.44995749540E+03  0.00000000000E+00 0. -1.
         23    2    1    2    0    0  0.42477467080E+02  0.40338557692E+02  0.12989034249E+02  0.11003092690E+03  0.92230989469E+02 0.  0.
         24    2    1    2    0    0  0.30552140560E+02  0.14632798965E+03 -0.24077878582E+03  0.29393050659E+03  0.77944885357E+02 0.  0.
        -13    1    4    4    0    0 -0.23160587615E+02  0.18498910011E+02 -0.49216947094E+02  0.57453723740E+02  0.00000000000E+00 0.  1.
         14    1    4    4    0    0  0.53712728176E+02  0.12782907964E+03 -0.19156183873E+03  0.23647678285E+03  0.00000000000E+00 0. -1.
        -11    1    3    3    0    0 -0.24488452262E+02  0.33952562627E+02  0.75898762155E+01  0.42544882467E+02  0.00000000000E+00 0.  1.
         11    1    3    3    0    0  0.66965919342E+02  0.63859950651E+01  0.53991580337E+01  0.67486044437E+02  0.00000000000E+00 0. -1.
         21    1    1    2  502  501 -0.73029607640E+02 -0.18666654734E+03 -0.59169251288E+02  0.20899455444E+03  0.00000000000E+00 0.  1.
<scales pt_clust_5="13000.00000" pt_clust_6="13000.00000" pt_clust_7="13000.00000" pt_clust_8="13000.00000" pt_clust_9="162.33189"></scales>
<clustering>
<clus scale="   77.945">  5  6 -1 -1</clus>
<clus scale="   92.231">  7  8 -1 -1</clus>
<clus scale="  109.262">  1  7  2 -1</clus>
<clus scale="  162.332">  1  9  2 -1</clus>
<clus scale="  180.075">  2  5  1 -1</clus>
</clustering>
</event>
<event>
 9    2  0.3402837E-005  0.1947072E+03  0.7546771E-02  0.1190773E+00
          2   -1    0    0  502    0  0.00000000000E+00  0.00000000000E+00  0.37242502375E+03  0.37242502375E+03  0.00000000000E+00 0. -1.
         -1   -1    0    0    0  501 -0.00000000000E+00 -0.00000000000E+00 -0.18411417134E+03  0.18411417134E+03  0.00000000000E+00 0.  1.
         23    2    1    2    0    0  0.10103555257E+03  0.15444210580E+03  0.12348941189E+03  0.23969131937E+03  0.90231628629E+02 0.  0.
         24    2    1    2    0    0 -0.19653814736E+02 -0.69292188586E+01  0.11331633621E+03  0.14153445931E+03  0.82201731203E+02 0.  0.
        -11    1    4    4    0    0 -0.80747507001E+01 -0.19555807005E+02 -0.51994513979E+01  0.21786818982E+02  0.00000000000E+00 0.  1.
         12    1    4    4    0    0 -0.11579064035E+02  0.12626588147E+02  0.11851578761E+03  0.11974764033E+03  0.00000000000E+00 0. -1.
        -11    1    3    3    0    0  0.53516949796E+02  0.13757732857E+03  0.61843777941E+02  0.16005073609E+03  0.00000000000E+00 0. -1.
         11    1    3    3    0    0  0.47518602772E+02  0.16864777230E+02  0.61645633952E+02  0.79640583283E+02  0.00000000000E+00 0.  1.
         21    1    1    2  502  501 -0.81381737832E+02 -0.14751288694E+03 -0.48494895690E+02  0.17531341641E+03  0.00000000000E+00 0.  1.
<scales pt_clust_5="13000.00000" pt_clust_6="13000.00000" pt_clust_7="13000.00000" pt_clust_8="13000.00000" pt_clust_9="172.53738"></scales>
<clustering>
<clus scale="   82.202">  5  6 -1 -1</clus>
<clus scale="   84.802">  1  5  2 -1</clus>
<clus scale="   90.232">  7  8 -1 -1</clus>
<clus scale="  172.537">  2  9  1 -1</clus>
<clus scale="   84.802">  1  5  2 -1</clus>
</clustering>
</event>
<event>
 9    2  0.3402837E-005  0.1636072E+03  0.7546771E-02  0.1210542E+00
         -1   -1    0    0    0  501 -0.00000000000E+00  0.00000000000E+00  0.35532528987E+03  0.35532528987E+03  0.00000000000E+00 0.  1.
          2   -1    0    0  502    0  0.00000000000E+00 -0.00000000000E+00 -0.61565545756E+03  0.61565545756E+03  0.00000000000E+00 0. -1.
         24    2    1    2    0    0 -0.20545699442E+02 -0.42906578488E+02  0.73649726039E+01  0.93373318226E+02  0.80007708954E+02 0.  0.
         23    2    1    2    0    0  0.13813463655E+02 -0.13367411484E+03 -0.53394158320E+03  0.55805581739E+03  0.90956584651E+02 0.  0.
        -11    1    3    3    0    0 -0.46454482509E+02 -0.44739303604E+01  0.54106150380E+01  0.46982015209E+02  0.00000000000E+00 0.  1.
         12    1    3    3    0    0  0.25908783067E+02 -0.38432648128E+02  0.19543575660E+01  0.46391303017E+02  0.00000000000E+00 0. -1.
        -11    1    4    4    0    0 -0.26777760734E+02 -0.38888413732E+02 -0.28042798636E+03  0.28437512677E+03  0.00000000000E+00 0. -1.
         11    1    4    4    0    0  0.40591224390E+02 -0.94785701109E+02 -0.25351359684E+03  0.27368069061E+03  0.00000000000E+00 0.  1.
         21    1    1    2  502  501  0.67322357862E+01  0.17658069333E+03  0.26624644291E+03  0.31955161182E+03  0.00000000000E+00 0.  1.
<scales pt_clust_5="13000.00000" pt_clust_6="13000.00000" pt_clust_7="13000.00000" pt_clust_8="13000.00000" pt_clust_9="135.99341"></scales>
<clustering>
<clus scale="   80.008">  5  6 -1 -1</clus>
<clus scale="   90.957">  7  8 -1 -1</clus>
<clus scale="   93.082">  1  5  2 -1</clus>
<clus scale="  135.993">  1  9  2 -1</clus>
<clus scale="  163.607">  2  5  1 -1</clus>
</clustering>
</event>
<event>
 9    2  0.3402837E-005  0.1523506E+03  0.7546771E-02  0.1199167E+00
          2   -1    0    0  502    0  0.00000000000E+00  0.00000000000E+00  0.29667336756E+03  0.29667336756E+03  0.00000000000E+00 0. -1.
         -1   -1    0    0    0  501 -0.00000000000E+00 -0.00000000000E+00 -0.50415331532E+03  0.50415331532E+03  0.00000000000E+00 0.  1.
         24    2    1    2    0    0  0.24127510125E+02 -0.14327060366E+03 -0.28661119861E+03  0.33097219876E+03  0.79297002228E+02 0.  0.
         23    2    1    2    0    0 -0.17572166379E+02  0.12142047250E+03  0.25287212893E+03  0.29462237097E+03  0.88353357105E+02 0.  0.
        -11    1    3    3    0    0  0.32913641711E+02 -0.15032386235E+03 -0.27210176384E+03  0.31260188945E+03  0.00000000000E+00 0.  1.
         12    1    3    3    0    0 -0.87861315862E+01  0.70532586981E+01 -0.14509434770E+02  0.18370309302E+02  0.00000000000E+00 0. -1.
        -13    1    4    4    0    0  0.24685867519E+02  0.24966705227E+02  0.23546850158E+02  0.42275082228E+02  0.00000000000E+00 0.  1.
         13    1    4    4    0    0 -0.42258033898E+02  0.96453767273E+02  0.22932527877E+03  0.25234728874E+03  0.00000000000E+00 0. -1.
         21    1    1    2  502  501 -0.65553437460E+01  0.21850131155E+02 -0.17374087808E+03  0.17523211315E+03  0.00000000000E+00 0.  1.
<scales pt_clust_5="13000.00000" pt_clust_6="13000.00000" pt_clust_7="13000.00000" pt_clust_8="13000.00000" pt_clust_9="22.81229"></scales>
<clustering>
<clus scale="   22.812">  2  9  1 -1</clus>
<clus scale="   79.297">  5  6 -1 -1</clus>
<clus scale="   88.353">  7  8 -1 -1</clus>
<clus scale="  147.283">  2  5  1 -1</clus>
<clus scale="  152.351">  1  5  2 -1</clus>
</clustering>
</event>
<event>
 9    2  0.3402837E-005  0.1231397E+03  0.7546771E-02  0.1258532E+00
          4   -1    0    0  502    0  0.00000000000E+00  0.00000000000E+00  0.17953873218E+03  0.17953873218E+03  0.00000000000E+00 0. -1.
         -3   -1    0    0    0  501 -0.00000000000E+00 -0.00000000000E+00 -0.19074082517E+03  0.19074082517E+03  0.00000000000E+00 0.  1.
         23    2    1    2    0    0  0.68636257932E+02 -0.24040821779E+02 -0.29351871537E+02  0.12185453413E+03  0.93263594782E+02 0.  0.
         24    2    1    2    0    0  0.13823796644E+02  0.10338379195E+02  0.10159076564E+03  0.13031568463E+03  0.79771640065E+02 0.  0.
        -11    1    4    4    0    0 -0.25992785536E+02  0.26269256803E+02  0.60672906760E+02  0.71041539732E+02  0.00000000000E+00 0.  1.
         12    1    4    4    0    0  0.39816582179E+02 -0.15930877608E+02  0.40917858885E+02  0.59274144899E+02  0.00000000000E+00 0. -1.
        -13    1    3    3    0    0  0.85047694206E+02 -0.40754811169E+02 -0.28062157161E+02  0.98394865657E+02  0.00000000000E+00 0. -1.
         13    1    3    3    0    0 -0.16411436274E+02  0.16713989390E+02 -0.12897143762E+01  0.23459668477E+02  0.00000000000E+00 0.  1.
         21    1    1    2  502  501 -0.82460054576E+02  0.13702442585E+02 -0.83440987101E+02  0.11810933859E+03  0.00000000000E+00 0.  1.
<scales pt_clust_5="13000.00000" pt_clust_6="13000.00000" pt_clust_7="13000.00000" pt_clust_8="13000.00000" pt_clust_9="80.40704"></scales>
<clustering>
<clus scale="   79.772">  5  6 -1 -1</clus>
<clus scale="   81.618">  1  5  2 -1</clus>
<clus scale="   80.407">  2  9  1 -1</clus>
<clus scale="   93.264">  7  8 -1 -1</clus>
<clus scale="   81.618">  1  5  2 -1</clus>
</clustering>
</event>
<event>
 9    2  0.3402837E-005  0.9951414E+02  0.7546771E-02  0.1291916E+00
          2   -1    0    0  502    0  0.00000000000E+00  0.00000000000E+00  0.24817977558E+03  0.24817977558E+03  0.00000000000E+00 0. -1.
         -1   -1    0    0    0  501 -0.00000000000E+00 -0.00000000000E+00 -0.13430125984E+03  0.13430125984E+03  0.00000000000E+00 0.  1.
         23    2    1    2    0    0 -0.28875373734E+02  0.25714522301E+02 -0.49272540728E+02  0.11575141604E+03  0.97342607219E+02 0.  0.
         24    2    1    2    0    0 -0.27983426453E+01 -0.20191181347E+02  0.20111581280E+03  0.21697970151E+03  0.78848628295E+02 0.  0.
        -11    1    4    4    0    0 -0.30182787546E+02 -0.11476417570E+02  0.32076325755E+02  0.45514827235E+02  0.00000000000E+00 0.  1.
         12    1    4    4    0    0  0.27384444901E+02 -0.87147637778E+01  0.16903948705E+03  0.17146487428E+03  0.00000000000E+00 0. -1.
        -13    1    3    3    0    0 -0.53191699921E+02  0.46059439676E+02 -0.45572723280E+02  0.83831390486E+02  0.00000000000E+00 0.  1.
         13    1    3    3    0    0  0.24316326187E+02 -0.20344917374E+02 -0.36998174481E+01  0.31920025554E+02  0.00000000000E+00 0. -1.
         21    1    1    2  502  501  0.31673716379E+02 -0.55233409537E+01 -0.37964756331E+02  0.49749917867E+02  0.00000000000E+00 0.  1.
<scales pt_clust_5="13000.00000" pt_clust_6="13000.00000" pt_clust_7="13000.00000" pt_clust_8="13000.00000" pt_clust_9="32.15170"></scales>
<clustering>
<clus scale="   32.152">  2  9  1 -1</clus>
<clus scale="   78.849">  5  6 -1 -1</clus>
<clus scale="   81.514">  1  5  2 -1</clus>
<clus scale="   97.343">  7  8 -1 -1</clus>
<clus scale="   81.514">  1  5  2 -1</clus>
</clustering>
</event>
<event>
 9    2  0.3402837E-005  0.1663760E+03  0.7546771E-02  0.1205089E+00
         -1   -1    0    0    0  501 -0.00000000000E+00  0.00000000000E+00  0.23594534691E+03  0.23594534691E+03  0.00000000000E+00 0.  1.
          2   -1    0    0  502    0  0.00000000000E+00 -0.00000000000E+00 -0.73462167079E+03  0.73462167079E+03  0.00000000000E+00 0. -1.
         23    2    1    2    0    0  0.99311819344E+02  0.87521488126E+02  0.15973468261E+03  0.22651632664E+03  0.90948496751E+02 0.  0.
         24    2    1    2    0    0  0.44331533810E+02  0.34929692237E+02 -0.45826667885E+03  0.46894079235E+03  0.81925267752E+02 0.  0.
        -13    1    4    4    0    0 -0.51322780959E+01  0.27063570961E+02 -0.45808281839E+02  0.53452556877E+02  0.00000000000E+00 0.  1.
         14    1    4    4    0    0  0.49463811906E+02  0.78661212764E+01 -0.41245839701E+03  0.41548823547E+03  0.00000000000E+00 0. -1.
        -13    1    3    3    0    0  0.44888089809E+02  0.93173822872E+02  0.12256062911E+03  0.16036648554E+03  0.00000000000E+00 0.  1.
         13    1    3    3    0    0  0.54423729535E+02 -0.56523347460E+01  0.37174053499E+02  0.66149841104E+02  0.00000000000E+00 0. -1.
         21    1    1    2  502  501 -0.14364335315E+03 -0.12245118036E+03 -0.20014432765E+03  0.27510989871E+03  0.00000000000E+00 0. -1.
<scales pt_clust_5="13000.00000" pt_clust_6="13000.00000" pt_clust_7="13000.00000" pt_clust_8="13000.00000" pt_clust_9="139.31748"></scales>
<clustering>
<clus scale="   81.925">  5  6 -1 -1</clus>
<clus scale="   90.948">  7  8 -1 -1</clus>
<clus scale="   99.484">  2  5  1 -1</clus>
<clus scale="  139.317">  2  9  1 -1</clus>
<clus scale="   99.484">  2  5  1 -1</clus>
</clustering>
</event>
<event>
 9    2  0.3402837E-005  0.1762072E+03  0.7546771E-02  0.1194745E+00
          2   -1    0    0  502    0  0.00000000000E+00  0.00000000000E+00  0.10792736703E+04  0.10792736703E+04  0.00000000000E+00 0. -1.
         -1   -1    0    0    0  501 -0.00000000000E+00 -0.00000000000E+00 -0.13154323243E+03  0.13154323243E+03  0.00000000000E+00 0.  1.
         23    2    1    2    0    0 -0.45679857859E+02 -0.19962529601E+02 -0.47608444785E+02  0.11514745065E+03  0.92234588821E+02 0.  0.
         24    2    1    2    0    0  0.14067832509E+02  0.15994044138E+03  0.91236459448E+03  0.92990495517E+03  0.80840730356E+02 0.  0.
        -13    1    4    4    0    0  0.43168478089E+02  0.56156351248E+02  0.31176004030E+03  0.31970513917E+03  0.00000000000E+00 0.  1.
         14    1    4    4    0    0 -0.29100645580E+02  0.10378409013E+03  0.60060455419E+03  0.61019981600E+03  0.00000000000E+00 0. -1.
        -11    1    3    3    0    0  0.26726560401E+02  0.67700426629E+01 -0.10446741045E+02  0.29483502285E+02  0.00000000000E+00 0.  1.
         11    1    3    3    0    0 -0.72406418260E+02 -0.26732572264E+02 -0.37161703740E+02  0.85663948368E+02  0.00000000000E+00 0. -1.
         21    1    1    2  502  501  0.31612025351E+02 -0.13997791178E+03  0.82974288153E+02  0.16576449688E+03  0.00000000000E+00 0.  1.
<scales pt_clust_5="13000.00000" pt_clust_6="13000.00000" pt_clust_7="13000.00000" pt_clust_8="13000.00000" pt_clust_9="156.56865"></scales>
<clustering>
<clus scale="   80.841">  5  6 -1 -1</clus>
<clus scale="   92.235">  7  8 -1 -1</clus>
<clus scale="  104.845">  2  7  1 -1</clus>
<clus scale="  156.569">  2  9  1 -1</clus>
<clus scale="  176.207">  1  5  2 -1</clus>
</clustering>
</event>
<event>
 9    2  0.3402837E-005  0.1578921E+03  0.7546771E-02  0.1192428E+00
         -1   -1    0    0    0  501 -0.00000000000E+00  0.00000000000E+00  0.22145721651E+02  0.22145721651E+02  0.00000000000E+00 0.  1.
          2   -1    0    0  502    0  0.00000000000E+00 -0.00000000000E+00 -0.18297570967E+04  0.18297570967E+04  0.00000000000E+00 0. -1.
         23    2    1    2    0    0 -0.30560822635E+02 -0.11608330301E+03 -0.36374300243E+03  0.38974792860E+03  0.72008186423E+02 0.  0.
         24    2    1    2    0    0  0.53812905096E+02  0.13056040623E+03 -0.14060545672E+04  0.14154630303E+04  0.81266818862E+02 0.  0.
        -13    1    4    4    0    0  0.41894346559E+02  0.82361123670E+02 -0.52941936582E+03  0.53742288365E+03  0.00000000000E+00 0.  1.
         14    1    4    4    0    0  0.11918558537E+02  0.48199282556E+02 -0.87663520134E+03  0.87804014664E+03  0.00000000000E+00 0. -1.
        -11    1    3    3    0    0 -0.39354172545E+02 -0.83847316638E+02 -0.17431131879E+03  0.19739189259E+03  0.00000000000E+00 0.  1.
         11    1    3    3    0    0  0.87933499099E+01 -0.32235986373E+02 -0.18943168364E+03  0.19235603601E+03  0.00000000000E+00 0. -1.
         21    1    1    2  502  501 -0.23252082460E+02 -0.14477103215E+02 -0.37813805412E+02  0.46691859418E+02  0.00000000000E+00 0.  1.
<scales pt_clust_5="13000.00000" pt_clust_6="13000.00000" pt_clust_7="13000.00000" pt_clust_8="13000.00000" pt_clust_9="27.39062"></scales>
<clustering>
<clus scale="   27.391">  1  9  2 -1</clus>
<clus scale="   72.008">  7  8 -1 -1</clus>
<clus scale="   81.267">  5  6 -1 -1</clus>
<clus scale="  153.332">  1  7  2 -1</clus>
<clus scale="  157.892">  2  5  1 -1</clus>
</clustering>
</event>
<event>
 9    2  0.3402837E-005  0.2359539E+03  0.7546771E-02  0.1153981E+00
          2   -1    0    0  502    0  0.00000000000E+00  0.00000000000E+00  0.21288336380E+04  0.21288336380E+04  0.00000000000E+00 0. -1.
         -1   -1    0    0    0  501 -0.00000000000E+00 -0.00000000000E+00 -0.73755003027E+02  0.73755003027E+02  0.00000000000E+00 0.  1.
         23    2    1    2    0    0 -0.71236185212E+02  0.20364490243E+03  0.18054937309E+03  0.29672807216E+03  0.94359060574E+02 0.  0.
         24    2    1    2    0    0 -0.69717894854E+02 -0.22480718348E+02  0.47344963438E+03  0.48610261876E+03  0.82311798148E+02 0.  0.
        -11    1    4    4    0    0 -0.82316902199E+02  0.54659036662E+00  0.31967108161E+03  0.33009994179E+03  0.00000000000E+00 0.  1.
         12    1    4    4    0    0  0.12599007345E+02 -0.23027308714E+02  0.15377855276E+03  0.15600267697E+03  0.00000000000E+00 0. -1.
        -11    1    3    3    0    0 -0.64638720035E+02  0.71056230898E+02  0.41981184779E+02  0.10483115926E+03  0.00000000000E+00 0.  1.
         11    1    3    3    0    0 -0.65974651771E+01  0.13258867154E+03  0.13856818831E+03  0.19189691289E+03  0.00000000000E+00 0. -1.
         21    1    1    2  502  501  0.14095408007E+03 -0.18116418409E+03  0.14010796275E+04  0.14197579501E+04  0.00000000000E+00 0. -1.
<scales pt_clust_5="13000.00000" pt_clust_6="13000.00000" pt_clust_7="13000.00000" pt_clust_8="13000.00000" pt_clust_9="216.26514"></scales>
<clustering>
<clus scale="   82.312">  5  6 -1 -1</clus>
<clus scale="   94.359">  7  8 -1 -1</clus>
<clus scale="  110.187">  1  5  2 -1</clus>
<clus scale="  216.265">  1  9  2 -1</clus>
<clus scale="  110.187">  1  5  2 -1</clus>
</clustering>
</event>
<event>
 9    2  0.3402837E-005  0.1182572E+03  0.7546771E-02  0.1248760E+00
         -1   -1    0    0    0  501 -0.00000000000E+00  0.00000000000E+00  0.14505038076E+03  0.14505038076E+03  0.00000000000E+00 0.  1.
          2   -1    0    0  502    0  0.00000000000E+00 -0.00000000000E+00 -0.30467399828E+03  0.30467399828E+03  0.00000000000E+00 0. -1.
         23    2    1    2    0    0  0.47261495697E+02  0.41325044733E+02 -0.17398899419E+02  0.11271974837E+03  0.91987019055E+02 0.  0.
         24    2    1    2    0    0 -0.69645594668E+02 -0.35346402074E+02 -0.22425512278E+03  0.25176508969E+03  0.83638647170E+02 0.  0.
        -13    1    4    4    0    0  0.92097890920E-01 -0.26954714819E+02 -0.13761059094E+03  0.14022567480E+03  0.00000000000E+00 0.  1.
         14    1    4    4    0    0 -0.69737692559E+02 -0.83916872552E+01 -0.86644531834E+02  0.11153941490E+03  0.00000000000E+00 0. -1.
        -13    1    3    3    0    0  0.36708628406E+02  0.23635719349E+02  0.35295770267E+02  0.56142337210E+02  0.00000000000E+00 0.  1.
         13    1    3    3    0    0  0.10552867291E+02  0.17689325384E+02 -0.52694669686E+02  0.56577411164E+02  0.00000000000E+00 0. -1.
         21    1    1    2  502  501  0.22384098971E+02 -0.59786426591E+01  0.82030404674E+02  0.85239540976E+02  0.00000000000E+00 0.  1.
<scales pt_clust_5="13000.00000" pt_clust_6="13000.00000" pt_clust_7="13000.00000" pt_clust_8="13000.00000" pt_clust_9="23.16877"></scales>
<clustering>
<clus scale="   23.169">  1  9  2 -1</clus>
<clus scale="   83.639">  5  6 -1 -1</clus>
<clus scale="   91.987">  7  8 -1 -1</clus>
<clus scale="  111.886">  2  5  1 -1</clus>
<clus scale="  111.886">  2  5  1 -1</clus>
</clustering>
</event>
<event>
 9    2  0.3402837E-005  0.1058564E+03  0.7546771E-02  0.1274149E+00
          2   -1    0    0  502    0  0.00000000000E+00  0.00000000000E+00  0.21443408996E+03  0.21443408996E+03  0.00000000000E+00 0. -1.
         -1   -1    0    0    0  501 -0.00000000000E+00 -0.00000000000E+00 -0.19307890251E+03  0.19307890251E+03  0.00000000000E+00 0.  1.
         24    2    1    2    0    0 -0.71131764984E+02  0.22871089116E+02  0.43171774208E+02  0.11764964242E+03  0.79967628242E+02 0.  0.
         23    2    1    2    0    0  0.37064816839E+02 -0.11110470908E+02  0.11245273857E+03  0.15084133445E+03  0.92791414231E+02 0.  0.
        -11    1    3    3    0    0 -0.24872133216E+02 -0.14851683354E+02  0.49778871131E+02  0.57594544188E+02  0.00000000000E+00 0.  1.
         12    1    3    3    0    0 -0.46259631768E+02  0.37722772470E+02 -0.66070969227E+01  0.60055098234E+02  0.00000000000E+00 0. -1.
        -13    1    4    4    0    0  0.38218115141E+02  0.95633825634E+01  0.30698645913E+01  0.39515904135E+02  0.00000000000E+00 0.  1.
         13    1    4    4    0    0 -0.11532983024E+01 -0.20673853471E+02  0.10938287398E+03  0.11132543031E+03  0.00000000000E+00 0. -1.
         21    1    1    2  502  501  0.34066948146E+02 -0.11760618208E+02 -0.13426932533E+03  0.13902201560E+03  0.00000000000E+00 0.  1.
<scales pt_clust_5="13000.00000" pt_clust_6="13000.00000" pt_clust_7="13000.00000" pt_clust_8="13000.00000" pt_clust_9="36.03983"></scales>
<clustering>
<clus scale="   36.040">  2  9  1 -1</clus>
<clus scale="   79.968">  5  6 -1 -1</clus>
<clus scale="   92.791">  7  8 -1 -1</clus>
<clus scale="   94.816">  2  5  1 -1</clus>
<clus scale="  105.856">  1  5  2 -1</clus>
</clustering>
</event>
<event>
 9    2  0.3402837E-005  0.1727915E+03  0.7546771E-02  0.1176405E+00
         -1   -1    0    0    0  501 -0.00000000000E+00  0.00000000000E+00  0.76998064297E+02  0.76998064297E+02  0.00000000000E+00 0.  1.
          2   -1    0    0  502    0  0.00000000000E+00 -0.00000000000E+00 -0.91826609824E+03  0.91826609824E+03  0.00000000000E+00 0. -1.
         23    2    1    2    0    0 -0.15029405365E+03  0.49833931473E+02 -0.21111756983E+03  0.27925193369E+03  0.91319717984E+02 0.  0.
         24    2    1    2    0    0  0.14499942888E+03  0.30421370618E+02 -0.61033230669E+03  0.63317681414E+03  0.80355828702E+02 0.  0.
        -13    1    4    4    0    0  0.53427865283E+02 -0.26556038379E+02 -0.18495839405E+03  0.19434342668E+03  0.00000000000E+00 0.  1.
         14    1    4    4    0    0  0.91571563599E+02  0.56977408996E+02 -0.42537391264E+03  0.43883338746E+03  0.00000000000E+00 0. -1.
        -13    1    3    3    0    0 -0.25517242457E+02 -0.26138629162E+02 -0.37501103369E+02  0.52351603136E+02  0.00000000000E+00 0. -1.
         13    1    3    3    0    0 -0.12477681119E+03  0.75972560635E+02 -0.17361646646E+03  0.22690033056E+03  0.00000000000E+00 0.  1.
         21    1    1    2  502  501  0.52946247635E+01 -0.80255302091E+02 -0.19818157416E+02  0.82835414700E+02  0.00000000000E+00 0. -1.
<scales pt_clust_5="13000.00000" pt_clust_6="13000.00000" pt_clust_7="13000.00000" pt_clust_8="13000.00000" pt_clust_9="80.42976"></scales>
<clustering>
<clus scale="   80.356">  5  6 -1 -1</clus>
<clus scale="   80.430">  1  9  2 -1</clus>
<clus scale="   91.320">  7  8 -1 -1</clus>
<clus scale="  167.256">  2  5  1 -1</clus>
<clus scale="  167.256">  2  5  1 -1</clus>
</clustering>
</event>
<event>
 9    2  0.3402837E-005  0.1279585E+03  0.7546771E-02  0.1236596E+00
         -1   -1    0    0    0  501 -0.00000000000E+00  0.00000000000E+00  0.44375568225E+03  0.44375568225E+03  0.00000000000E+00 0.  1.
          2   -1    0    0  502    0  0.00000000000E+00 -0.00000000000E+00 -0.73003452411E+02  0.73003452411E+02  0.00000000000E+00 0. -1.
         23    2    1    2    0    0  0.50428458137E+02  0.84926657660E+02  0.26202644358E+03  0.29734079562E+03  0.99990624719E+02 0.  0.
         24    2    1    2    0    0 -0.57002801875E+02 -0.51231370186E+02  0.57331135220E+01  0.11085460186E+03  0.79886803981E+02 0.  0.
        -11    1    4    4    0    0 -0.47982327522E+02  0.78845732452E+01  0.13717676253E+02  0.50523706232E+02  0.00000000000E+00 0.  1.
         12    1    4    4    0    0 -0.90204743532E+01 -0.59115943431E+02 -0.79845627310E+01  0.60330895628E+02  0.00000000000E+00 0. -1.
        -13    1    3    3    0    0  0.50215150931E+02  0.45216745821E+02  0.24497583546E+03  0.25412452744E+03  0.00000000000E+00 0.  1.
         13    1    3    3    0    0  0.21330720592E+00  0.39709911839E+02  0.17050608121E+02  0.43216268182E+02  0.00000000000E+00 0. -1.
         21    1    1    2  502  501  0.65743437384E+01 -0.33695287474E+02  0.10299267274E+03  0.10856373718E+03  0.00000000000E+00 0. -1.
<scales pt_clust_5="13000.00000" pt_clust_6="13000.00000" pt_clust_7="13000.00000" pt_clust_8="13000.00000" pt_clust_9="34.33066"></scales>
<clustering>
<clus scale="   34.331">  1  9  2 -1</clus>
<clus scale="   79.887">  5  6 -1 -1</clus>
<clus scale="   99.991">  7  8 -1 -1</clus>
<clus scale="  112.948">  2  5  1 -1</clus>
<clus scale="  112.948">  2  5  1 -1</clus>
</clustering>
</event>
<event>
 9    2  0.3402837E-005  0.1211888E+03  0.7546771E-02  0.1244730E+00
         -1   -1    0    0    0  501 -0.00000000000E+00  0.00000000000E+00  0.49810116434E+02  0.49810116434E+02  0.00000000000E+00 0.  1.
          2   -1    0    0  502    0  0.00000000000E+00 -0.00000000000E+00 -0.60400833670E+03  0.60400833670E+03  0.00000000000E+00 0. -1.
         24    2    1    2    0    0  0.20756492892E+02  0.38624230875E+02 -0.60089615696E+02  0.10851815874E+03  0.79011174237E+02 0.  0.
         23    2    1    2    0    0 -0.55736048476E+02 -0.75586100475E+02 -0.47216886799E+03  0.48988277772E+03  0.90674860475E+02 0.  0.
        -11    1    3    3    0    0  0.17130174362E+02  0.53245324443E+02 -0.10784668436E+02  0.56963291003E+02  0.00000000000E+00 0.  1.
         12    1    3    3    0    0  0.36263185296E+01 -0.14621093568E+02 -0.49304947260E+02  0.51554867738E+02  0.00000000000E+00 0. -1.
        -13    1    4    4    0    0 -0.49461903643E+02 -0.96355304369E+02 -0.37544223397E+03  0.39075272953E+03  0.00000000000E+00 0.  1.
         13    1    4    4    0    0 -0.62741448334E+01  0.20769203894E+02 -0.96726634028E+02  0.99130048190E+02  0.00000000000E+00 0. -1.
         21    1    1    2  502  501  0.34979555584E+02  0.36961869600E+02 -0.21939736582E+02  0.55417516676E+02  0.00000000000E+00 0.  1.
<scales pt_clust_5="13000.00000" pt_clust_6="13000.00000" pt_clust_7="13000.00000" pt_clust_8="13000.00000" pt_clust_9="50.88958"></scales>
<clustering>
<clus scale="   50.890">  1  9  2 -1</clus>
<clus scale="   79.011">  5  6 -1 -1</clus>
<clus scale="   90.675">  7  8 -1 -1</clus>
<clus scale="  112.728">  1  5  2 -1</clus>
<clus scale="  121.189">  2  5  1 -1</clus>
</clustering>
</event>
<event>
 9    2  0.3402837E-005  0.1615312E+03  0.7546771E-02  0.1188615E+00
          2   -1    0    0  502    0  0.00000000000E+00  0.00000000000E+00  0.25763373921E+04  0.25763373921E+04  0.00000000000E+00 0. -1.
         -1   -1    0    0    0  501 -0.00000000000E+00 -0.00000000000E+00 -0.21629400540E+02  0.21629400540E+02  0.00000000000E+00 0.  1.
         23    2    1    2    0    0 -0.11757853426E+03 -0.16715771396E+02  0.62139881606E+03  0.63912395952E+03  0.90767936522E+02 0.  0.
         24    2    1    2    0    0  0.13490245258E+03  0.35364663597E+02  0.19255201357E+04  0.19322238837E+04  0.80075044864E+02 0.  0.
        -13    1    4    4    0    0  0.20321718564E+02  0.66057598063E+01  0.76344494896E+02  0.79278560840E+02  0.00000000000E+00 0.  1.
         14    1    4    4    0    0  0.11458073401E+03  0.28758903791E+02  0.18491756408E+04  0.18529453229E+04  0.00000000000E+00 0. -1.
        -13    1    3    3    0    0 -0.10053388388E+03 -0.49344897434E+02  0.44010476498E+03  0.45413014089E+03  0.00000000000E+00 0.  1.
         13    1    3    3    0    0 -0.17044650374E+02  0.32629126038E+02  0.18129405109E+03  0.18499381863E+03  0.00000000000E+00 0. -1.
         21    1    1    2  502  501 -0.17323918320E+02 -0.18648892202E+02  0.77890398489E+01  0.26618949417E+02  0.00000000000E+00 0.  1.
<scales pt_clust_5="13000.00000" pt_clust_6="13000.00000" pt_clust_7="13000.00000" pt_clust_8="13000.00000" pt_clust_9="25.45387"></scales>
<clustering>
<clus scale="   25.454">  2  9  1 -1</clus>
<clus scale="   80.075">  5  6 -1 -1</clus>
<clus scale="   90.768">  7  8 -1 -1</clus>
<clus scale="  155.774">  1  5  2 -1</clus>
<clus scale="  155.774">  1  5  2 -1</clus>
</clustering>
</event>
<event>
 9    2  0.3402837E-005  0.3407569E+03  0.7546771E-02  0.1066754E+00
         -1   -1    0    0    0  501 -0.00000000000E+00  0.00000000000E+00  0.22675751020E+03  0.22675751020E+03  0.00000000000E+00 0.  1.
          2   -1    0    0  502    0  0.00000000000E+00 -0.00000000000E+00 -0.83452698830E+03  0.83452698830E+03  0.00000000000E+00 0. -1.
         24    2    1    2    0    0 -0.32505859039E+03 -0.24712617727E+01 -0.45586044922E+01  0.33486783061E+03  0.80290029156E+02 0.  0.
         23    2    1    2    0    0  0.32785000760E+03  0.35188116911E+02 -0.60340845759E+03  0.69358035171E+03  0.90708910978E+02 0.  0.
        -11    1    3    3    0    0 -0.30667535194E+03 -0.21133661996E+02 -0.11995636328E+02  0.30763663379E+03  0.00000000000E+00 0.  1.
         12    1    3    3    0    0 -0.18383238456E+02  0.18662400224E+02  0.74370318362E+01  0.27231196830E+02  0.00000000000E+00 0. -1.
        -11    1    4    4    0    0  0.84985836639E+02  0.47957896535E+02 -0.14743504297E+03  0.17680397101E+03  0.00000000000E+00 0.  1.
         11    1    4    4    0    0  0.24286417097E+03 -0.12769779624E+02 -0.45597341462E+03  0.51677638070E+03  0.00000000000E+00 0. -1.
         21    1    1    2  502  501 -0.27914172101E+01 -0.32716855138E+02  0.19758398420E+00  0.32836316170E+02  0.00000000000E+00 0.  1.
<scales pt_clust_5="13000.00000" pt_clust_6="13000.00000" pt_clust_7="13000.00000" pt_clust_8="13000.00000" pt_clust_9="32.83572"></scales>
<clustering>
<clus scale="   32.836">  1  9  2 -1</clus>
<clus scale="   80.290">  5  6 -1 -1</clus>
<clus scale="   90.709">  7  8 -1 -1</clus>
<clus scale="  338.133">  1  5  2 -1</clus>
<clus scale="  340.757">  2  5  1 -1</clus>
</clustering>
</event>
<event>
 9    2  0.3402837E-005  0.2305458E+03  0.7546771E-02  0.1126549E+00
         -1   -1    0    0    0  501 -0.00000000000E+00  0.00000000000E+00  0.13522171473E+03  0.13522171473E+03  0.00000000000E+00 0.  1.
          2   -1    0    0  502    0  0.00000000000E+00 -0.00000000000E+00 -0.75160735250E+03  0.75160735250E+03  0.00000000000E+00 0. -1.
         24    2    1    2    0    0 -0.83796700709E+02 -0.23387375132E+03 -0.88907604523E+02  0.27683694396E+03  0.83757464096E+02 0.  0.
         23    2    1    2    0    0  0.81171716825E+02  0.18763899994E+03 -0.51642912329E+03  0.56238307804E+03  0.88195494085E+02 0.  0.
        -11    1    3    3    0    0 -0.38536376296E+02 -0.11597158212E+03  0.31676932486E+00  0.12220703949E+03  0.00000000000E+00 0.  1.
         12    1    3    3    0    0 -0.45260324413E+02 -0.11790216920E+03 -0.89224373848E+02  0.15462990447E+03  0.00000000000E+00 0. -1.
        -13    1    4    4    0    0 -0.13149963359E+02  0.23980478397E+02 -0.12237831376E+03  0.12539711544E+03  0.00000000000E+00 0.  1.
         13    1    4    4    0    0  0.94321680184E+02  0.16365852154E+03 -0.39405080953E+03  0.43698596260E+03  0.00000000000E+00 0. -1.
         21    1    1    2  502  501  0.26249838839E+01  0.46234751386E+02 -0.11048909954E+02  0.47609045226E+02  0.00000000000E+00 0.  1.
<scales pt_clust_5="13000.00000" pt_clust_6="13000.00000" pt_clust_7="13000.00000" pt_clust_8="13000.00000" pt_clust_9="46.30921"></scales>
<clustering>
<clus scale="   46.309">  1  9  2 -1</clus>
<clus scale="   83.757">  5  6 -1 -1</clus>
<clus scale="   88.195">  7  8 -1 -1</clus>
<clus scale="  228.885">  1  5  2 -1</clus>
<clus scale="  230.546">  2  5  1 -1</clus>
</clustering>
</event>
<event>
 9    2  0.3402837E-005  0.1038206E+03  0.7546771E-02  0.1293830E+00
         -1   -1    0    0    0  501 -0.00000000000E+00  0.00000000000E+00  0.52893337445E+02  0.52893337445E+02  0.00000000000E+00 0.  1.
          2   -1    0    0  502    0  0.00000000000E+00 -0.00000000000E+00 -0.72867939723E+03  0.72867939723E+03  0.00000000000E+00 0. -1.
         23    2    1    2    0    0  0.81452307368E+00  0.19511435518E+02  0.11730673172E+02  0.59513185520E+02  0.54980460109E+02 0.  0.
         24    2    1    2    0    0 -0.15727003274E+02 -0.41911762401E+02 -0.68718447798E+03  0.69514733810E+03  0.94886144585E+02 0.  0.
        -13    1    4    4    0    0 -0.59888904595E+01 -0.22900931926E+02 -0.32987015656E+02  0.40601264684E+02  0.00000000000E+00 0.  1.
         14    1    4    4    0    0 -0.97381128141E+01 -0.19010830475E+02 -0.65419746232E+03  0.65454607342E+03  0.00000000000E+00 0. -1.
        -11    1    3    3    0    0 -0.21007668028E+02  0.20453108819E+02  0.20710588748E+02  0.35896800173E+02  0.00000000000E+00 0.  1.
         11    1    3    3    0    0  0.21822191102E+02 -0.94167330067E+00 -0.89799155761E+01  0.23616385347E+02  0.00000000000E+00 0. -1.
         21    1    1    2  502  501  0.14912480200E+02  0.22400326883E+02 -0.33225497201E+00  0.26912211049E+02  0.00000000000E+00 0. -1.
<scales pt_clust_5="13000.00000" pt_clust_6="13000.00000" pt_clust_7="13000.00000" pt_clust_8="13000.00000" pt_clust_9="26.91016"></scales>
<clustering>
<clus scale="   26.910">  1  9  2 -1</clus>
<clus scale="   54.980">  7  8 -1 -1</clus>
<clus scale="   69.269">  1  7  2 -1</clus>
<clus scale="   94.886">  5  6 -1 -1</clus>
<clus scale="  103.821">  2  5  1 -1</clus>
</clustering>
</event>
<event>
 9    2  0.3402837E-005  0.1094252E+03  0.7546771E-02  0.1266878E+00
         -1   -1    0    0    0  501 -0.00000000000E+00  0.00000000000E+00  0.39701099300E+02  0.39701099300E+02  0.00000000000E+00 0.  1.
          2   -1    0    0  502    0  0.00000000000E+00 -0.00000000000E+00 -0.34190840032E+03  0.34190840032E+03  0.00000000000E+00 0. -1.
         24    2    1    2    0    0  0.33222255238E+02 -0.36159229642E+02 -0.95226031497E+02  0.13242621650E+03  0.77829927477E+02 0.  0.
         23    2    1    2    0    0 -0.46482582298E+02  0.54432275006E+02 -0.18001947009E+03  0.21401683477E+03  0.90954345333E+02 0.  0.
        -13    1    3    3    0    0  0.19378076057E+02 -0.54525117915E+02 -0.34216428255E+02  0.67225458554E+02  0.00000000000E+00 0.  1.
         14    1    3    3    0    0  0.13844179181E+02  0.18365888273E+02 -0.61009603242E+02  0.65200757948E+02  0.00000000000E+00 0. -1.
        -13    1    4    4    0    0  0.23773654284E+01  0.52232762049E+02 -0.40393062471E+02  0.66072027315E+02  0.00000000000E+00 0.  1.
         13    1    4    4    0    0 -0.48859947726E+02  0.21995129569E+01 -0.13962640762E+03  0.14794480746E+03  0.00000000000E+00 0. -1.
         21    1    1    2  502  501  0.13260327060E+02 -0.18273045365E+02 -0.26961799435E+02  0.35166448348E+02  0.00000000000E+00 0. -1.
<scales pt_clust_5="13000.00000" pt_clust_6="13000.00000" pt_clust_7="13000.00000" pt_clust_8="13000.00000" pt_clust_9="22.57743"></scales>
<clustering>
<clus scale="   22.577">  1  9  2 -1</clus>
<clus scale="   77.830">  5  6 -1 -1</clus>
<clus scale="   90.954">  7  8 -1 -1</clus>
<clus scale="   98.786">  1  5  2 -1</clus>
<clus scale="  109.425">  2  5  1 -1</clus>
</clustering>
</event>
<event>
 9    2  0.3402837E-005  0.1376136E+03  0.7546771E-02  0.1219075E+00
         -1   -1    0    0    0  501 -0.00000000000E+00  0.00000000000E+00  0.13834193224E+03  0.13834193224E+03  0.00000000000E+00 0.  1.
          2   -1    0    0  502    0  0.00000000000E+00 -0.00000000000E+00 -0.39504350844E+03  0.39504350844E+03  0.00000000000E+00 0. -1.
         23    2    1    2    0    0 -0.98729146424E+02  0.18029858325E+02  0.44802401019E+02  0.14194925502E+03  0.89832153037E+02 0.  0.
         24    2    1    2    0    0  0.85725924933E+02  0.69573475759E+02 -0.26092048095E+03  0.29401725485E+03  0.78595458122E+02 0.  0.
        -13    1    4    4    0    0  0.49343116114E+02  0.83030365936E+02 -0.17985867692E+03  0.20415172896E+03  0.00000000000E+00 0.  1.
         14    1    4    4    0    0  0.36382808819E+02 -0.13456890178E+02 -0.81061804031E+02  0.89865525891E+02  0.00000000000E+00 0. -1.
        -11    1    3    3    0    0 -0.47405287013E+02 -0.34894163543E+02  0.32397755212E+02  0.67189868499E+02  0.00000000000E+00 0. -1.
         11    1    3    3    0    0 -0.51323859411E+02  0.52924021868E+02  0.12404645807E+02  0.74759386522E+02  0.00000000000E+00 0.  1.
         21    1    1    2  502  501  0.13003221491E+02 -0.87603334084E+02 -0.40583496270E+02  0.97418930815E+02  0.00000000000E+00 0. -1.
<scales pt_clust_5="13000.00000" pt_clust_6="13000.00000" pt_clust_7="13000.00000" pt_clust_8="13000.00000" pt_clust_9="88.56313"></scales>
<clustering>
<clus scale="   78.595">  5  6 -1 -1</clus>
<clus scale="   88.563">  1  9  2 -1</clus>
<clus scale="   89.832">  7  8 -1 -1</clus>
<clus scale="  130.556">  2  5  1 -1</clus>
<clus scale="  130.556">  2  5  1 -1</clus>
</clustering>
</event>
<event>
 9    2  0.3402837E-005  0.1011281E+03  0.7546771E-02  0.1284191E+00
          2   -1    0    0  502    0  0.00000000000E+00  0.00000000000E+00  0.28830159643E+03  0.28830159643E+03  0.00000000000E+00 0. -1.
         -1   -1    0    0    0  501 -0.00000000000E+00 -0.00000000000E+00 -0.15219610137E+03  0.15219610137E+03  0.00000000000E+00 0.  1.
         24    2    1    2    0    0  0.16532938282E+02  0.36032580918E+02 -0.36481456055E+02  0.96870597851E+02  0.80506714977E+02 0.  0.
         23    2    1    2    0    0 -0.34618520551E+02 -0.21399502195E+02  0.24626846517E+03  0.26636015493E+03  0.92968782608E+02 0.  0.
        -13    1    3    3    0    0  0.22240895787E+02  0.57286673206E+02 -0.41684822558E+02  0.74256614548E+02  0.00000000000E+00 0.  1.
         14    1    3    3    0    0 -0.57079575051E+01 -0.21254092288E+02  0.52033665031E+01  0.22613983303E+02  0.00000000000E+00 0. -1.
        -11    1    4    4    0    0 -0.42724051313E+02 -0.53144064433E+02  0.17869327191E+03  0.19126139592E+03  0.00000000000E+00 0. -1.
         11    1    4    4    0    0  0.81055307624E+01  0.31744562237E+02  0.67575193259E+02  0.75098759008E+02  0.00000000000E+00 0.  1.
         21    1    1    2  502  501  0.18085582269E+02 -0.14633078723E+02 -0.73681514054E+02  0.77266945017E+02  0.00000000000E+00 0.  1.
<scales pt_clust_5="13000.00000" pt_clust_6="13000.00000" pt_clust_7="13000.00000" pt_clust_8="13000.00000" pt_clust_9="23.26403"></scales>
<clustering>
<clus scale="   23.264">  2  9  1 -1</clus>
<clus scale="   80.507">  5  6 -1 -1</clus>
<clus scale="   89.806">  2  5  1 -1</clus>
<clus scale="   92.969">  7  8 -1 -1</clus>
<clus scale="  101.128">  1  5  2 -1</clus>
</clustering>
</event>
<event>
 9    2  0.3402837E-005  0.1728688E+03  0.7546771E-02  0.1176210E+00
         -1   -1    0    0    0  501 -0.00000000000E+00  0.00000000000E+00  0.10235502256E+03  0.10235502256E+03  0.00000000000E+00 0.  1.
          2   -1    0    0  502    0  0.00000000000E+00 -0.00000000000E+00 -0.55701963655E+03  0.55701963655E+03  0.00000000000E+00 0. -1.
         23    2    1    2    0    0  0.12311123398E+03 -0.40495381075E+02 -0.53539100647E+02  0.16792030630E+03  0.92382585750E+02 0.  0.
         24    2    1    2    0    0 -0.14771532425E+03  0.31987116650E+02 -0.42347994470E+03  0.45714003476E+03  0.82454564227E+02 0.  0.
        -11    1    4    4    0    0 -0.49584558922E+02  0.45081725118E+02 -0.11430543140E+03  0.13250178138E+03  0.00000000000E+00 0.  1.
         12    1    4    4    0    0 -0.98130765325E+02 -0.13094608468E+02 -0.30917451331E+03  0.32463825337E+03  0.00000000000E+00 0. -1.
        -11    1    3    3    0    0  0.85806279255E+02 -0.49500706038E+02  0.35580628995E+01  0.99124655205E+02  0.00000000000E+00 0.  1.
         11    1    3    3    0    0  0.37304954722E+02  0.90053249626E+01 -0.57097163546E+02  0.68795651094E+02  0.00000000000E+00 0. -1.
         21    1    1    2  502  501  0.24604090270E+02  0.85082644256E+01  0.22354431368E+02  0.34314318051E+02  0.00000000000E+00 0. -1.
<scales pt_clust_5="13000.00000" pt_clust_6="13000.00000" pt_clust_7="13000.00000" pt_clust_8="13000.00000" pt_clust_9="26.03367"></scales>
<clustering>
<clus scale="   26.034">  1  9  2 -1</clus>
<clus scale="   82.455">  5  6 -1 -1</clus>
<clus scale="   92.383">  7  8 -1 -1</clus>
<clus scale="  167.773">  2  5  1 -1</clus>
<clus scale="  167.773">  2  5  1 -1</clus>
</clustering>
</event>
<event>
 9    2  0.3402837E-005  0.1001340E+03  0.7546771E-02  0.1284142E+00
         -1   -1    0    0    0  501 -0.00000000000E+00  0.00000000000E+00  0.13275588805E+03  0.13275588805E+03  0.00000000000E+00 0.  1.
          2   -1    0    0  502    0  0.00000000000E+00 -0.00000000000E+00 -0.34686430052E+03  0.34686430052E+03  0.00000000000E+00 0. -1.
         23    2    1    2    0    0 -0.99235658406E+02  0.23702205359E+02 -0.41782823218E+02  0.14215157006E+03  0.89731567006E+02 0.  0.
         24    2    1    2    0    0  0.34851583914E+02 -0.44432041246E+01 -0.23155359572E+03  0.24789085940E+03  0.81230754765E+02 0.  0.
        -11    1    4    4    0    0  0.34977576705E+02 -0.28498280114E+02 -0.21240706596E+03  0.21714590605E+03  0.00000000000E+00 0.  1.
         12    1    4    4    0    0 -0.12599279187E+00  0.24055075990E+02 -0.19146529757E+02  0.30744953355E+02  0.00000000000E+00 0. -1.
        -13    1    3    3    0    0 -0.20585153457E+02 -0.31534565473E+02 -0.79496232159E+00  0.37667085467E+02  0.00000000000E+00 0.  1.
         13    1    3    3    0    0 -0.78650504948E+02  0.55236770833E+02 -0.40987860896E+02  0.10448448460E+03  0.00000000000E+00 0. -1.
         21    1    1    2  502  501  0.64384074492E+02 -0.19259001235E+02  0.59228006467E+02  0.89577759108E+02  0.00000000000E+00 0.  1.
<scales pt_clust_5="13000.00000" pt_clust_6="13000.00000" pt_clust_7="13000.00000" pt_clust_8="13000.00000" pt_clust_9="67.20281"></scales>
<clustering>
<clus scale="   67.203">  1  9  2 -1</clus>
<clus scale="   81.231">  5  6 -1 -1</clus>
<clus scale="   89.732">  7  8 -1 -1</clus>
<clus scale="   92.593">  2  5  1 -1</clus>
<clus scale="   92.593">  2  5  1 -1</clus>
</clustering>
</event>
<event>
 9    2  0.3402837E-005  0.1160774E+03  0.7546771E-02  0.1253660E+00
          2   -1    0    0  502    0  0.00000000000E+00  0.00000000000E+00  0.34790020833E+03  0.34790020833E+03  0.00000000000E+00 0. -1.
         -1   -1    0    0    0  501 -0.00000000000E+00 -0.00000000000E+00 -0.15123229126E+03  0.15123229126E+03  0.00000000000E+00 0.  1.
         24    2    1    2    0    0 -0.46361615229E+02 -0.41110729378E+02  0.30339543292E+02  0.10540878459E+03  0.79693365751E+02 0.  0.
         23    2    1    2    0    0  0.66151140483E+02  0.36496258968E+02  0.26644276844E+03  0.29156789938E+03  0.91170942681E+02 0.  0.
        -13    1    3    3    0    0 -0.36836340788E+02  0.19658697286E+01 -0.17070807668E+02  0.40647178511E+02  0.00000000000E+00 0.  1.
         14    1    3    3    0    0 -0.95252744409E+01 -0.43076599106E+02  0.47410350960E+02  0.64761606079E+02  0.00000000000E+00 0. -1.
        -13    1    4    4    0    0  0.51998867049E+02 -0.59983629507E+01  0.22339544862E+03  0.22944583020E+03  0.00000000000E+00 0. -1.
         13    1    4    4    0    0  0.14152273434E+02  0.42494621919E+02  0.43047319816E+02  0.62122069176E+02  0.00000000000E+00 0.  1.
         21    1    1    2  502  501 -0.19789525253E+02  0.46144704098E+01 -0.10011439466E+03  0.10215581562E+03  0.00000000000E+00 0.  1.
<scales pt_clust_5="13000.00000" pt_clust_6="13000.00000" pt_clust_7="13000.00000" pt_clust_8="13000.00000" pt_clust_9="20.32040"></scales>
<clustering>
<clus scale="   20.320">  2  9  1 -1</clus>
<clus scale="   79.693">  5  6 -1 -1</clus>
<clus scale="   91.171">  7  8 -1 -1</clus>
<clus scale="  107.298">  2  5  1 -1</clus>
<clus scale="  116.077">  1  5  2 -1</clus>
</clustering>
</event>
<event>
 9    2  0.3402837E-005  0.4467976E+03  0.7546771E-02  0.1028843E+00
         -1   -1    0    0    0  501 -0.00000000000E+00  0.00000000000E+00  0.21868061562E+03  0.21868061562E+03  0.00000000000E+00 0.  1.
          2   -1    0    0  502    0  0.00000000000E+00 -0.00000000000E+00 -0.11033016892E+04  0.11033016892E+04  0.00000000000E+00 0. -1.
         24    2    1    2    0    0  0.41701367979E+03 -0.12547826483E+03 -0.25841036091E+03  0.51271100732E+03  0.80320970607E+02 0.  0.
         23    2    1    2    0    0 -0.41092664567E+03  0.15366893322E+03 -0.63668410369E+03  0.77858811506E+03  0.91421856633E+02 0.  0.
        -13    1    3    3    0    0  0.41624904327E+03 -0.13098984483E+03 -0.25089076215E+03  0.50335651382E+03  0.00000000000E+00 0.  1.
         14    1    3    3    0    0  0.76463651694E+00  0.55115799932E+01 -0.75195987619E+01  0.93544934959E+01  0.00000000000E+00 0. -1.
        -11    1    4    4    0    0 -0.27953649771E+03  0.75189990295E+02 -0.47262125176E+03  0.55422471598E+03  0.00000000000E+00 0. -1.
         11    1    4    4    0    0 -0.13139014796E+03  0.78478942925E+02 -0.16406285193E+03  0.22436339908E+03  0.00000000000E+00 0.  1.
         21    1    1    2  502  501 -0.60870341225E+01 -0.28190668388E+02  0.10473390984E+02  0.30683182483E+02  0.00000000000E+00 0.  1.
<scales pt_clust_5="13000.00000" pt_clust_6="13000.00000" pt_clust_7="13000.00000" pt_clust_8="13000.00000" pt_clust_9="28.84035"></scales>
<clustering>
<clus scale="   28.840">  1  9  2 -1</clus>
<clus scale="   80.321">  5  6 -1 -1</clus>
<clus scale="   91.422">  7  8 -1 -1</clus>
<clus scale="  444.659">  1  5  2 -1</clus>
<clus scale="  446.798">  2  5  1 -1</clus>
</clustering>
</event>
<event>
 9    2  0.3402837E-005  0.1066514E+03  0.7546771E-02  0.1270917E+00
          2   -1    0    0  502    0  0.00000000000E+00  0.00000000000E+00  0.10196860461E+04  0.10196860461E+04  0.00000000000E+00 0. -1.
         -1   -1    0    0    0  501 -0.00000000000E+00 -0.00000000000E+00 -0.52479330857E+02  0.52479330857E+02  0.00000000000E+00 0.  1.
         23    2    1    2    0    0 -0.23631731274E+02  0.45667907134E+02  0.10240256861E+03  0.14577721142E+03  0.90114886932E+02 0.  0.
         24    2    1    2    0    0 -0.17067395532E+02 -0.57007385663E+02  0.87677807085E+03  0.88247486963E+03  0.80504484236E+02 0.  0.
        -13    1    4    4    0    0  0.91673256965E+01 -0.23762638201E+02  0.68397489876E+02  0.72985748307E+02  0.00000000000E+00 0.  1.
         14    1    4    4    0    0 -0.26234721229E+02 -0.33244747463E+02  0.80838058098E+03  0.80948912132E+03  0.00000000000E+00 0. -1.
        -11    1    3    3    0    0 -0.20874084512E+01  0.66258240493E+02  0.42147450067E+02  0.78555198774E+02  0.00000000000E+00 0.  1.
         11    1    3    3    0    0 -0.21544322823E+02 -0.20590333359E+02  0.60255118542E+02  0.67222012647E+02  0.00000000000E+00 0. -1.
         21    1    1    2  502  501  0.40699126806E+02  0.11339478529E+02 -0.11973924224E+02  0.43913295907E+02  0.00000000000E+00 0.  1.
<scales pt_clust_5="13000.00000" pt_clust_6="13000.00000" pt_clust_7="13000.00000" pt_clust_8="13000.00000" pt_clust_9="42.24929"></scales>
<clustering>
<clus scale="   42.249">  2  9  1 -1</clus>
<clus scale="   80.504">  5  6 -1 -1</clus>
<clus scale="   90.115">  7  8 -1 -1</clus>
<clus scale="   98.665">  1  5  2 -1</clus>
<clus scale="   98.665">  1  5  2 -1</clus>
</clustering>
</event>
<event>
 9    2  0.3402837E-005  0.1526139E+03  0.7546771E-02  0.1199191E+00
         -1   -1    0    0    0  501 -0.00000000000E+00  0.00000000000E+00  0.50906322223E+02  0.50906322223E+02  0.00000000000E+00 0.  1.
          2   -1    0    0  502    0  0.00000000000E+00 -0.00000000000E+00 -0.86796648750E+03  0.86796648750E+03  0.00000000000E+00 0. -1.
         24    2    1    2    0    0 -0.14079343709E+03  0.32930862430E+02 -0.14028456470E+03  0.21685483795E+03  0.80243554411E+02 0.  0.
         23    2    1    2    0    0  0.11448791516E+03 -0.26687592712E+02 -0.63562610502E+03  0.65278140116E+03  0.91012647468E+02 0.  0.
        -13    1    3    3    0    0 -0.22186896955E+02  0.97145769960E+01  0.80455528707E+01  0.25521800950E+02  0.00000000000E+00 0.  1.
         14    1    3    3    0    0 -0.11860654013E+03  0.23216285434E+02 -0.14833011757E+03  0.19133303700E+03  0.00000000000E+00 0. -1.
        -11    1    4    4    0    0  0.62219264927E+02 -0.53488852501E+02 -0.46856265331E+03  0.47569239467E+03  0.00000000000E+00 0. -1.
         11    1    4    4    0    0  0.52268650234E+02  0.26801259789E+02 -0.16706345171E+03  0.17708900649E+03  0.00000000000E+00 0.  1.
         21    1    1    2  502  501  0.26305521925E+02 -0.62432697180E+01 -0.41149495561E+02  0.49236570610E+02  0.00000000000E+00 0. -1.
<scales pt_clust_5="13000.00000" pt_clust_6="13000.00000" pt_clust_7="13000.00000" pt_clust_8="13000.00000" pt_clust_9="27.03625"></scales>
<clustering>
<clus scale="   27.036">  1  9  2 -1</clus>
<clus scale="   80.244">  5  6 -1 -1</clus>
<clus scale="   91.013">  7  8 -1 -1</clus>
<clus scale="  146.447">  1  5  2 -1</clus>
<clus scale="  152.614">  2  5  1 -1</clus>
</clustering>
</event>
<event>
 9    2  0.3402837E-005  0.1035065E+03  0.7546771E-02  0.1278763E+00
          2   -1    0    0  502    0  0.00000000000E+00  0.00000000000E+00  0.47693103204E+03  0.47693103204E+03  0.00000000000E+00 0. -1.
         -1   -1    0    0    0  501 -0.00000000000E+00 -0.00000000000E+00 -0.72363878367E+02  0.72363878367E+02  0.00000000000E+00 0.  1.
         23    2    1    2    0    0 -0.29886956931E+02 -0.76206977792E+01 -0.78496462067E+01  0.98018903063E+02  0.92708053495E+02 0.  0.
         24    2    1    2    0    0  0.37361094709E+02  0.29775469447E+02  0.41703944696E+03  0.42744188245E+03  0.80636422125E+02 0.  0.
        -11    1    4    4    0    0  0.37546358245E+02 -0.19267256989E+02  0.14497303316E+03  0.15099051809E+03  0.00000000000E+00 0.  1.
         12    1    4    4    0    0 -0.18526353645E+00  0.49042726436E+02  0.27206641380E+03  0.27645136436E+03  0.00000000000E+00 0. -1.
        -11    1    3    3    0    0  0.20064995390E+02  0.22042361060E+02  0.17575877621E+02  0.34603196316E+02  0.00000000000E+00 0. -1.
         11    1    3    3    0    0 -0.49951952321E+02 -0.29663058839E+02 -0.25425523828E+02  0.63415706748E+02  0.00000000000E+00 0.  1.
         21    1    1    2  502  501 -0.74741377780E+01 -0.22154771668E+02 -0.46226470853E+01  0.23834124889E+02  0.00000000000E+00 0.  1.
<scales pt_clust_5="13000.00000" pt_clust_6="13000.00000" pt_clust_7="13000.00000" pt_clust_8="13000.00000" pt_clust_9="23.38154"></scales>
<clustering>
<clus scale="   23.382">  2  9  1 -1</clus>
<clus scale="   80.636">  5  6 -1 -1</clus>
<clus scale="   92.708">  7  8 -1 -1</clus>
<clus scale="   92.850">  1  5  2 -1</clus>
<clus scale="   92.850">  1  5  2 -1</clus>
</clustering>
</event>
<event>
 9    2  0.5530347E-005  0.1778994E+03  0.7546771E-02  0.1170801E+00
          2   -1    0    0  502    0  0.00000000000E+00  0.00000000000E+00  0.38099018410E+03  0.38099018410E+03  0.00000000000E+00 0. -1.
         -1   -1    0    0    0  501 -0.00000000000E+00 -0.00000000000E+00 -0.70713146720E+03  0.70713146720E+03  0.00000000000E+00 0.  1.
         24    2    1    2    0    0  0.11338005335E+03  0.58253593910E+02 -0.60594087528E+03  0.62470396317E+03  0.82717468300E+02 0.  0.
         23    2    1    2    0    0 -0.13435429945E+03 -0.75429539562E+02  0.34735939903E+03  0.39062167444E+03  0.90476777311E+02 0.  0.
        -11    1    3    3    0    0  0.84597346866E+02  0.37719930146E+02 -0.55511692958E+03  0.56279153311E+03  0.00000000000E+00 0.  1.
         12    1    3    3    0    0  0.28782706481E+02  0.20533663763E+02 -0.50823945701E+02  0.61912430065E+02  0.00000000000E+00 0. -1.
        -11    1    4    4    0    0 -0.10485257323E+03 -0.43009105789E+02  0.14749589427E+03  0.18600775285E+03  0.00000000000E+00 0.  1.
         11    1    4    4    0    0 -0.29501726225E+02 -0.32420433773E+02  0.19986350476E+03  0.20461392160E+03  0.00000000000E+00 0. -1.
         21    1    1    2  502  501  0.20974246107E+02  0.17175945652E+02 -0.67559806843E+02  0.72796013692E+02  0.00000000000E+00 0. -1.
<scales pt_clust_5="13000.00000" pt_clust_6="13000.00000" pt_clust_7="13000.00000" pt_clust_8="13000.00000" pt_clust_9="27.10963"></scales>
<clustering>
<clus scale="   27.110">  2  9  1 -1</clus>
<clus scale="   82.717">  5  6 -1 -1</clus>
<clus scale="   90.477">  7  8 -1 -1</clus>
<clus scale="  174.081">  2  5  1 -1</clus>
<clus scale="  177.899">  1  5  2 -1</clus>
</clustering>
</event>
<event>
 9    2  0.3402837E-005  0.1123535E+03  0.7546771E-02  0.1259658E+00
          2   -1    0    0  502    0  0.00000000000E+00  0.00000000000E+00  0.66756132251E+03  0.66756132251E+03  0.00000000000E+00 0. -1.
         -1   -1    0    0    0  501 -0.00000000000E+00 -0.00000000000E+00 -0.19017035400E+03  0.19017035400E+03  0.00000000000E+00 0.  1.
         23    2    1    2    0    0  0.46603267782E+02  0.11275021326E+02 -0.14729597157E+03  0.17831637153E+03  0.88326861384E+02 0.  0.
         24    2    1    2    0    0 -0.65245881057E+02 -0.25405843937E+02  0.64181315291E+03  0.65042333465E+03  0.78891755671E+02 0.  0.
        -13    1    4    4    0    0 -0.60957535197E+02 -0.21235401615E+02  0.23893872897E+03  0.24750450416E+03  0.00000000000E+00 0.  1.
         14    1    4    4    0    0 -0.42883458599E+01 -0.41704423219E+01  0.40287442394E+03  0.40291883049E+03  0.00000000000E+00 0. -1.
        -13    1    3    3    0    0 -0.24994977182E+02 -0.49010595830E+01 -0.53140722764E+02  0.58929667276E+02  0.00000000000E+00 0. -1.
         13    1    3    3    0    0  0.71598244964E+02  0.16176080909E+02 -0.94155248808E+02  0.11938670426E+03  0.00000000000E+00 0.  1.
         21    1    1    2  502  501  0.18642613275E+02  0.14130822611E+02 -0.17126212832E+02  0.28991970325E+02  0.00000000000E+00 0. -1.
<scales pt_clust_5="13000.00000" pt_clust_6="13000.00000" pt_clust_7="13000.00000" pt_clust_8="13000.00000" pt_clust_9="23.39289"></scales>
<clustering>
<clus scale="   23.393">  2  9  1 -1</clus>
<clus scale="   78.892">  5  6 -1 -1</clus>
<clus scale="   88.327">  7  8 -1 -1</clus>
<clus scale="  105.098">  1  5  2 -1</clus>
<clus scale="  105.098">  1  5  2 -1</clus>
</clustering>
</event>
<event>
 9    2  0.3402837E-005  0.1875803E+03  0.7546771E-02  0.1189581E+00
          2   -1    0    0  502    0  0.00000000000E+00  0.00000000000E+00  0.75641297328E+03  0.75641297328E+03  0.00000000000E+00 0. -1.
         -1   -1    0    0    0  501 -0.00000000000E+00 -0.00000000000E+00 -0.22016372304E+03  0.22016372304E+03  0.00000000000E+00 0.  1.
         24    2    1    2    0    0  0.54399543112E+02 -0.37974498879E+00 -0.16272085658E+03  0.18962802133E+03  0.80754286656E+02 0.  0.
         23    2    1    2    0    0 -0.17327409286E+03  0.63967317438E+02  0.54117779341E+03  0.57940843282E+03  0.93407703012E+02 0.  0.
        -13    1    3    3    0    0  0.44702807010E+02 -0.72018335627E+01 -0.16985795940E+03  0.17578945854E+03  0.00000000000E+00 0.  1.
         14    1    3    3    0    0  0.96967361012E+01  0.68220885739E+01  0.71371028249E+01  0.13838562796E+02  0.00000000000E+00 0. -1.
        -11    1    4    4    0    0 -0.35031370917E+02  0.45991652815E+02  0.24974322141E+03  0.25634762670E+03  0.00000000000E+00 0.  1.
         11    1    4    4    0    0 -0.13824272194E+03  0.17975664623E+02  0.29143457200E+03  0.32306080611E+03  0.00000000000E+00 0. -1.
         21    1    1    2  502  501  0.11887454975E+03 -0.63587572449E+02  0.15779231341E+03  0.20754024217E+03  0.00000000000E+00 0.  1.
<scales pt_clust_5="13000.00000" pt_clust_6="13000.00000" pt_clust_7="13000.00000" pt_clust_8="13000.00000" pt_clust_9="162.66955"></scales>
<clustering>
<clus scale="   80.754">  5  6 -1 -1</clus>
<clus scale="   93.408">  7  8 -1 -1</clus>
<clus scale="   97.369">  2  5  1 -1</clus>
<clus scale="  162.670">  2  9  1 -1</clus>
<clus scale="  187.580">  1  5  2 -1</clus>
</clustering>
</event>
<event>
 9    2  0.3402837E-005  0.2827817E+03  0.7546771E-02  0.1094744E+00
         -1   -1    0    0    0  501 -0.00000000000E+00  0.00000000000E+00  0.68988423248E+02  0.68988423248E+02  0.00000000000E+00 0.  1.
          2   -1    0    0  502    0  0.00000000000E+00 -0.00000000000E+00 -0.14496336261E+04  0.14496336261E+04  0.00000000000E+00 0. -1.
         24    2    1    2    0    0  0.20571913891E+03  0.16303184870E+03 -0.51599141214E+03  0.58442484251E+03  0.80034438410E+02 0.  0.
         23    2    1    2    0    0 -0.18815068474E+03 -0.19485292771E+03 -0.84626593328E+03  0.89346214880E+03  0.93489239531E+02 0.  0.
        -13    1    3    3    0    0  0.16482830973E+03  0.12501457749E+03 -0.32342989644E+03  0.38393217394E+03  0.00000000000E+00 0.  1.
         14    1    3    3    0    0  0.40890829183E+02  0.38017271210E+02 -0.19256151570E+03  0.20049266857E+03  0.00000000000E+00 0. -1.
        -11    1    4    4    0    0 -0.75193840971E+02 -0.38465394730E+02 -0.37187416358E+03  0.38134511122E+03  0.00000000000E+00 0.  1.
         11    1    4    4    0    0 -0.11295684377E+03 -0.15638753298E+03 -0.47439176970E+03  0.51211703759E+03  0.00000000000E+00 0. -1.
         21    1    1    2  502  501 -0.17568454172E+02  0.31821079014E+02 -0.18387857411E+02  0.40735058019E+02  0.00000000000E+00 0.  1.
<scales pt_clust_5="13000.00000" pt_clust_6="13000.00000" pt_clust_7="13000.00000" pt_clust_8="13000.00000" pt_clust_9="36.34875"></scales>
<clustering>
<clus scale="   36.349">  1  9  2 -1</clus>
<clus scale="   80.034">  5  6 -1 -1</clus>
<clus scale="   93.489">  7  8 -1 -1</clus>
<clus scale="  278.623">  1  5  2 -1</clus>
<clus scale="  282.782">  2  5  1 -1</clus>
</clustering>
</event>
<event>
 9    2  0.3402837E-005  0.2523883E+03  0.7546771E-02  0.1112441E+00
          2   -1    0    0  502    0  0.00000000000E+00  0.00000000000E+00  0.11451639287E+04  0.11451639287E+04  0.00000000000E+00 0. -1.
         -1   -1    0    0    0  501 -0.00000000000E+00 -0.00000000000E+00 -0.19611597405E+03  0.19611597405E+03  0.00000000000E+00 0.  1.
         24    2    1    2    0    0 -0.19107241794E+02  0.26481155274E+03  0.35021507998E+03  0.44678445785E+03  0.80470518680E+02 0.  0.
         23    2    1    2    0    0 -0.85000427096E+02 -0.21303078124E+03  0.69875034446E+03  0.74118805509E+03  0.92198171203E+02 0.  0.
        -13    1    3    3    0    0  0.30600584469E+02  0.13421368071E+03  0.17714549177E+03  0.22434400619E+03  0.00000000000E+00 0.  1.
         14    1    3    3    0    0 -0.49707826263E+02  0.13059787204E+03  0.17306958821E+03  0.22244045166E+03  0.00000000000E+00 0. -1.
        -11    1    4    4    0    0 -0.19361318740E+00 -0.55492127007E+02  0.82010413064E+02  0.99020813452E+02  0.00000000000E+00 0.  1.
         11    1    4    4    0    0 -0.84806813909E+02 -0.15753865423E+03  0.61673993139E+03  0.64216724164E+03  0.00000000000E+00 0. -1.
         21    1    1    2  502  501  0.10410766889E+03 -0.51780771510E+02 -0.99917469752E+02  0.15330738985E+03  0.00000000000E+00 0.  1.
<scales pt_clust_5="13000.00000" pt_clust_6="13000.00000" pt_clust_7="13000.00000" pt_clust_8="13000.00000" pt_clust_9="116.27405"></scales>
<clustering>
<clus scale="   80.471">  5  6 -1 -1</clus>
<clus scale="   92.198">  7  8 -1 -1</clus>
<clus scale="  116.274">  2  9  1 -1</clus>
<clus scale="  248.344">  2  5  1 -1</clus>
<clus scale="  252.388">  1  5  2 -1</clus>
</clustering>
</event>
<event>
 9    2  0.3402837E-005  0.2366671E+03  0.7546771E-02  0.1122195E+00
          2   -1    0    0  502    0  0.00000000000E+00  0.00000000000E+00  0.17563411858E+04  0.17563411858E+04  0.00000000000E+00 0. -1.
         -1   -1    0    0    0  501 -0.00000000000E+00 -0.00000000000E+00 -0.12121220407E+03  0.12121220407E+03  0.00000000000E+00 0.  1.
         24    2    1    2    0    0 -0.58576978784E+02 -0.15682296447E+03  0.30019016326E+03  0.35332742882E+03  0.81862281989E+02 0.  0.
         23    2    1    2    0    0  0.72667150449E+01  0.24919151074E+03  0.13832248460E+04  0.14080526769E+04  0.84570397775E+02 0.  0.
        -11    1    3    3    0    0  0.12132326566E+02 -0.63725347536E+02  0.71858757862E+02  0.96808028324E+02  0.00000000000E+00 0.  1.
         12    1    3    3    0    0 -0.70709305350E+02 -0.93097616937E+02  0.22833140540E+03  0.25651940050E+03  0.00000000000E+00 0. -1.
        -11    1    4    4    0    0 -0.20360907334E+02  0.19456732682E+03  0.11689043597E+04  0.11851617668E+04  0.00000000000E+00 0. -1.
         11    1    4    4    0    0  0.27627622379E+02  0.54624183914E+02  0.21432048624E+03  0.22289091011E+03  0.00000000000E+00 0.  1.
         21    1    1    2  502  501  0.51310263739E+02 -0.92368546264E+02 -0.48286027491E+02  0.11617328417E+03  0.00000000000E+00 0.  1.
<scales pt_clust_5="13000.00000" pt_clust_6="13000.00000" pt_clust_7="13000.00000" pt_clust_8="13000.00000" pt_clust_9="105.66310"></scales>
<clustering>
<clus scale="   81.862">  5  6 -1 -1</clus>
<clus scale="   84.570">  7  8 -1 -1</clus>
<clus scale="  105.663">  2  9  1 -1</clus>
<clus scale="  235.713">  2  5  1 -1</clus>
<clus scale="  236.667">  1  5  2 -1</clus>
</clustering>
</event>
<event>
 9    2  0.3402837E-005  0.1948900E+03  0.7546771E-02  0.1159332E+00
          2   -1    0    0  502    0  0.00000000000E+00  0.00000000000E+00  0.84213310640E+03  0.84213310640E+03  0.00000000000E+00 0. -1.
         -1   -1    0    0    0  501 -0.00000000000E+00 -0.00000000000E+00 -0.50486975541E+02  0.50486975541E+02  0.00000000000E+00 0.  1.
         24    2    1    2    0    0  0.91392861768E+02  0.12587702187E+03  0.37221594285E+03  0.41156846576E+03  0.81524315871E+02 0.  0.
         23    2    1    2    0    0 -0.11007569635E+03 -0.10142085693E+03  0.40132518421E+03  0.44534526556E+03  0.12193298542E+03 0.  0.
        -11    1    3    3    0    0  0.56915733570E+02  0.33651071773E+02  0.83394908248E+02  0.10642605922E+03  0.00000000000E+00 0.  1.
         12    1    3    3    0    0  0.34477128198E+02  0.92225950101E+02  0.28882103460E+03  0.30514240654E+03  0.00000000000E+00 0. -1.
        -11    1    4    4    0    0 -0.44556897705E+02 -0.11613849158E+03  0.28625483274E+03  0.31211423490E+03  0.00000000000E+00 0.  1.
         11    1    4    4    0    0 -0.65518798644E+02  0.14717634648E+02  0.11507035147E+03  0.13323103067E+03  0.00000000000E+00 0. -1.
         21    1    1    2  502  501  0.18682834581E+02 -0.24456164943E+02  0.18105003802E+02  0.35706350617E+02  0.00000000000E+00 0.  1.
<scales pt_clust_5="13000.00000" pt_clust_6="13000.00000" pt_clust_7="13000.00000" pt_clust_8="13000.00000" pt_clust_9="30.77584"></scales>
<clustering>
<clus scale="   30.776">  2  9  1 -1</clus>
<clus scale="   81.524">  5  6 -1 -1</clus>
<clus scale="  121.933">  7  8 -1 -1</clus>
<clus scale="  172.513">  2  5  1 -1</clus>
<clus scale="  194.890">  1  5  2 -1</clus>
</clustering>
</event>
<event>
 9    2  0.3402837E-005  0.9561891E+02  0.7546771E-02  0.1295434E+00
          2   -1    0    0  502    0  0.00000000000E+00  0.00000000000E+00  0.16671189602E+03  0.16671189602E+03  0.00000000000E+00 0. -1.
         -1   -1    0    0    0  501 -0.00000000000E+00 -0.00000000000E+00 -0.10784787781E+03  0.10784787781E+03  0.00000000000E+00 0.  1.
         23    2    1    2    0    0 -0.26908014868E+02 -0.11764405209E+01 -0.31857495494E+02  0.99906504893E+02  0.90779867946E+02 0.  0.
         24    2    1    2    0    0 -0.90142626312E+01  0.38664883547E+02  0.82640151827E+02  0.12210708171E+03  0.80650570738E+02 0.  0.
        -11    1    4    4    0    0 -0.16724810974E+01  0.58776170389E+02  0.31588231128E+02  0.66747672202E+02  0.00000000000E+00 0.  1.
         12    1    4    4    0    0 -0.73417815337E+01 -0.20111286842E+02  0.51051920698E+02  0.55359409512E+02  0.00000000000E+00 0. -1.
        -13    1    3    3    0    0 -0.38457148049E+02  0.33529667765E+02 -0.36923004086E+02  0.62980148359E+02  0.00000000000E+00 0.  1.
         13    1    3    3    0    0  0.11549133181E+02 -0.34706108286E+02  0.50655085924E+01  0.36926356534E+02  0.00000000000E+00 0. -1.
         21    1    1    2  502  501  0.35922277499E+02 -0.37488443026E+02  0.80813618765E+01  0.52546187217E+02  0.00000000000E+00 0. -1.
<scales pt_clust_5="13000.00000" pt_clust_6="13000.00000" pt_clust_7="13000.00000" pt_clust_8="13000.00000" pt_clust_9="51.92103"></scales>
<clustering>
<clus scale="   51.921">  2  9  1 -1</clus>
<clus scale="   80.651">  5  6 -1 -1</clus>
<clus scale="   86.061">  1  5  2 -1</clus>
<clus scale="   90.780">  7  8 -1 -1</clus>
<clus scale="   86.061">  1  5  2 -1</clus>
</clustering>
</event>
<event>
 9    2  0.3402837E-005  0.9897742E+02  0.7546771E-02  0.1287320E+00
          2   -1    0    0  502    0  0.00000000000E+00  0.00000000000E+00  0.66841523406E+03  0.66841523406E+03  0.00000000000E+00 0. -1.
         -1   -1    0    0    0  501 -0.00000000000E+00 -0.00000000000E+00 -0.23667792800E+02  0.23667792800E+02  0.00000000000E+00 0.  1.
         23    2    1    2    0    0  0.17706648601E+02  0.35985065640E+02  0.25548497372E+03  0.27353160345E+03  0.89098349785E+02 0.  0.
         24    2    1    2    0    0 -0.36443264575E+02 -0.28792506765E+02  0.38766462032E+03  0.39841819721E+03  0.79347854698E+02 0.  0.
        -13    1    4    4    0    0  0.34863563809E+01 -0.26300903856E+02  0.37279596329E+02  0.45756535346E+02  0.00000000000E+00 0.  1.
         14    1    4    4    0    0 -0.39929620956E+02 -0.24916029096E+01  0.35038502399E+03  0.35266166186E+03  0.00000000000E+00 0. -1.
        -13    1    3    3    0    0 -0.20541417047E+02 -0.20507819942E+02  0.64602950289E+02  0.70824160278E+02  0.00000000000E+00 0.  1.
         13    1    3    3    0    0  0.38248065649E+02  0.56492885582E+02  0.19088202344E+03  0.20270744317E+03  0.00000000000E+00 0. -1.
         21    1    1    2  502  501  0.18736615974E+02 -0.71925588745E+01  0.15978472174E+01  0.20133226195E+02  0.00000000000E+00 0.  1.
<scales pt_clust_5="13000.00000" pt_clust_6="13000.00000" pt_clust_7="13000.00000" pt_clust_8="13000.00000" pt_clust_9="20.06972"></scales>
<clustering>
<clus scale="   20.070">  2  9  1 -1</clus>
<clus scale="   79.348">  5  6 -1 -1</clus>
<clus scale="   89.098">  7  8 -1 -1</clus>
<clus scale="   90.300">  1  5  2 -1</clus>
<clus scale="   90.300">  1  5  2 -1</clus>
</clustering>
</event>
<event>
 9    2  0.3402837E-005  0.1342106E+03  0.7546771E-02  0.1222360E+00
         -1   -1    0    0    0  501 -0.00000000000E+00  0.00000000000E+00  0.33901294654E+02  0.33901294654E+02  0.00000000000E+00 0.  1.
          2   -1    0    0  502    0  0.00000000000E+00 -0.00000000000E+00 -0.71210159963E+03  0.71210159963E+03  0.00000000000E+00 0. -1.
         24    2    1    2    0    0  0.83156793928E+02 -0.59459995251E+02 -0.21781403109E+03  0.25923033346E+03  0.96472121551E+02 0.  0.
         23    2    1    2    0    0 -0.57953451336E+02  0.68860071352E+02 -0.40739527971E+03  0.42734516502E+03  0.92480615166E+02 0.  0.
        -13    1    3    3    0    0  0.33083992249E+02  0.23872427149E+02 -0.88467689306E+02  0.97421637085E+02  0.00000000000E+00 0.  1.
         14    1    3    3    0    0  0.50072801680E+02 -0.83332422400E+02 -0.12934634178E+03  0.16180869638E+03  0.00000000000E+00 0. -1.
        -13    1    4    4    0    0  0.21195484802E+02  0.38391753443E+02 -0.15480995159E+03  0.16090151155E+03  0.00000000000E+00 0.  1.
         13    1    4    4    0    0 -0.79148936138E+02  0.30468317909E+02 -0.25258532813E+03  0.26644365347E+03  0.00000000000E+00 0. -1.
         21    1    1    2  502  501 -0.25203342592E+02 -0.94000761010E+01 -0.52990994168E+02  0.59427395799E+02  0.00000000000E+00 0. -1.
<scales pt_clust_5="13000.00000" pt_clust_6="13000.00000" pt_clust_7="13000.00000" pt_clust_8="13000.00000" pt_clust_9="26.89925"></scales>
<clustering>
<clus scale="   26.899">  1  9  2 -1</clus>
<clus scale="   92.481">  7  8 -1 -1</clus>
<clus scale="   96.472">  5  6 -1 -1</clus>
<clus scale="  131.371">  2  7  1 -1</clus>
<clus scale="  131.371">  2  5  1 -1</clus>
</clustering>
</event>
<event>
 9    2  0.3402837E-005  0.9990612E+02  0.7546771E-02  0.1287874E+00
          2   -1    0    0  502    0  0.00000000000E+00  0.00000000000E+00  0.13994256611E+03  0.13994256611E+03  0.00000000000E+00 0. -1.
         -1   -1    0    0    0  501 -0.00000000000E+00 -0.00000000000E+00 -0.35298120406E+03  0.35298120406E+03  0.00000000000E+00 0.  1.
         24    2    1    2    0    0 -0.23867935891E+02  0.18217820248E+02 -0.20150608784E+03  0.22384974900E+03  0.92749336128E+02 0.  0.
         23    2    1    2    0    0 -0.12747265935E+01 -0.38473129769E+02  0.11158530218E+03  0.14179308547E+03  0.78563304306E+02 0.  0.
        -13    1    3    3    0    0 -0.10220200855E+02  0.48617108366E+02 -0.17301972725E+03  0.18001083786E+03  0.00000000000E+00 0.  1.
         14    1    3    3    0    0 -0.13647735036E+02 -0.30399288118E+02 -0.28486360587E+02  0.43838911132E+02  0.00000000000E+00 0. -1.
        -13    1    4    4    0    0 -0.29202287564E+02 -0.39994326843E+02  0.36070076365E+02  0.61264754856E+02  0.00000000000E+00 0.  1.
         13    1    4    4    0    0  0.27927560970E+02  0.15211970742E+01  0.75515225811E+02  0.80528330615E+02  0.00000000000E+00 0. -1.
         21    1    1    2  502  501  0.25142662484E+02  0.20255309521E+02 -0.12311785229E+03  0.12728093570E+03  0.00000000000E+00 0.  1.
<scales pt_clust_5="13000.00000" pt_clust_6="13000.00000" pt_clust_7="13000.00000" pt_clust_8="13000.00000" pt_clust_9="32.28670"></scales>
<clustering>
<clus scale="   32.287">  2  9  1 -1</clus>
<clus scale="   78.563">  7  8 -1 -1</clus>
<clus scale="   86.896">  1  7  2 -1</clus>
<clus scale="   92.749">  5  6 -1 -1</clus>
<clus scale="   86.896">  1  5  2 -1</clus>
</clustering>
</event>
<event>
 9    2  0.3402837E-005  0.1038288E+03  0.7546771E-02  0.1279658E+00
          2   -1    0    0  502    0  0.00000000000E+00  0.00000000000E+00  0.99169166918E+03  0.99169166918E+03  0.00000000000E+00 0. -1.
         -1   -1    0    0    0  501 -0.00000000000E+00 -0.00000000000E+00 -0.22699455775E+02  0.22699455775E+02  0.00000000000E+00 0.  1.
         23    2    1    2    0    0  0.44942178485E+02 -0.79330947431E+01  0.15451010246E+03  0.18662226447E+03  0.94190044247E+02 0.  0.
         24    2    1    2    0    0 -0.27775358846E+02  0.35524769045E+02  0.75046163494E+03  0.75597316747E+03  0.79178814356E+02 0.  0.
        -11    1    4    4    0    0  0.14751018185E+02  0.31371770531E+02  0.14832184703E+03  0.15231923986E+03  0.00000000000E+00 0.  1.
         12    1    4    4    0    0 -0.42526377031E+02  0.41529985145E+01  0.60213978791E+03  0.60365392761E+03  0.00000000000E+00 0. -1.
        -11    1    3    3    0    0  0.26521386666E+02  0.39731790359E+02  0.44335531220E+02  0.65173909231E+02  0.00000000000E+00 0. -1.
         11    1    3    3    0    0  0.18420791820E+02 -0.47664885102E+02  0.11017457124E+03  0.12144835524E+03  0.00000000000E+00 0.  1.
         21    1    1    2  502  501 -0.17166819640E+02 -0.27591674302E+02  0.64020476008E+02  0.71795693016E+02  0.00000000000E+00 0.  1.
<scales pt_clust_5="13000.00000" pt_clust_6="13000.00000" pt_clust_7="13000.00000" pt_clust_8="13000.00000" pt_clust_9="32.49616"></scales>
<clustering>
<clus scale="   32.496">  2  9  1 -1</clus>
<clus scale="   79.179">  5  6 -1 -1</clus>
<clus scale="   90.432">  1  5  2 -1</clus>
<clus scale="   94.190">  7  8 -1 -1</clus>
<clus scale="   90.432">  1  5  2 -1</clus>
</clustering>
</event>
<event>
 9    2  0.3402837E-005  0.1452008E+03  0.7546771E-02  0.1208319E+00
         -1   -1    0    0    0  501 -0.00000000000E+00  0.00000000000E+00  0.38127255578E+03  0.38127255578E+03  0.00000000000E+00 0.  1.
          2   -1    0    0  502    0  0.00000000000E+00 -0.00000000000E+00 -0.21385576084E+03  0.21385576084E+03  0.00000000000E+00 0. -1.
         24    2    1    2    0    0 -0.20815121368E+01 -0.10419122532E+03  0.17702149371E+03  0.22160123707E+03  0.83128544485E+02 0.  0.
         23    2    1    2    0    0 -0.25470324015E+02  0.11082799498E+03 -0.16210590106E+03  0.21841496820E+03  0.92169372889E+02 0.  0.
        -13    1    3    3    0    0  0.24076565830E+02 -0.68798597391E+02  0.53337681120E+02  0.90320740987E+02  0.00000000000E+00 0.  1.
         14    1    3    3    0    0 -0.26158077967E+02 -0.35392627931E+02  0.12368381259E+03  0.13128049608E+03  0.00000000000E+00 0. -1.
        -11    1    4    4    0    0 -0.53996482304E+02  0.10202532503E+03 -0.11728259871E+03  0.16456000428E+03  0.00000000000E+00 0. -1.
         11    1    4    4    0    0  0.28526158288E+02  0.88026699441E+01 -0.44823302354E+02  0.53854963919E+02  0.00000000000E+00 0.  1.
         21    1    1    2  502  501  0.27551836152E+02 -0.66367696542E+01  0.15250120230E+03  0.15511211135E+03  0.00000000000E+00 0.  1.
<scales pt_clust_5="13000.00000" pt_clust_6="13000.00000" pt_clust_7="13000.00000" pt_clust_8="13000.00000" pt_clust_9="28.33991"></scales>
<clustering>
<clus scale="   28.340">  1  9  2 -1</clus>
<clus scale="   83.129">  5  6 -1 -1</clus>
<clus scale="   92.169">  7  8 -1 -1</clus>
<clus scale="  139.637">  1  5  2 -1</clus>
<clus scale="  145.201">  2  5  1 -1</clus>
</clustering>
</event>
<event>
 9    2  0.3402837E-005  0.9989319E+02  0.7546771E-02  0.1280678E+00
         -1   -1    0    0    0  501 -0.00000000000E+00  0.00000000000E+00  0.14227836761E+03  0.14227836761E+03  0.00000000000E+00 0.  1.
          2   -1    0    0  502    0  0.00000000000E+00 -0.00000000000E+00 -0.16297177827E+03  0.16297177827E+03  0.00000000000E+00 0. -1.
         24    2    1    2    0    0  0.54247439125E+01 -0.42380551196E+02  0.74606619797E+02  0.12349922696E+03  0.88658741108E+02 0.  0.
         23    2    1    2    0    0 -0.34074092645E+02  0.33087311751E+02 -0.10912793584E+03  0.14860939740E+03  0.88994565145E+02 0.  0.
        -11    1    3    3    0    0 -0.26551763767E+01 -0.50500493781E+02  0.90640793045E+02  0.10379356048E+03  0.00000000000E+00 0.  1.
         12    1    3    3    0    0  0.80799202892E+01  0.81199425850E+01 -0.16034173247E+02  0.19705666474E+02  0.00000000000E+00 0. -1.
        -13    1    4    4    0    0 -0.35360957257E+02 -0.24653540213E+02 -0.45441913102E+02  0.62635148356E+02  0.00000000000E+00 0.  1.
         13    1    4    4    0    0  0.12868646122E+01  0.57740851963E+02 -0.63686022735E+02  0.85974249039E+02  0.00000000000E+00 0. -1.
         21    1    1    2  502  501  0.28649348733E+02  0.92932394448E+01  0.13827905385E+02  0.33141521533E+02  0.00000000000E+00 0.  1.
<scales pt_clust_5="13000.00000" pt_clust_6="13000.00000" pt_clust_7="13000.00000" pt_clust_8="13000.00000" pt_clust_9="30.11892"></scales>
<clustering>
<clus scale="   30.119">  1  9  2 -1</clus>
<clus scale="   88.659">  5  6 -1 -1</clus>
<clus scale="   88.995">  7  8 -1 -1</clus>
<clus scale="   99.594">  1  5  2 -1</clus>
<clus scale="   99.893">  2  5  1 -1</clus>
</clustering>
</event>
<event>
 9    2  0.3402837E-005  0.8955587E+02  0.7546771E-02  0.1308358E+00
          2   -1    0    0  502    0  0.00000000000E+00  0.00000000000E+00  0.40189983063E+02  0.40189983063E+02  0.00000000000E+00 0. -1.
         -1   -1    0    0    0  501 -0.00000000000E+00 -0.00000000000E+00 -0.67128400098E+03  0.67128400098E+03  0.00000000000E+00 0.  1.
         24    2    1    2    0    0  0.18647250576E+02  0.26618527863E+02 -0.52456722953E+03  0.53147656364E+03  0.78995527841E+02 0.  0.
         23    2    1    2    0    0 -0.24757339499E+02  0.32979515192E+01 -0.25389985454E+02  0.93305380889E+02  0.86240595999E+02 0.  0.
        -13    1    3    3    0    0  0.48289556395E+02  0.53515606290E+01 -0.27541844100E+03  0.27967094611E+03  0.00000000000E+00 0.  1.
         14    1    3    3    0    0 -0.29642305819E+02  0.21266967233E+02 -0.24914878853E+03  0.25180561753E+03  0.00000000000E+00 0. -1.
        -13    1    4    4    0    0 -0.53046939836E+02 -0.85765853215E+01 -0.40346577996E+00  0.53737309445E+02  0.00000000000E+00 0. -1.
         13    1    4    4    0    0  0.28289600337E+02  0.11874536841E+02 -0.24986519674E+02  0.39568071444E+02  0.00000000000E+00 0.  1.
         21    1    1    2  502  501  0.61100889231E+01 -0.29916479382E+02 -0.81136802936E+02  0.86692039519E+02  0.00000000000E+00 0.  1.
<scales pt_clust_5="13000.00000" pt_clust_6="13000.00000" pt_clust_7="13000.00000" pt_clust_8="13000.00000" pt_clust_9="30.53406"></scales>
<clustering>
<clus scale="   30.534">  2  9  1 -1</clus>
<clus scale="   78.996">  5  6 -1 -1</clus>
<clus scale="   82.602">  2  5  1 -1</clus>
<clus scale="   86.241">  7  8 -1 -1</clus>
<clus scale="   89.556">  1  5  2 -1</clus>
</clustering>
</event>
<event>
 9    2  0.3402837E-005  0.1798319E+03  0.7546771E-02  0.1169288E+00
         -1   -1    0    0    0  501 -0.00000000000E+00  0.00000000000E+00  0.36858058531E+02  0.36858058531E+02  0.00000000000E+00 0.  1.
          2   -1    0    0  502    0  0.00000000000E+00 -0.00000000000E+00 -0.10346839484E+04  0.10346839484E+04  0.00000000000E+00 0. -1.
         24    2    1    2    0    0 -0.17007384812E+03  0.40677763563E+00 -0.43968809048E+03  0.47787859611E+03  0.78211613090E+02 0.  0.
         23    2    1    2    0    0  0.14591630450E+03 -0.24979751045E+01 -0.52749135177E+03  0.55458445521E+03  0.89548779842E+02 0.  0.
        -13    1    3    3    0    0 -0.87844779188E+02 -0.38832672759E+02 -0.22076078734E+03  0.24074884617E+03  0.00000000000E+00 0.  1.
         14    1    3    3    0    0 -0.82229068937E+02  0.39239450395E+02 -0.21892730314E+03  0.23712974994E+03  0.00000000000E+00 0. -1.
        -11    1    4    4    0    0  0.11449973417E+03 -0.40121332021E+02 -0.40001352937E+03  0.41800805505E+03  0.00000000000E+00 0.  1.
         11    1    4    4    0    0  0.31416570327E+02  0.37623356917E+02 -0.12747782241E+03  0.13657640017E+03  0.00000000000E+00 0. -1.
         21    1    1    2  502  501  0.24157543629E+02  0.20911974689E+01 -0.30646447664E+02  0.39078955660E+02  0.00000000000E+00 0.  1.
<scales pt_clust_5="13000.00000" pt_clust_6="13000.00000" pt_clust_7="13000.00000" pt_clust_8="13000.00000" pt_clust_9="24.24789"></scales>
<clustering>
<clus scale="   24.248">  1  9  2 -1</clus>
<clus scale="   78.212">  5  6 -1 -1</clus>
<clus scale="   89.549">  7  8 -1 -1</clus>
<clus scale="  174.464">  1  5  2 -1</clus>
<clus scale="  179.832">  2  5  1 -1</clus>
</clustering>
</event>
<event>
 9    2  0.3402837E-005  0.1349933E+03  0.7546771E-02  0.1221657E+00
          2   -1    0    0  502    0  0.00000000000E+00  0.00000000000E+00  0.89879665052E+03  0.89879665052E+03  0.00000000000E+00 0. -1.
         -1   -1    0    0    0  501 -0.00000000000E+00 -0.00000000000E+00 -0.32010931593E+02  0.32010931593E+02  0.00000000000E+00 0.  1.
         24    2    1    2    0    0  0.20214050734E+02 -0.72395407072E+02  0.18771957528E+03  0.21985974754E+03  0.86313190373E+02 0.  0.
         23    2    1    2    0    0  0.54488317434E+01  0.11240241243E+03  0.60994867515E+03  0.62706477033E+03  0.92243415947E+02 0.  0.
        -13    1    3    3    0    0  0.52114376618E+02 -0.41655421613E+02  0.85472742908E+02  0.10842818905E+03  0.00000000000E+00 0.  1.
         14    1    3    3    0    0 -0.31900325884E+02 -0.30739985458E+02  0.10224683238E+03  0.11143155849E+03  0.00000000000E+00 0. -1.
        -11    1    4    4    0    0 -0.17468120405E+02 -0.10367549362E+02  0.72134751149E+02  0.74940267104E+02  0.00000000000E+00 0.  1.
         11    1    4    4    0    0  0.22916952149E+02  0.12276996180E+03  0.53781392400E+03  0.55212450323E+03  0.00000000000E+00 0. -1.
         21    1    1    2  502  501 -0.25662882478E+02 -0.40007005362E+02  0.69117468489E+02  0.83883064235E+02  0.00000000000E+00 0.  1.
<scales pt_clust_5="13000.00000" pt_clust_6="13000.00000" pt_clust_7="13000.00000" pt_clust_8="13000.00000" pt_clust_9="47.53045"></scales>
<clustering>
<clus scale="   47.530">  2  9  1 -1</clus>
<clus scale="   86.313">  5  6 -1 -1</clus>
<clus scale="   92.243">  7  8 -1 -1</clus>
<clus scale="  131.013">  2  5  1 -1</clus>
<clus scale="  134.993">  1  5  2 -1</clus>
</clustering>
</event>
<event>
 9    2  0.3402837E-005  0.1118723E+03  0.7546771E-02  0.1261524E+00
         -1   -1    0    0    0  501 -0.00000000000E+00  0.00000000000E+00  0.12445484042E+03  0.12445484042E+03  0.00000000000E+00 0.  1.
          2   -1    0    0  502    0  0.00000000000E+00 -0.00000000000E+00 -0.32812481838E+03  0.32812481838E+03  0.00000000000E+00 0. -1.
         23    2    1    2    0    0 -0.41515633578E+02 -0.34619918445E+02  0.35612812599E+02  0.11294994827E+03  0.92559882283E+02 0.  0.
         24    2    1    2    0    0  0.26385175906E+02  0.58950727301E+02 -0.27496167974E+03  0.29387053505E+03  0.81145550020E+02 0.  0.
        -13    1    4    4    0    0 -0.29169184059E+02  0.25943472370E+02 -0.99008575996E+02  0.10642651539E+03  0.00000000000E+00 0.  1.
         14    1    4    4    0    0  0.55554359965E+02  0.33007254931E+02 -0.17595310374E+03  0.18744401966E+03  0.00000000000E+00 0. -1.
        -11    1    3    3    0    0  0.27650684617E+02 -0.24825241620E+02  0.93336073708E+01  0.38314086285E+02  0.00000000000E+00 0.  1.
         11    1    3    3    0    0 -0.69166318195E+02 -0.97946768247E+01  0.26279205228E+02  0.74635861984E+02  0.00000000000E+00 0. -1.
         21    1    1    2  502  501  0.15130457672E+02 -0.24330808857E+02  0.35678889177E+02  0.45759175494E+02  0.00000000000E+00 0. -1.
<scales pt_clust_5="13000.00000" pt_clust_6="13000.00000" pt_clust_7="13000.00000" pt_clust_8="13000.00000" pt_clust_9="28.65168"></scales>
<clustering>
<clus scale="   28.652">  1  9  2 -1</clus>
<clus scale="   81.146">  5  6 -1 -1</clus>
<clus scale="   92.560">  7  8 -1 -1</clus>
<clus scale="  102.629">  2  5  1 -1</clus>
<clus scale="  102.629">  2  5  1 -1</clus>
</clustering>
</event>
<event>
 9    2  0.3402837E-005  0.1485957E+03  0.7546771E-02  0.1205286E+00
         -1   -1    0    0    0  501 -0.00000000000E+00  0.00000000000E+00  0.31559057720E+02  0.31559057720E+02  0.00000000000E+00 0.  1.
          2   -1    0    0  502    0  0.00000000000E+00 -0.00000000000E+00 -0.86664053931E+03  0.86664053931E+03  0.00000000000E+00 0. -1.
         24    2    1    2    0    0  0.53607384013E+02  0.86452169852E+02 -0.26276328835E+03  0.29307225931E+03  0.80616835598E+02 0.  0.
         23    2    1    2    0    0 -0.50861325127E+02 -0.11068620753E+03 -0.55194951743E+03  0.57335136604E+03  0.96152005807E+02 0.  0.
        -13    1    3    3    0    0 -0.19240940257E+02  0.98663265851E+01 -0.26210388012E+02  0.33978561212E+02  0.00000000000E+00 0.  1.
         14    1    3    3    0    0  0.72848324270E+02  0.76585843267E+02 -0.23655290034E+03  0.25909369810E+03  0.00000000000E+00 0. -1.
        -13    1    4    4    0    0 -0.54318543191E+02 -0.23374884866E+02 -0.13562984202E+03  0.14796061443E+03  0.00000000000E+00 0.  1.
         13    1    4    4    0    0  0.34572180635E+01 -0.87311322665E+02 -0.41631967541E+03  0.42539075161E+03  0.00000000000E+00 0. -1.
         21    1    1    2  502  501 -0.27460588858E+01  0.24234037679E+02 -0.20368675812E+02  0.31775971676E+02  0.00000000000E+00 0.  1.
<scales pt_clust_5="13000.00000" pt_clust_6="13000.00000" pt_clust_7="13000.00000" pt_clust_8="13000.00000" pt_clust_9="24.38913"></scales>
<clustering>
<clus scale="   24.389">  1  9  2 -1</clus>
<clus scale="   80.617">  5  6 -1 -1</clus>
<clus scale="   96.152">  7  8 -1 -1</clus>
<clus scale="  139.049">  1  5  2 -1</clus>
<clus scale="  148.596">  2  5  1 -1</clus>
</clustering>
</event>
<event>
 9    2  0.3402837E-005  0.1006265E+03  0.7546771E-02  0.1282073E+00
          2   -1    0    0  502    0  0.00000000000E+00  0.00000000000E+00  0.13311042684E+03  0.13311042684E+03  0.00000000000E+00 0. -1.
         -1   -1    0    0    0  501 -0.00000000000E+00 -0.00000000000E+00 -0.32905813164E+03  0.32905813164E+03  0.00000000000E+00 0.  1.
         24    2    1    2    0    0  0.24505418585E+02  0.30374968724E+02 -0.23784888901E+03  0.25554636036E+03  0.84904028316E+02 0.  0.
         23    2    1    2    0    0 -0.25484380761E+02 -0.50649550039E+02 -0.45651286598E+02  0.11674755120E+03  0.91274970071E+02 0.  0.
        -13    1    3    3    0    0  0.48702346620E+02  0.25975717655E+01 -0.18363167123E+03  0.18999804373E+03  0.00000000000E+00 0.  1.
         14    1    3    3    0    0 -0.24196928035E+02  0.27777396958E+02 -0.54217217782E+02  0.65548316623E+02  0.00000000000E+00 0. -1.
        -11    1    4    4    0    0 -0.45904775505E+02 -0.77141839960E+01  0.55476911271E+01  0.46877861787E+02  0.00000000000E+00 0. -1.
         11    1    4    4    0    0  0.20420394744E+02 -0.42935366043E+02 -0.51198977725E+02  0.69869689415E+02  0.00000000000E+00 0.  1.
         21    1    1    2  502  501  0.97896217550E+00  0.20274581315E+02  0.87552470803E+02  0.89874646915E+02  0.00000000000E+00 0. -1.
<scales pt_clust_5="13000.00000" pt_clust_6="13000.00000" pt_clust_7="13000.00000" pt_clust_8="13000.00000" pt_clust_9="20.29820"></scales>
<clustering>
<clus scale="   20.298">  1  9  2 -1</clus>
<clus scale="   84.904">  5  6 -1 -1</clus>
<clus scale="   91.275">  7  8 -1 -1</clus>
<clus scale="   94.886">  2  5  1 -1</clus>
<clus scale="   20.298">  1  5  2 -1</clus>
</clustering>
</event>
<event>
 9    2  0.3402837E-005  0.1162362E+03  0.7546771E-02  0.1256913E+00
         -1   -1    0    0    0  501 -0.00000000000E+00  0.00000000000E+00  0.87706943094E+02  0.87706943094E+02  0.00000000000E+00 0.  1.
          2   -1    0    0  502    0  0.00000000000E+00 -0.00000000000E+00 -0.20872929845E+03  0.20872929845E+03  0.00000000000E+00 0. -1.
         23    2    1    2    0    0  0.15364411760E+02  0.20990887316E+02  0.60770325743E+00  0.94010077759E+02  0.90337383834E+02 0.  0.
         24    2    1    2    0    0 -0.20629900080E+02 -0.48096893692E+02 -0.12661509714E+03  0.17436709114E+03  0.10785914745E+03 0.  0.
        -11    1    4    4    0    0 -0.40533092715E+02 -0.44640715558E+01 -0.19829726011E+01  0.40826360604E+02  0.00000000000E+00 0.  1.
         12    1    4    4    0    0  0.19903192635E+02 -0.43632822136E+02 -0.12463212454E+03  0.13354073053E+03  0.00000000000E+00 0. -1.
        -11    1    3    3    0    0  0.36595096344E+02  0.45201288338E+02 -0.12080975776E+02  0.59399558244E+02  0.00000000000E+00 0.  1.
         11    1    3    3    0    0 -0.21230684584E+02 -0.24210401022E+02  0.12688679033E+02  0.34610519516E+02  0.00000000000E+00 0. -1.
         21    1    1    2  502  501  0.52654883200E+01  0.27106006376E+02  0.49850385224E+01  0.28059072650E+02  0.00000000000E+00 0.  1.
<scales pt_clust_5="13000.00000" pt_clust_6="13000.00000" pt_clust_7="13000.00000" pt_clust_8="13000.00000" pt_clust_9="27.61270"></scales>
<clustering>
<clus scale="   27.613">  1  9  2 -1</clus>
<clus scale="   90.337">  7  8 -1 -1</clus>
<clus scale="  100.190">  1  7  2 -1</clus>
<clus scale="  107.859">  5  6 -1 -1</clus>
<clus scale="  116.236">  2  5  1 -1</clus>
</clustering>
</event>
<event>
 9    2  0.3402837E-005  0.1142036E+03  0.7546771E-02  0.1257275E+00
          2   -1    0    0  502    0  0.00000000000E+00  0.00000000000E+00  0.24623675594E+03  0.24623675594E+03  0.00000000000E+00 0. -1.
         -1   -1    0    0    0  501 -0.00000000000E+00 -0.00000000000E+00 -0.17320838417E+03  0.17320838417E+03  0.00000000000E+00 0.  1.
         23    2    1    2    0    0 -0.71896254944E+02 -0.45089481293E+01 -0.12238512039E+03  0.16872485209E+03  0.91107386815E+02 0.  0.
         24    2    1    2    0    0  0.39936091187E+02  0.39547536436E+02  0.17278770850E+03  0.19817430031E+03  0.79111074308E+02 0.  0.
        -11    1    4    4    0    0 -0.12155539512E+02  0.42918326883E+02  0.86542355455E+02  0.97361795438E+02  0.00000000000E+00 0.  1.
         12    1    4    4    0    0  0.52091630700E+02 -0.33707904471E+01  0.86245353048E+02  0.10081250488E+03  0.00000000000E+00 0. -1.
        -11    1    3    3    0    0 -0.93591402348E+02 -0.60955835799E+01 -0.92211100982E+02  0.13152716023E+03  0.00000000000E+00 0.  1.
         11    1    3    3    0    0  0.21695147404E+02  0.15866354506E+01 -0.30174019407E+02  0.37197691865E+02  0.00000000000E+00 0. -1.
         21    1    1    2  502  501  0.31960163757E+02 -0.35038588307E+02  0.22625783661E+02  0.52545987708E+02  0.00000000000E+00 0. -1.
<scales pt_clust_5="13000.00000" pt_clust_6="13000.00000" pt_clust_7="13000.00000" pt_clust_8="13000.00000" pt_clust_9="47.42525"></scales>
<clustering>
<clus scale="   47.425">  1  9  2 -1</clus>
<clus scale="   79.111">  5  6 -1 -1</clus>
<clus scale="   91.107">  7  8 -1 -1</clus>
<clus scale="  104.883">  1  5  2 -1</clus>
<clus scale="   47.425">  1  5  2 -1</clus>
</clustering>
</event>
<event>
 9    2  0.3402837E-005  0.9616075E+02  0.7546771E-02  0.1292960E+00
          2   -1    0    0  502    0  0.00000000000E+00  0.00000000000E+00  0.20264168970E+04  0.20264168970E+04  0.00000000000E+00 0. -1.
         -1   -1    0    0    0  501 -0.00000000000E+00 -0.00000000000E+00 -0.29699324313E+02  0.29699324313E+02  0.00000000000E+00 0.  1.
         23    2    1    2    0    0  0.13657520069E+02  0.18088412272E+02  0.31918763747E+03  0.33257893072E+03  0.90632658189E+02 0.  0.
         24    2    1    2    0    0 -0.34963969791E+02 -0.26075719349E+01  0.16913962591E+04  0.16937732828E+04  0.82567243386E+02 0.  0.
        -11    1    4    4    0    0 -0.22822511330E+02 -0.15492690347E+02  0.16614473814E+03  0.16841901463E+03  0.00000000000E+00 0.  1.
         12    1    4    4    0    0 -0.12141458460E+02  0.12885118412E+02  0.15252515210E+04  0.15253542682E+04  0.00000000000E+00 0. -1.
        -11    1    3    3    0    0 -0.58183451134E+00 -0.34108543006E+02  0.18081373527E+03  0.18400363610E+03  0.00000000000E+00 0.  1.
         11    1    3    3    0    0  0.14239354581E+02  0.52196955279E+02  0.13837390220E+03  0.14857529461E+03  0.00000000000E+00 0. -1.
         21    1    1    2  502  501  0.21306449721E+02 -0.15480840337E+02 -0.13866323924E+02  0.29764007735E+02  0.00000000000E+00 0.  1.
<scales pt_clust_5="13000.00000" pt_clust_6="13000.00000" pt_clust_7="13000.00000" pt_clust_8="13000.00000" pt_clust_9="26.33669"></scales>
<clustering>
<clus scale="   26.337">  2  9  1 -1</clus>
<clus scale="   82.567">  5  6 -1 -1</clus>
<clus scale="   88.600">  1  5  2 -1</clus>
<clus scale="   90.633">  7  8 -1 -1</clus>
<clus scale="   88.600">  1  5  2 -1</clus>
</clustering>
</event>
<event>
 9    2  0.3402837E-005  0.1403359E+03  0.7546771E-02  0.1214546E+00
         -3   -1    0    0    0  501 -0.00000000000E+00  0.00000000000E+00  0.30445818283E+03  0.30445818283E+03  0.00000000000E+00 0.  1.
          4   -1    0    0  502    0  0.00000000000E+00 -0.00000000000E+00 -0.11649439747E+03  0.11649439747E+03  0.00000000000E+00 0. -1.
         24    2    1    2    0    0  0.10307117154E+02 -0.10565847624E+03  0.20425755813E+03  0.24435403409E+03  0.81962147716E+02 0.  0.
         23    2    1    2    0    0  0.12899948360E+02  0.10797327017E+03 -0.36574845611E+02  0.14569145841E+03  0.89797806112E+02 0.  0.
        -11    1    3    3    0    0  0.64258856414E+01 -0.11352452948E+03  0.14409353033E+03  0.18355396014E+03  0.00000000000E+00 0.  1.
         12    1    3    3    0    0  0.38812315128E+01  0.78660532378E+01  0.60164027802E+02  0.60800073955E+02  0.00000000000E+00 0. -1.
        -13    1    4    4    0    0  0.32494081304E+02  0.30584362534E+01  0.68725841208E+00  0.32644933393E+02  0.00000000000E+00 0.  1.
         13    1    4    4    0    0 -0.19594132944E+02  0.10491483392E+03 -0.37262104023E+02  0.11304652501E+03  0.00000000000E+00 0. -1.
         21    1    1    2  502  501 -0.23207065514E+02 -0.23147939308E+01  0.20281072839E+02  0.30907087799E+02  0.00000000000E+00 0. -1.
<scales pt_clust_5="13000.00000" pt_clust_6="13000.00000" pt_clust_7="13000.00000" pt_clust_8="13000.00000" pt_clust_9="23.32222"></scales>
<clustering>
<clus scale="   23.322">  1  9  2 -1</clus>
<clus scale="   81.962">  5  6 -1 -1</clus>
<clus scale="   89.798">  7  8 -1 -1</clus>
<clus scale="  135.456">  1  5  2 -1</clus>
<clus scale="  140.336">  2  5  1 -1</clus>
</clustering>
</event>
<event>
 9    2  0.3402837E-005  0.1173079E+03  0.7546771E-02  0.1252894E+00
          2   -1    0    0  502    0  0.00000000000E+00  0.00000000000E+00  0.30214034529E+03  0.30214034529E+03  0.00000000000E+00 0. -1.
         -1   -1    0    0    0  501 -0.00000000000E+00 -0.00000000000E+00 -0.14501914577E+03  0.14501914577E+03  0.00000000000E+00 0.  1.
         23    2    1    2    0    0 -0.63544771152E+02 -0.20717120193E+02 -0.76729611668E+02  0.13798717651E+03  0.93198125321E+02 0.  0.
         24    2    1    2    0    0  0.71619321189E+02 -0.99229002727E+01  0.25140881523E+03  0.27294673356E+03  0.77882834221E+02 0.  0.
        -13    1    4    4    0    0  0.12726811650E+00 -0.25546165079E+02  0.28212949721E+02  0.38060389900E+02  0.00000000000E+00 0.  1.
         14    1    4    4    0    0  0.71492053073E+02  0.15623264806E+02  0.22319586551E+03  0.23488634366E+03  0.00000000000E+00 0. -1.
        -13    1    3    3    0    0  0.70484646984E+01  0.26668422622E+02 -0.81770051372E+01  0.28770627952E+02  0.00000000000E+00 0. -1.
         13    1    3    3    0    0 -0.70593235851E+02 -0.47385542815E+02 -0.68552606531E+02  0.10921654855E+03  0.00000000000E+00 0.  1.
         21    1    1    2  502  501 -0.80745500370E+01  0.30640020466E+02 -0.17558004039E+02  0.36225580993E+02  0.00000000000E+00 0.  1.
<scales pt_clust_5="13000.00000" pt_clust_6="13000.00000" pt_clust_7="13000.00000" pt_clust_8="13000.00000" pt_clust_9="31.68610"></scales>
<clustering>
<clus scale="   31.686">  2  9  1 -1</clus>
<clus scale="   77.883">  5  6 -1 -1</clus>
<clus scale="   93.198">  7  8 -1 -1</clus>
<clus scale="  105.551">  1  5  2 -1</clus>
<clus scale="  105.551">  1  5  2 -1</clus>
</clustering>
</event>
<event>
 9    2  0.3402837E-005  0.1171939E+03  0.7546771E-02  0.1251328E+00
         -1   -1    0    0    0  501 -0.00000000000E+00  0.00000000000E+00  0.52619709461E+02  0.52619709461E+02  0.00000000000E+00 0.  1.
          2   -1    0    0  502    0  0.00000000000E+00 -0.00000000000E+00 -0.34529244054E+03  0.34529244054E+03  0.00000000000E+00 0. -1.
         23    2    1    2    0    0 -0.56759181135E+02  0.36735485942E+02 -0.69463896971E+02  0.13307496373E+03  0.91173529161E+02 0.  0.
         24    2    1    2    0    0  0.52147477105E+02 -0.56436170021E+02 -0.21657214441E+03  0.24354328063E+03  0.80656277800E+02 0.  0.
        -11    1    4    4    0    0  0.31861441697E+02 -0.67648900520E+02 -0.10099187621E+03  0.12566178523E+03  0.00000000000E+00 0.  1.
         12    1    4    4    0    0  0.20286035409E+02  0.11212730498E+02 -0.11558026820E+03  0.11788149539E+03  0.00000000000E+00 0. -1.
        -13    1    3    3    0    0 -0.14224105210E+02 -0.21483005033E+02 -0.53275121819E+02  0.59178402134E+02  0.00000000000E+00 0.  1.
         13    1    3    3    0    0 -0.42535075926E+02  0.58218490975E+02 -0.16188775152E+02  0.73896561600E+02  0.00000000000E+00 0. -1.
         21    1    1    2  502  501  0.46117040300E+01  0.19700684079E+02 -0.66366896970E+01  0.21293905640E+02  0.00000000000E+00 0. -1.
<scales pt_clust_5="13000.00000" pt_clust_6="13000.00000" pt_clust_7="13000.00000" pt_clust_8="13000.00000" pt_clust_9="20.23326"></scales>
<clustering>
<clus scale="   20.233">  1  9  2 -1</clus>
<clus scale="   80.656">  5  6 -1 -1</clus>
<clus scale="   91.174">  7  8 -1 -1</clus>
<clus scale="  109.212">  2  5  1 -1</clus>
<clus scale="  109.212">  2  5  1 -1</clus>
</clustering>
</event>
<event>
 9    2  0.3402837E-005  0.1229512E+03  0.7546771E-02  0.1242015E+00
         -1   -1    0    0    0  501 -0.00000000000E+00  0.00000000000E+00  0.48213342137E+02  0.48213342137E+02  0.00000000000E+00 0.  1.
          2   -1    0    0  502    0  0.00000000000E+00 -0.00000000000E+00 -0.84760044922E+03  0.84760044922E+03  0.00000000000E+00 0. -1.
         23    2    1    2    0    0 -0.62743198274E+02 -0.35033752098E+02 -0.37359576388E+03  0.39132727910E+03  0.91646995915E+02 0.  0.
         24    2    1    2    0    0  0.74243405947E+02  0.52973805658E+02 -0.45361710186E+03  0.46943835762E+03  0.79281707179E+02 0.  0.
        -13    1    4    4    0    0  0.64401313783E+02  0.96409568362E+00 -0.19185309475E+03  0.20237605753E+03  0.00000000000E+00 0.  1.
         14    1    4    4    0    0  0.98420921642E+01  0.52009709975E+02 -0.26176400711E+03  0.26706230009E+03  0.00000000000E+00 0. -1.
        -13    1    3    3    0    0  0.17680357284E+02 -0.29859185854E+02 -0.13936574266E+03  0.14362094638E+03  0.00000000000E+00 0.  1.
         13    1    3    3    0    0 -0.80423555558E+02 -0.51745662436E+01 -0.23423002123E+03  0.24770633272E+03  0.00000000000E+00 0. -1.
         21    1    1    2  502  501 -0.11500207672E+02 -0.17940053561E+02  0.27825758662E+02  0.35048154636E+02  0.00000000000E+00 0.  1.
<scales pt_clust_5="13000.00000" pt_clust_6="13000.00000" pt_clust_7="13000.00000" pt_clust_8="13000.00000" pt_clust_9="21.30963"></scales>
<clustering>
<clus scale="   21.310">  1  9  2 -1</clus>
<clus scale="   79.282">  5  6 -1 -1</clus>
<clus scale="   91.647">  7  8 -1 -1</clus>
<clus scale="  114.033">  2  5  1 -1</clus>
<clus scale="  114.033">  2  5  1 -1</clus>
</clustering>
</event>
<event>
 9    2  0.3402837E-005  0.1842905E+03  0.7546771E-02  0.1165364E+00
         -1   -1    0    0    0  501 -0.00000000000E+00  0.00000000000E+00  0.31774368737E+02  0.31774368737E+02  0.00000000000E+00 0.  1.
          2   -1    0    0  502    0  0.00000000000E+00 -0.00000000000E+00 -0.14828311469E+04  0.14828311469E+04  0.00000000000E+00 0. -1.
         24    2    1    2    0    0  0.65170396612E+02 -0.14674173293E+03 -0.52961476025E+03  0.55869260313E+03  0.76585336287E+02 0.  0.
         23    2    1    2    0    0 -0.31087360283E+01  0.16545721616E+03 -0.71161202229E+03  0.73629837271E+03  0.91421380290E+02 0.  0.
        -13    1    3    3    0    0  0.46969701357E+02 -0.31650144842E+02 -0.11776905897E+03  0.13068066332E+03  0.00000000000E+00 0.  1.
         14    1    3    3    0    0  0.18200695255E+02 -0.11509158808E+03 -0.41184570128E+03  0.42801193981E+03  0.00000000000E+00 0. -1.
        -11    1    4    4    0    0  0.32078504248E+02  0.48139504074E+02 -0.13586669693E+03  0.14766923045E+03  0.00000000000E+00 0.  1.
         11    1    4    4    0    0 -0.35187240276E+02  0.11731771208E+03 -0.57574532535E+03  0.58862914226E+03  0.00000000000E+00 0. -1.
         21    1    1    2  502  501 -0.62061660584E+02 -0.18715483232E+02 -0.20982999557E+03  0.21961453975E+03  0.00000000000E+00 0. -1.
<scales pt_clust_5="13000.00000" pt_clust_6="13000.00000" pt_clust_7="13000.00000" pt_clust_8="13000.00000" pt_clust_9="64.82221"></scales>
<clustering>
<clus scale="   64.822">  1  9  2 -1</clus>
<clus scale="   76.585">  5  6 -1 -1</clus>
<clus scale="   91.421">  7  8 -1 -1</clus>
<clus scale="  177.399">  1  5  2 -1</clus>
<clus scale="  184.291">  2  5  1 -1</clus>
</clustering>
</event>
<event>
 9    2  0.3402837E-005  0.1615183E+03  0.7546771E-02  0.1189122E+00
          2   -1    0    0  502    0  0.00000000000E+00  0.00000000000E+00  0.11142066063E+04  0.11142066063E+04  0.00000000000E+00 0. -1.
         -1   -1    0    0    0  501 -0.00000000000E+00 -0.00000000000E+00 -0.42111666709E+02  0.42111666709E+02  0.00000000000E+00 0.  1.
         23    2    1    2    0    0  0.14644699486E+03  0.17078284553E+02  0.26196855681E+03  0.31503516501E+03  0.94240332808E+02 0.  0.
         24    2    1    2    0    0 -0.12588714585E+03 -0.16096339653E+02  0.80646029550E+03  0.82037588905E+03  0.80819091055E+02 0.  0.
        -13    1    4    4    0    0 -0.60623388026E+02 -0.35420931266E+02  0.24684427203E+03  0.25663579677E+03  0.00000000000E+00 0.  1.
         14    1    4    4    0    0 -0.65263757824E+02  0.19324591614E+02  0.55961602347E+03  0.56374009228E+03  0.00000000000E+00 0. -1.
        -13    1    3    3    0    0  0.12666828976E+03  0.48620566854E+02  0.18380866037E+03  0.22846102245E+03  0.00000000000E+00 0.  1.
         13    1    3    3    0    0  0.19778705103E+02 -0.31542282301E+02  0.78159896446E+02  0.86574142564E+02  0.00000000000E+00 0. -1.
         21    1    1    2  502  501 -0.20559849011E+02 -0.98194490052E+00  0.36660872493E+01  0.20907218918E+02  0.00000000000E+00 0.  1.
<scales pt_clust_5="13000.00000" pt_clust_6="13000.00000" pt_clust_7="13000.00000" pt_clust_8="13000.00000" pt_clust_9="20.58328"></scales>
<clustering>
<clus scale="   20.583">  2  9  1 -1</clus>
<clus scale="   80.819">  5  6 -1 -1</clus>
<clus scale="   94.240">  7  8 -1 -1</clus>
<clus scale="  154.074">  1  5  2 -1</clus>
<clus scale="  154.074">  1  5  2 -1</clus>
</clustering>
</event>
<event>
 9    2  0.3402837E-005  0.9861807E+02  0.7546771E-02  0.1288677E+00
         -1   -1    0    0    0  501 -0.00000000000E+00  0.00000000000E+00  0.55027733978E+02  0.55027733978E+02  0.00000000000E+00 0.  1.
          2   -1    0    0  502    0  0.00000000000E+00 -0.00000000000E+00 -0.40046509874E+03  0.40046509874E+03  0.00000000000E+00 0. -1.
         23    2    1    2    0    0  0.41191817755E+02  0.22424265765E+02 -0.19488775733E+02  0.10627439064E+03  0.93353201236E+02 0.  0.
         24    2    1    2    0    0 -0.15055199552E+02 -0.26417386308E+02 -0.29747201774E+03  0.31035994320E+03  0.83121331028E+02 0.  0.
        -13    1    4    4    0    0  0.20956112972E+02  0.20138259623E+02 -0.82206001739E+02  0.87192516270E+02  0.00000000000E+00 0.  1.
         14    1    4    4    0    0 -0.36011312524E+02 -0.46555645931E+02 -0.21526601600E+03  0.22316742693E+03  0.00000000000E+00 0. -1.
        -13    1    3    3    0    0 -0.23867487088E+02  0.14248849118E+02  0.15630921321E+02  0.31890630951E+02  0.00000000000E+00 0.  1.
         13    1    3    3    0    0  0.65059304844E+02  0.81754166471E+01 -0.35119697055E+02  0.74383759688E+02  0.00000000000E+00 0. -1.
         21    1    1    2  502  501 -0.26136618203E+02  0.39931205431E+01 -0.28476571288E+02  0.38858498879E+02  0.00000000000E+00 0.  1.
<scales pt_clust_5="13000.00000" pt_clust_6="13000.00000" pt_clust_7="13000.00000" pt_clust_8="13000.00000" pt_clust_9="26.43989"></scales>
<clustering>
<clus scale="   26.440">  1  9  2 -1</clus>
<clus scale="   83.121">  5  6 -1 -1</clus>
<clus scale="   88.994">  2  5  1 -1</clus>
<clus scale="   93.353">  7  8 -1 -1</clus>
<clus scale="   88.994">  2  5  1 -1</clus>
</clustering>
</event>
<event>
 9    2  0.3402837E-005  0.1631687E+03  0.7546771E-02  0.1187300E+00
         -1   -1    0    0    0  501 -0.00000000000E+00  0.00000000000E+00  0.52105286585E+02  0.52105286585E+02  0.00000000000E+00 0.  1.
          2   -1    0    0  502    0  0.00000000000E+00 -0.00000000000E+00 -0.91333456709E+03  0.91333456709E+03  0.00000000000E+00 0. -1.
         23    2    1    2    0    0  0.83216365309E+02 -0.12381529547E+03 -0.19104490507E+03  0.25954350551E+03  0.92787308697E+02 0.  0.
         24    2    1    2    0    0 -0.65275917556E+02  0.11303863643E+03 -0.66763136614E+03  0.68481284982E+03  0.78729406748E+02 0.  0.
        -11    1    4    4    0    0 -0.58094600348E+02  0.87263553137E+02 -0.33295665352E+03  0.34907025571E+03  0.00000000000E+00 0.  1.
         12    1    4    4    0    0 -0.71813172080E+01  0.25775083297E+02 -0.33467471262E+03  0.33574259412E+03  0.00000000000E+00 0. -1.
        -11    1    3    3    0    0 -0.73830206572E+01 -0.52117000866E+02 -0.97829741362E+02  0.11109162465E+03  0.00000000000E+00 0. -1.
         11    1    3    3    0    0  0.90599385967E+02 -0.71698294602E+02 -0.93215163707E+02  0.14845188086E+03  0.00000000000E+00 0.  1.
         21    1    1    2  502  501 -0.17940447754E+02  0.10776659033E+02 -0.25530092915E+01  0.21083498333E+02  0.00000000000E+00 0.  1.
<scales pt_clust_5="13000.00000" pt_clust_6="13000.00000" pt_clust_7="13000.00000" pt_clust_8="13000.00000" pt_clust_9="20.92836"></scales>
<clustering>
<clus scale="   20.928">  1  9  2 -1</clus>
<clus scale="   78.729">  5  6 -1 -1</clus>
<clus scale="   92.787">  7  8 -1 -1</clus>
<clus scale="  155.605">  2  5  1 -1</clus>
<clus scale="  155.605">  2  5  1 -1</clus>
</clustering>
</event>
<event>
 9    2  0.3402837E-005  0.9123643E+02  0.7546771E-02  0.1304741E+00
         -3   -1    0    0    0  501 -0.00000000000E+00  0.00000000000E+00  0.27676691606E+03  0.27676691606E+03  0.00000000000E+00 0.  1.
          4   -1    0    0  502    0  0.00000000000E+00 -0.00000000000E+00 -0.79252004717E+02  0.79252004717E+02  0.00000000000E+00 0. -1.
         24    2    1    2    0    0  0.14497899754E+02 -0.87964744675E+01  0.19090188179E+03  0.20830674014E+03  0.81612514107E+02 0.  0.
         23    2    1    2    0    0  0.78743540136E+01  0.41430340582E+02 -0.18700126735E+02  0.10074152131E+03  0.89558253691E+02 0.  0.
        -13    1    3    3    0    0 -0.26823330117E+02  0.19530197545E+02  0.71706775516E+02  0.79011273307E+02  0.00000000000E+00 0.  1.
         14    1    3    3    0    0  0.41321229871E+02 -0.28326672013E+02  0.11919510627E+03  0.12929546683E+03  0.00000000000E+00 0. -1.
        -13    1    4    4    0    0 -0.83011397460E+01  0.58915505395E+02 -0.37558448502E+02  0.70360377705E+02  0.00000000000E+00 0. -1.
         13    1    4    4    0    0  0.16175493760E+02 -0.17485164813E+02  0.18858321766E+02  0.30381143605E+02  0.00000000000E+00 0.  1.
         21    1    1    2  502  501 -0.22372253767E+02 -0.32633866114E+02  0.25313156297E+02  0.46970659330E+02  0.00000000000E+00 0.  1.
<scales pt_clust_5="13000.00000" pt_clust_6="13000.00000" pt_clust_7="13000.00000" pt_clust_8="13000.00000" pt_clust_9="39.56624"></scales>
<clustering>
<clus scale="   39.566">  2  9  1 -1</clus>
<clus scale="   81.613">  5  6 -1 -1</clus>
<clus scale="   83.451">  1  5  2 -1</clus>
<clus scale="   89.558">  7  8 -1 -1</clus>
<clus scale="   39.566">  2  5  1 -1</clus>
</clustering>
</event>
<event>
 9    2  0.3402837E-005  0.1094039E+03  0.7546771E-02  0.1265950E+00
          2   -1    0    0  502    0  0.00000000000E+00  0.00000000000E+00  0.39632003592E+03  0.39632003592E+03  0.00000000000E+00 0. -1.
         -1   -1    0    0    0  501 -0.00000000000E+00 -0.00000000000E+00 -0.74683581451E+02  0.74683581451E+02  0.00000000000E+00 0.  1.
         24    2    1    2    0    0 -0.35569073171E+02  0.36370608603E+02 -0.71756396440E+00  0.95452037777E+02  0.80762593330E+02 0.  0.
         23    2    1    2    0    0  0.27309009838E+02 -0.55857225093E+02  0.33369438484E+03  0.35153989955E+03  0.91446962144E+02 0.  0.
        -13    1    3    3    0    0 -0.49537185651E+02 -0.60095490759E+01 -0.70010327569E+01  0.50389104992E+02  0.00000000000E+00 0.  1.
         14    1    3    3    0    0  0.13968112479E+02  0.42380157679E+02  0.62834687925E+01  0.45062932785E+02  0.00000000000E+00 0. -1.
        -13    1    4    4    0    0 -0.19630603126E+02 -0.55195284432E+02  0.13135773800E+03  0.14382884042E+03  0.00000000000E+00 0.  1.
         13    1    4    4    0    0  0.46939612964E+02 -0.66194066040E+00  0.20233664684E+03  0.20771105913E+03  0.00000000000E+00 0. -1.
         21    1    1    2  502  501  0.82600633333E+01  0.19486616490E+02 -0.11340366407E+02  0.24011680049E+02  0.00000000000E+00 0.  1.
<scales pt_clust_5="13000.00000" pt_clust_6="13000.00000" pt_clust_7="13000.00000" pt_clust_8="13000.00000" pt_clust_9="21.16499"></scales>
<clustering>
<clus scale="   21.165">  2  9  1 -1</clus>
<clus scale="   80.763">  5  6 -1 -1</clus>
<clus scale="   91.447">  7  8 -1 -1</clus>
<clus scale="  100.644">  2  5  1 -1</clus>
<clus scale="  109.404">  1  5  2 -1</clus>
</clustering>
</event>
<event>
 9    2  0.3402837E-005  0.9567566E+02  0.7546771E-02  0.1295719E+00
         -1   -1    0    0    0  501 -0.00000000000E+00  0.00000000000E+00  0.32654047541E+02  0.32654047541E+02  0.00000000000E+00 0.  1.
          2   -1    0    0  502    0  0.00000000000E+00 -0.00000000000E+00 -0.98627330666E+03  0.98627330666E+03  0.00000000000E+00 0. -1.
         23    2    1    2    0    0 -0.10437943975E+02  0.19411201685E+02 -0.59962576377E+02  0.11151444365E+03  0.91401395784E+02 0.  0.
         24    2    1    2    0    0 -0.31860958916E+02  0.43962050364E+01 -0.76489654119E+03  0.76980780943E+03  0.80640544530E+02 0.  0.
        -11    1    4    4    0    0 -0.42560015939E+02 -0.18777144462E+02 -0.25077044754E+03  0.25504853160E+03  0.00000000000E+00 0.  1.
         12    1    4    4    0    0  0.10699057023E+02  0.23173349499E+02 -0.51412609365E+03  0.51475927784E+03  0.00000000000E+00 0. -1.
        -13    1    3    3    0    0 -0.29652950244E+02 -0.11448721632E+02 -0.67299371965E+02  0.74428328962E+02  0.00000000000E+00 0.  1.
         13    1    3    3    0    0  0.19215006269E+02  0.30859923317E+02  0.73367955879E+01  0.37086114687E+02  0.00000000000E+00 0. -1.
         21    1    1    2  502  501  0.42298902891E+02 -0.23807406722E+02 -0.12876014155E+03  0.13760510112E+03  0.00000000000E+00 0. -1.
<scales pt_clust_5="13000.00000" pt_clust_6="13000.00000" pt_clust_7="13000.00000" pt_clust_8="13000.00000" pt_clust_9="48.53854"></scales>
<clustering>
<clus scale="   48.539">  1  9  2 -1</clus>
<clus scale="   80.641">  5  6 -1 -1</clus>
<clus scale="   85.455">  2  5  1 -1</clus>
<clus scale="   91.401">  7  8 -1 -1</clus>
<clus scale="   85.455">  2  5  1 -1</clus>
</clustering>
</event>
<event>
 9    2  0.3402837E-005  0.1365795E+03  0.7546771E-02  0.1219977E+00
         -1   -1    0    0    0  501 -0.00000000000E+00  0.00000000000E+00  0.32844885915E+03  0.32844885915E+03  0.00000000000E+00 0.  1.
          2   -1    0    0  502    0  0.00000000000E+00 -0.00000000000E+00 -0.15831836674E+03  0.15831836674E+03  0.00000000000E+00 0. -1.
         24    2    1    2    0    0 -0.74869417555E+02 -0.70777414665E+02  0.26091570326E+03  0.29228087129E+03  0.82074547846E+02 0.  0.
         23    2    1    2    0    0  0.88009743732E+02  0.52190426921E+02 -0.10056415577E+03  0.16971193131E+03  0.90661097229E+02 0.  0.
        -13    1    3    3    0    0 -0.82274188841E+02 -0.83321852733E+02  0.23473141030E+03  0.26231738081E+03  0.00000000000E+00 0.  1.
         14    1    3    3    0    0  0.74047712856E+01  0.12544438068E+02  0.26184292959E+02  0.29963490484E+02  0.00000000000E+00 0. -1.
        -11    1    4    4    0    0  0.21941800565E+02 -0.26156752940E+02 -0.27691239262E+02  0.43959334256E+02  0.00000000000E+00 0.  1.
         11    1    4    4    0    0  0.66067943167E+02  0.78347179861E+02 -0.72872916506E+02  0.12575259706E+03  0.00000000000E+00 0. -1.
         21    1    1    2  502  501 -0.13140326177E+02  0.18586987744E+02  0.97789449187E+01  0.24774423286E+02  0.00000000000E+00 0.  1.
<scales pt_clust_5="13000.00000" pt_clust_6="13000.00000" pt_clust_7="13000.00000" pt_clust_8="13000.00000" pt_clust_9="22.76278"></scales>
<clustering>
<clus scale="   22.763">  1  9  2 -1</clus>
<clus scale="   82.075">  5  6 -1 -1</clus>
<clus scale="   90.661">  7  8 -1 -1</clus>
<clus scale="  131.037">  1  5  2 -1</clus>
<clus scale="  136.580">  2  5  1 -1</clus>
</clustering>
</event>
<event>
 9    2  0.3402837E-005  0.1032853E+03  0.7546771E-02  0.1275657E+00
         -1   -1    0    0    0  501 -0.00000000000E+00  0.00000000000E+00  0.81481956011E+02  0.81481956011E+02  0.00000000000E+00 0.  1.
          2   -1    0    0  502    0  0.00000000000E+00 -0.00000000000E+00 -0.10034477321E+04  0.10034477321E+04  0.00000000000E+00 0. -1.
         23    2    1    2    0    0  0.27636445122E+02  0.72771166706E+02 -0.46875415274E+03  0.48280982406E+03  0.85530431393E+02 0.  0.
         24    2    1    2    0    0 -0.18111396792E+02 -0.42556201054E+02 -0.51998680215E+03  0.52821049248E+03  0.80504639695E+02 0.  0.
        -13    1    4    4    0    0  0.57531239609E+01 -0.61822836067E+02 -0.35841246075E+03  0.36375081239E+03  0.00000000000E+00 0.  1.
         14    1    4    4    0    0 -0.23864520753E+02  0.19266635013E+02 -0.16157434140E+03  0.16445968009E+03  0.00000000000E+00 0. -1.
        -13    1    3    3    0    0 -0.27597638315E+02  0.38196931579E+02 -0.14179330498E+03  0.14941879587E+03  0.00000000000E+00 0. -1.
         13    1    3    3    0    0  0.55234083438E+02  0.34574235127E+02 -0.32696084776E+03  0.33339102819E+03  0.00000000000E+00 0.  1.
         21    1    1    2  502  501 -0.95250483302E+01 -0.30214965652E+02  0.66775178827E+02  0.73909371547E+02  0.00000000000E+00 0.  1.
<scales pt_clust_5="13000.00000" pt_clust_6="13000.00000" pt_clust_7="13000.00000" pt_clust_8="13000.00000" pt_clust_9="31.68076"></scales>
<clustering>
<clus scale="   31.681">  1  9  2 -1</clus>
<clus scale="   80.505">  5  6 -1 -1</clus>
<clus scale="   85.530">  7  8 -1 -1</clus>
<clus scale="   99.163">  2  5  1 -1</clus>
<clus scale="   99.163">  2  5  1 -1</clus>
</clustering>
</event>
<event>
 9    2  0.3402837E-005  0.1154004E+03  0.7546771E-02  0.1258483E+00
         -3   -1    0    0    0  501 -0.00000000000E+00  0.00000000000E+00  0.15296222509E+03  0.15296222509E+03  0.00000000000E+00 0.  1.
          4   -1    0    0  502    0  0.00000000000E+00 -0.00000000000E+00 -0.12884639361E+03  0.12884639361E+03  0.00000000000E+00 0. -1.
         23    2    1    2    0    0 -0.43358692740E+02  0.24407030523E+02  0.86173338480E+02  0.13658278209E+03  0.93559247134E+02 0.  0.
         24    2    1    2    0    0  0.60353385577E+02 -0.39279837670E+02 -0.66713991272E+02  0.12216715445E+03  0.72722900088E+02 0.  0.
        -13    1    4    4    0    0  0.47639664753E+02 -0.18741326163E+02  0.22723021233E-01  0.51193510140E+02  0.00000000000E+00 0.  1.
         14    1    4    4    0    0  0.12713720824E+02 -0.20538511507E+02 -0.66736714293E+02  0.70973644311E+02  0.00000000000E+00 0. -1.
        -13    1    3    3    0    0  0.16621912747E+01 -0.27874829854E+02  0.23594401168E+01  0.28023846575E+02  0.00000000000E+00 0. -1.
         13    1    3    3    0    0 -0.45020884015E+02  0.52281860377E+02  0.83813898363E+02  0.10855893552E+03  0.00000000000E+00 0.  1.
         21    1    1    2  502  501 -0.16994692837E+02  0.14872807147E+02  0.46564842719E+01  0.23058682157E+02  0.00000000000E+00 0.  1.
<scales pt_clust_5="13000.00000" pt_clust_6="13000.00000" pt_clust_7="13000.00000" pt_clust_8="13000.00000" pt_clust_9="22.58362"></scales>
<clustering>
<clus scale="   22.584">  1  9  2 -1</clus>
<clus scale="   72.723">  5  6 -1 -1</clus>
<clus scale="   93.559">  7  8 -1 -1</clus>
<clus scale="   99.260">  2  5  1 -1</clus>
<clus scale="   99.260">  2  5  1 -1</clus>
</clustering>
</event>
<event>
 9    2  0.3402837E-005  0.1056127E+03  0.7546771E-02  0.1275606E+00
          2   -1    0    0  502    0  0.00000000000E+00  0.00000000000E+00  0.16478225201E+03  0.16478225201E+03  0.00000000000E+00 0. -1.
         -1   -1    0    0    0  501 -0.00000000000E+00 -0.00000000000E+00 -0.36158952997E+03  0.36158952997E+03  0.00000000000E+00 0.  1.
         23    2    1    2    0    0 -0.57168065572E+02 -0.67837378045E+01 -0.19726574185E+03  0.22525002553E+03  0.92247462155E+02 0.  0.
         24    2    1    2    0    0  0.11683466301E+02 -0.53463657030E+02  0.12418836194E+03  0.15618147555E+03  0.77298370330E+02 0.  0.
        -11    1    4    4    0    0  0.25224273076E+02  0.62732016002E+01  0.69001845556E+02  0.73735145627E+02  0.00000000000E+00 0.  1.
         12    1    4    4    0    0 -0.13540806775E+02 -0.59736858630E+02  0.55186516384E+02  0.82446329923E+02  0.00000000000E+00 0. -1.
        -13    1    3    3    0    0 -0.13640006237E+02 -0.47097117185E+02 -0.80005629581E+02  0.93835435641E+02  0.00000000000E+00 0.  1.
         13    1    3    3    0    0 -0.43528059335E+02  0.40313379380E+02 -0.11726011227E+03  0.13141458989E+03  0.00000000000E+00 0. -1.
         21    1    1    2  502  501  0.45484599271E+02  0.60247394834E+02 -0.12372989805E+03  0.14494028090E+03  0.00000000000E+00 0.  1.
<scales pt_clust_5="13000.00000" pt_clust_6="13000.00000" pt_clust_7="13000.00000" pt_clust_8="13000.00000" pt_clust_9="75.48905"></scales>
<clustering>
<clus scale="   75.489">  2  9  1 -1</clus>
<clus scale="   77.298">  5  6 -1 -1</clus>
<clus scale="   92.247">  7  8 -1 -1</clus>
<clus scale="   92.841">  1  5  2 -1</clus>
<clus scale="   92.841">  1  5  2 -1</clus>
</clustering>
</event>
<event>
 9    2  0.3402837E-005  0.1493932E+03  0.7546771E-02  0.1219740E+00
          2   -1    0    0  502    0  0.00000000000E+00  0.00000000000E+00  0.23595168207E+03  0.23595168207E+03  0.00000000000E+00 0. -1.
         -1   -1    0    0    0  501 -0.00000000000E+00 -0.00000000000E+00 -0.27715947628E+03  0.27715947628E+03  0.00000000000E+00 0.  1.
         24    2    1    2    0    0 -0.22870801489E+02  0.86690372892E+02  0.13974306104E+03  0.19836579950E+03  0.10854756096E+03 0.  0.
         23    2    1    2    0    0 -0.38295254291E+02 -0.24087590594E+01  0.59372978440E+01  0.10080177146E+03  0.93023744299E+02 0.  0.
        -11    1    3    3    0    0 -0.27760567919E+02  0.25909886641E+02 -0.77580301221E+01  0.38757688118E+02  0.00000000000E+00 0.  1.
         12    1    3    3    0    0  0.48897664302E+01  0.60780486251E+02  0.14750109117E+03  0.15960811138E+03  0.00000000000E+00 0. -1.
        -13    1    4    4    0    0 -0.41867295579E+02 -0.35975079278E+02  0.26546459795E+02  0.61251867693E+02  0.00000000000E+00 0. -1.
         13    1    4    4    0    0  0.35720412883E+01  0.33566320219E+02 -0.20609161951E+02  0.39549903772E+02  0.00000000000E+00 0.  1.
         21    1    1    2  502  501  0.61166055780E+02 -0.84281613832E+02 -0.18688815311E+03  0.21394358738E+03  0.00000000000E+00 0.  1.
<scales pt_clust_5="13000.00000" pt_clust_6="13000.00000" pt_clust_7="13000.00000" pt_clust_8="13000.00000" pt_clust_9="102.64378"></scales>
<clustering>
<clus scale="   93.024">  7  8 -1 -1</clus>
<clus scale="  100.627">  1  7  2 -1</clus>
<clus scale="  102.644">  2  9  1 -1</clus>
<clus scale="  108.548">  5  6 -1 -1</clus>
<clus scale="  100.627">  1  5  2 -1</clus>
</clustering>
</event>
<event>
 9    2  0.3402837E-005  0.1258301E+03  0.7546771E-02  0.1236376E+00
         -1   -1    0    0    0  501 -0.00000000000E+00  0.00000000000E+00  0.18828577361E+03  0.18828577361E+03  0.00000000000E+00 0.  1.
          2   -1    0    0  502    0  0.00000000000E+00 -0.00000000000E+00 -0.36829748681E+03  0.36829748681E+03  0.00000000000E+00 0. -1.
         23    2    1    2    0    0 -0.30028153860E+02 -0.53204042950E+02  0.18065517163E+02  0.11092565056E+03  0.90806259872E+02 0.  0.
         24    2    1    2    0    0  0.43744336507E+02  0.80781198580E+02 -0.30795393530E+03  0.33154571973E+03  0.81533851764E+02 0.  0.
        -11    1    4    4    0    0  0.45475382037E+02  0.63575637027E+01 -0.15109224428E+03  0.15791546874E+03  0.00000000000E+00 0.  1.
         12    1    4    4    0    0 -0.17310455302E+01  0.74423634877E+02 -0.15686169103E+03  0.17363025099E+03  0.00000000000E+00 0. -1.
        -11    1    3    3    0    0  0.27203353088E+02 -0.42557332863E+02  0.14747230094E+02  0.52617770716E+02  0.00000000000E+00 0. -1.
         11    1    3    3    0    0 -0.57231506947E+02 -0.10646710087E+02  0.33182870691E+01  0.58307879847E+02  0.00000000000E+00 0.  1.
         21    1    1    2  502  501 -0.13716182647E+02 -0.27577155630E+02  0.10987670494E+03  0.11411189012E+03  0.00000000000E+00 0.  1.
<scales pt_clust_5="13000.00000" pt_clust_6="13000.00000" pt_clust_7="13000.00000" pt_clust_8="13000.00000" pt_clust_9="30.79989"></scales>
<clustering>
<clus scale="   30.800">  1  9  2 -1</clus>
<clus scale="   81.534">  5  6 -1 -1</clus>
<clus scale="   90.806">  7  8 -1 -1</clus>
<clus scale="  119.311">  2  5  1 -1</clus>
<clus scale="  119.311">  2  5  1 -1</clus>
</clustering>
</event>
<event>
 9    2  0.4257265E-005  0.9369092E+02  0.7546771E-02  0.1300954E+00
         -3   -1    0    0    0  501 -0.00000000000E+00  0.00000000000E+00  0.41711232807E+03  0.41711232807E+03  0.00000000000E+00 0.  1.
          4   -1    0    0  502    0  0.00000000000E+00 -0.00000000000E+00 -0.47721409798E+03  0.47721409798E+03  0.00000000000E+00 0. -1.
         23    2    1    2    0    0  0.15622867070E+02 -0.98036078555E+02  0.32684487865E+03  0.35265734688E+03  0.87661182594E+02 0.  0.
         24    2    1    2    0    0 -0.20179533081E+01  0.32274790169E+02 -0.44521414029E+03  0.45276046699E+03  0.75701225447E+02 0.  0.
        -13    1    4    4    0    0  0.21659624956E+02  0.14227047338E+02 -0.49010536626E+02  0.55439885729E+02  0.00000000000E+00 0.  1.
         14    1    4    4    0    0 -0.23677578264E+02  0.18047742830E+02 -0.39620360367E+03  0.39732058126E+03  0.00000000000E+00 0. -1.
        -13    1    3    3    0    0 -0.17326047353E+02 -0.69737495927E+02  0.10920436023E+03  0.13072529422E+03  0.00000000000E+00 0. -1.
         13    1    3    3    0    0  0.32948914423E+02 -0.28298582628E+02  0.21764051842E+03  0.22193205266E+03  0.00000000000E+00 0.  1.
         21    1    1    2  502  501 -0.13604913762E+02  0.65761288386E+02  0.58267491730E+02  0.88908612188E+02  0.00000000000E+00 0. -1.
<scales pt_clust_5="13000.00000" pt_clust_6="13000.00000" pt_clust_7="13000.00000" pt_clust_8="13000.00000" pt_clust_9="67.15386"></scales>
<clustering>
<clus scale="   67.154">  1  9  2 -1</clus>
<clus scale="   75.701">  5  6 -1 -1</clus>
<clus scale="   82.609">  2  5  1 -1</clus>
<clus scale="   87.661">  7  8 -1 -1</clus>
<clus scale="   82.609">  2  5  1 -1</clus>
</clustering>
</event>
<event>
 9    2  0.3402837E-005  0.1013703E+03  0.7546771E-02  0.1281707E+00
         -1   -1    0    0    0  501 -0.00000000000E+00  0.00000000000E+00  0.21384633689E+03  0.21384633689E+03  0.00000000000E+00 0.  1.
          2   -1    0    0  502    0  0.00000000000E+00 -0.00000000000E+00 -0.10254847792E+03  0.10254847792E+03  0.00000000000E+00 0. -1.
         24    2    1    2    0    0  0.39157636143E+02 -0.53346580989E+02  0.12299616979E+03  0.16221382212E+03  0.82499018982E+02 0.  0.
         23    2    1    2    0    0  0.46968274299E+01  0.60024435485E+02 -0.39065680881E+02  0.10205824659E+03  0.72558701969E+02 0.  0.
        -13    1    3    3    0    0 -0.12687023839E+02 -0.51131096504E+02  0.74068559145E+02  0.90892799811E+02  0.00000000000E+00 0.  1.
         14    1    3    3    0    0  0.51844659982E+02 -0.22154844854E+01  0.48927610644E+02  0.71321022312E+02  0.00000000000E+00 0. -1.
        -11    1    4    4    0    0 -0.32291860036E+02  0.26387456474E+02 -0.60353607708E+01  0.42136535968E+02  0.00000000000E+00 0.  1.
         11    1    4    4    0    0  0.36988687466E+02  0.33636979011E+02 -0.33030320111E+02  0.59921710623E+02  0.00000000000E+00 0. -1.
         21    1    1    2  502  501 -0.43854463573E+02 -0.66778544954E+01  0.27367370063E+02  0.52122746092E+02  0.00000000000E+00 0.  1.
<scales pt_clust_5="13000.00000" pt_clust_6="13000.00000" pt_clust_7="13000.00000" pt_clust_8="13000.00000" pt_clust_9="44.35998"></scales>
<clustering>
<clus scale="   44.360">  1  9  2 -1</clus>
<clus scale="   72.559">  7  8 -1 -1</clus>
<clus scale="   82.499">  5  6 -1 -1</clus>
<clus scale="   93.459">  2  7  1 -1</clus>
<clus scale="   93.459">  2  5  1 -1</clus>
</clustering>
</event>
<event>
 9    2  0.3402837E-005  0.9393816E+02  0.7546771E-02  0.1299482E+00
          2   -1    0    0  502    0  0.00000000000E+00  0.00000000000E+00  0.49350463874E+03  0.49350463874E+03  0.00000000000E+00 0. -1.
         -1   -1    0    0    0  501 -0.00000000000E+00 -0.00000000000E+00 -0.28828932092E+02  0.28828932092E+02  0.00000000000E+00 0.  1.
         23    2    1    2    0    0  0.24528429164E+02  0.25619127724E+02  0.13976374252E+03  0.16899611861E+03  0.88135128289E+02 0.  0.
         24    2    1    2    0    0 -0.34797208547E+02  0.13520752505E+01  0.30872495311E+03  0.32024798343E+03  0.77685264902E+02 0.  0.
        -13    1    4    4    0    0  0.18713946737E+01 -0.31436759874E+02  0.73972114549E+02  0.80396801679E+02  0.00000000000E+00 0.  1.
         14    1    4    4    0    0 -0.36668603221E+02  0.32788835124E+02  0.23475283856E+03  0.23985118175E+03  0.00000000000E+00 0. -1.
        -11    1    3    3    0    0  0.14190570847E+02  0.45609814967E+02  0.13844322240E+03  0.14645188066E+03  0.00000000000E+00 0. -1.
         11    1    3    3    0    0  0.10337858317E+02 -0.19990687244E+02  0.13205201225E+01  0.22544237943E+02  0.00000000000E+00 0.  1.
         21    1    1    2  502  501  0.10268779383E+02 -0.26971202974E+02  0.16187011018E+02  0.33089468802E+02  0.00000000000E+00 0. -1.
<scales pt_clust_5="13000.00000" pt_clust_6="13000.00000" pt_clust_7="13000.00000" pt_clust_8="13000.00000" pt_clust_9="28.85990"></scales>
<clustering>
<clus scale="   28.860">  2  9  1 -1</clus>
<clus scale="   77.685">  5  6 -1 -1</clus>
<clus scale="   84.212">  1  5  2 -1</clus>
<clus scale="   88.135">  7  8 -1 -1</clus>
<clus scale="   84.212">  1  5  2 -1</clus>
</clustering>
</event>
<event>
 9    2  0.3402837E-005  0.1256714E+03  0.7546771E-02  0.1236053E+00
         -1   -1    0    0    0  501 -0.00000000000E+00  0.00000000000E+00  0.12821305286E+03  0.12821305286E+03  0.00000000000E+00 0.  1.
          2   -1    0    0  502    0  0.00000000000E+00 -0.00000000000E+00 -0.41346406211E+03  0.41346406211E+03  0.00000000000E+00 0. -1.
         24    2    1    2    0    0  0.37409018744E+02  0.24756060117E+01  0.31178592294E+02  0.10780385597E+03  0.96145740604E+02 0.  0.
         23    2    1    2    0    0 -0.41602910098E+02 -0.70250474742E+02 -0.33809340837E+03  0.36259674055E+03  0.10248566799E+03 0.  0.
        -13    1    3    3    0    0 -0.78611070902E+00  0.43835553625E+02  0.83880740953E+00  0.43850625190E+02  0.00000000000E+00 0.  1.
         14    1    3    3    0    0  0.38195129453E+02 -0.41359947614E+02  0.30339784884E+02  0.63953230781E+02  0.00000000000E+00 0. -1.
        -13    1    4    4    0    0  0.14485870249E+02 -0.73242241578E+02 -0.20282828156E+03  0.21613324175E+03  0.00000000000E+00 0. -1.
         13    1    4    4    0    0 -0.56088780347E+02  0.29917668359E+01 -0.13526512681E+03  0.14646349880E+03  0.00000000000E+00 0.  1.
         21    1    1    2  502  501  0.41938913546E+01  0.67774868730E+02  0.21663806823E+02  0.71276518448E+02  0.00000000000E+00 0.  1.
<scales pt_clust_5="13000.00000" pt_clust_6="13000.00000" pt_clust_7="13000.00000" pt_clust_8="13000.00000" pt_clust_9="67.90450"></scales>
<clustering>
<clus scale="   67.905">  1  9  2 -1</clus>
<clus scale="   96.146">  5  6 -1 -1</clus>
<clus scale="  102.486">  7  8 -1 -1</clus>
<clus scale="  120.557">  1  5  2 -1</clus>
<clus scale="  125.671">  2  5  1 -1</clus>
</clustering>
</event>
<event>
 9    2  0.3402837E-005  0.9219076E+02  0.7546771E-02  0.1309279E+00
         -1   -1    0    0    0  501 -0.00000000000E+00  0.00000000000E+00  0.21634081452E+03  0.21634081452E+03  0.00000000000E+00 0.  1.
          2   -1    0    0  502    0  0.00000000000E+00 -0.00000000000E+00 -0.88544808019E+02  0.88544808019E+02  0.00000000000E+00 0. -1.
         23    2    1    2    0    0  0.78915274501E+01 -0.81942351199E+01  0.16376350187E+03  0.18807863853E+03  0.91791437686E+02 0.  0.
         24    2    1    2    0    0  0.75408149815E+01 -0.77614610092E+01 -0.50555792254E+02  0.90244607648E+02  0.73966863605E+02 0.  0.
        -13    1    4    4    0    0 -0.28443716780E+01 -0.40281700140E+02 -0.30937967456E+02  0.50871049200E+02  0.00000000000E+00 0.  1.
         14    1    4    4    0    0  0.10385186660E+02  0.32520239130E+02 -0.19617824798E+02  0.39373558448E+02  0.00000000000E+00 0. -1.
        -11    1    3    3    0    0  0.30096053331E+02  0.73649643125E+01  0.10924901629E+02  0.32853745617E+02  0.00000000000E+00 0. -1.
         11    1    3    3    0    0 -0.22204525881E+02 -0.15559199432E+02  0.15283860024E+03  0.15522489292E+03  0.00000000000E+00 0.  1.
         21    1    1    2  502  501 -0.15432342432E+02  0.15955696129E+02  0.14588296886E+02  0.26562376361E+02  0.00000000000E+00 0.  1.
<scales pt_clust_5="13000.00000" pt_clust_6="13000.00000" pt_clust_7="13000.00000" pt_clust_8="13000.00000" pt_clust_9="22.19778"></scales>
<clustering>
<clus scale="   22.198">  1  9  2 -1</clus>
<clus scale="   73.967">  5  6 -1 -1</clus>
<clus scale="   74.462">  2  5  1 -1</clus>
<clus scale="   91.791">  7  8 -1 -1</clus>
<clus scale="   74.462">  2  5  1 -1</clus>
</clustering>
</event>
<event>
 9    2  0.3402837E-005  0.1691793E+03  0.7546771E-02  0.1180028E+00
          2   -1    0    0  502    0  0.00000000000E+00  0.00000000000E+00  0.17279607217E+03  0.17279607217E+03  0.00000000000E+00 0. -1.
         -1   -1    0    0    0  501 -0.00000000000E+00 -0.00000000000E+00 -0.31572839549E+03  0.31572839549E+03  0.00000000000E+00 0.  1.
         23    2    1    2    0    0  0.91503621974E+02 -0.72743171636E+02 -0.24665021524E+02  0.15148555198E+03  0.93139826706E+02 0.  0.
         24    2    1    2    0    0 -0.13644233205E+03  0.90297628290E+02  0.25320522506E+02  0.18556248220E+03  0.83798175921E+02 0.  0.
        -11    1    4    4    0    0 -0.11814670101E+03  0.71826183799E+02 -0.13409746809E+02  0.13891531574E+03  0.00000000000E+00 0.  1.
         12    1    4    4    0    0 -0.18295631045E+02  0.18471444491E+02  0.38730269315E+02  0.46647166453E+02  0.00000000000E+00 0. -1.
        -13    1    3    3    0    0  0.90521821648E+02 -0.18520831535E+02 -0.12244124851E+01  0.92405197804E+02  0.00000000000E+00 0.  1.
         13    1    3    3    0    0  0.98180032603E+00 -0.54222340101E+02 -0.23440609038E+02  0.59080354179E+02  0.00000000000E+00 0. -1.
         21    1    1    2  502  501  0.44938710079E+02 -0.17554456654E+02 -0.14358782430E+03  0.15147643348E+03  0.00000000000E+00 0. -1.
<scales pt_clust_5="13000.00000" pt_clust_6="13000.00000" pt_clust_7="13000.00000" pt_clust_8="13000.00000" pt_clust_9="48.24569"></scales>
<clustering>
<clus scale="   48.246">  2  9  1 -1</clus>
<clus scale="   83.798">  5  6 -1 -1</clus>
<clus scale="   93.140">  7  8 -1 -1</clus>
<clus scale="  164.222">  1  5  2 -1</clus>
<clus scale="  164.222">  1  5  2 -1</clus>
</clustering>
</event>
<event>
 9    2  0.3402837E-005  0.1252597E+03  0.7546771E-02  0.1248145E+00
          2   -1    0    0  502    0  0.00000000000E+00  0.00000000000E+00  0.20811715478E+03  0.20811715478E+03  0.00000000000E+00 0. -1.
         -1   -1    0    0    0  501 -0.00000000000E+00 -0.00000000000E+00 -0.20598693463E+03  0.20598693463E+03  0.00000000000E+00 0.  1.
         23    2    1    2    0    0  0.23483141954E+02 -0.11421112481E+02 -0.10158224453E+03  0.13930064911E+03  0.91672344094E+02 0.  0.
         24    2    1    2    0    0  0.47082683363E+02 -0.57578451468E+02 -0.23392706318E+02  0.11388047730E+03  0.83002935225E+02 0.  0.
        -13    1    4    4    0    0 -0.20352336613E+02 -0.20541272090E+01  0.66448508886E+01  0.21507930806E+02  0.00000000000E+00 0.  1.
         14    1    4    4    0    0  0.67435019976E+02 -0.55524324259E+02 -0.30037557206E+02  0.92372546498E+02  0.00000000000E+00 0. -1.
        -11    1    3    3    0    0 -0.30962790923E+02 -0.22753246658E+02 -0.52954690255E+02  0.65426324023E+02  0.00000000000E+00 0.  1.
         11    1    3    3    0    0  0.54445932877E+02  0.11332134177E+02 -0.48627554274E+02  0.73874325084E+02  0.00000000000E+00 0. -1.
         21    1    1    2  502  501 -0.70565825317E+02  0.68999563948E+02  0.12710517099E+03  0.16092296300E+03  0.00000000000E+00 0.  1.
<scales pt_clust_5="13000.00000" pt_clust_6="13000.00000" pt_clust_7="13000.00000" pt_clust_8="13000.00000" pt_clust_9="93.81097"></scales>
<clustering>
<clus scale="   83.003">  5  6 -1 -1</clus>
<clus scale="   91.672">  7  8 -1 -1</clus>
<clus scale="   95.319">  2  7  1 -1</clus>
<clus scale="   93.811">  1  9  2 -1</clus>
<clus scale="   93.811">  1  5  2 -1</clus>
</clustering>
</event>
<event>
 9    2  0.3402837E-005  0.1140367E+03  0.7546771E-02  0.1265267E+00
         -1   -1    0    0    0  501 -0.00000000000E+00  0.00000000000E+00  0.22533309450E+02  0.22533309450E+02  0.00000000000E+00 0.  1.
          2   -1    0    0  502    0  0.00000000000E+00 -0.00000000000E+00 -0.14850574480E+04  0.14850574480E+04  0.00000000000E+00 0. -1.
         23    2    1    2    0    0  0.55898796312E+02 -0.25046618305E+02 -0.17985060482E+03  0.21052663667E+03  0.90681950664E+02 0.  0.
         24    2    1    2    0    0  0.46376511463E+01 -0.44648832406E+02 -0.84342804507E+03  0.84822259348E+03  0.78074802825E+02 0.  0.
        -13    1    4    4    0    0  0.35081004638E+02 -0.93528305639E+01 -0.21285419080E+03  0.21592836513E+03  0.00000000000E+00 0.  1.
         14    1    4    4    0    0 -0.30443353492E+02 -0.35296001842E+02 -0.63057385427E+03  0.63229422835E+03  0.00000000000E+00 0. -1.
        -13    1    3    3    0    0  0.46006025982E+02  0.14862653044E+02 -0.34296575399E+02  0.59276538075E+02  0.00000000000E+00 0.  1.
         13    1    3    3    0    0  0.98927703304E+01 -0.39909271349E+02 -0.14555402942E+03  0.15125009859E+03  0.00000000000E+00 0. -1.
         21    1    1    2  502  501 -0.60536447458E+02  0.69695450710E+02 -0.43924548869E+03  0.44884152733E+03  0.00000000000E+00 0. -1.
<scales pt_clust_5="13000.00000" pt_clust_6="13000.00000" pt_clust_7="13000.00000" pt_clust_8="13000.00000" pt_clust_9="69.14583"></scales>
<clustering>
<clus scale="   78.075">  5  6 -1 -1</clus>
<clus scale="   90.059">  2  5  1 -1</clus>
<clus scale="   69.146">  2  9  1 -1</clus>
<clus scale="   90.682">  7  8 -1 -1</clus>
<clus scale="   90.059">  2  5  1 -1</clus>
</clustering>
</event>
<event>
 9    2  0.3402837E-005  0.9918612E+02  0.7546771E-02  0.1290467E+00
         -3   -1    0    0    0  501 -0.00000000000E+00  0.00000000000E+00  0.34824714267E+03  0.34824714267E+03  0.00000000000E+00 0.  1.
          4   -1    0    0  502    0  0.00000000000E+00 -0.00000000000E+00 -0.74958496481E+02  0.74958496481E+02  0.00000000000E+00 0. -1.
         23    2    1    2    0    0  0.40700879644E+01 -0.30919989670E+02  0.59560629245E+02  0.11662624232E+03  0.95297431577E+02 0.  0.
         24    2    1    2    0    0 -0.33360604289E+02  0.53730192656E+01 -0.25143392324E+01  0.86872003579E+02  0.79991398597E+02 0.  0.
        -13    1    4    4    0    0  0.19861742889E+02  0.18057461486E+02  0.13247052087E+02  0.29934013011E+02  0.00000000000E+00 0.  1.
         14    1    4    4    0    0 -0.53222347178E+02 -0.12684442221E+02 -0.15761391320E+02  0.56937990568E+02  0.00000000000E+00 0. -1.
        -13    1    3    3    0    0 -0.42374539457E+02  0.50857324237E+00  0.36723048990E+02  0.56075329406E+02  0.00000000000E+00 0. -1.
         13    1    3    3    0    0  0.46444627422E+02 -0.31428562913E+02  0.22837580255E+02  0.60550912917E+02  0.00000000000E+00 0.  1.
         21    1    1    2  502  501  0.29290516324E+02  0.25546970405E+02  0.21624235618E+03  0.21970739325E+03  0.00000000000E+00 0.  1.
<scales pt_clust_5="13000.00000" pt_clust_6="13000.00000" pt_clust_7="13000.00000" pt_clust_8="13000.00000" pt_clust_9="38.86621"></scales>
<clustering>
<clus scale="   38.866">  1  9  2 -1</clus>
<clus scale="   79.991">  5  6 -1 -1</clus>
<clus scale="   84.587">  2  5  1 -1</clus>
<clus scale="   95.297">  7  8 -1 -1</clus>
<clus scale="   84.587">  2  5  1 -1</clus>
</clustering>
</event>
<event>
 9    2  0.3402837E-005  0.1809690E+03  0.7546771E-02  0.1168466E+00
          2   -1    0    0  502    0  0.00000000000E+00  0.00000000000E+00  0.17590024898E+04  0.17590024898E+04  0.00000000000E+00 0. -1.
         -1   -1    0    0    0  501 -0.00000000000E+00 -0.00000000000E+00 -0.10460955002E+03  0.10460955002E+03  0.00000000000E+00 0.  1.
         23    2    1    2    0    0  0.12561285402E+03 -0.10059400602E+03  0.31229816309E+03  0.36330089621E+03  0.92518405565E+02 0.  0.
         24    2    1    2    0    0 -0.10594678294E+03  0.11270117063E+03  0.14140823363E+04  0.14247099100E+04  0.79013917417E+02 0.  0.
        -11    1    4    4    0    0 -0.85700553417E+02  0.67266588579E+02  0.65492973557E+03  0.66392946714E+03  0.00000000000E+00 0.  1.
         12    1    4    4    0    0 -0.20246229524E+02  0.45434582056E+02  0.75915260068E+03  0.76078044282E+03  0.00000000000E+00 0. -1.
        -11    1    3    3    0    0  0.11881051945E+03 -0.48151286552E+02  0.18142555107E+03  0.22214796086E+03  0.00000000000E+00 0.  1.
         11    1    3    3    0    0  0.68023345691E+01 -0.52442719469E+02  0.13087261202E+03  0.14115293535E+03  0.00000000000E+00 0. -1.
         21    1    1    2  502  501 -0.19666071083E+02 -0.12107164613E+02 -0.71987559607E+02  0.75601233621E+02  0.00000000000E+00 0.  1.
<scales pt_clust_5="13000.00000" pt_clust_6="13000.00000" pt_clust_7="13000.00000" pt_clust_8="13000.00000" pt_clust_9="23.09411"></scales>
<clustering>
<clus scale="   23.094">  2  9  1 -1</clus>
<clus scale="   79.014">  5  6 -1 -1</clus>
<clus scale="   92.518">  7  8 -1 -1</clus>
<clus scale="  174.451">  1  5  2 -1</clus>
<clus scale="  174.451">  1  5  2 -1</clus>
</clustering>
</event>
<event>
 9    2  0.3402837E-005  0.9560173E+02  0.7546771E-02  0.1298075E+00
         -1   -1    0    0    0  501 -0.00000000000E+00  0.00000000000E+00  0.49200999546E+02  0.49200999546E+02  0.00000000000E+00 0.  1.
          2   -1    0    0  502    0  0.00000000000E+00 -0.00000000000E+00 -0.40412499914E+03  0.40412499914E+03  0.00000000000E+00 0. -1.
         24    2    1    2    0    0 -0.11527592161E+02  0.35444096968E+02 -0.18045412293E+02  0.89521931008E+02  0.79368569570E+02 0.  0.
         23    2    1    2    0    0  0.18871792176E+02 -0.55733978633E+01 -0.30469897626E+03  0.31928751676E+03  0.93358689585E+02 0.  0.
        -13    1    3    3    0    0 -0.22825670885E+02 -0.55346132211E+01 -0.36319922128E+02  0.43252513664E+02  0.00000000000E+00 0.  1.
         14    1    3    3    0    0  0.11298078723E+02  0.40978710189E+02  0.18274509835E+02  0.46269417344E+02  0.00000000000E+00 0. -1.
        -11    1    4    4    0    0  0.50509749636E+02  0.20369711108E+02 -0.17812117860E+03  0.18626141362E+03  0.00000000000E+00 0. -1.
         11    1    4    4    0    0 -0.31637957460E+02 -0.25943108972E+02 -0.12657779766E+03  0.13302610314E+03  0.00000000000E+00 0.  1.
         21    1    1    2  502  501 -0.73442000142E+01 -0.29870699105E+02 -0.32179611036E+02  0.44516550914E+02  0.00000000000E+00 0.  1.
<scales pt_clust_5="13000.00000" pt_clust_6="13000.00000" pt_clust_7="13000.00000" pt_clust_8="13000.00000" pt_clust_9="30.76030"></scales>
<clustering>
<clus scale="   30.760">  1  9  2 -1</clus>
<clus scale="   79.369">  5  6 -1 -1</clus>
<clus scale="   81.995">  1  5  2 -1</clus>
<clus scale="   93.359">  7  8 -1 -1</clus>
<clus scale="   95.602">  2  5  1 -1</clus>
</clustering>
</event>
<event>
 9    2  0.3402837E-005  0.1205882E+03  0.7546771E-02  0.1256625E+00
         -1   -1    0    0    0  501 -0.00000000000E+00  0.00000000000E+00  0.89478295727E+02  0.89478295727E+02  0.00000000000E+00 0.  1.
          2   -1    0    0  502    0  0.00000000000E+00 -0.00000000000E+00 -0.30614838048E+03  0.30614838048E+03  0.00000000000E+00 0. -1.
         23    2    1    2    0    0  0.56575230360E+02 -0.21172714478E+02 -0.71830297683E+01  0.12828166978E+03  0.11294047263E+03 0.  0.
         24    2    1    2    0    0 -0.28392549731E+02  0.28595811983E+02 -0.21913435555E+03  0.23664588148E+03  0.79734246693E+02 0.  0.
        -11    1    4    4    0    0  0.64578230877E+00  0.42954191774E+02 -0.57378937837E+02  0.71678603035E+02  0.00000000000E+00 0.  1.
         12    1    4    4    0    0 -0.29038332040E+02 -0.14358379791E+02 -0.16175541771E+03  0.16496727845E+03  0.00000000000E+00 0. -1.
        -13    1    3    3    0    0  0.12389483506E+01 -0.42196833054E+02 -0.42046884404E+02  0.59582280931E+02  0.00000000000E+00 0. -1.
         13    1    3    3    0    0  0.55336282010E+02  0.21024118576E+02  0.34863854636E+02  0.68699388852E+02  0.00000000000E+00 0.  1.
         21    1    1    2  502  501 -0.28182680629E+02 -0.74230975045E+01  0.96473005674E+01  0.30699124943E+02  0.00000000000E+00 0.  1.
<scales pt_clust_5="13000.00000" pt_clust_6="13000.00000" pt_clust_7="13000.00000" pt_clust_8="13000.00000" pt_clust_9="29.14388"></scales>
<clustering>
<clus scale="   29.144">  1  9  2 -1</clus>
<clus scale="   79.734">  5  6 -1 -1</clus>
<clus scale="   90.241">  2  5  1 -1</clus>
<clus scale="  112.940">  7  8 -1 -1</clus>
<clus scale="   90.241">  2  5  1 -1</clus>
</clustering>
</event>
<event>
 9    2  0.3402837E-005  0.1144195E+03  0.7546771E-02  0.1258794E+00
          2   -1    0    0  502    0  0.00000000000E+00  0.00000000000E+00  0.53497630861E+03  0.53497630861E+03  0.00000000000E+00 0. -1.
         -1   -1    0    0    0  501 -0.00000000000E+00 -0.00000000000E+00 -0.60954231530E+02  0.60954231530E+02  0.00000000000E+00 0.  1.
         23    2    1    2    0    0 -0.30393488713E+02 -0.31823311540E+02  0.72064245209E+01  0.10548742533E+03  0.95599043063E+02 0.  0.
         24    2    1    2    0    0  0.57382081361E+02  0.31304313541E+02  0.44194338352E+03  0.45373775745E+03  0.79317936130E+02 0.  0.
        -13    1    4    4    0    0  0.38392918747E+02 -0.22641404280E+02  0.22574076868E+03  0.23009898748E+03  0.00000000000E+00 0.  1.
         14    1    4    4    0    0  0.18989162614E+02  0.53945717821E+02  0.21620261484E+03  0.22363876996E+03  0.00000000000E+00 0. -1.
        -11    1    3    3    0    0 -0.27998543298E+02 -0.65277796072E+02 -0.68179539760E+00  0.71032203484E+02  0.00000000000E+00 0.  1.
         11    1    3    3    0    0 -0.23949454149E+01  0.33454484532E+02  0.78882199185E+01  0.34455221844E+02  0.00000000000E+00 0. -1.
         21    1    1    2  502  501 -0.26988592648E+02  0.51899799921E+00  0.24872269047E+02  0.36705357369E+02  0.00000000000E+00 0.  1.
<scales pt_clust_5="13000.00000" pt_clust_6="13000.00000" pt_clust_7="13000.00000" pt_clust_8="13000.00000" pt_clust_9="26.99358"></scales>
<clustering>
<clus scale="   26.994">  2  9  1 -1</clus>
<clus scale="   79.318">  5  6 -1 -1</clus>
<clus scale="   95.599">  7  8 -1 -1</clus>
<clus scale="  101.213">  1  5  2 -1</clus>
<clus scale="  101.213">  1  5  2 -1</clus>
</clustering>
</event>
<event>
 9    2  0.3402837E-005  0.2096109E+03  0.7546771E-02  0.1142802E+00
         -1   -1    0    0    0  501 -0.00000000000E+00  0.00000000000E+00  0.80713593823E+02  0.80713593823E+02  0.00000000000E+00 0.  1.
          2   -1    0    0  502    0  0.00000000000E+00 -0.00000000000E+00 -0.72114169137E+03  0.72114169137E+03  0.00000000000E+00 0. -1.
         23    2    1    2    0    0  0.17471612069E+03  0.66596033086E+02 -0.16959220277E+03  0.26875145814E+03  0.92222971961E+02 0.  0.
         24    2    1    2    0    0 -0.16351117345E+03 -0.96011114209E+02 -0.45091957143E+03  0.49585523277E+03  0.81178285764E+02 0.  0.
        -13    1    4    4    0    0 -0.82903876278E+02 -0.27834938385E+01 -0.18766988834E+03  0.20518476437E+03  0.00000000000E+00 0.  1.
         14    1    4    4    0    0 -0.80607297168E+02 -0.93227620371E+02 -0.26324968309E+03  0.29067046840E+03  0.00000000000E+00 0. -1.
        -11    1    3    3    0    0  0.46249208238E+02  0.39202498009E+02 -0.90191188477E+01  0.61295755298E+02  0.00000000000E+00 0.  1.
         11    1    3    3    0    0  0.12846691246E+03  0.27393535077E+02 -0.16057308392E+03  0.20745570284E+03  0.00000000000E+00 0. -1.
         21    1    1    2  502  501 -0.11204947247E+02  0.29415081123E+02 -0.19916323348E+02  0.37248594282E+02  0.00000000000E+00 0. -1.
<scales pt_clust_5="13000.00000" pt_clust_6="13000.00000" pt_clust_7="13000.00000" pt_clust_8="13000.00000" pt_clust_9="31.47694"></scales>
<clustering>
<clus scale="   31.477">  1  9  2 -1</clus>
<clus scale="   81.178">  5  6 -1 -1</clus>
<clus scale="   92.223">  7  8 -1 -1</clus>
<clus scale="  204.992">  2  5  1 -1</clus>
<clus scale="  204.992">  2  5  1 -1</clus>
</clustering>
</event>
<event>
 9    2  0.3402837E-005  0.9635448E+02  0.7546771E-02  0.1293544E+00
         -1   -1    0    0    0  501 -0.00000000000E+00  0.00000000000E+00  0.13188673402E+03  0.13188673402E+03  0.00000000000E+00 0.  1.
          2   -1    0    0  502    0  0.00000000000E+00 -0.00000000000E+00 -0.49789062343E+03  0.49789062343E+03  0.00000000000E+00 0. -1.
         23    2    1    2    0    0  0.30709989975E+01  0.10755162113E+02  0.82513902198E+02  0.12285080040E+03  0.90325359432E+02 0.  0.
         24    2    1    2    0    0  0.26033704004E+02  0.23864362463E+02 -0.45304114014E+03  0.46147266942E+03  0.80395823394E+02 0.  0.
        -11    1    4    4    0    0  0.20245256807E+02  0.27761059071E+02 -0.66350216537E+02  0.74718793208E+02  0.00000000000E+00 0.  1.
         12    1    4    4    0    0  0.57884471971E+01 -0.38966966084E+01 -0.38669092360E+03  0.38675387621E+03  0.00000000000E+00 0. -1.
        -11    1    3    3    0    0  0.32826657517E+02 -0.78553017261E+01  0.62645541160E+00  0.33759260290E+02  0.00000000000E+00 0. -1.
         11    1    3    3    0    0 -0.29755658520E+02  0.18610463839E+02  0.81887446786E+02  0.89091540112E+02  0.00000000000E+00 0.  1.
         21    1    1    2  502  501 -0.29104703002E+02 -0.34619524576E+02  0.45233485345E+01  0.45453887630E+02  0.00000000000E+00 0.  1.
<scales pt_clust_5="13000.00000" pt_clust_6="13000.00000" pt_clust_7="13000.00000" pt_clust_8="13000.00000" pt_clust_9="45.22826"></scales>
<clustering>
<clus scale="   45.228">  1  9  2 -1</clus>
<clus scale="   80.396">  5  6 -1 -1</clus>
<clus scale="   87.115">  2  5  1 -1</clus>
<clus scale="   90.325">  7  8 -1 -1</clus>
<clus scale="   87.115">  2  5  1 -1</clus>
</clustering>
</event>
<event>
 9    2  0.3402837E-005  0.1146840E+03  0.7546771E-02  0.1254640E+00
         -1   -1    0    0    0  501 -0.00000000000E+00  0.00000000000E+00  0.28770783423E+02  0.28770783423E+02  0.00000000000E+00 0.  1.
          2   -1    0    0  502    0  0.00000000000E+00 -0.00000000000E+00 -0.96824361773E+03  0.96824361773E+03  0.00000000000E+00 0. -1.
         23    2    1    2    0    0 -0.65634179636E+02  0.28220529121E+02 -0.19374063282E+03  0.22482231531E+03  0.88912298657E+02 0.  0.
         24    2    1    2    0    0  0.50957330732E+02 -0.53552573301E+02 -0.73131675896E+03  0.73955886138E+03  0.81600121611E+02 0.  0.
        -13    1    4    4    0    0  0.44104416117E+02  0.74813543761E+01 -0.21518204585E+03  0.21978280879E+03  0.00000000000E+00 0.  1.
         14    1    4    4    0    0  0.68529146146E+01 -0.61033927677E+02 -0.51613471311E+03  0.51977605259E+03  0.00000000000E+00 0. -1.
        -11    1    3    3    0    0 -0.43400815900E+02 -0.24818773615E+02 -0.12832655352E+03  0.13772184534E+03  0.00000000000E+00 0. -1.
         11    1    3    3    0    0 -0.22233363736E+02  0.53039302736E+02 -0.65414079299E+02  0.87100469966E+02  0.00000000000E+00 0.  1.
         21    1    1    2  502  501  0.14676848905E+02  0.25332044180E+02 -0.14415442528E+02  0.32633224471E+02  0.00000000000E+00 0.  1.
<scales pt_clust_5="13000.00000" pt_clust_6="13000.00000" pt_clust_7="13000.00000" pt_clust_8="13000.00000" pt_clust_9="29.27665"></scales>
<clustering>
<clus scale="   29.277">  1  9  2 -1</clus>
<clus scale="   81.600">  5  6 -1 -1</clus>
<clus scale="   88.912">  7  8 -1 -1</clus>
<clus scale="  109.113">  2  5  1 -1</clus>
<clus scale="  109.113">  2  5  1 -1</clus>
</clustering>
</event>
<event>
 9    2  0.3402837E-005  0.1518596E+03  0.7546771E-02  0.1199741E+00
          2   -1    0    0  502    0  0.00000000000E+00  0.00000000000E+00  0.49621825637E+03  0.49621825637E+03  0.00000000000E+00 0. -1.
         -1   -1    0    0    0  501 -0.00000000000E+00 -0.00000000000E+00 -0.58373160553E+02  0.58373160553E+02  0.00000000000E+00 0.  1.
         23    2    1    2    0    0 -0.10903300878E+03  0.43857398992E+01  0.12005423895E+03  0.18461409069E+03  0.88101705283E+02 0.  0.
         24    2    1    2    0    0  0.13203746430E+03  0.14575438318E+02  0.29255393074E+03  0.33091796508E+03  0.79199506587E+02 0.  0.
        -13    1    4    4    0    0  0.42302062120E+02 -0.76658192438E+01  0.18099177327E+03  0.18602755505E+03  0.00000000000E+00 0.  1.
         14    1    4    4    0    0  0.89735402176E+02  0.22241257562E+02  0.11156215746E+03  0.14489041003E+03  0.00000000000E+00 0. -1.
        -13    1    3    3    0    0 -0.51487959159E+02 -0.34823085101E+02  0.88543290417E+02  0.10818304614E+03  0.00000000000E+00 0.  1.
         13    1    3    3    0    0 -0.57545049617E+02  0.39208825000E+02  0.31510948532E+02  0.76431044548E+02  0.00000000000E+00 0. -1.
         21    1    1    2  502  501 -0.23004455521E+02 -0.18961178217E+02  0.25236926128E+02  0.39059361152E+02  0.00000000000E+00 0. -1.
<scales pt_clust_5="13000.00000" pt_clust_6="13000.00000" pt_clust_7="13000.00000" pt_clust_8="13000.00000" pt_clust_9="29.81160"></scales>
<clustering>
<clus scale="   29.812">  2  9  1 -1</clus>
<clus scale="   79.200">  5  6 -1 -1</clus>
<clus scale="   88.102">  7  8 -1 -1</clus>
<clus scale="  146.874">  1  5  2 -1</clus>
<clus scale="  146.874">  1  5  2 -1</clus>
</clustering>
</event>
<event>
 9    2  0.3402837E-005  0.1035084E+03  0.7546771E-02  0.1275677E+00
          2   -1    0    0  502    0  0.00000000000E+00  0.00000000000E+00  0.64130684894E+02  0.64130684894E+02  0.00000000000E+00 0. -1.
         -1   -1    0    0    0  501 -0.00000000000E+00 -0.00000000000E+00 -0.65405947905E+03  0.65405947905E+03  0.00000000000E+00 0.  1.
         23    2    1    2    0    0  0.58047029464E+00 -0.54186241900E+02 -0.39195672477E+03  0.40520210768E+03  0.87305144297E+02 0.  0.
         24    2    1    2    0    0 -0.34251625967E+02  0.45341471191E+02  0.12222175972E+02  0.99930323534E+02  0.81287545694E+02 0.  0.
        -11    1    4    4    0    0 -0.50292889345E+02  0.24423315600E+02 -0.19016959143E+02  0.59055209750E+02  0.00000000000E+00 0.  1.
         12    1    4    4    0    0  0.16041263378E+02  0.20918155591E+02  0.31239135115E+02  0.40875113784E+02  0.00000000000E+00 0. -1.
        -11    1    3    3    0    0  0.30605892897E+02 -0.57318911177E+02 -0.32933078357E+03  0.33567982254E+03  0.00000000000E+00 0.  1.
         11    1    3    3    0    0 -0.30025422602E+02  0.31326692762E+01 -0.62625941200E+02  0.69522285135E+02  0.00000000000E+00 0. -1.
         21    1    1    2  502  501  0.33671155673E+02  0.88447707095E+01 -0.21019424536E+03  0.21305773273E+03  0.00000000000E+00 0.  1.
<scales pt_clust_5="13000.00000" pt_clust_6="13000.00000" pt_clust_7="13000.00000" pt_clust_8="13000.00000" pt_clust_9="34.81346"></scales>
<clustering>
<clus scale="   34.813">  2  9  1 -1</clus>
<clus scale="   81.288">  5  6 -1 -1</clus>
<clus scale="   87.305">  7  8 -1 -1</clus>
<clus scale="   98.486">  1  5  2 -1</clus>
<clus scale="   98.486">  1  5  2 -1</clus>
</clustering>
</event>
<event>
 9    2  0.3402837E-005  0.1277611E+03  0.7546771E-02  0.1234780E+00
          2   -1    0    0  502    0  0.00000000000E+00  0.00000000000E+00  0.35727516114E+03  0.35727516114E+03  0.00000000000E+00 0. -1.
         -1   -1    0    0    0  501 -0.00000000000E+00 -0.00000000000E+00 -0.10556371790E+03  0.10556371790E+03  0.00000000000E+00 0.  1.
         23    2    1    2    0    0 -0.75301423530E+02 -0.30725716025E+02 -0.41852744603E+02  0.12967266976E+03  0.91918306337E+02 0.  0.
         24    2    1    2    0    0  0.89061968962E+02  0.13255598341E+02  0.28600240172E+03  0.30967710049E+03  0.77426013578E+02 0.  0.
        -13    1    4    4    0    0  0.95436291684E+00  0.22649853703E+02  0.23627369434E+02  0.32744148603E+02  0.00000000000E+00 0.  1.
         14    1    4    4    0    0  0.88107606045E+02 -0.93942553621E+01  0.26237503228E+03  0.27693295189E+03  0.00000000000E+00 0. -1.
        -13    1    3    3    0    0 -0.28694065203E+01 -0.36764485203E+02  0.12475003645E+02  0.38929250981E+02  0.00000000000E+00 0. -1.
         13    1    3    3    0    0 -0.72432017009E+02  0.60387691782E+01 -0.54327748248E+02  0.90743418774E+02  0.00000000000E+00 0.  1.
         21    1    1    2  502  501 -0.13760545432E+02  0.17470117684E+02  0.75617861250E+01  0.23489108793E+02  0.00000000000E+00 0.  1.
<scales pt_clust_5="13000.00000" pt_clust_6="13000.00000" pt_clust_7="13000.00000" pt_clust_8="13000.00000" pt_clust_9="22.23865"></scales>
<clustering>
<clus scale="   22.239">  2  9  1 -1</clus>
<clus scale="   77.426">  5  6 -1 -1</clus>
<clus scale="   91.918">  7  8 -1 -1</clus>
<clus scale="  117.765">  1  5  2 -1</clus>
<clus scale="  117.765">  1  5  2 -1</clus>
</clustering>
</event>
<event>
 9    2  0.3402837E-005  0.1593719E+03  0.7546771E-02  0.1191026E+00
          2   -1    0    0  502    0  0.00000000000E+00  0.00000000000E+00  0.17831735637E+04  0.17831735637E+04  0.00000000000E+00 0. -1.
         -1   -1    0    0    0  501 -0.00000000000E+00 -0.00000000000E+00 -0.21637455047E+02  0.21637455047E+02  0.00000000000E+00 0.  1.
         23    2    1    2    0    0  0.11802342933E+03 -0.20384995547E+01  0.57911811004E+03  0.59807251882E+03  0.91538336446E+02 0.  0.
         24    2    1    2    0    0 -0.13514711074E+03  0.32380294804E+02  0.11423229404E+04  0.11536210951E+04  0.81404581381E+02 0.  0.
        -11    1    4    4    0    0 -0.69778609807E+02  0.14175743356E+02  0.29047448470E+03  0.29907429236E+03  0.00000000000E+00 0.  1.
         12    1    4    4    0    0 -0.65368500930E+02  0.18204551448E+02  0.85184845567E+03  0.85454680271E+03  0.00000000000E+00 0. -1.
        -11    1    3    3    0    0 -0.68235266274E+01 -0.20029705844E+02  0.12426263873E+03  0.12605139037E+03  0.00000000000E+00 0. -1.
         11    1    3    3    0    0  0.12484695595E+03  0.17991206289E+02  0.45485547131E+03  0.47202112845E+03  0.00000000000E+00 0.  1.
         21    1    1    2  502  501  0.17123681410E+02 -0.30341795249E+02  0.40095058281E+02  0.53117404893E+02  0.00000000000E+00 0.  1.
<scales pt_clust_5="13000.00000" pt_clust_6="13000.00000" pt_clust_7="13000.00000" pt_clust_8="13000.00000" pt_clust_9="34.84028"></scales>
<clustering>
<clus scale="   34.840">  2  9  1 -1</clus>
<clus scale="   81.405">  5  6 -1 -1</clus>
<clus scale="   91.538">  7  8 -1 -1</clus>
<clus scale="  153.775">  1  5  2 -1</clus>
<clus scale="  153.775">  1  5  2 -1</clus>
</clustering>
</event>
<event>
 9    2  0.3402837E-005  0.3241889E+03  0.7546771E-02  0.1074068E+00
         -1   -1    0    0    0  501 -0.00000000000E+00  0.00000000000E+00  0.38046371773E+03  0.38046371773E+03  0.00000000000E+00 0.  1.
          2   -1    0    0  502    0  0.00000000000E+00 -0.00000000000E+00 -0.31844545987E+03  0.31844545987E+03  0.00000000000E+00 0. -1.
         24    2    1    2    0    0  0.30072443912E+03  0.30920910703E+02  0.43776289507E+02  0.31592802070E+03  0.80640310855E+02 0.  0.
         23    2    1    2    0    0 -0.31798995881E+03 -0.18133206322E+02 -0.27401264861E+02  0.33253387460E+03  0.91550649181E+02 0.  0.
        -13    1    3    3    0    0  0.17114340358E+03  0.31074958911E+02 -0.13057681657E+02  0.17443113458E+03  0.00000000000E+00 0.  1.
         14    1    3    3    0    0  0.12958103554E+03 -0.15404820731E+00  0.56833971163E+02  0.14149688611E+03  0.00000000000E+00 0. -1.
        -13    1    4    4    0    0 -0.11167247855E+03  0.65455587698E+01  0.32128215110E+02  0.11638646404E+03  0.00000000000E+00 0.  1.
         13    1    4    4    0    0 -0.20631748025E+03 -0.24678765092E+02 -0.59529479971E+02  0.21614741056E+03  0.00000000000E+00 0. -1.
         21    1    1    2  502  501  0.17265519685E+02 -0.12787704381E+02  0.45643233214E+02  0.50447282301E+02  0.00000000000E+00 0. -1.
<scales pt_clust_5="13000.00000" pt_clust_6="13000.00000" pt_clust_7="13000.00000" pt_clust_8="13000.00000" pt_clust_9="21.48543"></scales>
<clustering>
<clus scale="   21.485">  1  9  2 -1</clus>
<clus scale="   80.640">  5  6 -1 -1</clus>
<clus scale="   91.551">  7  8 -1 -1</clus>
<clus scale="  321.278">  1  5  2 -1</clus>
<clus scale="  324.189">  2  5  1 -1</clus>
</clustering>
</event>
<event>
 9    2  0.3402837E-005  0.1138499E+03  0.7546771E-02  0.1255573E+00
         -1   -1    0    0    0  501 -0.00000000000E+00  0.00000000000E+00  0.38716257338E+03  0.38716257338E+03  0.00000000000E+00 0.  1.
          2   -1    0    0  502    0  0.00000000000E+00 -0.00000000000E+00 -0.72367659931E+03  0.72367659931E+03  0.00000000000E+00 0. -1.
         23    2    1    2    0    0 -0.25005015304E+02 -0.33715222497E+02  0.26134764247E+03  0.28024339861E+03  0.92042409903E+02 0.  0.
         24    2    1    2    0    0  0.41910555553E+02  0.52782740871E+02 -0.70855837547E+03  0.71700383552E+03  0.86585312287E+02 0.  0.
        -13    1    4    4    0    0  0.49160748661E+02  0.58040184535E+02 -0.34285521996E+03  0.35119103645E+03  0.00000000000E+00 0.  1.
         14    1    4    4    0    0 -0.72501931078E+01 -0.52574436647E+01 -0.36570315552E+03  0.36581279908E+03  0.00000000000E+00 0. -1.
        -13    1    3    3    0    0 -0.23635569458E+02  0.87247831967E+01  0.13111955346E+02  0.28402206929E+02  0.00000000000E+00 0. -1.
         13    1    3    3    0    0 -0.13694458467E+01 -0.42440005693E+02  0.24823568712E+03  0.25184119168E+03  0.00000000000E+00 0.  1.
         21    1    1    2  502  501 -0.16905540248E+02 -0.19067518374E+02  0.11069670708E+03  0.11359193856E+03  0.00000000000E+00 0. -1.
<scales pt_clust_5="13000.00000" pt_clust_6="13000.00000" pt_clust_7="13000.00000" pt_clust_8="13000.00000" pt_clust_9="25.48269"></scales>
<clustering>
<clus scale="   25.483">  1  9  2 -1</clus>
<clus scale="   86.585">  5  6 -1 -1</clus>
<clus scale="   92.042">  7  8 -1 -1</clus>
<clus scale="  109.485">  2  5  1 -1</clus>
<clus scale="  109.485">  2  5  1 -1</clus>
</clustering>
</event>
<event>
 9    2  0.3402837E-005  0.9762308E+02  0.7546771E-02  0.1290497E+00
         -1   -1    0    0    0  501 -0.00000000000E+00  0.00000000000E+00  0.10521383583E+03  0.10521383583E+03  0.00000000000E+00 0.  1.
          2   -1    0    0  502    0  0.00000000000E+00 -0.00000000000E+00 -0.40863770546E+03  0.40863770546E+03  0.00000000000E+00 0. -1.
         24    2    1    2    0    0 -0.29687158660E+02  0.53602212128E+02 -0.27119753896E+02  0.10529179943E+03  0.81217962558E+02 0.  0.
         23    2    1    2    0    0  0.15908546071E+02 -0.26711674884E+02 -0.33176739281E+03  0.34540021160E+03  0.90912638437E+02 0.  0.
        -11    1    3    3    0    0  0.10084059145E+02  0.31994391858E+02  0.20723733967E+02  0.39430984121E+02  0.00000000000E+00 0.  1.
         12    1    3    3    0    0 -0.39771217806E+02  0.21607820269E+02 -0.47843487863E+02  0.65860815311E+02  0.00000000000E+00 0. -1.
        -11    1    4    4    0    0  0.48269392018E+02 -0.25672678696E+01 -0.11247693454E+03  0.12242379619E+03  0.00000000000E+00 0.  1.
         11    1    4    4    0    0 -0.32360845947E+02 -0.24144407014E+02 -0.21929045827E+03  0.22297641541E+03  0.00000000000E+00 0. -1.
         21    1    1    2  502  501  0.13778612589E+02 -0.26890537244E+02  0.55463277075E+02  0.63159530255E+02  0.00000000000E+00 0.  1.
<scales pt_clust_5="13000.00000" pt_clust_6="13000.00000" pt_clust_7="13000.00000" pt_clust_8="13000.00000" pt_clust_9="30.21508"></scales>
<clustering>
<clus scale="   30.215">  1  9  2 -1</clus>
<clus scale="   81.218">  5  6 -1 -1</clus>
<clus scale="   88.665">  1  5  2 -1</clus>
<clus scale="   90.913">  7  8 -1 -1</clus>
<clus scale="   97.623">  2  5  1 -1</clus>
</clustering>
</event>
<event>
 9    2  0.3402837E-005  0.1023253E+03  0.7546771E-02  0.1282982E+00
          2   -1    0    0  502    0  0.00000000000E+00  0.00000000000E+00  0.42445039966E+03  0.42445039966E+03  0.00000000000E+00 0. -1.
         -1   -1    0    0    0  501 -0.00000000000E+00 -0.00000000000E+00 -0.10546696190E+03  0.10546696190E+03  0.00000000000E+00 0.  1.
         24    2    1    2    0    0 -0.60249967616E+02  0.75230568924E+01 -0.62926607551E+02  0.11881852151E+03  0.80445187135E+02 0.  0.
         23    2    1    2    0    0  0.35336399331E+02  0.52014548539E+01  0.36383806044E+03  0.37779424996E+03  0.95260930230E+02 0.  0.
        -13    1    3    3    0    0 -0.19574340431E+01  0.27890508406E+02 -0.47588120240E+02  0.55193669883E+02  0.00000000000E+00 0.  1.
         14    1    3    3    0    0 -0.58292533573E+02 -0.20367451514E+02 -0.15338487310E+02  0.63624851626E+02  0.00000000000E+00 0. -1.
        -13    1    4    4    0    0  0.38272287935E+02 -0.34920294117E+02  0.12068393777E+03  0.13133471666E+03  0.00000000000E+00 0.  1.
         13    1    4    4    0    0 -0.29358886040E+01  0.40121748971E+02  0.24315412267E+03  0.24645953330E+03  0.00000000000E+00 0. -1.
         21    1    1    2  502  501  0.24913568285E+02 -0.12724511746E+02  0.18071984867E+02  0.33304590088E+02  0.00000000000E+00 0. -1.
<scales pt_clust_5="13000.00000" pt_clust_6="13000.00000" pt_clust_7="13000.00000" pt_clust_8="13000.00000" pt_clust_9="27.97497"></scales>
<clustering>
<clus scale="   27.975">  2  9  1 -1</clus>
<clus scale="   80.445">  5  6 -1 -1</clus>
<clus scale="   88.698">  2  5  1 -1</clus>
<clus scale="   95.261">  7  8 -1 -1</clus>
<clus scale="  102.325">  1  5  2 -1</clus>
</clustering>
</event>
<event>
 9    2  0.3402837E-005  0.3570554E+03  0.7546771E-02  0.1114528E+00
          2   -1    0    0  502    0  0.00000000000E+00  0.00000000000E+00  0.15008512630E+04  0.15008512630E+04  0.00000000000E+00 0. -1.
         -1   -1    0    0    0  501 -0.00000000000E+00 -0.00000000000E+00 -0.16584217757E+03  0.16584217757E+03  0.00000000000E+00 0.  1.
         24    2    1    2    0    0 -0.84737313111E+01  0.32110246817E+02  0.86534561277E+02  0.12004259263E+03  0.76283167721E+02 0.  0.
         23    2    1    2    0    0  0.51350621299E+02  0.31786735047E+03  0.10318737802E+03  0.34831642324E+03  0.83666940403E+02 0.  0.
        -11    1    3    3    0    0  0.27232025873E+02 -0.13098953550E+01  0.96488131789E+01  0.28920557649E+02  0.00000000000E+00 0.  1.
         12    1    3    3    0    0 -0.35705757184E+02  0.33420142172E+02  0.76885748099E+02  0.91122034984E+02  0.00000000000E+00 0. -1.
        -11    1    4    4    0    0  0.31896804634E+02  0.30702241378E+03  0.10481333003E+03  0.32598466661E+03  0.00000000000E+00 0.  1.
         11    1    4    4    0    0  0.19453816665E+02  0.10844936689E+02 -0.16259520121E+01  0.22331756638E+02  0.00000000000E+00 0. -1.
         21    1    1    2  502  501 -0.42876889988E+02 -0.34997759729E+03  0.11452871461E+04  0.11983344247E+04  0.00000000000E+00 0. -1.
<scales pt_clust_5="13000.00000" pt_clust_6="13000.00000" pt_clust_7="13000.00000" pt_clust_8="13000.00000" pt_clust_9="347.11434"></scales>
<clustering>
<clus scale="   76.283">  5  6 -1 -1</clus>
<clus scale="   83.199">  2  5  1 -1</clus>
<clus scale="   83.667">  7  8 -1 -1</clus>
<clus scale="  347.114">  1  9  2 -1</clus>
<clus scale="  347.114">  1  5  2 -1</clus>
</clustering>
</event>
<event>
 9    2  0.3402837E-005  0.9164256E+02  0.7546771E-02  0.1301444E+00
          2   -1    0    0  502    0  0.00000000000E+00  0.00000000000E+00  0.33317147068E+03  0.33317147068E+03  0.00000000000E+00 0. -1.
         -1   -1    0    0    0  501 -0.00000000000E+00 -0.00000000000E+00 -0.15902203540E+03  0.15902203540E+03  0.00000000000E+00 0.  1.
         24    2    1    2    0    0 -0.28458422561E+02 -0.70161549392E+01 -0.10765455737E+03  0.13764820793E+03  0.80612760638E+02 0.  0.
         23    2    1    2    0    0  0.22098410970E+02 -0.27339488879E+02  0.30093657960E+03  0.31471044040E+03  0.85111978808E+02 0.  0.
        -13    1    3    3    0    0 -0.40708308965E+02 -0.28785288242E+02 -0.35260980138E+02  0.61066324257E+02  0.00000000000E+00 0.  1.
         14    1    3    3    0    0  0.12249886405E+02  0.21769133303E+02 -0.72393577232E+02  0.76581883668E+02  0.00000000000E+00 0. -1.
        -13    1    4    4    0    0 -0.30727911227E+02 -0.11595083409E+02  0.70530929273E+02  0.77802715066E+02  0.00000000000E+00 0.  1.
         13    1    4    4    0    0  0.52826322197E+02 -0.15744405470E+02  0.23040565032E+03  0.23690772533E+03  0.00000000000E+00 0. -1.
         21    1    1    2  502  501  0.63600115906E+01  0.34355643818E+02 -0.19132586947E+02  0.39834857762E+02  0.00000000000E+00 0.  1.
<scales pt_clust_5="13000.00000" pt_clust_6="13000.00000" pt_clust_7="13000.00000" pt_clust_8="13000.00000" pt_clust_9="34.93938"></scales>
<clustering>
<clus scale="   34.939">  2  9  1 -1</clus>
<clus scale="   80.613">  5  6 -1 -1</clus>
<clus scale="   85.112">  7  8 -1 -1</clus>
<clus scale="   87.480">  2  5  1 -1</clus>
<clus scale="   91.643">  1  5  2 -1</clus>
</clustering>
</event>
<event>
 9    2  0.3402837E-005  0.1000103E+03  0.7546771E-02  0.1285169E+00
          2   -1    0    0  502    0  0.00000000000E+00  0.00000000000E+00  0.20111651783E+03  0.20111651783E+03  0.00000000000E+00 0. -1.
         -1   -1    0    0    0  501 -0.00000000000E+00 -0.00000000000E+00 -0.14517395379E+03  0.14517395379E+03  0.00000000000E+00 0.  1.
         23    2    1    2    0    0  0.93297216361E+00  0.14827535825E+02 -0.85464360834E+02  0.12576690640E+03  0.91062788877E+02 0.  0.
         24    2    1    2    0    0 -0.18904898625E+02 -0.40391901396E+02  0.15946111530E+03  0.18443366746E+03  0.81234410880E+02 0.  0.
        -11    1    4    4    0    0 -0.41746347226E+02  0.45156940402E+01  0.65168319524E+02  0.77524569454E+02  0.00000000000E+00 0.  1.
         12    1    4    4    0    0  0.22841448602E+02 -0.44907595436E+02  0.94292795775E+02  0.10690909801E+03  0.00000000000E+00 0. -1.
        -13    1    3    3    0    0 -0.44310999830E+02  0.93218558115E+01 -0.53541005652E+02  0.70121330478E+02  0.00000000000E+00 0.  1.
         13    1    3    3    0    0  0.45243971994E+02  0.55056800134E+01 -0.31923355181E+02  0.55645575927E+02  0.00000000000E+00 0. -1.
         21    1    1    2  502  501  0.17971926461E+02  0.25564365571E+02 -0.18054190424E+02  0.36089897750E+02  0.00000000000E+00 0.  1.
<scales pt_clust_5="13000.00000" pt_clust_6="13000.00000" pt_clust_7="13000.00000" pt_clust_8="13000.00000" pt_clust_9="31.24943"></scales>
<clustering>
<clus scale="   31.249">  2  9  1 -1</clus>
<clus scale="   81.234">  5  6 -1 -1</clus>
<clus scale="   91.063">  7  8 -1 -1</clus>
<clus scale="   91.152">  1  5  2 -1</clus>
<clus scale="   91.152">  1  5  2 -1</clus>
</clustering>
</event>
<event>
 9    2  0.3402837E-005  0.1050783E+03  0.7546771E-02  0.1275207E+00
         -1   -1    0    0    0  501 -0.00000000000E+00  0.00000000000E+00  0.13447019715E+03  0.13447019715E+03  0.00000000000E+00 0.  1.
          2   -1    0    0  502    0  0.00000000000E+00 -0.00000000000E+00 -0.16316579424E+03  0.16316579424E+03  0.00000000000E+00 0. -1.
         23    2    1    2    0    0 -0.68034538980E+02  0.31274030197E+02  0.57707923529E+02  0.13171052898E+03  0.91709844332E+02 0.  0.
         24    2    1    2    0    0  0.31291848480E+02 -0.35579618084E+02 -0.89211969400E+02  0.12882491287E+03  0.79949944884E+02 0.  0.
        -11    1    4    4    0    0  0.78767984610E+01 -0.42021914161E+02 -0.72794735695E+01  0.43369066847E+02  0.00000000000E+00 0.  1.
         12    1    4    4    0    0  0.23415050019E+02  0.64422960767E+01 -0.81932495831E+02  0.85455846021E+02  0.00000000000E+00 0. -1.
        -11    1    3    3    0    0 -0.10319367711E+02  0.36074845200E+02 -0.13543156165E+02  0.39891112859E+02  0.00000000000E+00 0. -1.
         11    1    3    3    0    0 -0.57715171269E+02 -0.48008150032E+01  0.71251079695E+02  0.91819416122E+02  0.00000000000E+00 0.  1.
         21    1    1    2  502  501  0.36742690500E+02  0.43055878871E+01  0.28084487783E+01  0.37100549548E+02  0.00000000000E+00 0. -1.
<scales pt_clust_5="13000.00000" pt_clust_6="13000.00000" pt_clust_7="13000.00000" pt_clust_8="13000.00000" pt_clust_9="36.99410"></scales>
<clustering>
<clus scale="   36.994">  1  9  2 -1</clus>
<clus scale="   79.950">  5  6 -1 -1</clus>
<clus scale="   91.710">  7  8 -1 -1</clus>
<clus scale="   94.988">  2  5  1 -1</clus>
<clus scale="   94.988">  2  5  1 -1</clus>
</clustering>
</event>
<event>
 9    2  0.3402837E-005  0.9382905E+02  0.7546771E-02  0.1300484E+00
          2   -1    0    0  502    0  0.00000000000E+00  0.00000000000E+00  0.12245265951E+03  0.12245265951E+03  0.00000000000E+00 0. -1.
         -1   -1    0    0    0  501 -0.00000000000E+00 -0.00000000000E+00 -0.44393245302E+03  0.44393245302E+03  0.00000000000E+00 0.  1.
         23    2    1    2    0    0  0.24570637581E+02 -0.56668981685E+02 -0.28895990341E+03  0.30898353568E+03  0.90321148287E+02 0.  0.
         24    2    1    2    0    0 -0.15599408894E+02  0.17793099426E+02  0.93830749521E+02  0.12490138326E+03  0.78969677976E+02 0.  0.
        -11    1    4    4    0    0 -0.43071237093E+02  0.18497640680E+01  0.78664774257E+02  0.89703399048E+02  0.00000000000E+00 0.  1.
         12    1    4    4    0    0  0.27471828199E+02  0.15943335358E+02  0.15165975264E+02  0.35197984213E+02  0.00000000000E+00 0. -1.
        -11    1    3    3    0    0 -0.16231623628E+02 -0.56724581272E+02 -0.10394457711E+03  0.11952246164E+03  0.00000000000E+00 0. -1.
         11    1    3    3    0    0  0.40802261209E+02  0.55599587376E-01 -0.18501532630E+03  0.18946107404E+03  0.00000000000E+00 0.  1.
         21    1    1    2  502  501 -0.89712286872E+01  0.38875882259E+02 -0.12635063962E+03  0.13250019358E+03  0.00000000000E+00 0.  1.
<scales pt_clust_5="13000.00000" pt_clust_6="13000.00000" pt_clust_7="13000.00000" pt_clust_8="13000.00000" pt_clust_9="39.89758"></scales>
<clustering>
<clus scale="   39.898">  2  9  1 -1</clus>
<clus scale="   78.970">  5  6 -1 -1</clus>
<clus scale="   82.959">  1  5  2 -1</clus>
<clus scale="   90.321">  7  8 -1 -1</clus>
<clus scale="   82.959">  1  5  2 -1</clus>
</clustering>
</event>
<event>
 9    2  0.3402837E-005  0.3411603E+03  0.7546771E-02  0.1066303E+00
          2   -1    0    0  502    0  0.00000000000E+00  0.00000000000E+00  0.26749331646E+03  0.26749331646E+03  0.00000000000E+00 0. -1.
         -1   -1    0    0    0  501 -0.00000000000E+00 -0.00000000000E+00 -0.43572187682E+03  0.43572187682E+03  0.00000000000E+00 0.  1.
         24    2    1    2    0    0 -0.17476531841E+03 -0.76654750976E+02  0.87640381018E+02  0.22519743263E+03  0.81327608557E+02 0.  0.
         23    2    1    2    0    0 -0.77237630482E+02  0.35396003653E+02 -0.11262761243E+02  0.12440787130E+03  0.90177269940E+02 0.  0.
        -11    1    3    3    0    0 -0.10911924531E+03 -0.36516725706E+01  0.49382176539E+02  0.11982881026E+03  0.00000000000E+00 0.  1.
         12    1    3    3    0    0 -0.65646073101E+02 -0.73003078405E+02  0.38258204479E+02  0.10536862237E+03  0.00000000000E+00 0. -1.
        -11    1    4    4    0    0 -0.72053322590E+02  0.63050383998E+02 -0.95483684303E+01  0.96219559125E+02  0.00000000000E+00 0.  1.
         11    1    4    4    0    0 -0.51843078918E+01 -0.27654380345E+02 -0.17143928126E+01  0.28188312176E+02  0.00000000000E+00 0. -1.
         21    1    1    2  502  501  0.25200294889E+03  0.41258747323E+02 -0.24460618013E+03  0.35360988934E+03  0.00000000000E+00 0. -1.
<scales pt_clust_5="13000.00000" pt_clust_6="13000.00000" pt_clust_7="13000.00000" pt_clust_8="13000.00000" pt_clust_9="255.35812"></scales>
<clustering>
<clus scale="   81.328">  5  6 -1 -1</clus>
<clus scale="   90.177">  7  8 -1 -1</clus>
<clus scale="  121.133">  5  7 -1 -1</clus>
<clus scale="  255.358">  2  9  1 -1</clus>
<clus scale="  341.160">  1  5  2 -1</clus>
</clustering>
</event>
<event>
 9    2  0.3402837E-005  0.2245675E+03  0.7546771E-02  0.1131352E+00
         -1   -1    0    0    0  501 -0.00000000000E+00  0.00000000000E+00  0.22402186725E+03  0.22402186725E+03  0.00000000000E+00 0.  1.
          2   -1    0    0  502    0  0.00000000000E+00 -0.00000000000E+00 -0.47126394901E+03  0.47126394901E+03  0.00000000000E+00 0. -1.
         24    2    1    2    0    0  0.71300566458E+02  0.15749100037E+03  0.35286643612E+02  0.19349934317E+03  0.79433384759E+02 0.  0.
         23    2    1    2    0    0 -0.16162788420E+03 -0.14918161049E+03 -0.32396818966E+03  0.40206035068E+03  0.91205327775E+02 0.  0.
        -11    1    3    3    0    0  0.23709987342E+02  0.39681090345E+02  0.46973968821E+02  0.65903764517E+02  0.00000000000E+00 0.  1.
         12    1    3    3    0    0  0.47590579116E+02  0.11780991002E+03 -0.11687325210E+02  0.12759557865E+03  0.00000000000E+00 0. -1.
        -13    1    4    4    0    0 -0.11863772906E+03 -0.14970323725E+03 -0.29005813483E+03  0.34730345749E+03  0.00000000000E+00 0. -1.
         13    1    4    4    0    0 -0.42990155140E+02  0.52162675747E+00 -0.33910054828E+02  0.54756893191E+02  0.00000000000E+00 0.  1.
         21    1    1    2  502  501  0.90327317745E+02 -0.83093898768E+01  0.41439464285E+02  0.99726122412E+02  0.00000000000E+00 0.  1.
<scales pt_clust_5="13000.00000" pt_clust_6="13000.00000" pt_clust_7="13000.00000" pt_clust_8="13000.00000" pt_clust_9="90.70871"></scales>
<clustering>
<clus scale="   79.433">  5  6 -1 -1</clus>
<clus scale="   90.709">  1  9  2 -1</clus>
<clus scale="   91.205">  7  8 -1 -1</clus>
<clus scale="  220.050">  1  5  2 -1</clus>
<clus scale="  224.567">  2  5  1 -1</clus>
</clustering>
</event>
<event>
 9    2  0.3402837E-005  0.1103742E+03  0.7546771E-02  0.1264741E+00
          2   -1    0    0  502    0  0.00000000000E+00  0.00000000000E+00  0.35863728274E+03  0.35863728274E+03  0.00000000000E+00 0. -1.
         -1   -1    0    0    0  501 -0.00000000000E+00 -0.00000000000E+00 -0.12159225594E+03  0.12159225594E+03  0.00000000000E+00 0.  1.
         23    2    1    2    0    0  0.92572172003E+01 -0.29190010338E+02 -0.50300407372E+02  0.10806252904E+03  0.90606988839E+02 0.  0.
         24    2    1    2    0    0 -0.56710705150E+02  0.36119568912E+02  0.30432207380E+03  0.32129404439E+03  0.78084640143E+02 0.  0.
        -13    1    4    4    0    0 -0.18484052864E+02 -0.21288857975E+02  0.46262043073E+02  0.54176123094E+02  0.00000000000E+00 0.  1.
         14    1    4    4    0    0 -0.38226652286E+02  0.57408426888E+02  0.25806003072E+03  0.26711792130E+03  0.00000000000E+00 0. -1.
        -13    1    3    3    0    0 -0.34364597448E+02 -0.37805968061E+02 -0.29190627600E+02  0.58841392901E+02  0.00000000000E+00 0. -1.
         13    1    3    3    0    0  0.43621814648E+02  0.86159577229E+01 -0.21109779772E+02  0.49221136138E+02  0.00000000000E+00 0.  1.
         21    1    1    2  502  501  0.47453487949E+02 -0.69295585741E+01 -0.16976639620E+02  0.50872965250E+02  0.00000000000E+00 0.  1.
<scales pt_clust_5="13000.00000" pt_clust_6="13000.00000" pt_clust_7="13000.00000" pt_clust_8="13000.00000" pt_clust_9="47.95678"></scales>
<clustering>
<clus scale="   47.957">  2  9  1 -1</clus>
<clus scale="   78.085">  5  6 -1 -1</clus>
<clus scale="   90.607">  7  8 -1 -1</clus>
<clus scale="  100.350">  1  5  2 -1</clus>
<clus scale="  100.350">  1  5  2 -1</clus>
</clustering>
</event>
<event>
 9    2  0.3402837E-005  0.1408792E+03  0.7546771E-02  0.1212886E+00
         -1   -1    0    0    0  501 -0.00000000000E+00  0.00000000000E+00  0.36730896130E+02  0.36730896130E+02  0.00000000000E+00 0.  1.
          2   -1    0    0  502    0  0.00000000000E+00 -0.00000000000E+00 -0.98033742806E+03  0.98033742806E+03  0.00000000000E+00 0. -1.
         23    2    1    2    0    0  0.70976745916E+02 -0.34969108740E+02 -0.23180195034E+03  0.26138530669E+03  0.91266627782E+02 0.  0.
         24    2    1    2    0    0 -0.13845897371E+03 -0.18357152909E+02 -0.51813344227E+03  0.54377253769E+03  0.87854631488E+02 0.  0.
        -11    1    4    4    0    0 -0.14432724167E+03 -0.23084977267E+02 -0.51545138039E+03  0.53577364102E+03  0.00000000000E+00 0.  1.
         12    1    4    4    0    0  0.58682679552E+01  0.47278243577E+01 -0.26820618828E+01  0.79988966674E+01  0.00000000000E+00 0. -1.
        -13    1    3    3    0    0 -0.17807877560E+02 -0.16931270024E+02 -0.22503038074E+02  0.33319290664E+02  0.00000000000E+00 0.  1.
         13    1    3    3    0    0  0.88784623477E+02 -0.18037838716E+02 -0.20929891226E+03  0.22806601603E+03  0.00000000000E+00 0. -1.
         21    1    1    2  502  501  0.67482227796E+02  0.53326261649E+02 -0.19367113932E+03  0.21191047981E+03  0.00000000000E+00 0. -1.
<scales pt_clust_5="13000.00000" pt_clust_6="13000.00000" pt_clust_7="13000.00000" pt_clust_8="13000.00000" pt_clust_9="86.00896"></scales>
<clustering>
<clus scale="   86.009">  1  9  2 -1</clus>
<clus scale="   87.855">  5  6 -1 -1</clus>
<clus scale="   91.267">  7  8 -1 -1</clus>
<clus scale="  138.693">  2  5  1 -1</clus>
<clus scale="  138.693">  2  5  1 -1</clus>
</clustering>
</event>
<event>
 9    2  0.3402837E-005  0.1039100E+03  0.7546771E-02  0.1278123E+00
          2   -1    0    0  502    0  0.00000000000E+00  0.00000000000E+00  0.66275787076E+03  0.66275787076E+03  0.00000000000E+00 0. -1.
         -1   -1    0    0    0  501 -0.00000000000E+00 -0.00000000000E+00 -0.44777354503E+02  0.44777354503E+02  0.00000000000E+00 0.  1.
         23    2    1    2    0    0 -0.50459724079E+02  0.19005471848E+02  0.37198349208E+02  0.11226174204E+03  0.91167921046E+02 0.  0.
         24    2    1    2    0    0  0.19292269906E+02 -0.95125028585E+01  0.51995245317E+03  0.52626782584E+03  0.78387445246E+02 0.  0.
        -11    1    4    4    0    0 -0.27126995175E+02  0.10158623967E+02  0.13838333525E+03  0.14138252715E+03  0.00000000000E+00 0.  1.
         12    1    4    4    0    0  0.46419265081E+02 -0.19671126826E+02  0.38156911792E+03  0.38488529869E+03  0.00000000000E+00 0. -1.
        -11    1    3    3    0    0  0.23106754581E+02  0.77125277564E+01  0.28242422492E+02  0.37296643547E+02  0.00000000000E+00 0. -1.
         11    1    3    3    0    0 -0.73566478660E+02  0.11292944091E+02  0.89559267160E+01  0.74965098493E+02  0.00000000000E+00 0.  1.
         21    1    1    2  502  501  0.31167454173E+02 -0.94929689893E+01  0.60829713881E+02  0.69005657382E+02  0.00000000000E+00 0. -1.
<scales pt_clust_5="13000.00000" pt_clust_6="13000.00000" pt_clust_7="13000.00000" pt_clust_8="13000.00000" pt_clust_9="32.58108"></scales>
<clustering>
<clus scale="   32.581">  1  9  2 -1</clus>
<clus scale="   78.387">  5  6 -1 -1</clus>
<clus scale="   91.168">  7  8 -1 -1</clus>
<clus scale="   92.899">  1  5  2 -1</clus>
<clus scale="   32.581">  1  5  2 -1</clus>
</clustering>
</event>
<event>
 9    2  0.3402837E-005  0.1647806E+03  0.7546771E-02  0.1184849E+00
         -1   -1    0    0    0  501 -0.00000000000E+00  0.00000000000E+00  0.17657802025E+03  0.17657802025E+03  0.00000000000E+00 0.  1.
          2   -1    0    0  502    0  0.00000000000E+00 -0.00000000000E+00 -0.40481407878E+03  0.40481407878E+03  0.00000000000E+00 0. -1.
         24    2    1    2    0    0  0.10336817881E+03  0.10320019052E+03  0.65179447512E+02  0.17907434404E+03  0.80523292302E+02 0.  0.
         23    2    1    2    0    0 -0.81582905104E+02 -0.10958398287E+03 -0.32468039174E+03  0.36368041511E+03  0.90452572355E+02 0.  0.
        -13    1    3    3    0    0  0.10220263680E+03  0.53360207692E+02  0.33717098524E+02  0.12012299308E+03  0.00000000000E+00 0.  1.
         14    1    3    3    0    0  0.11655420079E+01  0.49839982829E+02  0.31462348988E+02  0.58951350963E+02  0.00000000000E+00 0. -1.
        -11    1    4    4    0    0 -0.45501188566E+02 -0.15262575045E+02 -0.42978444279E+02  0.64423994215E+02  0.00000000000E+00 0.  1.
         11    1    4    4    0    0 -0.36081716538E+02 -0.94321407822E+02 -0.28170194747E+03  0.29925642090E+03  0.00000000000E+00 0. -1.
         21    1    1    2  502  501 -0.21785273703E+02  0.63837923465E+01  0.31264885703E+02  0.38637339880E+02  0.00000000000E+00 0.  1.
<scales pt_clust_5="13000.00000" pt_clust_6="13000.00000" pt_clust_7="13000.00000" pt_clust_8="13000.00000" pt_clust_9="22.70134"></scales>
<clustering>
<clus scale="   22.701">  1  9  2 -1</clus>
<clus scale="   80.523">  5  6 -1 -1</clus>
<clus scale="   90.453">  7  8 -1 -1</clus>
<clus scale="  159.546">  1  5  2 -1</clus>
<clus scale="  164.781">  2  5  1 -1</clus>
</clustering>
</event>
<event>
 9    2  0.3402837E-005  0.1415676E+03  0.7546771E-02  0.1214062E+00
         -1   -1    0    0    0  501 -0.00000000000E+00  0.00000000000E+00  0.33478635893E+02  0.33478635893E+02  0.00000000000E+00 0.  1.
          2   -1    0    0  502    0  0.00000000000E+00 -0.00000000000E+00 -0.11536738030E+04  0.11536738030E+04  0.00000000000E+00 0. -1.
         23    2    1    2    0    0  0.26620721013E+02 -0.10201020227E+03 -0.18711483357E+03  0.23410331054E+03  0.93153931271E+02 0.  0.
         24    2    1    2    0    0 -0.51976661486E+02  0.94007290460E+02 -0.90307815688E+03  0.91296046513E+03  0.80048169612E+02 0.  0.
        -11    1    4    4    0    0 -0.19533309432E+02 -0.56873138429E+01 -0.59275231867E+02  0.62669361166E+02  0.00000000000E+00 0.  1.
         12    1    4    4    0    0 -0.32443352054E+02  0.99694604303E+02 -0.84380292501E+03  0.85029110396E+03  0.00000000000E+00 0. -1.
        -11    1    3    3    0    0  0.22949015754E+02  0.10402202953E+02 -0.55671913071E+02  0.61108305944E+02  0.00000000000E+00 0. -1.
         11    1    3    3    0    0  0.36717052591E+01 -0.11241240522E+03 -0.13144292050E+03  0.17299500460E+03  0.00000000000E+00 0.  1.
         21    1    1    2  502  501  0.25355940473E+02  0.80029118058E+01 -0.30002176657E+02  0.40088663220E+02  0.00000000000E+00 0. -1.
<scales pt_clust_5="13000.00000" pt_clust_6="13000.00000" pt_clust_7="13000.00000" pt_clust_8="13000.00000" pt_clust_9="26.58891"></scales>
<clustering>
<clus scale="   26.589">  1  9  2 -1</clus>
<clus scale="   80.048">  5  6 -1 -1</clus>
<clus scale="   93.154">  7  8 -1 -1</clus>
<clus scale="  133.310">  2  5  1 -1</clus>
<clus scale="  133.310">  2  5  1 -1</clus>
</clustering>
</event>
<event>
 9    2  0.3402837E-005  0.1162120E+03  0.7546771E-02  0.1252231E+00
          2   -1    0    0  502    0  0.00000000000E+00  0.00000000000E+00  0.73539522338E+03  0.73539522338E+03  0.00000000000E+00 0. -1.
         -1   -1    0    0    0  501 -0.00000000000E+00 -0.00000000000E+00 -0.54149995069E+02  0.54149995069E+02  0.00000000000E+00 0.  1.
         23    2    1    2    0    0  0.48639358804E+02  0.13441915240E+02  0.31454487072E+02  0.10682897105E+03  0.88750053458E+02 0.  0.
         24    2    1    2    0    0 -0.70394431000E+02  0.39116644003E+02  0.58722972512E+03  0.59816114079E+03  0.80451926808E+02 0.  0.
        -13    1    4    4    0    0 -0.30051943154E+01  0.42329242555E+02  0.15526646354E+03  0.16096108433E+03  0.00000000000E+00 0.  1.
         14    1    4    4    0    0 -0.67389236685E+02 -0.32125985522E+01  0.43196326158E+03  0.43720005646E+03  0.00000000000E+00 0. -1.
        -11    1    3    3    0    0 -0.24618446413E+02 -0.62508271224E+01  0.13945144148E+02  0.28975986416E+02  0.00000000000E+00 0. -1.
         11    1    3    3    0    0  0.73257805217E+02  0.19692742362E+02  0.17509342924E+02  0.77852984635E+02  0.00000000000E+00 0.  1.
         21    1    1    2  502  501  0.21755072196E+02 -0.52558559243E+02  0.62561016114E+02  0.84555106606E+02  0.00000000000E+00 0.  1.
<scales pt_clust_5="13000.00000" pt_clust_6="13000.00000" pt_clust_7="13000.00000" pt_clust_8="13000.00000" pt_clust_9="56.88308"></scales>
<clustering>
<clus scale="   56.883">  2  9  1 -1</clus>
<clus scale="   80.452">  5  6 -1 -1</clus>
<clus scale="   88.750">  7  8 -1 -1</clus>
<clus scale="  110.005">  1  5  2 -1</clus>
<clus scale="  110.005">  1  5  2 -1</clus>
</clustering>
</event>
<event>
 9    2  0.3402837E-005  0.9255647E+02  0.7546771E-02  0.1302771E+00
         -3   -1    0    0    0  501 -0.00000000000E+00  0.00000000000E+00  0.22444221463E+03  0.22444221463E+03  0.00000000000E+00 0.  1.
          4   -1    0    0  502    0  0.00000000000E+00 -0.00000000000E+00 -0.66533831929E+02  0.66533831929E+02  0.00000000000E+00 0. -1.
         24    2    1    2    0    0  0.19501931938E+02 -0.22056012363E+01  0.14338512447E+03  0.16536684301E+03  0.80010679430E+02 0.  0.
         23    2    1    2    0    0 -0.28468541301E+02 -0.23621874724E+02  0.13563038841E+02  0.98252657356E+02  0.90006543348E+02 0.  0.
        -11    1    3    3    0    0  0.42307850711E+02 -0.90454761987E+01  0.13212679164E+03  0.13902972323E+03  0.00000000000E+00 0.  1.
         12    1    3    3    0    0 -0.22805918773E+02  0.68398749625E+01  0.11258332831E+02  0.26337119788E+02  0.00000000000E+00 0. -1.
        -13    1    4    4    0    0 -0.33528278731E+02  0.24145058152E+02  0.25765461358E+02  0.48692795224E+02  0.00000000000E+00 0. -1.
         13    1    4    4    0    0  0.50597374295E+01 -0.47766932875E+02 -0.12202422517E+02  0.49559862131E+02  0.00000000000E+00 0.  1.
         21    1    1    2  502  501  0.89666093631E+01  0.25827475960E+02  0.96021938596E+00  0.27356546186E+02  0.00000000000E+00 0. -1.
<scales pt_clust_5="13000.00000" pt_clust_6="13000.00000" pt_clust_7="13000.00000" pt_clust_8="13000.00000" pt_clust_9="27.33969"></scales>
<clustering>
<clus scale="   27.340">  2  9  1 -1</clus>
<clus scale="   80.011">  5  6 -1 -1</clus>
<clus scale="   82.869">  1  5  2 -1</clus>
<clus scale="   90.007">  7  8 -1 -1</clus>
<clus scale="   27.340">  2  5  1 -1</clus>
</clustering>
</event>
<event>
 9    2  0.3402837E-005  0.1193946E+03  0.7546771E-02  0.1254202E+00
         -3   -1    0    0    0  501 -0.00000000000E+00  0.00000000000E+00  0.36543413516E+03  0.36543413516E+03  0.00000000000E+00 0.  1.
          4   -1    0    0  502    0  0.00000000000E+00 -0.00000000000E+00 -0.31066469391E+03  0.31066469391E+03  0.00000000000E+00 0. -1.
         23    2    1    2    0    0  0.43101084436E+02 -0.41934369302E+01 -0.84787683095E+02  0.14223111028E+03  0.10566668886E+03 0.  0.
         24    2    1    2    0    0 -0.25855122169E+02 -0.73420511740E+02 -0.17598726633E+03  0.20846088000E+03  0.80158353858E+02 0.  0.
        -11    1    4    4    0    0 -0.21461877183E+02 -0.80474642834E+02 -0.92143599127E+02  0.12420637331E+03  0.00000000000E+00 0.  1.
         12    1    4    4    0    0 -0.43932449858E+01  0.70541310941E+01 -0.83843667199E+02  0.84254506683E+02  0.00000000000E+00 0. -1.
        -11    1    3    3    0    0 -0.12622870055E+02  0.35589387928E+02 -0.56925247504E+02  0.68311237617E+02  0.00000000000E+00 0. -1.
         11    1    3    3    0    0  0.55723954491E+02 -0.39782824858E+02 -0.27862435592E+02  0.73919872666E+02  0.00000000000E+00 0.  1.
         21    1    1    2  502  501 -0.17245962267E+02  0.77613948671E+02  0.31554439067E+03  0.32540683879E+03  0.00000000000E+00 0.  1.
<scales pt_clust_5="13000.00000" pt_clust_6="13000.00000" pt_clust_7="13000.00000" pt_clust_8="13000.00000" pt_clust_9="79.50691"></scales>
<clustering>
<clus scale="   79.507">  1  9  2 -1</clus>
<clus scale="   80.158">  5  6 -1 -1</clus>
<clus scale="   97.545">  2  5  1 -1</clus>
<clus scale="  105.667">  7  8 -1 -1</clus>
<clus scale="   97.545">  2  5  1 -1</clus>
</clustering>
</event>
<event>
 9    2  0.3402837E-005  0.9786537E+02  0.7546771E-02  0.1285859E+00
         -1   -1    0    0    0  501 -0.00000000000E+00  0.00000000000E+00  0.59712606649E+03  0.59712606649E+03  0.00000000000E+00 0.  1.
          2   -1    0    0  502    0  0.00000000000E+00 -0.00000000000E+00 -0.75821900220E+02  0.75821900220E+02  0.00000000000E+00 0. -1.
         23    2    1    2    0    0  0.39869322321E+01  0.93220691067E+02  0.22931715811E+03  0.26139358428E+03  0.83870459791E+02 0.  0.
         24    2    1    2    0    0  0.34279045425E+02 -0.32847050858E+02 -0.15592262762E+02  0.95778719377E+02  0.81709624416E+02 0.  0.
        -13    1    4    4    0    0 -0.22135250886E+02 -0.26746058965E+02  0.56797600939E+01  0.35179264868E+02  0.00000000000E+00 0.  1.
         14    1    4    4    0    0  0.56414296312E+02 -0.61009918933E+01 -0.21272022855E+02  0.60599454509E+02  0.00000000000E+00 0. -1.
        -11    1    3    3    0    0 -0.37600851315E+02  0.62455781601E+02  0.11909493286E+03  0.13963578233E+03  0.00000000000E+00 0.  1.
         11    1    3    3    0    0  0.41587783547E+02  0.30764909466E+02  0.11022222525E+03  0.12175780195E+03  0.00000000000E+00 0. -1.
         21    1    1    2  502  501 -0.38265977657E+02 -0.60373640209E+02  0.30757927092E+03  0.31577566306E+03  0.00000000000E+00 0.  1.
<scales pt_clust_5="13000.00000" pt_clust_6="13000.00000" pt_clust_7="13000.00000" pt_clust_8="13000.00000" pt_clust_9="71.47910"></scales>
<clustering>
<clus scale="   71.479">  1  9  2 -1</clus>
<clus scale="   81.710">  5  6 -1 -1</clus>
<clus scale="   83.870">  7  8 -1 -1</clus>
<clus scale="   96.020">  2  5  1 -1</clus>
<clus scale="   96.020">  2  5  1 -1</clus>
</clustering>
</event>
<event>
 9    2  0.3402837E-005  0.2977225E+03  0.7546771E-02  0.1122407E+00
          2   -1    0    0  502    0  0.00000000000E+00  0.00000000000E+00  0.37019772222E+03  0.37019772222E+03  0.00000000000E+00 0. -1.
         -1   -1    0    0    0  501 -0.00000000000E+00 -0.00000000000E+00 -0.41873905417E+03  0.41873905417E+03  0.00000000000E+00 0.  1.
         23    2    1    2    0    0  0.65675055660E+02 -0.23454066758E+03  0.14852671650E+03  0.29955931787E+03  0.91395085901E+02 0.  0.
         24    2    1    2    0    0 -0.57818334702E+02 -0.64158283323E+02  0.20771920191E+02  0.11959773588E+03  0.80080588239E+02 0.  0.
        -11    1    4    4    0    0 -0.26481700911E+02 -0.41047306016E+02 -0.28688601176E+02  0.56649780686E+02  0.00000000000E+00 0.  1.
         12    1    4    4    0    0 -0.31336633791E+02 -0.23110977307E+02  0.49460521366E+02  0.62947955195E+02  0.00000000000E+00 0. -1.
        -13    1    3    3    0    0  0.29409473684E+02 -0.21234730241E+03  0.14043758132E+03  0.25627916074E+03  0.00000000000E+00 0. -1.
         13    1    3    3    0    0  0.36265581976E+02 -0.22193365172E+02  0.80891351792E+01  0.43280157135E+02  0.00000000000E+00 0.  1.
         21    1    1    2  502  501 -0.78567209581E+01  0.29869895090E+03 -0.21783996865E+03  0.36977972264E+03  0.00000000000E+00 0.  1.
<scales pt_clust_5="13000.00000" pt_clust_6="13000.00000" pt_clust_7="13000.00000" pt_clust_8="13000.00000" pt_clust_9="283.34722"></scales>
<clustering>
<clus scale="   80.081">  5  6 -1 -1</clus>
<clus scale="   91.395">  7  8 -1 -1</clus>
<clus scale="  117.780">  1  5  2 -1</clus>
<clus scale="  283.347">  2  9  1 -1</clus>
<clus scale="  117.780">  1  5  2 -1</clus>
</clustering>
</event>
<event>
 9    2  0.3402837E-005  0.1362019E+03  0.7546771E-02  0.1242050E+00
          2   -1    0    0  502    0  0.00000000000E+00  0.00000000000E+00  0.58061926675E+03  0.58061926675E+03  0.00000000000E+00 0. -1.
         -1   -1    0    0    0  501 -0.00000000000E+00 -0.00000000000E+00 -0.27689890350E+03  0.27689890350E+03  0.00000000000E+00 0.  1.
         23    2    1    2    0    0 -0.85399678739E+02  0.48084126644E+02 -0.12055078511E+03  0.17927517763E+03  0.89453391002E+02 0.  0.
         24    2    1    2    0    0 -0.17876912384E+02 -0.17785852242E+02  0.52450955892E+03  0.53116553460E+03  0.79941398644E+02 0.  0.
        -13    1    4    4    0    0 -0.30268611828E+02  0.45988407070E+01  0.76115637684E+02  0.82042236061E+02  0.00000000000E+00 0.  1.
         14    1    4    4    0    0  0.12391699444E+02 -0.22384692949E+02  0.44839392123E+03  0.44912329854E+03  0.00000000000E+00 0. -1.
        -13    1    3    3    0    0 -0.90283231467E+02  0.64163092544E+01 -0.77409318565E+02  0.11909841942E+03  0.00000000000E+00 0.  1.
         13    1    3    3    0    0  0.48835527278E+01  0.41667817389E+02 -0.43141466542E+02  0.60176758210E+02  0.00000000000E+00 0. -1.
         21    1    1    2  502  501  0.10327659112E+03 -0.30298274402E+02 -0.10023841056E+03  0.14707745802E+03  0.00000000000E+00 0. -1.
<scales pt_clust_5="13000.00000" pt_clust_6="13000.00000" pt_clust_7="13000.00000" pt_clust_8="13000.00000" pt_clust_9="102.70856"></scales>
<clustering>
<clus scale="   79.941">  5  6 -1 -1</clus>
<clus scale="   83.825">  1  5  2 -1</clus>
<clus scale="   89.453">  7  8 -1 -1</clus>
<clus scale="  102.709">  1  9  2 -1</clus>
<clus scale="   83.825">  1  5  2 -1</clus>
</clustering>
</event>
<event>
 9    2  0.3402837E-005  0.1100414E+03  0.7546771E-02  0.1264481E+00
          2   -1    0    0  502    0  0.00000000000E+00  0.00000000000E+00  0.19984357996E+03  0.19984357996E+03  0.00000000000E+00 0. -1.
         -1   -1    0    0    0  501 -0.00000000000E+00 -0.00000000000E+00 -0.75647141067E+02  0.75647141067E+02  0.00000000000E+00 0.  1.
         24    2    1    2    0    0  0.49249745672E+02 -0.70790699678E+01  0.33629555574E+02  0.10101908936E+03  0.81229666542E+02 0.  0.
         23    2    1    2    0    0 -0.70885196471E+02 -0.52828531108E+00  0.96683318750E+02  0.15073610201E+03  0.91371320234E+02 0.  0.
        -13    1    3    3    0    0  0.46207467692E+02 -0.37836252160E+02  0.68305326476E+01  0.60111298640E+02  0.00000000000E+00 0.  1.
         14    1    3    3    0    0  0.30422779801E+01  0.30757182192E+02  0.26799022926E+02  0.40907790719E+02  0.00000000000E+00 0. -1.
        -13    1    4    4    0    0 -0.36221092935E+02  0.56387589407E+01  0.10776165865E+03  0.11382591204E+03  0.00000000000E+00 0. -1.
         13    1    4    4    0    0 -0.34664103536E+02 -0.61670442518E+01 -0.11078339904E+02  0.36910189972E+02  0.00000000000E+00 0.  1.
         21    1    1    2  502  501  0.21635450799E+02  0.76073552789E+01 -0.61164354321E+01  0.23735529655E+02  0.00000000000E+00 0.  1.
<scales pt_clust_5="13000.00000" pt_clust_6="13000.00000" pt_clust_7="13000.00000" pt_clust_8="13000.00000" pt_clust_9="22.93392"></scales>
<clustering>
<clus scale="   22.934">  2  9  1 -1</clus>
<clus scale="   81.230">  5  6 -1 -1</clus>
<clus scale="   91.371">  7  8 -1 -1</clus>
<clus scale="  101.777">  2  5  1 -1</clus>
<clus scale="  110.041">  1  5  2 -1</clus>
</clustering>
</event>
<event>
 9    2  0.3402837E-005  0.1219388E+03  0.7546771E-02  0.1244353E+00
          2   -1    0    0  502    0  0.00000000000E+00  0.00000000000E+00  0.29828695863E+03  0.29828695863E+03  0.00000000000E+00 0. -1.
         -1   -1    0    0    0  501 -0.00000000000E+00 -0.00000000000E+00 -0.22408925744E+03  0.22408925744E+03  0.00000000000E+00 0.  1.
         23    2    1    2    0    0 -0.39285606367E+01 -0.42270876879E+02 -0.14116860102E+03  0.16088442805E+03  0.64443499705E+02 0.  0.
         24    2    1    2    0    0  0.93342146171E+01  0.95106576858E+02  0.26222725943E+03  0.29066254547E+03  0.81173833383E+02 0.  0.
        -13    1    4    4    0    0 -0.28506522604E+02  0.43748401181E+02  0.65006054708E+02  0.83380642751E+02  0.00000000000E+00 0.  1.
         14    1    4    4    0    0  0.37840737221E+02  0.51358175677E+02  0.19722120472E+03  0.20728190272E+03  0.00000000000E+00 0. -1.
        -13    1    3    3    0    0 -0.20379788090E+02 -0.18374352998E+02 -0.12436792511E+03  0.12735907273E+03  0.00000000000E+00 0. -1.
         13    1    3    3    0    0  0.16451227454E+02 -0.23896523881E+02 -0.16800675913E+02  0.33525355322E+02  0.00000000000E+00 0.  1.
         21    1    1    2  502  501 -0.54056539804E+01 -0.52835699980E+02 -0.46860957221E+02  0.70829242541E+02  0.00000000000E+00 0.  1.
<scales pt_clust_5="13000.00000" pt_clust_6="13000.00000" pt_clust_7="13000.00000" pt_clust_8="13000.00000" pt_clust_9="53.11151"></scales>
<clustering>
<clus scale="   53.112">  2  9  1 -1</clus>
<clus scale="   64.443">  7  8 -1 -1</clus>
<clus scale="   81.174">  5  6 -1 -1</clus>
<clus scale="  111.503">  2  7  1 -1</clus>
<clus scale="  121.939">  1  5  2 -1</clus>
</clustering>
</event>
<event>
 9    2  0.3402837E-005  0.1102602E+03  0.7546771E-02  0.1266569E+00
         -1   -1    0    0    0  501 -0.00000000000E+00  0.00000000000E+00  0.35749646178E+03  0.35749646178E+03  0.00000000000E+00 0.  1.
          2   -1    0    0  502    0  0.00000000000E+00 -0.00000000000E+00 -0.52556579441E+02  0.52556579441E+02  0.00000000000E+00 0. -1.
         23    2    1    2    0    0 -0.34932768384E+02 -0.89813637961E+01  0.20926845414E+03  0.23693017939E+03  0.10507930722E+03 0.  0.
         24    2    1    2    0    0  0.29163356868E+02 -0.33316183844E+02  0.63096168047E+02  0.11942447992E+03  0.91217380427E+02 0.  0.
        -11    1    4    4    0    0  0.45910593333E+02 -0.49224365053E+02  0.19486490433E+02  0.70075273845E+02  0.00000000000E+00 0.  1.
         12    1    4    4    0    0 -0.16747236465E+02  0.15908181209E+02  0.43609677614E+02  0.49349206074E+02  0.00000000000E+00 0. -1.
        -13    1    3    3    0    0 -0.61137194034E+02  0.25167175589E+02  0.10442948453E+03  0.12359878826E+03  0.00000000000E+00 0. -1.
         13    1    3    3    0    0  0.26204425650E+02 -0.34148539385E+02  0.10483896961E+03  0.11333139113E+03  0.00000000000E+00 0.  1.
         21    1    1    2  502  501  0.57694115159E+01  0.42297547640E+02  0.32575260150E+02  0.53698381907E+02  0.00000000000E+00 0. -1.
<scales pt_clust_5="13000.00000" pt_clust_6="13000.00000" pt_clust_7="13000.00000" pt_clust_8="13000.00000" pt_clust_9="42.68921"></scales>
<clustering>
<clus scale="   42.689">  2  9  1 -1</clus>
<clus scale="   91.217">  5  6 -1 -1</clus>
<clus scale="   97.140">  2  5  1 -1</clus>
<clus scale="  105.079">  7  8 -1 -1</clus>
<clus scale="   42.689">  2  5  1 -1</clus>
</clustering>
</event>
<event>
 9    2  0.3402837E-005  0.1469966E+03  0.7546771E-02  0.1207807E+00
          2   -1    0    0  502    0  0.00000000000E+00  0.00000000000E+00  0.76865500738E+03  0.76865500738E+03  0.00000000000E+00 0. -1.
         -1   -1    0    0    0  501 -0.00000000000E+00 -0.00000000000E+00 -0.50781124549E+02  0.50781124549E+02  0.00000000000E+00 0.  1.
         24    2    1    2    0    0 -0.17811993760E+00 -0.11612335954E+03  0.23219504139E+03  0.27429904138E+03  0.88548068843E+02 0.  0.
         23    2    1    2    0    0  0.17885673602E+02  0.96096414225E+02  0.49618127569E+03  0.51641537192E+03  0.10456844581E+03 0.  0.
        -11    1    3    3    0    0  0.11252674447E+02 -0.66190845670E+02  0.46505812033E+02  0.81673993937E+02  0.00000000000E+00 0.  1.
         12    1    3    3    0    0 -0.11430794384E+02 -0.49932513872E+02  0.18568922936E+03  0.19262504744E+03  0.00000000000E+00 0. -1.
        -11    1    4    4    0    0 -0.14779077425E+02 -0.16701437998E+02  0.12896922811E+03  0.13088323407E+03  0.00000000000E+00 0.  1.
         11    1    4    4    0    0  0.32664751028E+02  0.11279785222E+03  0.36721204758E+03  0.38553213785E+03  0.00000000000E+00 0. -1.
         21    1    1    2  502  501 -0.17707553665E+02  0.20026945317E+02 -0.10502434259E+02  0.28721718627E+02  0.00000000000E+00 0.  1.
<scales pt_clust_5="13000.00000" pt_clust_6="13000.00000" pt_clust_7="13000.00000" pt_clust_8="13000.00000" pt_clust_9="26.73268"></scales>
<clustering>
<clus scale="   26.733">  2  9  1 -1</clus>
<clus scale="   88.548">  5  6 -1 -1</clus>
<clus scale="  104.568">  7  8 -1 -1</clus>
<clus scale="  136.067">  2  5  1 -1</clus>
<clus scale="  146.997">  1  5  2 -1</clus>
</clustering>
</event>
<event>
 9    2  0.3402837E-005  0.9687386E+02  0.7546771E-02  0.1294736E+00
          4   -1    0    0  502    0  0.00000000000E+00  0.00000000000E+00  0.83446532853E+02  0.83446532853E+02  0.00000000000E+00 0. -1.
         -3   -1    0    0    0  501 -0.00000000000E+00 -0.00000000000E+00 -0.31706915969E+03  0.31706915969E+03  0.00000000000E+00 0.  1.
         24    2    1    2    0    0  0.70763149973E+01  0.65354233507E+01 -0.22773313035E+03  0.24097844324E+03  0.78201313631E+02 0.  0.
         23    2    1    2    0    0 -0.17825911550E-01 -0.33537583589E+02  0.40014155514E+02  0.10581496163E+03  0.92037512097E+02 0.  0.
        -11    1    3    3    0    0  0.15954630886E+02  0.35716564067E+02 -0.18095135865E+03  0.18513135173E+03  0.00000000000E+00 0.  1.
         12    1    3    3    0    0 -0.88783158890E+01 -0.29181140716E+02 -0.46781771696E+02  0.55847091505E+02  0.00000000000E+00 0. -1.
        -13    1    4    4    0    0  0.37665460544E+02 -0.42935961511E+02  0.13202785681E+02  0.58621644966E+02  0.00000000000E+00 0. -1.
         13    1    4    4    0    0 -0.37683286455E+02  0.93983779217E+01  0.26811369833E+02  0.47193316666E+02  0.00000000000E+00 0.  1.
         21    1    1    2  502  501 -0.70584890858E+01  0.27002160238E+02 -0.45903651999E+02  0.53722287671E+02  0.00000000000E+00 0.  1.
<scales pt_clust_5="13000.00000" pt_clust_6="13000.00000" pt_clust_7="13000.00000" pt_clust_8="13000.00000" pt_clust_9="27.90948"></scales>
<clustering>
<clus scale="   27.909">  2  9  1 -1</clus>
<clus scale="   78.201">  5  6 -1 -1</clus>
<clus scale="   83.840">  2  5  1 -1</clus>
<clus scale="   92.038">  7  8 -1 -1</clus>
<clus scale="   96.874">  1  5  2 -1</clus>
</clustering>
</event>
<event>
 9    2  0.3402837E-005  0.1271825E+03  0.7546771E-02  0.1233641E+00
         -1   -1    0    0    0  501 -0.00000000000E+00  0.00000000000E+00  0.11240301771E+03  0.11240301771E+03  0.00000000000E+00 0.  1.
          2   -1    0    0  502    0  0.00000000000E+00 -0.00000000000E+00 -0.41726868742E+03  0.41726868742E+03  0.00000000000E+00 0. -1.
         23    2    1    2    0    0  0.93004575153E+02  0.64932434043E+01  0.20183834625E+02  0.13269944531E+03  0.92248265002E+02 0.  0.
         24    2    1    2    0    0 -0.73966967776E+02 -0.48065801209E+02 -0.32895234546E+03  0.35108173546E+03  0.85248494556E+02 0.  0.
        -11    1    4    4    0    0 -0.56623259665E+02 -0.19406560736E+02 -0.80148655832E+02  0.10003307036E+03  0.00000000000E+00 0.  1.
         12    1    4    4    0    0 -0.17343708111E+02 -0.28659240473E+02 -0.24880368963E+03  0.25104866510E+03  0.00000000000E+00 0. -1.
        -13    1    3    3    0    0  0.23466753922E+02  0.42140747649E+02  0.25153985102E+02  0.54399026817E+02  0.00000000000E+00 0.  1.
         13    1    3    3    0    0  0.69537821231E+02 -0.35647504245E+02 -0.49701504773E+01  0.78300418493E+02  0.00000000000E+00 0. -1.
         21    1    1    2  502  501 -0.19037607377E+02  0.41572557805E+02  0.39028411243E+01  0.45890524359E+02  0.00000000000E+00 0. -1.
<scales pt_clust_5="13000.00000" pt_clust_6="13000.00000" pt_clust_7="13000.00000" pt_clust_8="13000.00000" pt_clust_9="45.72426"></scales>
<clustering>
<clus scale="   45.724">  1  9  2 -1</clus>
<clus scale="   85.248">  5  6 -1 -1</clus>
<clus scale="   92.248">  7  8 -1 -1</clus>
<clus scale="  122.200">  2  5  1 -1</clus>
<clus scale="  122.200">  2  5  1 -1</clus>
</clustering>
</event>
<event>
 9    2  0.3402837E-005  0.9698278E+02  0.7546771E-02  0.1292136E+00
          2   -1    0    0  502    0  0.00000000000E+00  0.00000000000E+00  0.55409801164E+03  0.55409801164E+03  0.00000000000E+00 0. -1.
         -1   -1    0    0    0  501 -0.00000000000E+00 -0.00000000000E+00 -0.34341778955E+02  0.34341778955E+02  0.00000000000E+00 0.  1.
         23    2    1    2    0    0  0.48923166945E+02  0.28073203404E+02  0.14309325326E+03  0.17796158518E+03  0.89515728553E+02 0.  0.
         24    2    1    2    0    0 -0.28890149897E+02 -0.13948404563E+02  0.37635064211E+03  0.38596434670E+03  0.79369215413E+02 0.  0.
        -11    1    4    4    0    0  0.26598857298E+02 -0.53666550552E+01  0.84112454611E+02  0.88381022945E+02  0.00000000000E+00 0.  1.
         12    1    4    4    0    0 -0.55489007194E+02 -0.85817495074E+01  0.29223818750E+03  0.29758332376E+03  0.00000000000E+00 0. -1.
        -11    1    3    3    0    0  0.11751596051E+02  0.56063548098E+02  0.95772300251E+02  0.11159549691E+03  0.00000000000E+00 0. -1.
         11    1    3    3    0    0  0.37171570894E+02 -0.27990344693E+02  0.47320953004E+02  0.66366088268E+02  0.00000000000E+00 0.  1.
         21    1    1    2  502  501 -0.20033017048E+02 -0.14124798842E+02  0.31233731445E+00  0.24513858713E+02  0.00000000000E+00 0. -1.
<scales pt_clust_5="13000.00000" pt_clust_6="13000.00000" pt_clust_7="13000.00000" pt_clust_8="13000.00000" pt_clust_9="24.51187"></scales>
<clustering>
<clus scale="   24.512">  2  9  1 -1</clus>
<clus scale="   79.369">  5  6 -1 -1</clus>
<clus scale="   87.704">  1  5  2 -1</clus>
<clus scale="   89.516">  7  8 -1 -1</clus>
<clus scale="   87.704">  1  5  2 -1</clus>
</clustering>
</event>
<event>
 9    2  0.3402837E-005  0.1124299E+03  0.7546771E-02  0.1259353E+00
         -3   -1    0    0    0  501 -0.00000000000E+00  0.00000000000E+00  0.26588934688E+03  0.26588934688E+03  0.00000000000E+00 0.  1.
          4   -1    0    0  502    0  0.00000000000E+00 -0.00000000000E+00 -0.21615778667E+03  0.21615778667E+03  0.00000000000E+00 0. -1.
         23    2    1    2    0    0  0.97457496505E+01 -0.52572836619E+02  0.87778800112E+02  0.13760720952E+03  0.91497232621E+02 0.  0.
         24    2    1    2    0    0  0.49031403044E+01  0.66937204627E+02 -0.17556083361E+03  0.20540426853E+03  0.82853346836E+02 0.  0.
        -11    1    4    4    0    0 -0.19799752480E+02 -0.80846011121E+01 -0.72314755714E+02  0.75410973123E+02  0.00000000000E+00 0.  1.
         12    1    4    4    0    0  0.24702892785E+02  0.75021805739E+02 -0.10324607790E+03  0.12999329540E+03  0.00000000000E+00 0. -1.
        -13    1    3    3    0    0  0.43814548494E+02 -0.56468874049E+02  0.63315860949E+02  0.95484797973E+02  0.00000000000E+00 0. -1.
         13    1    3    3    0    0 -0.34068798844E+02  0.38960374303E+01  0.24462939162E+02  0.42122411550E+02  0.00000000000E+00 0.  1.
         21    1    1    2  502  501 -0.14648889955E+02 -0.14364368008E+02  0.13751359371E+03  0.13903565550E+03  0.00000000000E+00 0.  1.
<scales pt_clust_5="13000.00000" pt_clust_6="13000.00000" pt_clust_7="13000.00000" pt_clust_8="13000.00000" pt_clust_9="20.51646"></scales>
<clustering>
<clus scale="   20.516">  1  9  2 -1</clus>
<clus scale="   82.853">  5  6 -1 -1</clus>
<clus scale="   91.497">  7  8 -1 -1</clus>
<clus scale="  105.515">  2  5  1 -1</clus>
<clus scale="  105.515">  2  5  1 -1</clus>
</clustering>
</event>
<event>
 9    2  0.3402837E-005  0.1017542E+03  0.7546771E-02  0.1282683E+00
         -1   -1    0    0    0  501 -0.00000000000E+00  0.00000000000E+00  0.13729577342E+03  0.13729577342E+03  0.00000000000E+00 0.  1.
          2   -1    0    0  502    0  0.00000000000E+00 -0.00000000000E+00 -0.42000603822E+03  0.42000603822E+03  0.00000000000E+00 0. -1.
         23    2    1    2    0    0 -0.14791517351E+02  0.39117170254E+02  0.99073919063E+02  0.14135191715E+03  0.91737566177E+02 0.  0.
         24    2    1    2    0    0 -0.11965726471E+02 -0.81830002149E+02 -0.27189976411E+03  0.29505770364E+03  0.79311026309E+02 0.  0.
        -11    1    4    4    0    0  0.33204803888E+02 -0.24225311067E+02 -0.88084703014E+02  0.97202569938E+02  0.00000000000E+00 0.  1.
         12    1    4    4    0    0 -0.45170530359E+02 -0.57604691082E+02 -0.18381506110E+03  0.19785513370E+03  0.00000000000E+00 0. -1.
        -13    1    3    3    0    0  0.34086850952E+02 -0.56007693398E+01  0.35556260204E+02  0.49573477432E+02  0.00000000000E+00 0. -1.
         13    1    3    3    0    0 -0.48878368302E+02  0.44717939594E+02  0.63517658859E+02  0.91778439714E+02  0.00000000000E+00 0.  1.
         21    1    1    2  502  501  0.26757243822E+02  0.42712831894E+02 -0.10988441975E+03  0.12089219086E+03  0.00000000000E+00 0.  1.
<scales pt_clust_5="13000.00000" pt_clust_6="13000.00000" pt_clust_7="13000.00000" pt_clust_8="13000.00000" pt_clust_9="50.40175"></scales>
<clustering>
<clus scale="   50.402">  2  9  1 -1</clus>
<clus scale="   79.311">  5  6 -1 -1</clus>
<clus scale="   90.710">  2  5  1 -1</clus>
<clus scale="   91.738">  7  8 -1 -1</clus>
<clus scale="   50.402">  2  5  1 -1</clus>
</clustering>
</event>
<event>
 9    2  0.3402837E-005  0.1056798E+03  0.7546771E-02  0.1273937E+00
         -1   -1    0    0    0  501 -0.00000000000E+00  0.00000000000E+00  0.13533383268E+03  0.13533383268E+03  0.00000000000E+00 0.  1.
          2   -1    0    0  502    0  0.00000000000E+00 -0.00000000000E+00 -0.20125697309E+03  0.20125697309E+03  0.00000000000E+00 0. -1.
         24    2    1    2    0    0  0.33024349467E+02  0.21382953442E+02  0.87240600081E+02  0.12643524312E+03  0.82626327787E+02 0.  0.
         23    2    1    2    0    0 -0.22791014397E+02 -0.44981957311E+02 -0.15023689333E+03  0.18426733049E+03  0.94024029635E+02 0.  0.
        -11    1    3    3    0    0 -0.18784117020E+02  0.31402311000E+02  0.49513800037E+02  0.61567561122E+02  0.00000000000E+00 0.  1.
         12    1    3    3    0    0  0.51808466487E+02 -0.10019357558E+02  0.37726800044E+02  0.64867681993E+02  0.00000000000E+00 0. -1.
        -11    1    4    4    0    0 -0.24164241936E+02  0.24872468784E+02 -0.68201764114E+02  0.76511639115E+02  0.00000000000E+00 0.  1.
         11    1    4    4    0    0  0.13732275395E+01 -0.69854426094E+02 -0.82035129212E+02  0.10775569138E+03  0.00000000000E+00 0. -1.
         21    1    1    2  502  501 -0.10233335070E+02  0.23599003869E+02 -0.29268471664E+01  0.25888232164E+02  0.00000000000E+00 0. -1.
<scales pt_clust_5="13000.00000" pt_clust_6="13000.00000" pt_clust_7="13000.00000" pt_clust_8="13000.00000" pt_clust_9="25.72225"></scales>
<clustering>
<clus scale="   25.722">  1  9  2 -1</clus>
<clus scale="   82.626">  5  6 -1 -1</clus>
<clus scale="   94.024">  7  8 -1 -1</clus>
<clus scale="   95.681">  1  5  2 -1</clus>
<clus scale="  105.680">  2  5  1 -1</clus>
</clustering>
</event>
<event>
 9    2  0.3402837E-005  0.9014604E+02  0.7546771E-02  0.1307433E+00
         -1   -1    0    0    0  501 -0.00000000000E+00  0.00000000000E+00  0.24733488059E+02  0.24733488059E+02  0.00000000000E+00 0.  1.
          2   -1    0    0  502    0  0.00000000000E+00 -0.00000000000E+00 -0.10386440192E+04  0.10386440192E+04  0.00000000000E+00 0. -1.
         23    2    1    2    0    0  0.78915855911E+01  0.51858334178E+02 -0.19975835235E+03  0.22487397929E+03  0.88956974337E+02 0.  0.
         24    2    1    2    0    0  0.99827700922E+01 -0.57756995375E+01 -0.76296943407E+03  0.76735034698E+03  0.81062835337E+02 0.  0.
        -11    1    4    4    0    0 -0.45274372921E+01  0.29529300299E+02 -0.13705608461E+03  0.14027418720E+03  0.00000000000E+00 0.  1.
         12    1    4    4    0    0  0.14510207384E+02 -0.35304999836E+02 -0.62591334946E+03  0.62707615978E+03  0.00000000000E+00 0. -1.
        -11    1    3    3    0    0 -0.11031123828E+02  0.73490904269E+02 -0.15038564112E+03  0.16774516314E+03  0.00000000000E+00 0.  1.
         11    1    3    3    0    0  0.18922709419E+02 -0.21632570091E+02 -0.49372711227E+02  0.57128816148E+02  0.00000000000E+00 0. -1.
         21    1    1    2  502  501 -0.17874355683E+02 -0.46082634641E+02 -0.51182744691E+02  0.71153180959E+02  0.00000000000E+00 0. -1.
<scales pt_clust_5="13000.00000" pt_clust_6="13000.00000" pt_clust_7="13000.00000" pt_clust_8="13000.00000" pt_clust_9="49.42774"></scales>
<clustering>
<clus scale="   49.428">  1  9  2 -1</clus>
<clus scale="   81.063">  5  6 -1 -1</clus>
<clus scale="   82.366">  2  5  1 -1</clus>
<clus scale="   88.957">  7  8 -1 -1</clus>
<clus scale="   82.366">  2  5  1 -1</clus>
</clustering>
</event>
<event>
 9    2  0.3402837E-005  0.2318753E+03  0.7546771E-02  0.1128101E+00
         -1   -1    0    0    0  501 -0.00000000000E+00  0.00000000000E+00  0.47005235883E+02  0.47005235883E+02  0.00000000000E+00 0.  1.
          2   -1    0    0  502    0  0.00000000000E+00 -0.00000000000E+00 -0.14102016400E+04  0.14102016400E+04  0.00000000000E+00 0. -1.
         24    2    1    2    0    0 -0.16517920441E+02 -0.17694199437E+03 -0.42350755317E+03  0.46580528975E+03  0.77682747735E+02 0.  0.
         23    2    1    2    0    0 -0.16263991579E+02  0.22430937536E+03 -0.83131280127E+03  0.86866735831E+03  0.11367846114E+03 0.  0.
        -13    1    3    3    0    0 -0.21522782175E+02 -0.81287712086E+02 -0.11296547300E+03  0.14082656134E+03  0.00000000000E+00 0.  1.
         14    1    3    3    0    0  0.50048617340E+01 -0.95654282284E+02 -0.31054208017E+03  0.32497872840E+03  0.00000000000E+00 0. -1.
        -11    1    4    4    0    0 -0.45648102276E+02  0.19147102128E+03 -0.75791065670E+03  0.78305393478E+03  0.00000000000E+00 0. -1.
         11    1    4    4    0    0  0.29384110697E+02  0.32838354077E+02 -0.73402144569E+02  0.85613423523E+02  0.00000000000E+00 0.  1.
         21    1    1    2  502  501  0.32781912020E+02 -0.47367380991E+02 -0.10837604964E+03  0.12273422780E+03  0.00000000000E+00 0. -1.
<scales pt_clust_5="13000.00000" pt_clust_6="13000.00000" pt_clust_7="13000.00000" pt_clust_8="13000.00000" pt_clust_9="57.60488"></scales>
<clustering>
<clus scale="   57.605">  1  9  2 -1</clus>
<clus scale="   77.683">  5  6 -1 -1</clus>
<clus scale="  113.678">  7  8 -1 -1</clus>
<clus scale="  216.513">  1  5  2 -1</clus>
<clus scale="  231.875">  2  5  1 -1</clus>
</clustering>
</event>
<event>
 9    2  0.3402837E-005  0.1571866E+03  0.7546771E-02  0.1205126E+00
          2   -1    0    0  502    0  0.00000000000E+00  0.00000000000E+00  0.35384838574E+03  0.35384838574E+03  0.00000000000E+00 0. -1.
         -1   -1    0    0    0  501 -0.00000000000E+00 -0.00000000000E+00 -0.21397951082E+03  0.21397951082E+03  0.00000000000E+00 0.  1.
         23    2    1    2    0    0  0.94214730125E+02 -0.10276377906E+03  0.31565449055E+02  0.16903528346E+03  0.90220506662E+02 0.  0.
         24    2    1    2    0    0  0.24803463642E+02  0.54287048787E+02  0.20601306210E+03  0.23735377998E+03  0.10165205181E+03 0.  0.
        -13    1    4    4    0    0  0.20089648261E+02 -0.26876747030E+02  0.37938953210E+02  0.50648965131E+02  0.00000000000E+00 0.  1.
         14    1    4    4    0    0  0.47138153816E+01  0.81163795817E+02  0.16807410889E+03  0.18670481485E+03  0.00000000000E+00 0. -1.
        -13    1    3    3    0    0  0.85169771014E+02 -0.43181185427E+02  0.47566334753E+02  0.10668205506E+03  0.00000000000E+00 0.  1.
         13    1    3    3    0    0  0.90449591109E+01 -0.59582593636E+02 -0.16000885698E+02  0.62353228407E+02  0.00000000000E+00 0. -1.
         21    1    1    2  502  501 -0.11901819377E+03  0.48476730276E+02 -0.97709636237E+02  0.16143883312E+03  0.00000000000E+00 0. -1.
<scales pt_clust_5="13000.00000" pt_clust_6="13000.00000" pt_clust_7="13000.00000" pt_clust_8="13000.00000" pt_clust_9="128.71634"></scales>
<clustering>
<clus scale="   90.221">  7  8 -1 -1</clus>
<clus scale="  101.652">  5  6 -1 -1</clus>
<clus scale="  117.879">  1  5  2 -1</clus>
<clus scale="  128.716">  2  9  1 -1</clus>
<clus scale="  117.879">  1  5  2 -1</clus>
</clustering>
</event>
<event>
 9    2  0.3402837E-005  0.1377898E+03  0.7546771E-02  0.1220604E+00
          2   -1    0    0  502    0  0.00000000000E+00  0.00000000000E+00  0.12803068092E+03  0.12803068092E+03  0.00000000000E+00 0. -1.
         -1   -1    0    0    0  501 -0.00000000000E+00 -0.00000000000E+00 -0.36340138298E+03  0.36340138298E+03  0.00000000000E+00 0.  1.
         24    2    1    2    0    0  0.38235615340E+02  0.90601841684E+02 -0.27875731544E+03  0.30633211410E+03  0.80393203808E+02 0.  0.
         23    2    1    2    0    0 -0.26961250805E+01 -0.92157852961E+02  0.58231550104E+02  0.14655324196E+03  0.97911186020E+02 0.  0.
        -11    1    3    3    0    0  0.16197874088E+02  0.99438669560E+02 -0.19802670435E+03  0.22218234800E+03  0.00000000000E+00 0.  1.
         12    1    3    3    0    0  0.22037741252E+02 -0.88368278758E+01 -0.80730611097E+02  0.84149766099E+02  0.00000000000E+00 0. -1.
        -13    1    4    4    0    0  0.18895840107E+02 -0.58493717915E+02  0.80102410894E+02  0.10097011459E+03  0.00000000000E+00 0. -1.
         13    1    4    4    0    0 -0.21591965188E+02 -0.33664135046E+02 -0.21870860790E+02  0.45583127369E+02  0.00000000000E+00 0.  1.
         21    1    1    2  502  501 -0.35539490259E+02  0.15560112768E+01 -0.14844936725E+02  0.38546707841E+02  0.00000000000E+00 0. -1.
<scales pt_clust_5="13000.00000" pt_clust_6="13000.00000" pt_clust_7="13000.00000" pt_clust_8="13000.00000" pt_clust_9="35.57354"></scales>
<clustering>
<clus scale="   35.574">  1  9  2 -1</clus>
<clus scale="   80.393">  5  6 -1 -1</clus>
<clus scale="   97.911">  7  8 -1 -1</clus>
<clus scale="  125.946">  2  5  1 -1</clus>
<clus scale="   35.574">  1  5  2 -1</clus>
</clustering>
</event>
<event>
 9    2  0.3402837E-005  0.9477170E+02  0.7546771E-02  0.1297791E+00
          2   -1    0    0  502    0  0.00000000000E+00  0.00000000000E+00  0.29127496149E+03  0.29127496149E+03  0.00000000000E+00 0. -1.
         -1   -1    0    0    0  501 -0.00000000000E+00 -0.00000000000E+00 -0.20977840634E+03  0.20977840634E+03  0.00000000000E+00 0.  1.
         24    2    1    2    0    0 -0.21004097214E+02 -0.62255795633E+02 -0.67006457182E+02  0.12388310018E+03  0.80871509295E+02 0.  0.
         23    2    1    2    0    0 -0.52355457655E+01  0.21307702345E+02  0.24864938669E+03  0.26583940263E+03  0.91447478748E+02 0.  0.
        -11    1    3    3    0    0  0.16422962837E+02 -0.59051090076E+02 -0.59804690753E+02  0.85634957719E+02  0.00000000000E+00 0.  1.
         12    1    3    3    0    0 -0.37427060051E+02 -0.32047055572E+01 -0.72017664295E+01  0.38248142458E+02  0.00000000000E+00 0. -1.
        -13    1    4    4    0    0  0.19670683121E+02 -0.19234223697E+02  0.24964658871E+02  0.37150038065E+02  0.00000000000E+00 0.  1.
         13    1    4    4    0    0 -0.24906228887E+02  0.40541926042E+02  0.22368472782E+03  0.22868936457E+03  0.00000000000E+00 0. -1.
         21    1    1    2  502  501  0.26239642979E+02  0.40948093288E+02 -0.10014637437E+03  0.11133086502E+03  0.00000000000E+00 0.  1.
<scales pt_clust_5="13000.00000" pt_clust_6="13000.00000" pt_clust_7="13000.00000" pt_clust_8="13000.00000" pt_clust_9="48.63399"></scales>
<clustering>
<clus scale="   48.634">  2  9  1 -1</clus>
<clus scale="   80.872">  5  6 -1 -1</clus>
<clus scale="   84.612">  2  5  1 -1</clus>
<clus scale="   91.447">  7  8 -1 -1</clus>
<clus scale="   94.772">  1  5  2 -1</clus>
</clustering>
</event>
<event>
 9    2  0.6083949E-005  0.2495872E+03  0.7546771E-02  0.1114234E+00
          2   -1    0    0  502    0  0.00000000000E+00  0.00000000000E+00  0.18945532200E+04  0.18945532200E+04  0.00000000000E+00 0. -1.
         -1   -1    0    0    0  501 -0.00000000000E+00 -0.00000000000E+00 -0.40378357426E+03  0.40378357426E+03  0.00000000000E+00 0.  1.
         23    2    1    2    0    0  0.15636896075E+03  0.17561554050E+03 -0.29989358634E+03  0.39144384643E+03  0.89443008808E+02 0.  0.
         24    2    1    2    0    0 -0.12770305393E+03 -0.19490927422E+03  0.18346307575E+04  0.18509722390E+04  0.77009855906E+02 0.  0.
        -11    1    4    4    0    0  0.62611451635E+01 -0.34261053623E+02  0.19964653667E+03  0.20266169184E+03  0.00000000000E+00 0.  1.
         12    1    4    4    0    0 -0.13396419910E+03 -0.16064822060E+03  0.16349842209E+04  0.16483105472E+04  0.00000000000E+00 0. -1.
        -11    1    3    3    0    0  0.11553284144E+03  0.65022823957E+02 -0.14028995596E+03  0.19302092330E+03  0.00000000000E+00 0.  1.
         11    1    3    3    0    0  0.40836119309E+02  0.11059271654E+03 -0.15960363038E+03  0.19842292313E+03  0.00000000000E+00 0. -1.
         21    1    1    2  502  501 -0.28665906816E+02  0.19293733722E+02 -0.43967525493E+02  0.55920708798E+02  0.00000000000E+00 0.  1.
<scales pt_clust_5="13000.00000" pt_clust_6="13000.00000" pt_clust_7="13000.00000" pt_clust_8="13000.00000" pt_clust_9="34.55405"></scales>
<clustering>
<clus scale="   34.554">  2  9  1 -1</clus>
<clus scale="   77.010">  5  6 -1 -1</clus>
<clus scale="   89.443">  7  8 -1 -1</clus>
<clus scale="  245.406">  1  5  2 -1</clus>
<clus scale="  245.406">  1  5  2 -1</clus>
</clustering>
</event>
<event>
 9    2  0.3402837E-005  0.1180660E+03  0.7546771E-02  0.1250987E+00
         -1   -1    0    0    0  501 -0.00000000000E+00  0.00000000000E+00  0.27405648073E+02  0.27405648073E+02  0.00000000000E+00 0.  1.
          2   -1    0    0  502    0  0.00000000000E+00 -0.00000000000E+00 -0.62948738925E+03  0.62948738925E+03  0.00000000000E+00 0. -1.
         24    2    1    2    0    0  0.59904722519E+02  0.32681432556E+02 -0.20562772125E+03  0.23037115741E+03  0.78303630851E+02 0.  0.
         23    2    1    2    0    0 -0.76027537182E+02 -0.20387646624E+02 -0.38408817637E+03  0.40277327128E+03  0.92231980815E+02 0.  0.
        -13    1    3    3    0    0  0.43853746646E+02  0.54413713065E+02 -0.18017122204E+03  0.19325028464E+03  0.00000000000E+00 0.  1.
         14    1    3    3    0    0  0.16050975873E+02 -0.21732280509E+02 -0.25456499216E+02  0.37120872766E+02  0.00000000000E+00 0. -1.
        -13    1    4    4    0    0 -0.76741329341E+01  0.24867752428E+02 -0.31895034357E+02  0.41165405910E+02  0.00000000000E+00 0.  1.
         13    1    4    4    0    0 -0.68353404248E+02 -0.45255399052E+02 -0.35219314202E+03  0.36160786537E+03  0.00000000000E+00 0. -1.
         21    1    1    2  502  501  0.16122814663E+02 -0.12293785932E+02 -0.12365843551E+02  0.23748608631E+02  0.00000000000E+00 0. -1.
<scales pt_clust_5="13000.00000" pt_clust_6="13000.00000" pt_clust_7="13000.00000" pt_clust_8="13000.00000" pt_clust_9="20.27517"></scales>
<clustering>
<clus scale="   20.275">  1  9  2 -1</clus>
<clus scale="   78.304">  5  6 -1 -1</clus>
<clus scale="   92.232">  7  8 -1 -1</clus>
<clus scale="  107.537">  1  5  2 -1</clus>
<clus scale="  118.066">  2  5  1 -1</clus>
</clustering>
</event>
<event>
 9    2  0.3402837E-005  0.1250114E+03  0.7546771E-02  0.1240253E+00
         -1   -1    0    0    0  501 -0.00000000000E+00  0.00000000000E+00  0.98905876161E+02  0.98905876161E+02  0.00000000000E+00 0.  1.
          2   -1    0    0  502    0  0.00000000000E+00 -0.00000000000E+00 -0.23745615594E+03  0.23745615594E+03  0.00000000000E+00 0. -1.
         23    2    1    2    0    0  0.75256531816E+02 -0.18653908372E+02 -0.84879460259E+02  0.15081221454E+03  0.97612946890E+02 0.  0.
         24    2    1    2    0    0 -0.68386301720E+02  0.42100562707E+02 -0.87591483663E+02  0.14374602447E+03  0.80879588882E+02 0.  0.
        -13    1    4    4    0    0  0.12936430875E+02  0.17392257920E+02  0.28372216595E-01  0.21675854869E+02  0.00000000000E+00 0.  1.
         14    1    4    4    0    0 -0.81322732595E+02  0.24708304788E+02 -0.87619855879E+02  0.12207016960E+03  0.00000000000E+00 0. -1.
        -11    1    3    3    0    0  0.20514403935E+02  0.39494188423E+02 -0.35382776015E+02  0.56855716744E+02  0.00000000000E+00 0. -1.
         11    1    3    3    0    0  0.54742127881E+02 -0.58148096796E+02 -0.49496684245E+02  0.93956497791E+02  0.00000000000E+00 0.  1.
         21    1    1    2  502  501 -0.68702300960E+01 -0.23446654335E+02  0.33920664143E+02  0.41803793094E+02  0.00000000000E+00 0. -1.
<scales pt_clust_5="13000.00000" pt_clust_6="13000.00000" pt_clust_7="13000.00000" pt_clust_8="13000.00000" pt_clust_9="24.43247"></scales>
<clustering>
<clus scale="   24.432">  1  9  2 -1</clus>
<clus scale="   80.880">  5  6 -1 -1</clus>
<clus scale="   97.613">  7  8 -1 -1</clus>
<clus scale="  112.433">  2  5  1 -1</clus>
<clus scale="  112.433">  2  5  1 -1</clus>
</clustering>
</event>
<event>
 9    2  0.3402837E-005  0.9585655E+02  0.7546771E-02  0.1297976E+00
          2   -1    0    0  502    0  0.00000000000E+00  0.00000000000E+00  0.57064972698E+03  0.57064972698E+03  0.00000000000E+00 0. -1.
         -1   -1    0    0    0  501 -0.00000000000E+00 -0.00000000000E+00 -0.63399649861E+02  0.63399649861E+02  0.00000000000E+00 0.  1.
         24    2    1    2    0    0  0.14186814586E+02  0.16957908300E+02  0.12096219644E+03  0.14658303513E+03  0.79786570652E+02 0.  0.
         23    2    1    2    0    0 -0.46870889874E+01  0.28964369600E+02  0.41886005750E+03  0.43036951960E+03  0.94410127225E+02 0.  0.
        -13    1    3    3    0    0 -0.15362653356E+02 -0.14427573846E+02  0.33754880377E+01  0.21343849810E+02  0.00000000000E+00 0.  1.
         14    1    3    3    0    0  0.29549467941E+02  0.31385482146E+02  0.11758670841E+03  0.12523918532E+03  0.00000000000E+00 0. -1.
        -11    1    4    4    0    0 -0.48011697248E+02  0.21530757362E+02  0.27320440469E+03  0.27822534630E+03  0.00000000000E+00 0.  1.
         11    1    4    4    0    0  0.43324608261E+02  0.74336122384E+01  0.14565565281E+03  0.15214417329E+03  0.00000000000E+00 0. -1.
         21    1    1    2  502  501 -0.94997255986E+01 -0.45922277900E+02 -0.32572176816E+02  0.57096822123E+02  0.00000000000E+00 0.  1.
<scales pt_clust_5="13000.00000" pt_clust_6="13000.00000" pt_clust_7="13000.00000" pt_clust_8="13000.00000" pt_clust_9="46.89457"></scales>
<clustering>
<clus scale="   46.895">  2  9  1 -1</clus>
<clus scale="   79.787">  5  6 -1 -1</clus>
<clus scale="   81.493">  2  5  1 -1</clus>
<clus scale="   94.410">  7  8 -1 -1</clus>
<clus scale="   95.857">  1  5  2 -1</clus>
</clustering>
</event>
<event>
 9    2  0.3402837E-005  0.1109447E+03  0.7546771E-02  0.1263107E+00
          2   -1    0    0  502    0  0.00000000000E+00  0.00000000000E+00  0.84534519378E+02  0.84534519378E+02  0.00000000000E+00 0. -1.
         -1   -1    0    0    0  501 -0.00000000000E+00 -0.00000000000E+00 -0.81345825023E+03  0.81345825023E+03  0.00000000000E+00 0.  1.
         23    2    1    2    0    0  0.13018426912E+03  0.53789177509E+02 -0.51173576105E+03  0.53858622980E+03  0.91435322778E+02 0.  0.
         24    2    1    2    0    0 -0.55141069707E+02 -0.15388654417E+02  0.25986202815E+02  0.10203567863E+03  0.80365718590E+02 0.  0.
        -13    1    4    4    0    0  0.17948489004E+02 -0.16112085397E+02  0.14226727016E+02  0.28002630501E+02  0.00000000000E+00 0.  1.
         14    1    4    4    0    0 -0.73089558711E+02  0.72343097978E+00  0.11759475799E+02  0.74033048134E+02  0.00000000000E+00 0. -1.
        -11    1    3    3    0    0  0.47903313090E+02 -0.20884842583E+01 -0.64188219596E+02  0.80120014393E+02  0.00000000000E+00 0. -1.
         11    1    3    3    0    0  0.82280956031E+02  0.55877661767E+02 -0.44754754145E+03  0.45846621541E+03  0.00000000000E+00 0.  1.
         21    1    1    2  502  501 -0.75043199414E+02 -0.38400523092E+02 -0.24317417262E+03  0.25737086117E+03  0.00000000000E+00 0. -1.
<scales pt_clust_5="13000.00000" pt_clust_6="13000.00000" pt_clust_7="13000.00000" pt_clust_8="13000.00000" pt_clust_9="84.29758"></scales>
<clustering>
<clus scale="   80.366">  5  6 -1 -1</clus>
<clus scale="   84.298">  2  9  1 -1</clus>
<clus scale="   91.435">  7  8 -1 -1</clus>
<clus scale="  102.014">  1  5  2 -1</clus>
<clus scale="  102.014">  1  5  2 -1</clus>
</clustering>
</event>
<event>
 9    2  0.3402837E-005  0.1082531E+03  0.7546771E-02  0.1267556E+00
         -1   -1    0    0    0  501 -0.00000000000E+00  0.00000000000E+00  0.92413411347E+02  0.92413411347E+02  0.00000000000E+00 0.  1.
          2   -1    0    0  502    0  0.00000000000E+00 -0.00000000000E+00 -0.23324149089E+03  0.23324149089E+03  0.00000000000E+00 0. -1.
         23    2    1    2    0    0 -0.57906995989E+02  0.32473819769E+02  0.22711375656E+02  0.11591297757E+03  0.92261815664E+02 0.  0.
         24    2    1    2    0    0  0.17670354513E+02 -0.23377948653E+02 -0.12681079605E+03  0.15450863224E+03  0.83265656382E+02 0.  0.
        -11    1    4    4    0    0  0.34224731705E+02  0.19833364805E+02 -0.40720491691E+02  0.56770177587E+02  0.00000000000E+00 0.  1.
         12    1    4    4    0    0 -0.16554377192E+02 -0.43211313458E+02 -0.86090304354E+02  0.97738454657E+02  0.00000000000E+00 0. -1.
        -13    1    3    3    0    0 -0.74407935482E+02  0.49245126657E+02  0.11892676422E+02  0.90016993477E+02  0.00000000000E+00 0.  1.
         13    1    3    3    0    0  0.16500939493E+02 -0.16771306889E+02  0.10818699234E+02  0.25895984090E+02  0.00000000000E+00 0. -1.
         21    1    1    2  502  501  0.40236641476E+02 -0.90958711155E+01 -0.36728659149E+02  0.55233292419E+02  0.00000000000E+00 0. -1.
<scales pt_clust_5="13000.00000" pt_clust_6="13000.00000" pt_clust_7="13000.00000" pt_clust_8="13000.00000" pt_clust_9="41.25194"></scales>
<clustering>
<clus scale="   41.252">  2  9  1 -1</clus>
<clus scale="   83.266">  5  6 -1 -1</clus>
<clus scale="   92.262">  7  8 -1 -1</clus>
<clus scale="  100.696">  2  5  1 -1</clus>
<clus scale="   41.252">  2  5  1 -1</clus>
</clustering>
</event>
<event>
 9    2  0.3402837E-005  0.9969906E+02  0.7546771E-02  0.1286575E+00
          2   -1    0    0  502    0  0.00000000000E+00  0.00000000000E+00  0.47223131016E+03  0.47223131016E+03  0.00000000000E+00 0. -1.
         -1   -1    0    0    0  501 -0.00000000000E+00 -0.00000000000E+00 -0.26667621855E+02  0.26667621855E+02  0.00000000000E+00 0.  1.
         24    2    1    2    0    0  0.35354810362E+02  0.39600320181E+02  0.14552886752E+03  0.17442794059E+03  0.80176724812E+02 0.  0.
         23    2    1    2    0    0 -0.17207261083E+02 -0.27792694802E+02  0.27369769924E+03  0.29037703987E+03  0.91322894128E+02 0.  0.
        -11    1    3    3    0    0  0.52214559620E+02  0.27295230437E+02  0.51953331270E+02  0.78552775069E+02  0.00000000000E+00 0.  1.
         12    1    3    3    0    0 -0.16859749258E+02  0.12305089744E+02  0.93575536252E+02  0.95875165520E+02  0.00000000000E+00 0. -1.
        -11    1    4    4    0    0 -0.47305383752E+02 -0.30892857278E+02  0.23247268231E+03  0.23923987123E+03  0.00000000000E+00 0. -1.
         11    1    4    4    0    0  0.30098122669E+02  0.31001624756E+01  0.41225016932E+02  0.51137168641E+02  0.00000000000E+00 0.  1.
         21    1    1    2  502  501 -0.18147549278E+02 -0.11807625379E+02  0.26337121535E+02  0.34093951555E+02  0.00000000000E+00 0. -1.
<scales pt_clust_5="13000.00000" pt_clust_6="13000.00000" pt_clust_7="13000.00000" pt_clust_8="13000.00000" pt_clust_9="21.65072"></scales>
<clustering>
<clus scale="   21.651">  2  9  1 -1</clus>
<clus scale="   80.177">  5  6 -1 -1</clus>
<clus scale="   89.601">  2  5  1 -1</clus>
<clus scale="   91.323">  7  8 -1 -1</clus>
<clus scale="   99.699">  1  5  2 -1</clus>
</clustering>
</event>
<event>
 9    2  0.3402837E-005  0.1265651E+03  0.7546771E-02  0.1236726E+00
          2   -1    0    0  502    0  0.00000000000E+00  0.00000000000E+00  0.29410337559E+02  0.29410337559E+02  0.00000000000E+00 0. -1.
         -1   -1    0    0    0  501 -0.00000000000E+00 -0.00000000000E+00 -0.96778565056E+03  0.96778565056E+03  0.00000000000E+00 0.  1.
         23    2    1    2    0    0  0.38965692977E+02 -0.23396202330E+02 -0.34010365900E+03  0.35567736887E+03  0.93649262406E+02 0.  0.
         24    2    1    2    0    0 -0.91162700342E+02  0.79098528752E+02 -0.29072076536E+03  0.32463563477E+03  0.79388391895E+02 0.  0.
        -11    1    4    4    0    0 -0.53763250331E+02  0.64537423870E+02 -0.26239679834E+03  0.27551342244E+03  0.00000000000E+00 0.  1.
         12    1    4    4    0    0 -0.37399450011E+02  0.14561104882E+02 -0.28323967020E+02  0.49122212331E+02  0.00000000000E+00 0. -1.
        -13    1    3    3    0    0 -0.14199565282E+02 -0.43357870228E+02 -0.12044479341E+03  0.12879627644E+03  0.00000000000E+00 0.  1.
         13    1    3    3    0    0  0.53165258259E+02  0.19961667898E+02 -0.21965886558E+03  0.22688109243E+03  0.00000000000E+00 0. -1.
         21    1    1    2  502  501  0.52197007365E+02 -0.55702326422E+02 -0.30755088865E+03  0.31688298448E+03  0.00000000000E+00 0.  1.
<scales pt_clust_5="13000.00000" pt_clust_6="13000.00000" pt_clust_7="13000.00000" pt_clust_8="13000.00000" pt_clust_9="76.33660"></scales>
<clustering>
<clus scale="   76.337">  2  9  1 -1</clus>
<clus scale="   79.388">  5  6 -1 -1</clus>
<clus scale="   93.649">  7  8 -1 -1</clus>
<clus scale="  116.409">  1  5  2 -1</clus>
<clus scale="  116.409">  1  5  2 -1</clus>
</clustering>
</event>
<event>
 9    2  0.3402837E-005  0.9980887E+02  0.7546771E-02  0.1285584E+00
         -1   -1    0    0    0  501 -0.00000000000E+00  0.00000000000E+00  0.18985787132E+03  0.18985787132E+03  0.00000000000E+00 0.  1.
          2   -1    0    0  502    0  0.00000000000E+00 -0.00000000000E+00 -0.34188321589E+03  0.34188321589E+03  0.00000000000E+00 0. -1.
         23    2    1    2    0    0 -0.21600619078E+02 -0.36267439586E+01  0.13028084547E+03  0.16023614257E+03  0.90679560393E+02 0.  0.
         24    2    1    2    0    0  0.14536219124E+02  0.40578879609E+02 -0.31098041790E+03  0.32420190649E+03  0.80870938635E+02 0.  0.
        -11    1    4    4    0    0 -0.30963284272E+02  0.46819881515E+01 -0.14650830525E+03  0.14981765414E+03  0.00000000000E+00 0.  1.
         12    1    4    4    0    0  0.45499503396E+02  0.35896891457E+02 -0.16447211265E+03  0.17438425234E+03  0.00000000000E+00 0. -1.
        -11    1    3    3    0    0 -0.12450745021E+02  0.43467613395E+02  0.66860821939E+02  0.80714459524E+02  0.00000000000E+00 0.  1.
         11    1    3    3    0    0 -0.91498740571E+01 -0.47094357354E+02  0.63420023531E+02  0.79521683046E+02  0.00000000000E+00 0. -1.
         21    1    1    2  502  501  0.70643999542E+01 -0.36952135650E+02  0.28674227853E+02  0.47303038156E+02  0.00000000000E+00 0. -1.
<scales pt_clust_5="13000.00000" pt_clust_6="13000.00000" pt_clust_7="13000.00000" pt_clust_8="13000.00000" pt_clust_9="37.62135"></scales>
<clustering>
<clus scale="   37.621">  1  9  2 -1</clus>
<clus scale="   80.871">  5  6 -1 -1</clus>
<clus scale="   90.680">  7  8 -1 -1</clus>
<clus scale="   90.990">  2  5  1 -1</clus>
<clus scale="   90.990">  2  5  1 -1</clus>
</clustering>
</event>
<event>
 9    2  0.3402837E-005  0.1329427E+03  0.7546771E-02  0.1224676E+00
         -1   -1    0    0    0  501 -0.00000000000E+00  0.00000000000E+00  0.38046373873E+03  0.38046373873E+03  0.00000000000E+00 0.  1.
          2   -1    0    0  502    0  0.00000000000E+00 -0.00000000000E+00 -0.78912022855E+02  0.78912022855E+02  0.00000000000E+00 0. -1.
         23    2    1    2    0    0 -0.10374819170E+03  0.40471699421E+01  0.27601130879E+03  0.30773205915E+03  0.87958574234E+02 0.  0.
         24    2    1    2    0    0  0.85446718322E+02  0.16057998307E+02  0.83744141828E+01  0.11949042841E+03  0.81540362318E+02 0.  0.
        -11    1    4    4    0    0  0.40338739849E+02  0.48887894521E+02  0.56709737598E+01  0.63634896925E+02  0.00000000000E+00 0.  1.
         12    1    4    4    0    0  0.45107978474E+02 -0.32829896213E+02  0.27034404230E+01  0.55855531485E+02  0.00000000000E+00 0. -1.
        -13    1    3    3    0    0 -0.24873525613E+02 -0.25762318611E+02  0.16209962817E+03  0.16600806844E+03  0.00000000000E+00 0.  1.
         13    1    3    3    0    0 -0.78874666092E+02  0.29809488553E+02  0.11391168062E+03  0.14172399071E+03  0.00000000000E+00 0. -1.
         21    1    1    2  502  501  0.18301473382E+02 -0.20105168249E+02  0.17165992900E+02  0.32153274025E+02  0.00000000000E+00 0. -1.
<scales pt_clust_5="13000.00000" pt_clust_6="13000.00000" pt_clust_7="13000.00000" pt_clust_8="13000.00000" pt_clust_9="27.18753"></scales>
<clustering>
<clus scale="   27.188">  2  9  1 -1</clus>
<clus scale="   81.540">  5  6 -1 -1</clus>
<clus scale="   87.959">  7  8 -1 -1</clus>
<clus scale="  128.786">  2  5  1 -1</clus>
<clus scale="   27.188">  2  5  1 -1</clus>
</clustering>
</event>
<event>
 9    2  0.3402837E-005  0.2328041E+03  0.7546771E-02  0.1162806E+00
         -1   -1    0    0    0  501 -0.00000000000E+00  0.00000000000E+00  0.57079446406E+03  0.57079446406E+03  0.00000000000E+00 0.  1.
          2   -1    0    0  502    0  0.00000000000E+00 -0.00000000000E+00 -0.19856144094E+03  0.19856144094E+03  0.00000000000E+00 0. -1.
         23    2    1    2    0    0 -0.11667725792E+02 -0.16186791488E+01  0.28757761844E+03  0.30235313426E+03  0.92616279485E+02 0.  0.
         24    2    1    2    0    0 -0.17653935072E+03 -0.12201278479E+03  0.65834287443E+01  0.22867132936E+03  0.78701800055E+02 0.  0.
        -13    1    4    4    0    0 -0.12815063530E+03 -0.12638035994E+03  0.44964829854E+01  0.18004110382E+03  0.00000000000E+00 0.  1.
         14    1    4    4    0    0 -0.48388715421E+02  0.43675751565E+01  0.20869457589E+01  0.48630225534E+02  0.00000000000E+00 0. -1.
        -13    1    3    3    0    0  0.51709113104E+00 -0.46243831496E+02  0.16420531470E+03  0.17059350724E+03  0.00000000000E+00 0. -1.
         13    1    3    3    0    0 -0.12184816923E+02  0.44625152347E+02  0.12337230373E+03  0.13175962703E+03  0.00000000000E+00 0.  1.
         21    1    1    2  502  501  0.18820707651E+03  0.12363146393E+03  0.78071975945E+02  0.23833144138E+03  0.00000000000E+00 0. -1.
<scales pt_clust_5="13000.00000" pt_clust_6="13000.00000" pt_clust_7="13000.00000" pt_clust_8="13000.00000" pt_clust_9="219.09760"></scales>
<clustering>
<clus scale="   78.702">  5  6 -1 -1</clus>
<clus scale="   92.616">  7  8 -1 -1</clus>
<clus scale="   93.362">  1  7  2 -1</clus>
<clus scale="  219.098">  1  9  2 -1</clus>
<clus scale="  232.804">  2  5  1 -1</clus>
</clustering>
</event>
<event>
 9    2  0.3402837E-005  0.1295954E+03  0.7546771E-02  0.1232222E+00
         -1   -1    0    0    0  501 -0.00000000000E+00  0.00000000000E+00  0.71837247583E+02  0.71837247583E+02  0.00000000000E+00 0.  1.
          2   -1    0    0  502    0  0.00000000000E+00 -0.00000000000E+00 -0.53478139371E+03  0.53478139371E+03  0.00000000000E+00 0. -1.
         23    2    1    2    0    0 -0.21735465785E+02 -0.10076943306E+03 -0.12501501733E+03  0.18737892727E+03  0.94102065416E+02 0.  0.
         24    2    1    2    0    0  0.60404622631E+02  0.64210112815E+02 -0.34579884324E+03  0.36544547648E+03  0.78752138224E+02 0.  0.
        -11    1    4    4    0    0  0.71400041891E+02  0.41603085576E+02 -0.18399187736E+03  0.20169728219E+03  0.00000000000E+00 0.  1.
         12    1    4    4    0    0 -0.10995419259E+02  0.22607027239E+02 -0.16180696588E+03  0.16374819429E+03  0.00000000000E+00 0. -1.
        -11    1    3    3    0    0  0.13792528145E+02 -0.26921545224E+02  0.78705161051E+01  0.31256174648E+02  0.00000000000E+00 0.  1.
         11    1    3    3    0    0 -0.35527993930E+02 -0.73847887833E+02 -0.13288553344E+03  0.15612275262E+03  0.00000000000E+00 0. -1.
         21    1    1    2  502  501 -0.38669156846E+02  0.36559320241E+02  0.78697144355E+01  0.53794237544E+02  0.00000000000E+00 0.  1.
<scales pt_clust_5="13000.00000" pt_clust_6="13000.00000" pt_clust_7="13000.00000" pt_clust_8="13000.00000" pt_clust_9="53.21548"></scales>
<clustering>
<clus scale="   53.215">  1  9  2 -1</clus>
<clus scale="   78.752">  5  6 -1 -1</clus>
<clus scale="   94.102">  7  8 -1 -1</clus>
<clus scale="  118.919">  2  5  1 -1</clus>
<clus scale="  118.919">  2  5  1 -1</clus>
</clustering>
</event>
<event>
 9    2  0.3402837E-005  0.1134982E+03  0.7546771E-02  0.1258482E+00
          4   -1    0    0  502    0  0.00000000000E+00  0.00000000000E+00  0.24170633720E+02  0.24170633720E+02  0.00000000000E+00 0. -1.
         -3   -1    0    0    0  501 -0.00000000000E+00 -0.00000000000E+00 -0.62850734109E+03  0.62850734109E+03  0.00000000000E+00 0.  1.
         23    2    1    2    0    0 -0.67488246466E+02 -0.21654176878E+02 -0.26501134639E+03  0.28935684293E+03  0.92047824766E+02 0.  0.
         24    2    1    2    0    0  0.52960581961E+02  0.35561885060E+02 -0.22619336196E+03  0.24841540277E+03  0.80481702426E+02 0.  0.
        -11    1    4    4    0    0  0.42280762506E+02 -0.41094281164E+01 -0.18654336756E+03  0.19131904834E+03  0.00000000000E+00 0.  1.
         12    1    4    4    0    0  0.10679819455E+02  0.39671313177E+02 -0.39649994408E+02  0.57096354431E+02  0.00000000000E+00 0. -1.
        -13    1    3    3    0    0  0.65032463533E+01 -0.26155278843E+02 -0.15085812520E+03  0.15324674471E+03  0.00000000000E+00 0.  1.
         13    1    3    3    0    0 -0.73991492819E+02  0.45011019650E+01 -0.11415322119E+03  0.13611009822E+03  0.00000000000E+00 0. -1.
         21    1    1    2  502  501  0.14527664505E+02 -0.13907708183E+02 -0.11313199901E+03  0.11490572911E+03  0.00000000000E+00 0.  1.
<scales pt_clust_5="13000.00000" pt_clust_6="13000.00000" pt_clust_7="13000.00000" pt_clust_8="13000.00000" pt_clust_9="20.11162"></scales>
<clustering>
<clus scale="   20.112">  2  9  1 -1</clus>
<clus scale="   80.482">  5  6 -1 -1</clus>
<clus scale="   92.048">  7  8 -1 -1</clus>
<clus scale="  104.338">  1  5  2 -1</clus>
<clus scale="  104.338">  1  5  2 -1</clus>
</clustering>
</event>
<event>
 9    2  0.3402837E-005  0.1334989E+03  0.7546771E-02  0.1225113E+00
         -1   -1    0    0    0  501 -0.00000000000E+00  0.00000000000E+00  0.27193326815E+03  0.27193326815E+03  0.00000000000E+00 0.  1.
          2   -1    0    0  502    0  0.00000000000E+00 -0.00000000000E+00 -0.14421849457E+03  0.14421849457E+03  0.00000000000E+00 0. -1.
         24    2    1    2    0    0  0.16129887189E+02  0.95073199193E+02  0.15877003512E+03  0.20186549896E+03  0.79010563562E+02 0.  0.
         23    2    1    2    0    0  0.12486280113E+02 -0.98497089429E+02 -0.80841345489E+02  0.15676007658E+03  0.90447855982E+02 0.  0.
        -13    1    3    3    0    0  0.23194796659E+02  0.38474463598E+02  0.13087627098E+03  0.13837225606E+03  0.00000000000E+00 0.  1.
         14    1    3    3    0    0 -0.70649094694E+01  0.56598735595E+02  0.27893764141E+02  0.63493242906E+02  0.00000000000E+00 0. -1.
        -13    1    4    4    0    0 -0.29427268996E+02 -0.28421817858E+01 -0.13533791581E+02  0.32514699329E+02  0.00000000000E+00 0.  1.
         13    1    4    4    0    0  0.41913549109E+02 -0.95654907643E+02 -0.67307553908E+02  0.12424537725E+03  0.00000000000E+00 0. -1.
         21    1    1    2  502  501 -0.28616167302E+02  0.34238902356E+01  0.49786083953E+02  0.57526187174E+02  0.00000000000E+00 0.  1.
<scales pt_clust_5="13000.00000" pt_clust_6="13000.00000" pt_clust_7="13000.00000" pt_clust_8="13000.00000" pt_clust_9="28.82027"></scales>
<clustering>
<clus scale="   28.820">  1  9  2 -1</clus>
<clus scale="   79.011">  5  6 -1 -1</clus>
<clus scale="   90.448">  7  8 -1 -1</clus>
<clus scale="  126.031">  1  5  2 -1</clus>
<clus scale="  133.499">  2  5  1 -1</clus>
</clustering>
</event>
<event>
 9    2  0.3402837E-005  0.2573801E+03  0.7546771E-02  0.1109186E+00
          2   -1    0    0  502    0  0.00000000000E+00  0.00000000000E+00  0.44474874489E+03  0.44474874489E+03  0.00000000000E+00 0. -1.
         -1   -1    0    0    0  501 -0.00000000000E+00 -0.00000000000E+00 -0.25775585393E+03  0.25775585393E+03  0.00000000000E+00 0.  1.
         23    2    1    2    0    0  0.80787637788E+01  0.20676841976E+03 -0.11954176314E+03  0.25469037120E+03  0.88082383086E+02 0.  0.
         24    2    1    2    0    0  0.41292372016E+01 -0.25103321414E+03  0.30362218888E+03  0.40180455730E+03  0.78903380671E+02 0.  0.
        -11    1    4    4    0    0 -0.57414853476E+01 -0.11628567260E+03  0.82577643477E+02  0.14273888576E+03  0.00000000000E+00 0.  1.
         12    1    4    4    0    0  0.98707225492E+01 -0.13474754154E+03  0.22104454541E+03  0.25906567154E+03  0.00000000000E+00 0. -1.
        -13    1    3    3    0    0 -0.16941718271E+02  0.18851795614E+02 -0.43677996181E+02  0.50499300651E+02  0.00000000000E+00 0. -1.
         13    1    3    3    0    0  0.25020482049E+02  0.18791662415E+03 -0.75863766960E+02  0.20419107054E+03  0.00000000000E+00 0.  1.
         21    1    1    2  502  501 -0.12208000980E+02  0.44264794384E+02  0.29124652087E+01  0.46009670324E+02  0.00000000000E+00 0. -1.
<scales pt_clust_5="13000.00000" pt_clust_6="13000.00000" pt_clust_7="13000.00000" pt_clust_8="13000.00000" pt_clust_9="45.91740"></scales>
<clustering>
<clus scale="   45.917">  2  9  1 -1</clus>
<clus scale="   78.903">  5  6 -1 -1</clus>
<clus scale="   88.082">  7  8 -1 -1</clus>
<clus scale="  254.385">  1  5  2 -1</clus>
<clus scale="  254.385">  1  5  2 -1</clus>
</clustering>
</event>
<event>
 9    2  0.3402837E-005  0.1280200E+03  0.7546771E-02  0.1238969E+00
         -1   -1    0    0    0  501 -0.00000000000E+00  0.00000000000E+00  0.38534092590E+02  0.38534092590E+02  0.00000000000E+00 0.  1.
          2   -1    0    0  502    0  0.00000000000E+00 -0.00000000000E+00 -0.66063900356E+03  0.66063900356E+03  0.00000000000E+00 0. -1.
         24    2    1    2    0    0  0.39845244604E+02  0.99658375879E+02 -0.12121607578E+03  0.17221218365E+03  0.58687850259E+02 0.  0.
         23    2    1    2    0    0 -0.32415137529E+02 -0.78202384590E+02 -0.48091216158E+03  0.49671800355E+03  0.91026994889E+02 0.  0.
        -11    1    3    3    0    0  0.47962926054E+02  0.65751637876E+02 -0.57728435827E+02  0.99781222993E+02  0.00000000000E+00 0.  1.
         12    1    3    3    0    0 -0.81176814499E+01  0.33906738004E+02 -0.63487639956E+02  0.72430960655E+02  0.00000000000E+00 0. -1.
        -13    1    4    4    0    0 -0.60018540078E+02 -0.28224231765E+02 -0.28775116343E+03  0.29529572375E+03  0.00000000000E+00 0.  1.
         13    1    4    4    0    0  0.27603402549E+02 -0.49978152824E+02 -0.19316099815E+03  0.20142227980E+03  0.00000000000E+00 0. -1.
         21    1    1    2  502  501 -0.74301070747E+01 -0.21455991290E+02 -0.19976673601E+02  0.30242908947E+02  0.00000000000E+00 0. -1.
<scales pt_clust_5="13000.00000" pt_clust_6="13000.00000" pt_clust_7="13000.00000" pt_clust_8="13000.00000" pt_clust_9="22.70608"></scales>
<clustering>
<clus scale="   22.706">  1  9  2 -1</clus>
<clus scale="   58.688">  5  6 -1 -1</clus>
<clus scale="   91.027">  7  8 -1 -1</clus>
<clus scale="  107.459">  1  5  2 -1</clus>
<clus scale="  128.020">  2  5  1 -1</clus>
</clustering>
</event>
<event>
 9    2  0.4616458E-005  0.2174812E+03  0.7546771E-02  0.1136115E+00
         -1   -1    0    0    0  501 -0.00000000000E+00  0.00000000000E+00  0.40114403490E+03  0.40114403490E+03  0.00000000000E+00 0.  1.
          2   -1    0    0  502    0  0.00000000000E+00 -0.00000000000E+00 -0.66320913391E+03  0.66320913391E+03  0.00000000000E+00 0. -1.
         24    2    1    2    0    0 -0.69501177557E+02 -0.19091211044E+03  0.31397893019E+03  0.38294757862E+03  0.82390726276E+02 0.  0.
         23    2    1    2    0    0  0.94299981404E+02  0.17550720395E+03 -0.60341978063E+03  0.64138405120E+03  0.86964385501E+02 0.  0.
        -11    1    3    3    0    0 -0.84748987487E+02 -0.15993141665E+03  0.23398952560E+03  0.29582350651E+03  0.00000000000E+00 0.  1.
         12    1    3    3    0    0  0.15247809930E+02 -0.30980693786E+02  0.79989404593E+02  0.87124072118E+02  0.00000000000E+00 0. -1.
        -11    1    4    4    0    0  0.49709257664E+02  0.15695303744E+03 -0.51443240418E+03  0.54013513562E+03  0.00000000000E+00 0. -1.
         11    1    4    4    0    0  0.44590723741E+02  0.18554166504E+02 -0.88987376446E+02  0.10124891557E+03  0.00000000000E+00 0.  1.
         21    1    1    2  502  501 -0.24798803847E+02  0.15404906487E+02  0.27375751429E+02  0.40021538981E+02  0.00000000000E+00 0.  1.
<scales pt_clust_5="13000.00000" pt_clust_6="13000.00000" pt_clust_7="13000.00000" pt_clust_8="13000.00000" pt_clust_9="29.19404"></scales>
<clustering>
<clus scale="   29.194">  1  9  2 -1</clus>
<clus scale="   82.391">  5  6 -1 -1</clus>
<clus scale="   86.964">  7  8 -1 -1</clus>
<clus scale="  215.693">  1  5  2 -1</clus>
<clus scale="  217.481">  2  5  1 -1</clus>
</clustering>
</event>
<event>
 9    2  0.3402837E-005  0.1746756E+03  0.7546771E-02  0.1175099E+00
         -1   -1    0    0    0  501 -0.00000000000E+00  0.00000000000E+00  0.64081082441E+03  0.64081082441E+03  0.00000000000E+00 0.  1.
          2   -1    0    0  502    0  0.00000000000E+00 -0.00000000000E+00 -0.13141426402E+03  0.13141426402E+03  0.00000000000E+00 0. -1.
         24    2    1    2    0    0  0.16152063724E+03  0.64445090914E+02  0.44232590029E+03  0.48203019303E+03  0.80366777544E+02 0.  0.
         23    2    1    2    0    0 -0.13689285392E+03 -0.38401919783E+02 -0.41090526570E+02  0.17624922072E+03  0.95713089660E+02 0.  0.
        -11    1    3    3    0    0  0.10939856978E+03  0.49706396152E+02  0.38431741266E+03  0.40266443419E+03  0.00000000000E+00 0.  1.
         12    1    3    3    0    0  0.52122067465E+02  0.14738694762E+02  0.58008487630E+02  0.79365758846E+02  0.00000000000E+00 0. -1.
        -13    1    4    4    0    0 -0.44090939938E+02  0.19552010615E+02  0.18505299877E+02  0.51659831855E+02  0.00000000000E+00 0.  1.
         13    1    4    4    0    0 -0.92801913982E+02 -0.57953930398E+02 -0.59595826447E+02  0.12458938886E+03  0.00000000000E+00 0. -1.
         21    1    1    2  502  501 -0.24627783320E+02 -0.26043171131E+02  0.10816118667E+03  0.11394567467E+03  0.00000000000E+00 0.  1.
<scales pt_clust_5="13000.00000" pt_clust_6="13000.00000" pt_clust_7="13000.00000" pt_clust_8="13000.00000" pt_clust_9="35.84375"></scales>
<clustering>
<clus scale="   35.844">  1  9  2 -1</clus>
<clus scale="   80.367">  5  6 -1 -1</clus>
<clus scale="   95.713">  7  8 -1 -1</clus>
<clus scale="  166.761">  1  5  2 -1</clus>
<clus scale="  174.676">  2  5  1 -1</clus>
</clustering>
</event>
<event>
 9    2  0.3402837E-005  0.1513773E+03  0.7546771E-02  0.1200987E+00
          2   -1    0    0  502    0  0.00000000000E+00  0.00000000000E+00  0.53164605911E+03  0.53164605911E+03  0.00000000000E+00 0. -1.
         -1   -1    0    0    0  501 -0.00000000000E+00 -0.00000000000E+00 -0.53902985202E+03  0.53902985202E+03  0.00000000000E+00 0.  1.
         24    2    1    2    0    0 -0.87574937525E+02  0.12184543940E+02 -0.38044911288E+03  0.39896520263E+03  0.81325719325E+02 0.  0.
         23    2    1    2    0    0  0.12011474023E+03 -0.16998882659E+01  0.50915956226E+03  0.53138818876E+03  0.93271147033E+02 0.  0.
        -11    1    3    3    0    0 -0.67887954007E+02  0.27018394992E+02 -0.35878105322E+03  0.36614561600E+03  0.00000000000E+00 0.  1.
         12    1    3    3    0    0 -0.19686983518E+02 -0.14833851052E+02 -0.21668059665E+02  0.32819586632E+02  0.00000000000E+00 0. -1.
        -13    1    4    4    0    0  0.80586468075E+02 -0.24804216764E+01  0.46573403864E+03  0.47266111124E+03  0.00000000000E+00 0. -1.
         13    1    4    4    0    0  0.39528272158E+02  0.78053341053E+00  0.43425523615E+02  0.58727077515E+02  0.00000000000E+00 0.  1.
         21    1    1    2  502  501 -0.32539802708E+02 -0.10484655674E+02 -0.13609424229E+03  0.14032251975E+03  0.00000000000E+00 0.  1.
<scales pt_clust_5="13000.00000" pt_clust_6="13000.00000" pt_clust_7="13000.00000" pt_clust_8="13000.00000" pt_clust_9="34.18723"></scales>
<clustering>
<clus scale="   34.187">  2  9  1 -1</clus>
<clus scale="   81.326">  5  6 -1 -1</clus>
<clus scale="   93.271">  7  8 -1 -1</clus>
<clus scale="  144.324">  2  5  1 -1</clus>
<clus scale="  151.377">  1  5  2 -1</clus>
</clustering>
</event>
<event>
 9    2  0.3402837E-005  0.1022997E+03  0.7546771E-02  0.1275906E+00
         -1   -1    0    0    0  501 -0.00000000000E+00  0.00000000000E+00  0.12834100764E+03  0.12834100764E+03  0.00000000000E+00 0.  1.
          2   -1    0    0  502    0  0.00000000000E+00 -0.00000000000E+00 -0.21724851046E+03  0.21724851046E+03  0.00000000000E+00 0. -1.
         23    2    1    2    0    0 -0.18549198040E+02 -0.86027169611E+01  0.70519754511E+02  0.11032940246E+03  0.82349631353E+02 0.  0.
         24    2    1    2    0    0  0.65310726913E+02  0.19250751199E+02 -0.15393247602E+03  0.18698782714E+03  0.81444200850E+02 0.  0.
        -11    1    4    4    0    0 -0.11819259939E+02  0.19515678727E+02 -0.12817665825E+02  0.26169623208E+02  0.00000000000E+00 0.  1.
         12    1    4    4    0    0  0.77129986852E+02 -0.26492752800E+00 -0.14111481020E+03  0.16081820393E+03  0.00000000000E+00 0. -1.
        -13    1    3    3    0    0 -0.48666067703E+02 -0.72923295085E+01  0.23638380472E+02  0.54592465109E+02  0.00000000000E+00 0.  1.
         13    1    3    3    0    0  0.30116869663E+02 -0.13103874526E+01  0.46881374039E+02  0.55736937352E+02  0.00000000000E+00 0. -1.
         21    1    1    2  502  501 -0.46761528873E+02 -0.10648034238E+02 -0.54947813138E+01  0.48272288504E+02  0.00000000000E+00 0.  1.
<scales pt_clust_5="13000.00000" pt_clust_6="13000.00000" pt_clust_7="13000.00000" pt_clust_8="13000.00000" pt_clust_9="47.95854"></scales>
<clustering>
<clus scale="   47.959">  1  9  2 -1</clus>
<clus scale="   81.444">  5  6 -1 -1</clus>
<clus scale="   82.350">  7  8 -1 -1</clus>
<clus scale="  101.572">  2  5  1 -1</clus>
<clus scale="  101.572">  2  5  1 -1</clus>
</clustering>
</event>
<event>
 9    2  0.3402837E-005  0.1491945E+03  0.7546771E-02  0.1203497E+00
         -1   -1    0    0    0  501 -0.00000000000E+00  0.00000000000E+00  0.41628299942E+03  0.41628299942E+03  0.00000000000E+00 0.  1.
          2   -1    0    0  502    0  0.00000000000E+00 -0.00000000000E+00 -0.93321966161E+02  0.93321966161E+02  0.00000000000E+00 0. -1.
         24    2    1    2    0    0  0.73980575196E+02  0.75638999501E+02  0.24450353028E+03  0.27837114173E+03  0.80710175802E+02 0.  0.
         23    2    1    2    0    0 -0.96502769113E+02 -0.73969252063E+02  0.27622971224E+01  0.15224140988E+03  0.91572822927E+02 0.  0.
        -11    1    3    3    0    0  0.47507830365E+02  0.66135454964E+02  0.23495774421E+03  0.24866852216E+03  0.00000000000E+00 0.  1.
         12    1    3    3    0    0  0.26472744831E+02  0.95035445373E+01  0.95457860689E+01  0.29702619570E+02  0.00000000000E+00 0. -1.
        -11    1    4    4    0    0 -0.65817287890E+02 -0.27375905926E+02  0.43186677895E+02  0.83345334351E+02  0.00000000000E+00 0.  1.
         11    1    4    4    0    0 -0.30685481222E+02 -0.46593346137E+02 -0.40424380772E+02  0.68896075526E+02  0.00000000000E+00 0. -1.
         21    1    1    2  502  501  0.22522193917E+02 -0.16697474381E+01  0.75695205855E+02  0.78992413970E+02  0.00000000000E+00 0.  1.
<scales pt_clust_5="13000.00000" pt_clust_6="13000.00000" pt_clust_7="13000.00000" pt_clust_8="13000.00000" pt_clust_9="22.58400"></scales>
<clustering>
<clus scale="   22.584">  1  9  2 -1</clus>
<clus scale="   80.710">  5  6 -1 -1</clus>
<clus scale="   91.573">  7  8 -1 -1</clus>
<clus scale="  142.785">  1  5  2 -1</clus>
<clus scale="  149.195">  2  5  1 -1</clus>
</clustering>
</event>
<event>
 9    2  0.3402837E-005  0.1205100E+03  0.7546771E-02  0.1247143E+00
          2   -1    0    0  502    0  0.00000000000E+00  0.00000000000E+00  0.12664610428E+03  0.12664610428E+03  0.00000000000E+00 0. -1.
         -1   -1    0    0    0  501 -0.00000000000E+00 -0.00000000000E+00 -0.20558104739E+03  0.20558104739E+03  0.00000000000E+00 0.  1.
         23    2    1    2    0    0  0.66248074203E+02  0.14918823311E+00 -0.13358750305E+03  0.17523428621E+03  0.92046751692E+02 0.  0.
         24    2    1    2    0    0 -0.78038913629E+02  0.19577189045E+02  0.68127140025E+02  0.13035232938E+03  0.76662143168E+02 0.  0.
        -13    1    4    4    0    0 -0.49315627000E+02  0.49266768141E+02  0.45617287277E+02  0.83307757190E+02  0.00000000000E+00 0.  1.
         14    1    4    4    0    0 -0.28723286628E+02 -0.29689579096E+02  0.22509852748E+02  0.47044572188E+02  0.00000000000E+00 0. -1.
        -13    1    3    3    0    0 -0.35316654719E+01  0.21642293918E+02  0.11781646130E+01  0.21960182578E+02  0.00000000000E+00 0. -1.
         13    1    3    3    0    0  0.69779739675E+02 -0.21493105684E+02 -0.13476566767E+03  0.15327410363E+03  0.00000000000E+00 0.  1.
         21    1    1    2  502  501  0.11790839426E+02 -0.19726377278E+02 -0.13474580076E+02  0.26640536089E+02  0.00000000000E+00 0.  1.
<scales pt_clust_5="13000.00000" pt_clust_6="13000.00000" pt_clust_7="13000.00000" pt_clust_8="13000.00000" pt_clust_9="22.98160"></scales>
<clustering>
<clus scale="   22.982">  2  9  1 -1</clus>
<clus scale="   76.662">  5  6 -1 -1</clus>
<clus scale="   92.047">  7  8 -1 -1</clus>
<clus scale="  109.211">  1  5  2 -1</clus>
<clus scale="  109.211">  1  5  2 -1</clus>
</clustering>
</event>
<event>
 9    2  0.3402837E-005  0.1128312E+03  0.7546771E-02  0.1259494E+00
         -1   -1    0    0    0  501 -0.00000000000E+00  0.00000000000E+00  0.38590903450E+03  0.38590903450E+03  0.00000000000E+00 0.  1.
          2   -1    0    0  502    0  0.00000000000E+00 -0.00000000000E+00 -0.10282452471E+03  0.10282452471E+03  0.00000000000E+00 0. -1.
         24    2    1    2    0    0  0.71138711516E+02  0.23697243328E+02  0.44817109134E+02  0.11923035804E+03  0.81148193998E+02 0.  0.
         23    2    1    2    0    0 -0.60259264036E+02  0.30924308045E+02 -0.10304532378E+02  0.11476827592E+03  0.92076501023E+02 0.  0.
        -13    1    3    3    0    0  0.72277710599E+02  0.42090518934E+02  0.53051157122E+02  0.99045971678E+02  0.00000000000E+00 0.  1.
         14    1    3    3    0    0 -0.11389990830E+01 -0.18393275606E+02 -0.82340479884E+01  0.20184386360E+02  0.00000000000E+00 0. -1.
        -13    1    4    4    0    0 -0.24097942992E+02  0.55892315354E+02 -0.28498237163E+02  0.67207226498E+02  0.00000000000E+00 0.  1.
         13    1    4    4    0    0 -0.36161321044E+02 -0.24968007309E+02  0.18193704785E+02  0.47561049426E+02  0.00000000000E+00 0. -1.
         21    1    1    2  502  501 -0.10879447479E+02 -0.54621551373E+02  0.24857193303E+03  0.25473492525E+03  0.00000000000E+00 0.  1.
<scales pt_clust_5="13000.00000" pt_clust_6="13000.00000" pt_clust_7="13000.00000" pt_clust_8="13000.00000" pt_clust_9="55.69449"></scales>
<clustering>
<clus scale="   55.694">  1  9  2 -1</clus>
<clus scale="   81.148">  5  6 -1 -1</clus>
<clus scale="   92.077">  7  8 -1 -1</clus>
<clus scale="  104.105">  1  5  2 -1</clus>
<clus scale="  112.831">  2  5  1 -1</clus>
</clustering>
</event>
<event>
 9    2  0.3402837E-005  0.1426452E+03  0.7546771E-02  0.1211828E+00
         -1   -1    0    0    0  501 -0.00000000000E+00  0.00000000000E+00  0.11641992138E+03  0.11641992138E+03  0.00000000000E+00 0.  1.
          2   -1    0    0  502    0  0.00000000000E+00 -0.00000000000E+00 -0.40273815131E+03  0.40273815131E+03  0.00000000000E+00 0. -1.
         23    2    1    2    0    0 -0.11013006150E+03 -0.31443118228E+02 -0.18506271955E+02  0.14706260107E+03  0.90374921300E+02 0.  0.
         24    2    1    2    0    0  0.10989810218E+03 -0.19635596734E+02 -0.28637137319E+03  0.31774898306E+03  0.80577312742E+02 0.  0.
        -13    1    4    4    0    0  0.27433916534E+02 -0.22788631860E+02 -0.24724488764E+02  0.43396334674E+02  0.00000000000E+00 0.  1.
         14    1    4    4    0    0  0.82464185643E+02  0.31530351263E+01 -0.26164688443E+03  0.27435264838E+03  0.00000000000E+00 0. -1.
        -11    1    3    3    0    0 -0.83094313332E+02 -0.62948625945E+02 -0.10401490753E+02  0.10476347372E+03  0.00000000000E+00 0.  1.
         11    1    3    3    0    0 -0.27035748171E+02  0.31505507717E+02 -0.81047812022E+01  0.42299127343E+02  0.00000000000E+00 0. -1.
         21    1    1    2  502  501  0.23195932564E+00  0.51078714962E+02  0.18559415211E+02  0.54346488573E+02  0.00000000000E+00 0.  1.
<scales pt_clust_5="13000.00000" pt_clust_6="13000.00000" pt_clust_7="13000.00000" pt_clust_8="13000.00000" pt_clust_9="51.07924"></scales>
<clustering>
<clus scale="   51.079">  1  9  2 -1</clus>
<clus scale="   80.577">  5  6 -1 -1</clus>
<clus scale="   90.375">  7  8 -1 -1</clus>
<clus scale="  136.648">  2  5  1 -1</clus>
<clus scale="  136.648">  2  5  1 -1</clus>
</clustering>
</event>
<event>
 9    2  0.3402837E-005  0.9403891E+02  0.7546771E-02  0.1299855E+00
          4   -1    0    0  502    0  0.00000000000E+00  0.00000000000E+00  0.28765661255E+03  0.28765661255E+03  0.00000000000E+00 0. -1.
         -3   -1    0    0    0  501 -0.00000000000E+00 -0.00000000000E+00 -0.11509055230E+03  0.11509055230E+03  0.00000000000E+00 0.  1.
         24    2    1    2    0    0 -0.84553393587E+01 -0.77426293480E+01 -0.66972584522E+02  0.10426578323E+03  0.79085936822E+02 0.  0.
         23    2    1    2    0    0  0.28139868108E+02 -0.39212707953E+00  0.25512897313E+03  0.27208605489E+03  0.90266396813E+02 0.  0.
        -13    1    3    3    0    0 -0.31537702253E+02  0.23323850709E+02 -0.45244831863E+02  0.59880910862E+02  0.00000000000E+00 0.  1.
         14    1    3    3    0    0  0.23082362894E+02 -0.31066480057E+02 -0.21727752658E+02  0.44384872372E+02  0.00000000000E+00 0. -1.
        -13    1    4    4    0    0  0.20458140884E+02 -0.39042718678E+02  0.19691867208E+03  0.20179155786E+03  0.00000000000E+00 0. -1.
         13    1    4    4    0    0  0.76817272248E+01  0.38650591599E+02  0.58210301052E+02  0.70294497030E+02  0.00000000000E+00 0.  1.
         21    1    1    2  502  501 -0.19684528750E+02  0.81347564275E+01 -0.15590328358E+02  0.26395326718E+02  0.00000000000E+00 0. -1.
<scales pt_clust_5="13000.00000" pt_clust_6="13000.00000" pt_clust_7="13000.00000" pt_clust_8="13000.00000" pt_clust_9="21.29918"></scales>
<clustering>
<clus scale="   21.299">  2  9  1 -1</clus>
<clus scale="   79.086">  5  6 -1 -1</clus>
<clus scale="   83.366">  2  5  1 -1</clus>
<clus scale="   90.266">  7  8 -1 -1</clus>
<clus scale="   94.039">  1  5  2 -1</clus>
</clustering>
</event>
<event>
 9    2  0.3402837E-005  0.9566529E+02  0.7546771E-02  0.1294585E+00
          2   -1    0    0  502    0  0.00000000000E+00  0.00000000000E+00  0.29635896204E+03  0.29635896204E+03  0.00000000000E+00 0. -1.
         -1   -1    0    0    0  501 -0.00000000000E+00 -0.00000000000E+00 -0.10886142627E+03  0.10886142627E+03  0.00000000000E+00 0.  1.
         24    2    1    2    0    0  0.26382615880E+02 -0.13218096354E+02 -0.50638529155E+01  0.85306646937E+02  0.79880040769E+02 0.  0.
         23    2    1    2    0    0  0.39812662648E+02  0.24745991394E+02  0.22415149749E+03  0.24566657147E+03  0.88942443816E+02 0.  0.
        -13    1    3    3    0    0 -0.24403310754E+02 -0.16336966395E+02 -0.15736909037E+02  0.33317688287E+02  0.00000000000E+00 0.  1.
         14    1    3    3    0    0  0.50785926635E+02  0.31188700410E+01  0.10673056122E+02  0.51988958649E+02  0.00000000000E+00 0. -1.
        -11    1    4    4    0    0  0.25652953431E+02  0.49005051530E+02  0.71219620210E+02  0.90176512452E+02  0.00000000000E+00 0.  1.
         11    1    4    4    0    0  0.14159709217E+02 -0.24259060137E+02  0.15293187728E+03  0.15549005902E+03  0.00000000000E+00 0. -1.
         21    1    1    2  502  501 -0.66195278528E+02 -0.11527895039E+02 -0.31590108806E+02  0.74247169898E+02  0.00000000000E+00 0.  1.
<scales pt_clust_5="13000.00000" pt_clust_6="13000.00000" pt_clust_7="13000.00000" pt_clust_8="13000.00000" pt_clust_9="67.19157"></scales>
<clustering>
<clus scale="   67.192">  2  9  1 -1</clus>
<clus scale="   79.880">  5  6 -1 -1</clus>
<clus scale="   87.304">  2  5  1 -1</clus>
<clus scale="   88.942">  7  8 -1 -1</clus>
<clus scale="   95.665">  1  5  2 -1</clus>
</clustering>
</event>
<event>
 9    2  0.3402837E-005  0.1315390E+03  0.7546771E-02  0.1225708E+00
         -1   -1    0    0    0  501 -0.00000000000E+00  0.00000000000E+00  0.11368029405E+03  0.11368029405E+03  0.00000000000E+00 0.  1.
          2   -1    0    0  502    0  0.00000000000E+00 -0.00000000000E+00 -0.24498721810E+03  0.24498721810E+03  0.00000000000E+00 0. -1.
         23    2    1    2    0    0 -0.66560479805E+02 -0.67117451314E+02  0.27584836088E+02  0.13386826889E+03  0.90690355009E+02 0.  0.
         24    2    1    2    0    0  0.52025601711E+02  0.85129731425E+02 -0.14779829660E+03  0.19913273104E+03  0.88632802550E+02 0.  0.
        -11    1    4    4    0    0 -0.78193892144E+01  0.50775572965E+02 -0.22490454483E+02  0.56081389074E+02  0.00000000000E+00 0.  1.
         12    1    4    4    0    0  0.59844990925E+02  0.34354158459E+02 -0.12530784212E+03  0.14305134197E+03  0.00000000000E+00 0. -1.
        -13    1    3    3    0    0 -0.60003263597E+02 -0.22343049309E+02 -0.21085956023E+02  0.67410837675E+02  0.00000000000E+00 0. -1.
         13    1    3    3    0    0 -0.65572162080E+01 -0.44774402005E+02  0.48670792111E+02  0.66457431217E+02  0.00000000000E+00 0.  1.
         21    1    1    2  502  501  0.14534878094E+02 -0.18012280110E+02 -0.11093463538E+02  0.25666512214E+02  0.00000000000E+00 0. -1.
<scales pt_clust_5="13000.00000" pt_clust_6="13000.00000" pt_clust_7="13000.00000" pt_clust_8="13000.00000" pt_clust_9="23.14530"></scales>
<clustering>
<clus scale="   23.145">  2  9  1 -1</clus>
<clus scale="   88.633">  5  6 -1 -1</clus>
<clus scale="   90.690">  7  8 -1 -1</clus>
<clus scale="  130.129">  2  5  1 -1</clus>
<clus scale="   23.145">  2  5  1 -1</clus>
</clustering>
</event>
<event>
 9    2  0.3402837E-005  0.9437003E+02  0.7546771E-02  0.1301412E+00
          2   -1    0    0  502    0  0.00000000000E+00  0.00000000000E+00  0.23331028343E+03  0.23331028343E+03  0.00000000000E+00 0. -1.
         -1   -1    0    0    0  501 -0.00000000000E+00 -0.00000000000E+00 -0.97676051714E+02  0.97676051714E+02  0.00000000000E+00 0.  1.
         23    2    1    2    0    0 -0.48760192061E+02 -0.14371736601E+02 -0.38593032785E+02  0.11162356891E+03  0.91576720919E+02 0.  0.
         24    2    1    2    0    0  0.18509190623E+02  0.61830734909E+01  0.17020269196E+03  0.18776570188E+03  0.76851687791E+02 0.  0.
        -13    1    4    4    0    0 -0.17671584077E+02  0.14728935231E+02  0.13414591401E+02  0.26630390145E+02  0.00000000000E+00 0.  1.
         14    1    4    4    0    0  0.36180774699E+02 -0.85458617398E+01  0.15678810056E+03  0.16113531174E+03  0.00000000000E+00 0. -1.
        -13    1    3    3    0    0  0.12260112123E+02  0.22512207330E+02 -0.30534545932E+02  0.39868136693E+02  0.00000000000E+00 0.  1.
         13    1    3    3    0    0 -0.61020304183E+02 -0.36883943931E+02 -0.80584868537E+01  0.71755432219E+02  0.00000000000E+00 0. -1.
         21    1    1    2  502  501  0.30251001438E+02  0.81886631102E+01  0.40245725387E+01  0.31597064352E+02  0.00000000000E+00 0. -1.
<scales pt_clust_5="13000.00000" pt_clust_6="13000.00000" pt_clust_7="13000.00000" pt_clust_8="13000.00000" pt_clust_9="31.33971"></scales>
<clustering>
<clus scale="   31.340">  2  9  1 -1</clus>
<clus scale="   76.852">  5  6 -1 -1</clus>
<clus scale="   80.160">  1  5  2 -1</clus>
<clus scale="   91.577">  7  8 -1 -1</clus>
<clus scale="   80.160">  1  5  2 -1</clus>
</clustering>
</event>
<event>
 9    2  0.3402837E-005  0.1563125E+03  0.7546771E-02  0.1194940E+00
          2   -1    0    0  502    0  0.00000000000E+00  0.00000000000E+00  0.24391081664E+03  0.24391081664E+03  0.00000000000E+00 0. -1.
         -1   -1    0    0    0  501 -0.00000000000E+00 -0.00000000000E+00 -0.26309266984E+03  0.26309266984E+03  0.00000000000E+00 0.  1.
         23    2    1    2    0    0 -0.70626759515E+02  0.45855461979E+02 -0.14566315942E+03  0.19192411440E+03  0.92337679856E+02 0.  0.
         24    2    1    2    0    0  0.10760068339E+03 -0.78600248681E+02  0.18287467300E+03  0.24011602157E+03  0.80353292611E+02 0.  0.
        -11    1    4    4    0    0  0.27566574078E+02 -0.10679632026E+02  0.35616532336E+00  0.29565138260E+02  0.00000000000E+00 0.  1.
         12    1    4    4    0    0  0.80034109310E+02 -0.67920616655E+02  0.18251850768E+03  0.21055088331E+03  0.00000000000E+00 0. -1.
        -13    1    3    3    0    0 -0.84445081976E+02  0.26916499560E+02 -0.14312141690E+03  0.16834253709E+03  0.00000000000E+00 0.  1.
         13    1    3    3    0    0  0.13818322461E+02  0.18938962418E+02 -0.25417425196E+01  0.23581577304E+02  0.00000000000E+00 0. -1.
         21    1    1    2  502  501 -0.36973923873E+02  0.32744786702E+02 -0.56393366774E+02  0.74963350505E+02  0.00000000000E+00 0.  1.
<scales pt_clust_5="13000.00000" pt_clust_6="13000.00000" pt_clust_7="13000.00000" pt_clust_8="13000.00000" pt_clust_9="49.38919"></scales>
<clustering>
<clus scale="   49.389">  2  9  1 -1</clus>
<clus scale="   80.353">  5  6 -1 -1</clus>
<clus scale="   92.338">  7  8 -1 -1</clus>
<clus scale="  149.546">  1  5  2 -1</clus>
<clus scale="  149.546">  1  5  2 -1</clus>
</clustering>
</event>
<event>
 9    2  0.3402837E-005  0.9540232E+02  0.7546771E-02  0.1294524E+00
         -3   -1    0    0    0  501 -0.00000000000E+00  0.00000000000E+00  0.79345530569E+03  0.79345530569E+03  0.00000000000E+00 0.  1.
          4   -1    0    0  502    0  0.00000000000E+00 -0.00000000000E+00 -0.25464173848E+02  0.25464173848E+02  0.00000000000E+00 0. -1.
         24    2    1    2    0    0  0.10579887766E+02  0.94752069041E+01  0.33438213731E+03  0.34413318616E+03  0.80090714142E+02 0.  0.
         23    2    1    2    0    0  0.10161267522E+02 -0.46957953372E+02  0.11201229596E+03  0.15034895222E+03  0.88032677146E+02 0.  0.
        -11    1    3    3    0    0 -0.14445584103E+02 -0.27583277793E+02  0.79910111617E+02  0.85762101493E+02  0.00000000000E+00 0.  1.
         12    1    3    3    0    0  0.25025471869E+02  0.37058484697E+02  0.25447202569E+03  0.25837108466E+03  0.00000000000E+00 0. -1.
        -11    1    4    4    0    0  0.41215844315E+02 -0.43932304859E+01  0.24354956099E+02  0.48075047408E+02  0.00000000000E+00 0. -1.
         11    1    4    4    0    0 -0.31054576794E+02 -0.42564722887E+02  0.87657339863E+02  0.10227390482E+03  0.00000000000E+00 0.  1.
         21    1    1    2  502  501 -0.20741155288E+02  0.37482746468E+02  0.32159669858E+03  0.32443734116E+03  0.00000000000E+00 0.  1.
<scales pt_clust_5="13000.00000" pt_clust_6="13000.00000" pt_clust_7="13000.00000" pt_clust_8="13000.00000" pt_clust_9="42.83867"></scales>
<clustering>
<clus scale="   42.839">  1  9  2 -1</clus>
<clus scale="   80.091">  5  6 -1 -1</clus>
<clus scale="   88.033">  7  8 -1 -1</clus>
<clus scale="   88.127">  1  5  2 -1</clus>
<clus scale="   95.402">  2  5  1 -1</clus>
</clustering>
</event>
<event>
 9    2  0.3402837E-005  0.4327360E+03  0.7546771E-02  0.1033238E+00
         -1   -1    0    0    0  501 -0.00000000000E+00  0.00000000000E+00  0.24908192945E+03  0.24908192945E+03  0.00000000000E+00 0.  1.
          2   -1    0    0  502    0  0.00000000000E+00 -0.00000000000E+00 -0.86404326212E+03  0.86404326212E+03  0.00000000000E+00 0. -1.
         23    2    1    2    0    0  0.37687230214E+03 -0.21336865358E+03 -0.13622088035E+03  0.46264690091E+03  0.89034331744E+02 0.  0.
         24    2    1    2    0    0 -0.35065119315E+03  0.20553045084E+03 -0.45184049198E+03  0.61210392622E+03  0.72885943962E+02 0.  0.
        -11    1    4    4    0    0 -0.91574429725E+02  0.34387781797E+02 -0.71761530721E+02  0.12131823032E+03  0.00000000000E+00 0.  1.
         12    1    4    4    0    0 -0.25907676342E+03  0.17114266904E+03 -0.38007896125E+03  0.49078569590E+03  0.00000000000E+00 0. -1.
        -11    1    3    3    0    0  0.12996465912E+03 -0.30956110610E+02 -0.59331759281E+02  0.14618259494E+03  0.00000000000E+00 0. -1.
         11    1    3    3    0    0  0.24690764302E+03 -0.18241254297E+03 -0.76889121071E+02  0.31646430597E+03  0.00000000000E+00 0.  1.
         21    1    1    2  502  501 -0.26221108991E+02  0.78382027460E+01 -0.26899960341E+02  0.38374364429E+02  0.00000000000E+00 0.  1.
<scales pt_clust_5="13000.00000" pt_clust_6="13000.00000" pt_clust_7="13000.00000" pt_clust_8="13000.00000" pt_clust_9="27.36757"></scales>
<clustering>
<clus scale="   27.368">  2  9  1 -1</clus>
<clus scale="   72.886">  5  6 -1 -1</clus>
<clus scale="   89.034">  7  8 -1 -1</clus>
<clus scale="  429.704">  2  5  1 -1</clus>
<clus scale="   27.368">  2  5  1 -1</clus>
</clustering>
</event>
<event>
 9    2  0.3402837E-005  0.1235171E+03  0.7546771E-02  0.1253843E+00
          2   -1    0    0  502    0  0.00000000000E+00  0.00000000000E+00  0.55685798961E+03  0.55685798961E+03  0.00000000000E+00 0. -1.
         -1   -1    0    0    0  501 -0.00000000000E+00 -0.00000000000E+00 -0.61268509781E+02  0.61268509781E+02  0.00000000000E+00 0.  1.
         24    2    1    2    0    0  0.34486057183E+02 -0.13286366055E+02  0.21576087949E+02  0.91316348815E+02  0.80668037826E+02 0.  0.
         23    2    1    2    0    0  0.20541804820E+01 -0.76865707353E+02  0.34625684151E+03  0.36623517908E+03  0.91224171568E+02 0.  0.
        -11    1    3    3    0    0  0.13660068986E+02  0.30813997900E+02  0.25679112203E+02  0.42373538379E+02  0.00000000000E+00 0.  1.
         12    1    3    3    0    0  0.20825988197E+02 -0.44100363954E+02 -0.41030242545E+01  0.48942810435E+02  0.00000000000E+00 0. -1.
        -11    1    4    4    0    0  0.43891560684E+02 -0.25471252261E+02  0.11562731845E+03  0.12627323771E+03  0.00000000000E+00 0.  1.
         11    1    4    4    0    0 -0.41837380202E+02 -0.51394455092E+02  0.23062952306E+03  0.23996194137E+03  0.00000000000E+00 0. -1.
         21    1    1    2  502  501 -0.36540237665E+02  0.90152073408E+02  0.12775655037E+03  0.16057497149E+03  0.00000000000E+00 0.  1.
<scales pt_clust_5="13000.00000" pt_clust_6="13000.00000" pt_clust_7="13000.00000" pt_clust_8="13000.00000" pt_clust_9="83.27444"></scales>
<clustering>
<clus scale="   80.668">  5  6 -1 -1</clus>
<clus scale="   88.731">  2  5  1 -1</clus>
<clus scale="   83.274">  2  9  1 -1</clus>
<clus scale="   91.224">  7  8 -1 -1</clus>
<clus scale="  123.517">  1  5  2 -1</clus>
</clustering>
</event>
<event>
 9    2  0.3402837E-005  0.9966713E+02  0.7546771E-02  0.1285265E+00
          2   -1    0    0  502    0  0.00000000000E+00  0.00000000000E+00  0.75974527927E+03  0.75974527927E+03  0.00000000000E+00 0. -1.
         -1   -1    0    0    0  501 -0.00000000000E+00 -0.00000000000E+00 -0.24811721692E+02  0.24811721692E+02  0.00000000000E+00 0.  1.
         23    2    1    2    0    0 -0.36601626489E+02  0.26099130781E+02  0.11740335081E+03  0.15508659305E+03  0.90815532121E+02 0.  0.
         24    2    1    2    0    0  0.71726806438E+01 -0.36202682250E+02  0.42657722570E+03  0.43599900024E+03  0.82249116570E+02 0.  0.
        -11    1    4    4    0    0 -0.24356569901E+02 -0.48893991649E+02  0.22225755590E+03  0.22887176775E+03  0.00000000000E+00 0.  1.
         12    1    4    4    0    0  0.31529250545E+02  0.12691309399E+02  0.20431966980E+03  0.20712723249E+03  0.00000000000E+00 0. -1.
        -11    1    3    3    0    0 -0.57113011747E+02 -0.10945363817E+02  0.77604073665E+02  0.96974684064E+02  0.00000000000E+00 0.  1.
         11    1    3    3    0    0  0.20511385257E+02  0.37044494598E+02  0.39799277144E+02  0.58111908989E+02  0.00000000000E+00 0. -1.
         21    1    1    2  502  501  0.29428945845E+02  0.10103551469E+02  0.19095298107E+03  0.19347140767E+03  0.00000000000E+00 0. -1.
<scales pt_clust_5="13000.00000" pt_clust_6="13000.00000" pt_clust_7="13000.00000" pt_clust_8="13000.00000" pt_clust_9="31.11502"></scales>
<clustering>
<clus scale="   31.115">  1  9  2 -1</clus>
<clus scale="   82.249">  5  6 -1 -1</clus>
<clus scale="   90.816">  7  8 -1 -1</clus>
<clus scale="   91.929">  1  5  2 -1</clus>
<clus scale="   31.115">  1  5  2 -1</clus>
</clustering>
</event>
<event>
 9    2  0.3402837E-005  0.1164064E+03  0.7546771E-02  0.1253321E+00
          2   -1    0    0  502    0  0.00000000000E+00  0.00000000000E+00  0.12083470137E+04  0.12083470137E+04  0.00000000000E+00 0. -1.
         -1   -1    0    0    0  501 -0.00000000000E+00 -0.00000000000E+00 -0.20002114146E+02  0.20002114146E+02  0.00000000000E+00 0.  1.
         23    2    1    2    0    0  0.65187336098E+02  0.82667115723E+01  0.21684754051E+03  0.24473666684E+03  0.92495691584E+02 0.  0.
         24    2    1    2    0    0 -0.70961269627E+02  0.14707963879E+02  0.92605336863E+03  0.93236472657E+03  0.80481773131E+02 0.  0.
        -13    1    4    4    0    0 -0.85145324007E+01 -0.21094233789E+02  0.77656273841E+02  0.80919471254E+02  0.00000000000E+00 0.  1.
         14    1    4    4    0    0 -0.62446737226E+02  0.35802197668E+02  0.84839709479E+03  0.85144525532E+03  0.00000000000E+00 0. -1.
        -11    1    3    3    0    0  0.20532859294E+02  0.39191269068E+02  0.16043894878E+03  0.16642779265E+03  0.00000000000E+00 0. -1.
         11    1    3    3    0    0  0.44654476804E+02 -0.30924557496E+02  0.56408591730E+02  0.78308874184E+02  0.00000000000E+00 0.  1.
         21    1    1    2  502  501  0.57739335289E+01 -0.22974675451E+02  0.45443990399E+02  0.51247734426E+02  0.00000000000E+00 0. -1.
<scales pt_clust_5="13000.00000" pt_clust_6="13000.00000" pt_clust_7="13000.00000" pt_clust_8="13000.00000" pt_clust_9="23.68911"></scales>
<clustering>
<clus scale="   23.689">  2  9  1 -1</clus>
<clus scale="   80.482">  5  6 -1 -1</clus>
<clus scale="   92.496">  7  8 -1 -1</clus>
<clus scale="  107.109">  1  5  2 -1</clus>
<clus scale="  107.109">  1  5  2 -1</clus>
</clustering>
</event>
<event>
 9    2  0.3402837E-005  0.9218210E+02  0.7546771E-02  0.1304010E+00
         -1   -1    0    0    0  501 -0.00000000000E+00  0.00000000000E+00  0.50865263767E+02  0.50865263767E+02  0.00000000000E+00 0.  1.
          2   -1    0    0  502    0  0.00000000000E+00 -0.00000000000E+00 -0.50816756741E+03  0.50816756741E+03  0.00000000000E+00 0. -1.
         24    2    1    2    0    0 -0.14589790824E+02 -0.29910172164E+02 -0.13716127146E+02  0.88539463009E+02  0.80892669451E+02 0.  0.
         23    2    1    2    0    0  0.44273035694E+01  0.99529142032E+01 -0.43784300093E+03  0.44737297980E+03  0.91199934647E+02 0.  0.
        -13    1    3    3    0    0  0.31374816881E+02 -0.15819203464E+02  0.75999604343E+01  0.35949766774E+02  0.00000000000E+00 0.  1.
         14    1    3    3    0    0 -0.45964607705E+02 -0.14090968700E+02 -0.21316087580E+02  0.52589696235E+02  0.00000000000E+00 0. -1.
        -13    1    4    4    0    0  0.34478394374E+02  0.36454565222E+02 -0.20122689105E+03  0.20738841985E+03  0.00000000000E+00 0.  1.
         13    1    4    4    0    0 -0.30051090804E+02 -0.26501651019E+02 -0.23661610987E+03  0.23998455996E+03  0.00000000000E+00 0. -1.
         21    1    1    2  502  501  0.10162487254E+02  0.19957257961E+02 -0.57431755714E+01  0.23120388365E+02  0.00000000000E+00 0.  1.
<scales pt_clust_5="13000.00000" pt_clust_6="13000.00000" pt_clust_7="13000.00000" pt_clust_8="13000.00000" pt_clust_9="22.39572"></scales>
<clustering>
<clus scale="   22.396">  1  9  2 -1</clus>
<clus scale="   80.893">  5  6 -1 -1</clus>
<clus scale="   81.998">  1  5  2 -1</clus>
<clus scale="   91.200">  7  8 -1 -1</clus>
<clus scale="   92.182">  2  5  1 -1</clus>
</clustering>
</event>
<event>
 9    2  0.3402837E-005  0.1332268E+03  0.7546771E-02  0.1235807E+00
          2   -1    0    0  502    0  0.00000000000E+00  0.00000000000E+00  0.50254701223E+03  0.50254701223E+03  0.00000000000E+00 0. -1.
         -1   -1    0    0    0  501 -0.00000000000E+00 -0.00000000000E+00 -0.59347821609E+03  0.59347821609E+03  0.00000000000E+00 0.  1.
         24    2    1    2    0    0  0.59553470267E+02 -0.83255335523E+02 -0.53791229524E+03  0.55406677476E+03  0.84630294844E+02 0.  0.
         23    2    1    2    0    0 -0.15527894836E+02 -0.45839247801E+02  0.34307912262E+02  0.10732893836E+03  0.89443367601E+02 0.  0.
        -13    1    3    3    0    0  0.80586052689E+02 -0.54922222278E+02 -0.39773061332E+03  0.40951215264E+03  0.00000000000E+00 0.  1.
         14    1    3    3    0    0 -0.21032582422E+02 -0.28333113246E+02 -0.14018168192E+03  0.14455462212E+03  0.00000000000E+00 0. -1.
        -11    1    4    4    0    0 -0.51755277519E+02 -0.24442334516E+02  0.31080713433E+02  0.65131000415E+02  0.00000000000E+00 0. -1.
         11    1    4    4    0    0  0.36227382682E+02 -0.21396913285E+02  0.32271988292E+01  0.42197937940E+02  0.00000000000E+00 0.  1.
         21    1    1    2  502  501 -0.44025575430E+02  0.12909458332E+03  0.41267317911E+03  0.43462951521E+03  0.00000000000E+00 0. -1.
<scales pt_clust_5="13000.00000" pt_clust_6="13000.00000" pt_clust_7="13000.00000" pt_clust_8="13000.00000" pt_clust_9="102.89356"></scales>
<clustering>
<clus scale="   84.630">  5  6 -1 -1</clus>
<clus scale="   89.443">  7  8 -1 -1</clus>
<clus scale="  101.698">  1  7  2 -1</clus>
<clus scale="  102.894">  1  9  2 -1</clus>
<clus scale="  101.698">  1  5  2 -1</clus>
</clustering>
</event>
<event>
 9    2  0.3402837E-005  0.1113872E+03  0.7546771E-02  0.1261082E+00
          2   -1    0    0  502    0  0.00000000000E+00  0.00000000000E+00  0.27110515580E+03  0.27110515580E+03  0.00000000000E+00 0. -1.
         -1   -1    0    0    0  501 -0.00000000000E+00 -0.00000000000E+00 -0.95865132430E+02  0.95865132430E+02  0.00000000000E+00 0.  1.
         24    2    1    2    0    0  0.13252512040E+02  0.66354987837E+02  0.12678563650E+02  0.10489819901E+03  0.79147158460E+02 0.  0.
         23    2    1    2    0    0 -0.35426301847E+02 -0.60514043955E+02  0.19343261510E+03  0.22361663689E+03  0.87585679946E+02 0.  0.
        -13    1    3    3    0    0  0.23947811621E+02  0.59027247808E+02 -0.22381557420E+02  0.67517758981E+02  0.00000000000E+00 0.  1.
         14    1    3    3    0    0 -0.10695299581E+02  0.73277400293E+01  0.35060121070E+02  0.37380440026E+02  0.00000000000E+00 0. -1.
        -11    1    4    4    0    0 -0.63462217648E+02 -0.45505081401E+02  0.11525680297E+03  0.13922031508E+03  0.00000000000E+00 0.  1.
         11    1    4    4    0    0  0.28035915801E+02 -0.15008962554E+02  0.78175812134E+02  0.84396321807E+02  0.00000000000E+00 0. -1.
         21    1    1    2  502  501  0.22173789808E+02 -0.58409438822E+01 -0.30871155379E+02  0.38455452335E+02  0.00000000000E+00 0. -1.
<scales pt_clust_5="13000.00000" pt_clust_6="13000.00000" pt_clust_7="13000.00000" pt_clust_8="13000.00000" pt_clust_9="22.93019"></scales>
<clustering>
<clus scale="   22.930">  2  9  1 -1</clus>
<clus scale="   79.147">  5  6 -1 -1</clus>
<clus scale="   87.586">  7  8 -1 -1</clus>
<clus scale="  104.881">  2  5  1 -1</clus>
<clus scale="  111.387">  1  5  2 -1</clus>
</clustering>
</event>
<event>
 9    2  0.3402837E-005  0.1579176E+03  0.7546771E-02  0.1192776E+00
          2   -1    0    0  502    0  0.00000000000E+00  0.00000000000E+00  0.26403885397E+03  0.26403885397E+03  0.00000000000E+00 0. -1.
         -1   -1    0    0    0  501 -0.00000000000E+00 -0.00000000000E+00 -0.18910130586E+03  0.18910130586E+03  0.00000000000E+00 0.  1.
         23    2    1    2    0    0  0.10511750220E+03  0.23170315392E+01 -0.49886362384E+02  0.14803841774E+03  0.91496809079E+02 0.  0.
         24    2    1    2    0    0 -0.11739744410E+03 -0.80313326782E+02  0.15020337646E+03  0.22216600591E+03  0.81020303260E+02 0.  0.
        -13    1    4    4    0    0 -0.10471579754E+03 -0.96471966792E+02  0.12352265836E+03  0.18849425922E+03  0.00000000000E+00 0.  1.
         14    1    4    4    0    0 -0.12681646560E+02  0.16158640010E+02  0.26680718102E+02  0.33671746686E+02  0.00000000000E+00 0. -1.
        -13    1    3    3    0    0  0.81228089378E+02 -0.32327962138E+02 -0.58355490722E+02  0.10511166889E+03  0.00000000000E+00 0.  1.
         13    1    3    3    0    0  0.23889412818E+02  0.34644993677E+02  0.84691283377E+01  0.42926748846E+02  0.00000000000E+00 0. -1.
         21    1    1    2  502  501  0.12279941904E+02  0.77996295243E+02 -0.25379465967E+02  0.82935736191E+02  0.00000000000E+00 0. -1.
<scales pt_clust_5="13000.00000" pt_clust_6="13000.00000" pt_clust_7="13000.00000" pt_clust_8="13000.00000" pt_clust_9="78.95707"></scales>
<clustering>
<clus scale="   78.957">  2  9  1 -1</clus>
<clus scale="   81.020">  5  6 -1 -1</clus>
<clus scale="   91.497">  7  8 -1 -1</clus>
<clus scale="  152.087">  1  5  2 -1</clus>
<clus scale="  152.087">  1  5  2 -1</clus>
</clustering>
</event>
<event>
 9    2  0.3402837E-005  0.9137779E+02  0.7546771E-02  0.1305596E+00
          2   -1    0    0  502    0  0.00000000000E+00  0.00000000000E+00  0.80101340754E+03  0.80101340754E+03  0.00000000000E+00 0. -1.
         -1   -1    0    0    0  501 -0.00000000000E+00 -0.00000000000E+00 -0.82963744775E+02  0.82963744775E+02  0.00000000000E+00 0.  1.
         23    2    1    2    0    0  0.98996809807E+01  0.19694421389E+02  0.10829623230E+03  0.14222580877E+03  0.89522247690E+02 0.  0.
         24    2    1    2    0    0  0.11134078449E+02 -0.15757841164E+02  0.67145556225E+03  0.67644384958E+03  0.79695873768E+02 0.  0.
        -11    1    4    4    0    0 -0.93885943415E+01 -0.32742700858E+02  0.13177295078E+03  0.13610415394E+03  0.00000000000E+00 0.  1.
         12    1    4    4    0    0  0.20522672791E+02  0.16984859694E+02  0.53968261147E+03  0.54033969564E+03  0.00000000000E+00 0. -1.
        -11    1    3    3    0    0  0.12124002402E+02  0.55036644584E+02  0.59729238451E+02  0.82119459371E+02  0.00000000000E+00 0.  1.
         11    1    3    3    0    0 -0.22243214215E+01 -0.35342223195E+02  0.48566993850E+02  0.60106349396E+02  0.00000000000E+00 0. -1.
         21    1    1    2  502  501 -0.21033759430E+02 -0.39365802254E+01 -0.61702131794E+02  0.65307493961E+02  0.00000000000E+00 0.  1.
<scales pt_clust_5="13000.00000" pt_clust_6="13000.00000" pt_clust_7="13000.00000" pt_clust_8="13000.00000" pt_clust_9="21.39896"></scales>
<clustering>
<clus scale="   21.399">  2  9  1 -1</clus>
<clus scale="   79.696">  5  6 -1 -1</clus>
<clus scale="   81.775">  1  5  2 -1</clus>
<clus scale="   89.522">  7  8 -1 -1</clus>
<clus scale="   81.775">  1  5  2 -1</clus>
</clustering>
</event>
<event>
 9    2  0.3402837E-005  0.9933899E+02  0.7546771E-02  0.1285737E+00
         -1   -1    0    0    0  501 -0.00000000000E+00  0.00000000000E+00  0.18166664596E+03  0.18166664596E+03  0.00000000000E+00 0.  1.
          2   -1    0    0  502    0  0.00000000000E+00 -0.00000000000E+00 -0.64315778801E+03  0.64315778801E+03  0.00000000000E+00 0. -1.
         23    2    1    2    0    0 -0.39767859606E+02  0.60711696563E+02  0.13405279319E+03  0.17608474714E+03  0.88137926326E+02 0.  0.
         24    2    1    2    0    0  0.14133339467E+02 -0.43022825355E+02 -0.60822870727E+03  0.61511041047E+03  0.79799385546E+02 0.  0.
        -13    1    4    4    0    0  0.46723274659E+02 -0.30631140052E+02 -0.32847884763E+03  0.33319616516E+03  0.00000000000E+00 0.  1.
         14    1    4    4    0    0 -0.32589935192E+02 -0.12391685303E+02 -0.27974985964E+03  0.28191424531E+03  0.00000000000E+00 0. -1.
        -13    1    3    3    0    0 -0.66327229853E+02  0.56668005835E+02  0.10506239470E+03  0.13656013725E+03  0.00000000000E+00 0.  1.
         13    1    3    3    0    0  0.26559370247E+02  0.40436907274E+01  0.28990398492E+02  0.39524609895E+02  0.00000000000E+00 0. -1.
         21    1    1    2  502  501  0.25634520139E+02 -0.17688871208E+02  0.12684772018E+02  0.33629276360E+02  0.00000000000E+00 0.  1.
<scales pt_clust_5="13000.00000" pt_clust_6="13000.00000" pt_clust_7="13000.00000" pt_clust_8="13000.00000" pt_clust_9="31.14522"></scales>
<clustering>
<clus scale="   31.145">  1  9  2 -1</clus>
<clus scale="   79.799">  5  6 -1 -1</clus>
<clus scale="   88.138">  7  8 -1 -1</clus>
<clus scale="   92.021">  2  5  1 -1</clus>
<clus scale="   92.021">  2  5  1 -1</clus>
</clustering>
</event>
<event>
 9    2  0.3402837E-005  0.9423167E+02  0.7546771E-02  0.1298986E+00
         -1   -1    0    0    0  501 -0.00000000000E+00  0.00000000000E+00  0.35256935838E+03  0.35256935838E+03  0.00000000000E+00 0.  1.
          2   -1    0    0  502    0  0.00000000000E+00 -0.00000000000E+00 -0.52660438895E+02  0.52660438895E+02  0.00000000000E+00 0. -1.
         24    2    1    2    0    0 -0.46048339409E+02  0.55822482549E+01  0.20209648777E+03  0.22232512763E+03  0.80211351755E+02 0.  0.
         23    2    1    2    0    0  0.20390306949E+02 -0.75593078219E+00  0.12629665804E+02  0.93810721595E+02  0.90689618916E+02 0.  0.
        -13    1    3    3    0    0 -0.11709654084E+02 -0.32795397990E+02  0.44363317134E+02  0.56398209503E+02  0.00000000000E+00 0.  1.
         14    1    3    3    0    0 -0.34338685325E+02  0.38377646245E+02  0.15773317063E+03  0.16592691813E+03  0.00000000000E+00 0. -1.
        -11    1    4    4    0    0  0.33511523211E+02  0.16771333389E+02 -0.28591516903E+02  0.47135704624E+02  0.00000000000E+00 0. -1.
         11    1    4    4    0    0 -0.13121216263E+02 -0.17527264171E+02  0.41221182707E+02  0.46675016971E+02  0.00000000000E+00 0.  1.
         21    1    1    2  502  501  0.25658032461E+02 -0.48263174727E+01  0.85182765914E+02  0.89093948049E+02  0.00000000000E+00 0. -1.
<scales pt_clust_5="13000.00000" pt_clust_6="13000.00000" pt_clust_7="13000.00000" pt_clust_8="13000.00000" pt_clust_9="26.10801"></scales>
<clustering>
<clus scale="   26.108">  1  9  2 -1</clus>
<clus scale="   80.211">  5  6 -1 -1</clus>
<clus scale="   84.195">  1  5  2 -1</clus>
<clus scale="   90.690">  7  8 -1 -1</clus>
<clus scale="   94.232">  2  5  1 -1</clus>
</clustering>
</event>
<event>
 9    2  0.3402837E-005  0.1356578E+03  0.7546771E-02  0.1226285E+00
         -1   -1    0    0    0  501 -0.00000000000E+00  0.00000000000E+00  0.20107020977E+03  0.20107020977E+03  0.00000000000E+00 0.  1.
          2   -1    0    0  502    0  0.00000000000E+00 -0.00000000000E+00 -0.20201457194E+03  0.20201457194E+03  0.00000000000E+00 0. -1.
         24    2    1    2    0    0  0.29095827182E+02 -0.66633680836E+00  0.93741458001E+02  0.12710919422E+03  0.80760603899E+02 0.  0.
         23    2    1    2    0    0 -0.81665195865E+02  0.66433667673E+02 -0.11613567199E+03  0.18909074142E+03  0.10576000079E+03 0.  0.
        -11    1    3    3    0    0  0.49282135502E+02 -0.23724427000E+02  0.53326732038E+02  0.76389250984E+02  0.00000000000E+00 0.  1.
         12    1    3    3    0    0 -0.20186308320E+02  0.23058090191E+02  0.40414725963E+02  0.50719943233E+02  0.00000000000E+00 0. -1.
        -13    1    4    4    0    0  0.11260244500E+02 -0.19248916028E+02 -0.23378381561E+02  0.32308862544E+02  0.00000000000E+00 0.  1.
         13    1    4    4    0    0 -0.92925440365E+02  0.85682583701E+02 -0.92757290431E+02  0.15678187888E+03  0.00000000000E+00 0. -1.
         21    1    1    2  502  501  0.52569368683E+02 -0.65767330865E+02  0.21449851824E+02  0.86884846067E+02  0.00000000000E+00 0.  1.
<scales pt_clust_5="13000.00000" pt_clust_6="13000.00000" pt_clust_7="13000.00000" pt_clust_8="13000.00000" pt_clust_9="84.19549"></scales>
<clustering>
<clus scale="   80.761">  5  6 -1 -1</clus>
<clus scale="   84.195">  1  9  2 -1</clus>
<clus scale="  105.760">  7  8 -1 -1</clus>
<clus scale="  117.218">  1  5  2 -1</clus>
<clus scale="  135.658">  2  5  1 -1</clus>
</clustering>
</event>
<event>
 9    2  0.3402837E-005  0.8710940E+02  0.7546771E-02  0.1316892E+00
          2   -1    0    0  502    0  0.00000000000E+00  0.00000000000E+00  0.28051451398E+03  0.28051451398E+03  0.00000000000E+00 0. -1.
         -1   -1    0    0    0  501 -0.00000000000E+00 -0.00000000000E+00 -0.15279677150E+03  0.15279677150E+03  0.00000000000E+00 0.  1.
         24    2    1    2    0    0  0.98131682691E+01  0.74692103248E+02 -0.92816238895E+02  0.14457803212E+03  0.81318783874E+02 0.  0.
         23    2    1    2    0    0 -0.14266452930E+01 -0.28923416204E+02  0.22912891680E+03  0.24141539842E+03  0.70304585620E+02 0.  0.
        -13    1    3    3    0    0 -0.19783320103E+02 -0.67634903379E+01 -0.33739343239E+02  0.39692163433E+02  0.00000000000E+00 0.  1.
         14    1    3    3    0    0  0.29596488372E+02  0.81455593586E+02 -0.59076895656E+02  0.10488586869E+03  0.00000000000E+00 0. -1.
        -11    1    4    4    0    0 -0.25033491066E+02 -0.35152250411E+02  0.19330084574E+03  0.19805951971E+03  0.00000000000E+00 0.  1.
         11    1    4    4    0    0  0.23606845773E+02  0.62288342074E+01  0.35828071058E+02  0.43355878709E+02  0.00000000000E+00 0. -1.
         21    1    1    2  502  501 -0.83865229761E+01 -0.45768687044E+02 -0.85949354149E+01  0.47317854940E+02  0.00000000000E+00 0.  1.
<scales pt_clust_5="13000.00000" pt_clust_6="13000.00000" pt_clust_7="13000.00000" pt_clust_8="13000.00000" pt_clust_9="46.53070"></scales>
<clustering>
<clus scale="   46.531">  2  9  1 -1</clus>
<clus scale="   70.305">  7  8 -1 -1</clus>
<clus scale="   76.929">  1  7  2 -1</clus>
<clus scale="   81.319">  5  6 -1 -1</clus>
<clus scale="   76.929">  1  5  2 -1</clus>
</clustering>
</event>
<event>
 9    2  0.3402837E-005  0.9337701E+02  0.7546771E-02  0.1300227E+00
          2   -1    0    0  502    0  0.00000000000E+00  0.00000000000E+00  0.81966296975E+03  0.81966296975E+03  0.00000000000E+00 0. -1.
         -1   -1    0    0    0  501 -0.00000000000E+00 -0.00000000000E+00 -0.19787286249E+02  0.19787286249E+02  0.00000000000E+00 0.  1.
         23    2    1    2    0    0  0.35587509900E+02  0.20815511257E+02  0.16217925683E+03  0.19024647237E+03  0.90508853344E+02 0.  0.
         24    2    1    2    0    0 -0.13313320145E+02 -0.14084516058E+02  0.59240907813E+03  0.59828826769E+03  0.81392366445E+02 0.  0.
        -13    1    4    4    0    0 -0.46211916133E+02  0.70558403018E+00  0.27781835515E+03  0.28163642787E+03  0.00000000000E+00 0.  1.
         14    1    4    4    0    0  0.32898595988E+02 -0.14790100088E+02  0.31459072298E+03  0.31665183982E+03  0.00000000000E+00 0. -1.
        -13    1    3    3    0    0  0.34931603719E+02 -0.15865776135E+02  0.19716340276E+02  0.43135529029E+02  0.00000000000E+00 0.  1.
         13    1    3    3    0    0  0.65590618073E+00  0.36681287392E+02  0.14246291655E+03  0.14711094334E+03  0.00000000000E+00 0. -1.
         21    1    1    2  502  501 -0.22274189755E+02 -0.67309951998E+01  0.45287348540E+02  0.50915515940E+02  0.00000000000E+00 0.  1.
<scales pt_clust_5="13000.00000" pt_clust_6="13000.00000" pt_clust_7="13000.00000" pt_clust_8="13000.00000" pt_clust_9="23.26899"></scales>
<clustering>
<clus scale="   23.269">  2  9  1 -1</clus>
<clus scale="   81.392">  5  6 -1 -1</clus>
<clus scale="   84.570">  1  5  2 -1</clus>
<clus scale="   90.509">  7  8 -1 -1</clus>
<clus scale="   84.570">  1  5  2 -1</clus>
</clustering>
</event>
<event>
 9    2  0.3402837E-005  0.1931454E+03  0.7546771E-02  0.1191458E+00
         -1   -1    0    0    0  501 -0.00000000000E+00  0.00000000000E+00  0.49056143873E+03  0.49056143873E+03  0.00000000000E+00 0.  1.
          2   -1    0    0  502    0  0.00000000000E+00 -0.00000000000E+00 -0.18659025277E+03  0.18659025277E+03  0.00000000000E+00 0. -1.
         23    2    1    2    0    0  0.12269198896E+03  0.87299002885E+02  0.19364265402E+02  0.17704718653E+03  0.91083980066E+02 0.  0.
         24    2    1    2    0    0  0.20183432238E+02  0.14638799453E+02 -0.65968143799E+02  0.10804892565E+03  0.81860301438E+02 0.  0.
        -11    1    4    4    0    0 -0.12078581785E+02  0.22322238468E+02  0.83074634725E+01  0.26705587758E+02  0.00000000000E+00 0.  1.
         12    1    4    4    0    0  0.32262014023E+02 -0.76834390148E+01 -0.74275607271E+02  0.81343337892E+02  0.00000000000E+00 0. -1.
        -11    1    3    3    0    0  0.11161817536E+02 -0.18679430273E+02  0.62361954597E+01  0.22636197115E+02  0.00000000000E+00 0.  1.
         11    1    3    3    0    0  0.11153017142E+03  0.10597843316E+03  0.13128069942E+02  0.15441098942E+03  0.00000000000E+00 0. -1.
         21    1    1    2  502  501 -0.14287542120E+03 -0.10193780234E+03  0.35057506435E+03  0.39205557932E+03  0.00000000000E+00 0.  1.
<scales pt_clust_5="13000.00000" pt_clust_6="13000.00000" pt_clust_7="13000.00000" pt_clust_8="13000.00000" pt_clust_9="170.31991"></scales>
<clustering>
<clus scale="   81.860">  5  6 -1 -1</clus>
<clus scale="   85.573">  2  5  1 -1</clus>
<clus scale="   91.084">  7  8 -1 -1</clus>
<clus scale="  170.320">  1  9  2 -1</clus>
<clus scale="   85.573">  2  5  1 -1</clus>
</clustering>
</event>
<event>
 9    2  0.3402837E-005  0.1048207E+03  0.7546771E-02  0.1278060E+00
          2   -1    0    0  502    0  0.00000000000E+00  0.00000000000E+00  0.99863543817E+02  0.99863543817E+02  0.00000000000E+00 0. -1.
         -1   -1    0    0    0  501 -0.00000000000E+00 -0.00000000000E+00 -0.38209207331E+03  0.38209207331E+03  0.00000000000E+00 0.  1.
         24    2    1    2    0    0 -0.39285848070E+02 -0.59853504993E+01 -0.26308922816E+03  0.27567512651E+03  0.72122334433E+02 0.  0.
         23    2    1    2    0    0  0.55864140757E+02 -0.10155484449E+02  0.61480664343E+02  0.12240591040E+03  0.89327480236E+02 0.  0.
        -11    1    3    3    0    0 -0.56830880285E+02  0.69466193343E+01 -0.15107574721E+03  0.16156078073E+03  0.00000000000E+00 0.  1.
         12    1    3    3    0    0  0.17545032215E+02 -0.12931969834E+02 -0.11201348095E+03  0.11411434578E+03  0.00000000000E+00 0. -1.
        -11    1    4    4    0    0  0.23711532749E+02  0.39376595979E+02  0.19385216046E+02  0.49885265333E+02  0.00000000000E+00 0.  1.
         11    1    4    4    0    0  0.32152608008E+02 -0.49532080428E+02  0.42095448297E+02  0.72520645064E+02  0.00000000000E+00 0. -1.
         21    1    1    2  502  501 -0.16578292687E+02  0.16140834948E+02 -0.80619965683E+02  0.83874580226E+02  0.00000000000E+00 0.  1.
<scales pt_clust_5="13000.00000" pt_clust_6="13000.00000" pt_clust_7="13000.00000" pt_clust_8="13000.00000" pt_clust_9="23.13798"></scales>
<clustering>
<clus scale="   23.138">  2  9  1 -1</clus>
<clus scale="   72.122">  5  6 -1 -1</clus>
<clus scale="   89.327">  7  8 -1 -1</clus>
<clus scale="   90.607">  2  5  1 -1</clus>
<clus scale="  104.821">  1  5  2 -1</clus>
</clustering>
</event>
<event>
 9    2  0.3402837E-005  0.1535838E+03  0.7546771E-02  0.1197982E+00
         -1   -1    0    0    0  501 -0.00000000000E+00  0.00000000000E+00  0.23835912977E+03  0.23835912977E+03  0.00000000000E+00 0.  1.
          2   -1    0    0  502    0  0.00000000000E+00 -0.00000000000E+00 -0.19829087784E+03  0.19829087784E+03  0.00000000000E+00 0. -1.
         23    2    1    2    0    0 -0.96497857726E+02  0.10114535347E+03  0.14386111414E+03  0.21992338600E+03  0.90155734550E+02 0.  0.
         24    2    1    2    0    0  0.10083327978E+03 -0.68310046196E+02 -0.11089950034E+03  0.18285247817E+03  0.79389652177E+02 0.  0.
        -13    1    4    4    0    0  0.25429791201E+02 -0.36424749014E+02  0.71881016308E+00  0.44429194336E+02  0.00000000000E+00 0.  1.
         14    1    4    4    0    0  0.75403488579E+02 -0.31885297182E+02 -0.11161831051E+03  0.13842328383E+03  0.00000000000E+00 0. -1.
        -11    1    3    3    0    0 -0.73064129665E+02  0.21319002415E+02  0.10061555340E+03  0.12616004317E+03  0.00000000000E+00 0.  1.
         11    1    3    3    0    0 -0.23433728061E+02  0.79826351055E+02  0.43245560741E+02  0.93763342823E+02  0.00000000000E+00 0. -1.
         21    1    1    2  502  501 -0.43354220542E+01 -0.32835307274E+02  0.71066381305E+01  0.33874143438E+02  0.00000000000E+00 0. -1.
<scales pt_clust_5="13000.00000" pt_clust_6="13000.00000" pt_clust_7="13000.00000" pt_clust_8="13000.00000" pt_clust_9="33.12029"></scales>
<clustering>
<clus scale="   33.120">  1  9  2 -1</clus>
<clus scale="   79.390">  5  6 -1 -1</clus>
<clus scale="   90.156">  7  8 -1 -1</clus>
<clus scale="  147.522">  2  5  1 -1</clus>
<clus scale="  147.522">  2  5  1 -1</clus>
</clustering>
</event>
<event>
 9    2  0.3402837E-005  0.1033394E+03  0.7546771E-02  0.1278341E+00
         -1   -1    0    0    0  501 -0.00000000000E+00  0.00000000000E+00  0.12801164756E+03  0.12801164756E+03  0.00000000000E+00 0.  1.
          2   -1    0    0  502    0  0.00000000000E+00 -0.00000000000E+00 -0.31989080806E+03  0.31989080806E+03  0.00000000000E+00 0. -1.
         23    2    1    2    0    0 -0.51728546029E+01  0.37564832225E+02  0.82519001980E+02  0.12906117360E+03  0.91703466662E+02 0.  0.
         24    2    1    2    0    0  0.27099250329E+02 -0.40366940033E+02 -0.28041892337E+03  0.29593127986E+03  0.81096797711E+02 0.  0.
        -13    1    4    4    0    0  0.49528887297E+02 -0.48562047413E+02 -0.18519837049E+03  0.19776202759E+03  0.00000000000E+00 0.  1.
         14    1    4    4    0    0 -0.22429636969E+02  0.81951073800E+01 -0.95220552885E+02  0.98169252270E+02  0.00000000000E+00 0. -1.
        -11    1    3    3    0    0 -0.48253738741E+02  0.24579441028E+02  0.42397499576E+02  0.68775869271E+02  0.00000000000E+00 0.  1.
         11    1    3    3    0    0  0.43080884138E+02  0.12985391197E+02  0.40121502405E+02  0.60285304327E+02  0.00000000000E+00 0. -1.
         21    1    1    2  502  501 -0.21926395726E+02  0.28021078080E+01  0.60207608919E+01  0.22910002170E+02  0.00000000000E+00 0. -1.
<scales pt_clust_5="13000.00000" pt_clust_6="13000.00000" pt_clust_7="13000.00000" pt_clust_8="13000.00000" pt_clust_9="22.10472"></scales>
<clustering>
<clus scale="   22.105">  1  9  2 -1</clus>
<clus scale="   81.097">  5  6 -1 -1</clus>
<clus scale="   91.703">  7  8 -1 -1</clus>
<clus scale="   94.054">  2  5  1 -1</clus>
<clus scale="   94.054">  2  5  1 -1</clus>
</clustering>
</event>
<event>
 9    2  0.3402837E-005  0.1777926E+03  0.7546771E-02  0.1171233E+00
         -1   -1    0    0    0  501 -0.00000000000E+00  0.00000000000E+00  0.21522862920E+03  0.21522862920E+03  0.00000000000E+00 0.  1.
          2   -1    0    0  502    0  0.00000000000E+00 -0.00000000000E+00 -0.24036009676E+03  0.24036009676E+03  0.00000000000E+00 0. -1.
         23    2    1    2    0    0  0.16036524637E+03  0.57727452169E+02  0.94034209455E+02  0.21480229031E+03  0.90819163164E+02 0.  0.
         24    2    1    2    0    0 -0.11055897631E+03 -0.19026742664E+02 -0.11117315382E+03  0.17720743062E+03  0.80359810608E+02 0.  0.
        -11    1    4    4    0    0 -0.51713971011E+02 -0.45890497382E+02 -0.35720296211E+02  0.77821668635E+02  0.00000000000E+00 0.  1.
         12    1    4    4    0    0 -0.58845005295E+02  0.26863754717E+02 -0.75452857604E+02  0.99385761990E+02  0.00000000000E+00 0. -1.
        -11    1    3    3    0    0  0.97313924417E+02  0.18781195338E+02  0.99567143850E+02  0.14048611788E+03  0.00000000000E+00 0.  1.
         11    1    3    3    0    0  0.63051321948E+02  0.38946256831E+02 -0.55329343954E+01  0.74316172422E+02  0.00000000000E+00 0. -1.
         21    1    1    2  502  501 -0.49806270059E+02 -0.38700709504E+02 -0.79925232011E+01  0.63579005029E+02  0.00000000000E+00 0. -1.
<scales pt_clust_5="13000.00000" pt_clust_6="13000.00000" pt_clust_7="13000.00000" pt_clust_8="13000.00000" pt_clust_9="63.07463"></scales>
<clustering>
<clus scale="   63.075">  2  9  1 -1</clus>
<clus scale="   80.360">  5  6 -1 -1</clus>
<clus scale="   90.819">  7  8 -1 -1</clus>
<clus scale="  172.684">  2  5  1 -1</clus>
<clus scale="   63.075">  2  5  1 -1</clus>
</clustering>
</event>
<event>
 9    2  0.3402837E-005  0.1991126E+03  0.7546771E-02  0.1151323E+00
          2   -1    0    0  502    0  0.00000000000E+00  0.00000000000E+00  0.11761906920E+04  0.11761906920E+04  0.00000000000E+00 0. -1.
         -1   -1    0    0    0  501 -0.00000000000E+00 -0.00000000000E+00 -0.50905867394E+02  0.50905867394E+02  0.00000000000E+00 0.  1.
         23    2    1    2    0    0 -0.16058077732E+03 -0.67067939035E+02  0.32656659360E+03  0.38059182631E+03  0.88994964519E+02 0.  0.
         24    2    1    2    0    0  0.14987229163E+03  0.10165131083E+03  0.78193333266E+03  0.80659966969E+03  0.79928703428E+02 0.  0.
        -11    1    4    4    0    0  0.58575126704E+02 -0.48133477434E+00  0.29521431530E+03  0.30096971460E+03  0.00000000000E+00 0.  1.
         12    1    4    4    0    0  0.91297164928E+02  0.10213264561E+03  0.48671901736E+03  0.50562995509E+03  0.00000000000E+00 0. -1.
        -11    1    3    3    0    0 -0.14180065052E+03 -0.19442742825E+02  0.22154183012E+03  0.26375410372E+03  0.00000000000E+00 0.  1.
         11    1    3    3    0    0 -0.18780126801E+02 -0.47625196210E+02  0.10502476348E+03  0.11683772259E+03  0.00000000000E+00 0. -1.
         21    1    1    2  502  501  0.10708485691E+02 -0.34583371797E+02  0.16784898331E+02  0.39905063371E+02  0.00000000000E+00 0.  1.
<scales pt_clust_5="13000.00000" pt_clust_6="13000.00000" pt_clust_7="13000.00000" pt_clust_8="13000.00000" pt_clust_9="36.20333"></scales>
<clustering>
<clus scale="   36.203">  2  9  1 -1</clus>
<clus scale="   79.929">  5  6 -1 -1</clus>
<clus scale="   88.995">  7  8 -1 -1</clus>
<clus scale="  195.229">  1  5  2 -1</clus>
<clus scale="  195.229">  1  5  2 -1</clus>
</clustering>
</event>
<event>
 9    2  0.3402837E-005  0.1403617E+03  0.7546771E-02  0.1214785E+00
         -1   -1    0    0    0  501 -0.00000000000E+00  0.00000000000E+00  0.87719359328E+02  0.87719359328E+02  0.00000000000E+00 0.  1.
          2   -1    0    0  502    0  0.00000000000E+00 -0.00000000000E+00 -0.96788997808E+03  0.96788997808E+03  0.00000000000E+00 0. -1.
         23    2    1    2    0    0  0.54976024446E+01 -0.11369410515E+03 -0.34293187204E+03  0.37269478397E+03  0.91337615232E+02 0.  0.
         24    2    1    2    0    0  0.12642179435E+02  0.10282034136E+03 -0.60117500171E+03  0.61557114151E+03  0.82368685098E+02 0.  0.
        -11    1    4    4    0    0 -0.12587512757E+02  0.10433482992E+03 -0.52149020505E+03  0.53197390554E+03  0.00000000000E+00 0.  1.
         12    1    4    4    0    0  0.25229692192E+02 -0.15144885608E+01 -0.79684796657E+02  0.83597235971E+02  0.00000000000E+00 0. -1.
        -13    1    3    3    0    0  0.24741072526E+02 -0.23955181846E+02 -0.19923308296E+03  0.20218751879E+03  0.00000000000E+00 0. -1.
         13    1    3    3    0    0 -0.19243470081E+02 -0.89738923301E+02 -0.14369878908E+03  0.17050726518E+03  0.00000000000E+00 0.  1.
         21    1    1    2  502  501 -0.18139781879E+02  0.10873763788E+02  0.63936255004E+02  0.67343411924E+02  0.00000000000E+00 0.  1.
<scales pt_clust_5="13000.00000" pt_clust_6="13000.00000" pt_clust_7="13000.00000" pt_clust_8="13000.00000" pt_clust_9="21.14924"></scales>
<clustering>
<clus scale="   21.149">  1  9  2 -1</clus>
<clus scale="   82.369">  5  6 -1 -1</clus>
<clus scale="   91.338">  7  8 -1 -1</clus>
<clus scale="  134.698">  2  5  1 -1</clus>
<clus scale="  134.698">  2  5  1 -1</clus>
</clustering>
</event>
<event>
 9    2  0.3402837E-005  0.3314421E+03  0.7546771E-02  0.1070805E+00
          2   -1    0    0  502    0  0.00000000000E+00  0.00000000000E+00  0.88102085744E+03  0.88102085744E+03  0.00000000000E+00 0. -1.
         -1   -1    0    0    0  501 -0.00000000000E+00 -0.00000000000E+00 -0.47444817363E+03  0.47444817363E+03  0.00000000000E+00 0.  1.
         24    2    1    2    0    0  0.47713301894E+02  0.28143067256E+03 -0.14266152796E+03  0.32936903527E+03  0.81558979870E+02 0.  0.
         23    2    1    2    0    0 -0.57887144347E+02 -0.31820719577E+03  0.74989637801E+03  0.82184201017E+03  0.92048742623E+02 0.  0.
        -11    1    3    3    0    0  0.59463523338E+02  0.24448449555E+03 -0.14522473604E+03  0.29051472102E+03  0.00000000000E+00 0.  1.
         12    1    3    3    0    0 -0.11750221444E+02  0.36946177011E+02  0.25632080848E+01  0.38854314244E+02  0.00000000000E+00 0. -1.
        -11    1    4    4    0    0  0.17889180073E+02 -0.15837308005E+03  0.35789795681E+03  0.39178183053E+03  0.00000000000E+00 0.  1.
         11    1    4    4    0    0 -0.75776324420E+02 -0.15983411572E+03  0.39199842120E+03  0.43006017964E+03  0.00000000000E+00 0. -1.
         21    1    1    2  502  501  0.10173842453E+02  0.36776523209E+02 -0.20066216624E+03  0.20425798562E+03  0.00000000000E+00 0.  1.
<scales pt_clust_5="13000.00000" pt_clust_6="13000.00000" pt_clust_7="13000.00000" pt_clust_8="13000.00000" pt_clust_9="38.15783"></scales>
<clustering>
<clus scale="   38.158">  2  9  1 -1</clus>
<clus scale="   81.559">  5  6 -1 -1</clus>
<clus scale="   92.049">  7  8 -1 -1</clus>
<clus scale="  328.683">  2  5  1 -1</clus>
<clus scale="  331.442">  1  5  2 -1</clus>
</clustering>
</event>
<event>
 9    2  0.3402837E-005  0.1109557E+03  0.7546771E-02  0.1263473E+00
          2   -1    0    0  502    0  0.00000000000E+00  0.00000000000E+00  0.99559993416E+03  0.99559993416E+03  0.00000000000E+00 0. -1.
         -1   -1    0    0    0  501 -0.00000000000E+00 -0.00000000000E+00 -0.15048182348E+02  0.15048182348E+02  0.00000000000E+00 0.  1.
         23    2    1    2    0    0  0.24117946490E+02 -0.58553479740E+02  0.39845304818E+03  0.41389122820E+03  0.92363043709E+02 0.  0.
         24    2    1    2    0    0 -0.41919123981E+02  0.45469197470E+02  0.53739659451E+03  0.54689348567E+03  0.80453241117E+02 0.  0.
        -11    1    4    4    0    0  0.12675785604E+02  0.44805063795E+02  0.22607768878E+03  0.23082307217E+03  0.00000000000E+00 0.  1.
         12    1    4    4    0    0 -0.54594909585E+02  0.66413367502E+00  0.31131890573E+03  0.31607041350E+03  0.00000000000E+00 0. -1.
        -11    1    3    3    0    0 -0.29161813873E+02 -0.39166712584E+02  0.25513383761E+03  0.25976473559E+03  0.00000000000E+00 0. -1.
         11    1    3    3    0    0  0.53279760363E+02 -0.19386767156E+02  0.14331921057E+03  0.15412649261E+03  0.00000000000E+00 0.  1.
         21    1    1    2  502  501  0.17801177491E+02  0.13084282270E+02  0.44702109129E+02  0.49863402643E+02  0.00000000000E+00 0.  1.
<scales pt_clust_5="13000.00000" pt_clust_6="13000.00000" pt_clust_7="13000.00000" pt_clust_8="13000.00000" pt_clust_9="22.09254"></scales>
<clustering>
<clus scale="   22.093">  2  9  1 -1</clus>
<clus scale="   80.453">  5  6 -1 -1</clus>
<clus scale="   92.363">  7  8 -1 -1</clus>
<clus scale="  101.257">  1  5  2 -1</clus>
<clus scale="  101.257">  1  5  2 -1</clus>
</clustering>
</event>
<event>
 9    2  0.3402837E-005  0.9302848E+02  0.7546771E-02  0.1300963E+00
          4   -1    0    0  502    0  0.00000000000E+00  0.00000000000E+00  0.48428656794E+02  0.48428656794E+02  0.00000000000E+00 0. -1.
         -3   -1    0    0    0  501 -0.00000000000E+00 -0.00000000000E+00 -0.39716164075E+03  0.39716164075E+03  0.00000000000E+00 0.  1.
         24    2    1    2    0    0  0.53157043474E+01  0.21916537214E+02 -0.23416331836E+03  0.24893625940E+03  0.81413821087E+02 0.  0.
         23    2    1    2    0    0 -0.91703873299E+01  0.33642750294E+02 -0.42992972959E+02  0.10596271585E+03  0.90353587512E+02 0.  0.
        -11    1    3    3    0    0 -0.22921385698E+02  0.34549951238E+02 -0.19323215075E+03  0.19763034467E+03  0.00000000000E+00 0.  1.
         12    1    3    3    0    0  0.28237090045E+02 -0.12633414025E+02 -0.40931167611E+02  0.51305914729E+02  0.00000000000E+00 0. -1.
        -11    1    4    4    0    0  0.35242997724E+02  0.38449398616E+02 -0.24188144723E+02  0.57493403862E+02  0.00000000000E+00 0.  1.
         11    1    4    4    0    0 -0.44413385054E+02 -0.48066483224E+01 -0.18804828236E+02  0.48469311992E+02  0.00000000000E+00 0. -1.
         21    1    1    2  502  501  0.38546829825E+01 -0.55559287508E+02 -0.71576692633E+02  0.90691322283E+02  0.00000000000E+00 0. -1.
<scales pt_clust_5="13000.00000" pt_clust_6="13000.00000" pt_clust_7="13000.00000" pt_clust_8="13000.00000" pt_clust_9="55.69285"></scales>
<clustering>
<clus scale="   55.693">  2  9  1 -1</clus>
<clus scale="   81.414">  5  6 -1 -1</clus>
<clus scale="   84.373">  2  5  1 -1</clus>
<clus scale="   90.354">  7  8 -1 -1</clus>
<clus scale="   93.028">  1  5  2 -1</clus>
</clustering>
</event>
<event>
 9    2  0.3402837E-005  0.2153695E+03  0.7546771E-02  0.1138011E+00
         -1   -1    0    0    0  501 -0.00000000000E+00  0.00000000000E+00  0.47987332205E+03  0.47987332205E+03  0.00000000000E+00 0.  1.
          2   -1    0    0  502    0  0.00000000000E+00 -0.00000000000E+00 -0.10368824593E+04  0.10368824593E+04  0.00000000000E+00 0. -1.
         23    2    1    2    0    0 -0.13561755046E+03  0.14343516247E+03  0.22570754761E+03  0.31372441377E+03  0.92267789185E+02 0.  0.
         24    2    1    2    0    0  0.15154947116E+03 -0.12200892364E+03 -0.98064229758E+03  0.10033129208E+04  0.84404274531E+02 0.  0.
        -13    1    4    4    0    0  0.64279743481E+02 -0.15946955162E+02 -0.20001914449E+03  0.21069847879E+03  0.00000000000E+00 0.  1.
         14    1    4    4    0    0  0.87269727683E+02 -0.10606196848E+03 -0.78062315309E+03  0.79261444200E+03  0.00000000000E+00 0. -1.
        -11    1    3    3    0    0 -0.29436336708E+02  0.28535197219E+02  0.11493888324E+03  0.12203156264E+03  0.00000000000E+00 0.  1.
         11    1    3    3    0    0 -0.10618121375E+03  0.11489996525E+03  0.11076866437E+03  0.19169285113E+03  0.00000000000E+00 0. -1.
         21    1    1    2  502  501 -0.15931920701E+02 -0.21426238830E+02  0.19792561274E+03  0.19971844678E+03  0.00000000000E+00 0.  1.
<scales pt_clust_5="13000.00000" pt_clust_6="13000.00000" pt_clust_7="13000.00000" pt_clust_8="13000.00000" pt_clust_9="26.70037"></scales>
<clustering>
<clus scale="   26.700">  1  9  2 -1</clus>
<clus scale="   84.404">  5  6 -1 -1</clus>
<clus scale="   92.268">  7  8 -1 -1</clus>
<clus scale="  212.120">  2  5  1 -1</clus>
<clus scale="  212.120">  2  5  1 -1</clus>
</clustering>
</event>
<event>
 9    2  0.3402837E-005  0.9627990E+02  0.7546771E-02  0.1293329E+00
         -1   -1    0    0    0  501 -0.00000000000E+00  0.00000000000E+00  0.23390178393E+02  0.23390178393E+02  0.00000000000E+00 0.  1.
          2   -1    0    0  502    0  0.00000000000E+00 -0.00000000000E+00 -0.53350669102E+03  0.53350669102E+03  0.00000000000E+00 0. -1.
         23    2    1    2    0    0  0.23092240164E+02 -0.41326299543E+02 -0.23552101981E+03  0.25702792175E+03  0.91389754326E+02 0.  0.
         24    2    1    2    0    0 -0.13698477372E+01  0.19740501348E+02 -0.23529122905E+03  0.25004290862E+03  0.82267428595E+02 0.  0.
        -11    1    4    4    0    0 -0.21189626158E+02  0.13516252353E+02 -0.16052933499E+02  0.29822575481E+02  0.00000000000E+00 0.  1.
         12    1    4    4    0    0  0.19819778421E+02  0.62242489945E+01 -0.21923829555E+03  0.22022033314E+03  0.00000000000E+00 0. -1.
        -11    1    3    3    0    0 -0.32506031053E+02 -0.27138580573E+02 -0.69648327954E+02  0.81510945259E+02  0.00000000000E+00 0.  1.
         11    1    3    3    0    0  0.55598271217E+02 -0.14187718969E+02 -0.16587269186E+03  0.17551697649E+03  0.00000000000E+00 0. -1.
         21    1    1    2  502  501 -0.21722392427E+02  0.21585798195E+02 -0.39304263756E+02  0.49826039034E+02  0.00000000000E+00 0.  1.
<scales pt_clust_5="13000.00000" pt_clust_6="13000.00000" pt_clust_7="13000.00000" pt_clust_8="13000.00000" pt_clust_9="30.62367"></scales>
<clustering>
<clus scale="   30.624">  1  9  2 -1</clus>
<clus scale="   82.267">  5  6 -1 -1</clus>
<clus scale="   87.668">  2  5  1 -1</clus>
<clus scale="   91.390">  7  8 -1 -1</clus>
<clus scale="   87.668">  2  5  1 -1</clus>
</clustering>
</event>
<event>
 9    2  0.3402837E-005  0.9480742E+02  0.7546771E-02  0.1299056E+00
          2   -1    0    0  502    0  0.00000000000E+00  0.00000000000E+00  0.16895865051E+03  0.16895865051E+03  0.00000000000E+00 0. -1.
         -1   -1    0    0    0  501 -0.00000000000E+00 -0.00000000000E+00 -0.36613584418E+03  0.36613584418E+03  0.00000000000E+00 0.  1.
         24    2    1    2    0    0  0.33586377932E+02  0.93712398811E+01 -0.23170693361E+03  0.24746793457E+03  0.79601574318E+02 0.  0.
         23    2    1    2    0    0 -0.18537892458E+02  0.11395682509E+02  0.14554860566E+03  0.17368398456E+03  0.92239985069E+02 0.  0.
        -11    1    3    3    0    0  0.43520850432E+02 -0.16003843915E+02 -0.20158187503E+03  0.20684641593E+03  0.00000000000E+00 0.  1.
         12    1    3    3    0    0 -0.99344725007E+01  0.25375083797E+02 -0.30125058582E+02  0.40621518634E+02  0.00000000000E+00 0. -1.
        -13    1    4    4    0    0  0.21622656035E+02 -0.49452059530E+01  0.38572968510E+00  0.22184298576E+02  0.00000000000E+00 0.  1.
         13    1    4    4    0    0 -0.40160548493E+02  0.16340888462E+02  0.14516287598E+03  0.15149968598E+03  0.00000000000E+00 0. -1.
         21    1    1    2  502  501 -0.15048485473E+02 -0.20766922390E+02 -0.11101886572E+03  0.11394257557E+03  0.00000000000E+00 0.  1.
<scales pt_clust_5="13000.00000" pt_clust_6="13000.00000" pt_clust_7="13000.00000" pt_clust_8="13000.00000" pt_clust_9="25.64609"></scales>
<clustering>
<clus scale="   25.646">  2  9  1 -1</clus>
<clus scale="   79.602">  5  6 -1 -1</clus>
<clus scale="   82.563">  2  5  1 -1</clus>
<clus scale="   92.240">  7  8 -1 -1</clus>
<clus scale="   94.807">  1  5  2 -1</clus>
</clustering>
</event>
<event>
 9    2  0.3402837E-005  0.1524877E+03  0.7546771E-02  0.1200563E+00
         -1   -1    0    0    0  501 -0.00000000000E+00  0.00000000000E+00  0.10214083037E+03  0.10214083037E+03  0.00000000000E+00 0.  1.
          2   -1    0    0  502    0  0.00000000000E+00 -0.00000000000E+00 -0.35770571056E+03  0.35770571056E+03  0.00000000000E+00 0. -1.
         23    2    1    2    0    0 -0.14704568448E+03 -0.30915206464E+02 -0.13857891509E+03  0.22436477304E+03  0.92505417990E+02 0.  0.
         24    2    1    2    0    0  0.89354152441E+02  0.54705711774E+02 -0.11559656169E+03  0.17306196772E+03  0.74906609444E+02 0.  0.
        -11    1    4    4    0    0  0.40633127526E+02 -0.11509045789E+02 -0.19256533268E+02  0.46414687988E+02  0.00000000000E+00 0.  1.
         12    1    4    4    0    0  0.48721024915E+02  0.66214757563E+02 -0.96340028423E+02  0.12664727974E+03  0.00000000000E+00 0. -1.
        -11    1    3    3    0    0 -0.10411395936E+03 -0.46446063274E+02 -0.49538509523E+02  0.12430212087E+03  0.00000000000E+00 0.  1.
         11    1    3    3    0    0 -0.42931725120E+02  0.15530856811E+02 -0.89040405566E+02  0.10006265217E+03  0.00000000000E+00 0. -1.
         21    1    1    2  502  501  0.57691532038E+02 -0.23790505310E+02 -0.13894034127E+01  0.62419800173E+02  0.00000000000E+00 0.  1.
<scales pt_clust_5="13000.00000" pt_clust_6="13000.00000" pt_clust_7="13000.00000" pt_clust_8="13000.00000" pt_clust_9="62.40433"></scales>
<clustering>
<clus scale="   62.404">  1  9  2 -1</clus>
<clus scale="   74.907">  5  6 -1 -1</clus>
<clus scale="   92.505">  7  8 -1 -1</clus>
<clus scale="  142.500">  2  5  1 -1</clus>
<clus scale="  142.500">  2  5  1 -1</clus>
</clustering>
</event>
<event>
 9    2  0.3402837E-005  0.1572023E+03  0.7546771E-02  0.1193196E+00
         -1   -1    0    0    0  501 -0.00000000000E+00  0.00000000000E+00  0.59574107121E+02  0.59574107121E+02  0.00000000000E+00 0.  1.
          2   -1    0    0  502    0  0.00000000000E+00 -0.00000000000E+00 -0.10812699690E+04  0.10812699690E+04  0.00000000000E+00 0. -1.
         23    2    1    2    0    0 -0.71090843013E+02  0.66783454917E+02 -0.53486380379E+02  0.14394635200E+03  0.91355468131E+02 0.  0.
         24    2    1    2    0    0  0.10896900445E+03 -0.75351747300E+02 -0.92753725897E+03  0.94066249999E+03  0.83477196579E+02 0.  0.
        -11    1    4    4    0    0  0.98421847328E+02 -0.50191994325E+02 -0.49112227890E+03  0.50339565866E+03  0.00000000000E+00 0.  1.
         12    1    4    4    0    0  0.10547157124E+02 -0.25159752975E+02 -0.43641498007E+03  0.43726684133E+03  0.00000000000E+00 0. -1.
        -13    1    3    3    0    0 -0.12149886475E+02  0.31118302344E+02 -0.65957792179E+02  0.73935098778E+02  0.00000000000E+00 0. -1.
         13    1    3    3    0    0 -0.58940956538E+02  0.35665152572E+02  0.12471411800E+02  0.70011253223E+02  0.00000000000E+00 0.  1.
         21    1    1    2  502  501 -0.37878161440E+02  0.85682923833E+01 -0.40672222547E+02  0.56235224151E+02  0.00000000000E+00 0.  1.
<scales pt_clust_5="13000.00000" pt_clust_6="13000.00000" pt_clust_7="13000.00000" pt_clust_8="13000.00000" pt_clust_9="38.83517"></scales>
<clustering>
<clus scale="   38.835">  1  9  2 -1</clus>
<clus scale="   83.477">  5  6 -1 -1</clus>
<clus scale="   91.355">  7  8 -1 -1</clus>
<clus scale="  152.759">  2  5  1 -1</clus>
<clus scale="  152.759">  2  5  1 -1</clus>
</clustering>
</event>
<event>
 9    2  0.3402837E-005  0.9182926E+02  0.7546771E-02  0.1299430E+00
         -1   -1    0    0    0  501 -0.00000000000E+00  0.00000000000E+00  0.13690826922E+03  0.13690826922E+03  0.00000000000E+00 0.  1.
          2   -1    0    0  502    0  0.00000000000E+00 -0.00000000000E+00 -0.11323473298E+03  0.11323473298E+03  0.00000000000E+00 0. -1.
         24    2    1    2    0    0  0.35353890724E+02 -0.23504302299E+02  0.26343441015E+02  0.93611638690E+02  0.79163199770E+02 0.  0.
         23    2    1    2    0    0 -0.96384081263E+01  0.52688269736E+02 -0.40382219349E+02  0.10235379738E+03  0.77308625130E+02 0.  0.
        -11    1    3    3    0    0  0.49544307150E+02 -0.23768867257E+02  0.44398626972E+02  0.70645845586E+02  0.00000000000E+00 0.  1.
         12    1    3    3    0    0 -0.14190416426E+02  0.26456495765E+00 -0.18055185957E+02  0.22965793104E+02  0.00000000000E+00 0. -1.
        -13    1    4    4    0    0 -0.39503633222E+02  0.17985219071E+02 -0.34716647528E+01  0.43543743511E+02  0.00000000000E+00 0. -1.
         13    1    4    4    0    0  0.29865225096E+02  0.34703050665E+02 -0.36910554596E+02  0.58810053869E+02  0.00000000000E+00 0.  1.
         21    1    1    2  502  501 -0.25715482598E+02 -0.29183967438E+02  0.37712314581E+02  0.54177566130E+02  0.00000000000E+00 0. -1.
<scales pt_clust_5="13000.00000" pt_clust_6="13000.00000" pt_clust_7="13000.00000" pt_clust_8="13000.00000" pt_clust_9="38.89717"></scales>
<clustering>
<clus scale="   38.897">  1  9  2 -1</clus>
<clus scale="   77.309">  7  8 -1 -1</clus>
<clus scale="   79.163">  5  6 -1 -1</clus>
<clus scale="   90.235">  2  7  1 -1</clus>
<clus scale="   90.235">  2  5  1 -1</clus>
</clustering>
</event>
<event>
 9    2  0.3402837E-005  0.1199586E+03  0.7546771E-02  0.1245719E+00
          2   -1    0    0  502    0  0.00000000000E+00  0.00000000000E+00  0.10223809127E+04  0.10223809127E+04  0.00000000000E+00 0. -1.
         -1   -1    0    0    0  501 -0.00000000000E+00 -0.00000000000E+00 -0.27537977641E+02  0.27537977641E+02  0.00000000000E+00 0.  1.
         23    2    1    2    0    0 -0.52642723922E+02  0.66176572551E+02  0.17127680449E+03  0.21061662278E+03  0.88730056353E+02 0.  0.
         24    2    1    2    0    0  0.22209892319E+02 -0.77950685603E+02  0.75238780587E+03  0.76100066550E+03  0.80405309313E+02 0.  0.
        -11    1    4    4    0    0  0.46775834508E+02 -0.33827044238E+02  0.27784609966E+03  0.28377932044E+03  0.00000000000E+00 0.  1.
         12    1    4    4    0    0 -0.24565942189E+02 -0.44123641365E+02  0.47454170621E+03  0.47722134506E+03  0.00000000000E+00 0. -1.
        -13    1    3    3    0    0 -0.12142707949E+02  0.77381993399E+02  0.91488101140E+02  0.12043874339E+03  0.00000000000E+00 0.  1.
         13    1    3    3    0    0 -0.40500015974E+02 -0.11205420847E+02  0.79788703349E+02  0.90177879396E+02  0.00000000000E+00 0. -1.
         21    1    1    2  502  501  0.30432831604E+02  0.11774113052E+02  0.71178324697E+02  0.78301602054E+02  0.00000000000E+00 0. -1.
<scales pt_clust_5="13000.00000" pt_clust_6="13000.00000" pt_clust_7="13000.00000" pt_clust_8="13000.00000" pt_clust_9="32.63107"></scales>
<clustering>
<clus scale="   32.631">  2  9  1 -1</clus>
<clus scale="   80.405">  5  6 -1 -1</clus>
<clus scale="   88.730">  7  8 -1 -1</clus>
<clus scale="  113.939">  1  5  2 -1</clus>
<clus scale="  113.939">  1  5  2 -1</clus>
</clustering>
</event>
<event>
 9    2  0.3402837E-005  0.1091267E+03  0.7546771E-02  0.1270340E+00
         -1   -1    0    0    0  501 -0.00000000000E+00  0.00000000000E+00  0.35784841553E+02  0.35784841553E+02  0.00000000000E+00 0.  1.
          2   -1    0    0  502    0  0.00000000000E+00 -0.00000000000E+00 -0.51813190879E+03  0.51813190879E+03  0.00000000000E+00 0. -1.
         23    2    1    2    0    0  0.10179269194E+02  0.29080341413E+02 -0.16385634044E+03  0.19390945387E+03  0.99008546194E+02 0.  0.
         24    2    1    2    0    0  0.49870950221E+01 -0.54130136020E+02 -0.31587679501E+03  0.33060757789E+03  0.81044914643E+02 0.  0.
        -13    1    4    4    0    0  0.19270675790E+02 -0.86201117377E+01 -0.14814729215E+02  0.25790336824E+02  0.00000000000E+00 0.  1.
         14    1    4    4    0    0 -0.14283580768E+02 -0.45510024282E+02 -0.30106206579E+03  0.30481724107E+03  0.00000000000E+00 0. -1.
        -13    1    3    3    0    0  0.34934825499E+02  0.29360719165E+02 -0.23392665714E+02  0.51280704673E+02  0.00000000000E+00 0.  1.
         13    1    3    3    0    0 -0.24755556305E+02 -0.28037775163E+00 -0.14046367473E+03  0.14262874920E+03  0.00000000000E+00 0. -1.
         21    1    1    2  502  501 -0.15166364216E+02  0.25049794607E+02 -0.26139317848E+01  0.29399718583E+02  0.00000000000E+00 0.  1.
<scales pt_clust_5="13000.00000" pt_clust_6="13000.00000" pt_clust_7="13000.00000" pt_clust_8="13000.00000" pt_clust_9="29.28329"></scales>
<clustering>
<clus scale="   29.283">  1  9  2 -1</clus>
<clus scale="   81.045">  5  6 -1 -1</clus>
<clus scale="   93.135">  2  5  1 -1</clus>
<clus scale="   99.009">  7  8 -1 -1</clus>
<clus scale="   93.135">  2  5  1 -1</clus>
</clustering>
</event>
<event>
 9    2  0.3402837E-005  0.9331344E+02  0.7546771E-02  0.1298682E+00
         -1   -1    0    0    0  501 -0.00000000000E+00  0.00000000000E+00  0.49854575522E+03  0.49854575522E+03  0.00000000000E+00 0.  1.
          2   -1    0    0  502    0  0.00000000000E+00 -0.00000000000E+00 -0.51248388258E+02  0.51248388258E+02  0.00000000000E+00 0. -1.
         24    2    1    2    0    0  0.14340783497E+02 -0.16197376920E+02  0.33720073445E+03  0.34771069991E+03  0.82038908036E+02 0.  0.
         23    2    1    2    0    0 -0.20140341969E+00  0.31364607814E+02  0.40164677601E+01  0.93995662959E+02  0.88517080019E+02 0.  0.
        -13    1    3    3    0    0  0.41730876645E+02 -0.27792381120E+02  0.26362292071E+03  0.26834851748E+03  0.00000000000E+00 0.  1.
         14    1    3    3    0    0 -0.27390093148E+02  0.11595004200E+02  0.73577813741E+02  0.79362182429E+02  0.00000000000E+00 0. -1.
        -11    1    4    4    0    0 -0.32690893550E+02 -0.18463524876E+01 -0.23220018685E+02  0.40140662754E+02  0.00000000000E+00 0. -1.
         11    1    4    4    0    0  0.32489490130E+02  0.33210960302E+02  0.27236486445E+02  0.53855000204E+02  0.00000000000E+00 0.  1.
         21    1    1    2  502  501 -0.14139380077E+02 -0.15167230894E+02  0.10608016476E+03  0.10808778061E+03  0.00000000000E+00 0.  1.
<scales pt_clust_5="13000.00000" pt_clust_6="13000.00000" pt_clust_7="13000.00000" pt_clust_8="13000.00000" pt_clust_9="20.73564"></scales>
<clustering>
<clus scale="   20.736">  1  9  2 -1</clus>
<clus scale="   82.039">  5  6 -1 -1</clus>
<clus scale="   87.192">  1  5  2 -1</clus>
<clus scale="   88.517">  7  8 -1 -1</clus>
<clus scale="   93.313">  2  5  1 -1</clus>
</clustering>
</event>
<event>
 9    2  0.3402837E-005  0.2315787E+03  0.7546771E-02  0.1125604E+00
          2   -1    0    0  502    0  0.00000000000E+00  0.00000000000E+00  0.80796352375E+03  0.80796352375E+03  0.00000000000E+00 0. -1.
         -1   -1    0    0    0  501 -0.00000000000E+00 -0.00000000000E+00 -0.14063609145E+03  0.14063609145E+03  0.00000000000E+00 0.  1.
         24    2    1    2    0    0 -0.21804189328E+03 -0.77638223468E+02  0.21558440356E+03  0.32961543976E+03  0.92734794459E+02 0.  0.
         23    2    1    2    0    0  0.19603143203E+03  0.57667737786E+02  0.50809683912E+03  0.55527363747E+03  0.91719813701E+02 0.  0.
        -11    1    3    3    0    0 -0.74576178051E+02 -0.31658981098E+01  0.22834053551E+02  0.78057819884E+02  0.00000000000E+00 0.  1.
         12    1    3    3    0    0 -0.14346571523E+03 -0.74472325358E+02  0.19275035001E+03  0.25155761988E+03  0.00000000000E+00 0. -1.
        -11    1    4    4    0    0  0.15901431720E+03  0.78070951148E+02  0.35939305643E+03  0.40067941736E+03  0.00000000000E+00 0.  1.
         11    1    4    4    0    0  0.37017114829E+02 -0.20403213362E+02  0.14870378269E+03  0.15459422011E+03  0.00000000000E+00 0. -1.
         21    1    1    2  502  501  0.22010461258E+02  0.19970485683E+02 -0.56353810382E+02  0.63710537965E+02  0.00000000000E+00 0. -1.
<scales pt_clust_5="13000.00000" pt_clust_6="13000.00000" pt_clust_7="13000.00000" pt_clust_8="13000.00000" pt_clust_9="29.72004"></scales>
<clustering>
<clus scale="   29.720">  2  9  1 -1</clus>
<clus scale="   91.720">  7  8 -1 -1</clus>
<clus scale="   92.735">  5  6 -1 -1</clus>
<clus scale="  231.174">  1  7  2 -1</clus>
<clus scale="  231.174">  1  5  2 -1</clus>
</clustering>
</event>
<event>
 9    2  0.3402837E-005  0.1281794E+03  0.7546771E-02  0.1233510E+00
         -1   -1    0    0    0  501 -0.00000000000E+00  0.00000000000E+00  0.51631428685E+03  0.51631428685E+03  0.00000000000E+00 0.  1.
          2   -1    0    0  502    0  0.00000000000E+00 -0.00000000000E+00 -0.50403269226E+02  0.50403269226E+02  0.00000000000E+00 0. -1.
         24    2    1    2    0    0  0.10593968553E+03 -0.62703856729E+01  0.24655211256E+03  0.28028557912E+03  0.80681639476E+02 0.  0.
         23    2    1    2    0    0 -0.74418522394E+02  0.34489158829E+02  0.98087987796E+02  0.15799320454E+03  0.92806146239E+02 0.  0.
        -11    1    3    3    0    0  0.46973027281E+02  0.37034100503E+02  0.12086006200E+03  0.13485230617E+03  0.00000000000E+00 0.  1.
         12    1    3    3    0    0  0.58966658250E+02 -0.43304486176E+02  0.12569205056E+03  0.14543327295E+03  0.00000000000E+00 0. -1.
        -11    1    4    4    0    0 -0.48194536093E+02  0.29127543651E+02  0.11378945221E+03  0.12696127970E+03  0.00000000000E+00 0.  1.
         11    1    4    4    0    0 -0.26223986300E+02  0.53616151777E+01 -0.15701464414E+02  0.31031924844E+02  0.00000000000E+00 0. -1.
         21    1    1    2  502  501 -0.31521163137E+02 -0.28218773156E+02  0.12127091727E+03  0.12843877241E+03  0.00000000000E+00 0. -1.
<scales pt_clust_5="13000.00000" pt_clust_6="13000.00000" pt_clust_7="13000.00000" pt_clust_8="13000.00000" pt_clust_9="42.30701"></scales>
<clustering>
<clus scale="   42.307">  1  9  2 -1</clus>
<clus scale="   80.682">  5  6 -1 -1</clus>
<clus scale="   92.806">  7  8 -1 -1</clus>
<clus scale="  119.693">  1  5  2 -1</clus>
<clus scale="  128.179">  2  5  1 -1</clus>
</clustering>
</event>
<event>
 9    2  0.3402837E-005  0.9909486E+02  0.7546771E-02  0.1289694E+00
          2   -1    0    0  502    0  0.00000000000E+00  0.00000000000E+00  0.50727026152E+03  0.50727026152E+03  0.00000000000E+00 0. -1.
         -1   -1    0    0    0  501 -0.00000000000E+00 -0.00000000000E+00 -0.92610693202E+02  0.92610693202E+02  0.00000000000E+00 0.  1.
         23    2    1    2    0    0  0.49414814547E+02 -0.10932151896E+01  0.90730259810E+01  0.10588292665E+03  0.93197936347E+02 0.  0.
         24    2    1    2    0    0  0.25132454646E+02 -0.31140866149E+02  0.40309130091E+03  0.41274190477E+03  0.79195260396E+02 0.  0.
        -11    1    4    4    0    0  0.38285668912E+02  0.11279033825E+02  0.12768762936E+03  0.13378019188E+03  0.00000000000E+00 0.  1.
         12    1    4    4    0    0 -0.13153214266E+02 -0.42419899974E+02  0.27540367154E+03  0.27896171289E+03  0.00000000000E+00 0. -1.
        -13    1    3    3    0    0  0.71058024677E+02  0.90417030766E+01 -0.13634028480E+02  0.72916952748E+02  0.00000000000E+00 0.  1.
         13    1    3    3    0    0 -0.21643210129E+02 -0.10134918266E+02  0.22707054461E+02  0.32965973902E+02  0.00000000000E+00 0. -1.
         21    1    1    2  502  501 -0.74547269194E+02  0.32234081339E+02  0.24952414323E+01  0.81256123300E+02  0.00000000000E+00 0. -1.
<scales pt_clust_5="13000.00000" pt_clust_6="13000.00000" pt_clust_7="13000.00000" pt_clust_8="13000.00000" pt_clust_9="81.21780"></scales>
<clustering>
<clus scale="   79.195">  5  6 -1 -1</clus>
<clus scale="   81.218">  2  9  1 -1</clus>
<clus scale="   86.057">  1  5  2 -1</clus>
<clus scale="   93.198">  7  8 -1 -1</clus>
<clus scale="   86.057">  1  5  2 -1</clus>
</clustering>
</event>
<event>
 9    2  0.3402837E-005  0.4720386E+03  0.7546771E-02  0.1021508E+00
          2   -1    0    0  502    0  0.00000000000E+00  0.00000000000E+00  0.24659572972E+03  0.24659572972E+03  0.00000000000E+00 0. -1.
         -1   -1    0    0    0  501 -0.00000000000E+00 -0.00000000000E+00 -0.22857466971E+04  0.22857466971E+04  0.00000000000E+00 0.  1.
         24    2    1    2    0    0  0.31243745536E+03  0.28376071675E+03 -0.99892359025E+03  0.10873122196E+04  0.79134163773E+02 0.  0.
         23    2    1    2    0    0 -0.42412060961E+03 -0.22040250603E+03 -0.10101653571E+03  0.49708274324E+03  0.91822420881E+02 0.  0.
        -11    1    3    3    0    0  0.98376148643E+02  0.13778909965E+03 -0.35865889170E+03  0.39661051827E+03  0.00000000000E+00 0.  1.
         12    1    3    3    0    0  0.21406130672E+03  0.14597161711E+03 -0.64026469855E+03  0.69070170135E+03  0.00000000000E+00 0. -1.
        -11    1    4    4    0    0 -0.10304699568E+03 -0.79460283301E+02  0.66026272183E+01  0.13029280344E+03  0.00000000000E+00 0.  1.
         11    1    4    4    0    0 -0.32107361393E+03 -0.14094222273E+03 -0.10761916293E+03  0.36678993980E+03  0.00000000000E+00 0. -1.
         21    1    1    2  502  501  0.11168315425E+03 -0.63358210722E+02 -0.93921084138E+03  0.94794746393E+03  0.00000000000E+00 0.  1.
<scales pt_clust_5="13000.00000" pt_clust_6="13000.00000" pt_clust_7="13000.00000" pt_clust_8="13000.00000" pt_clust_9="128.40323"></scales>
<clustering>
<clus scale="   79.134">  5  6 -1 -1</clus>
<clus scale="   91.822">  7  8 -1 -1</clus>
<clus scale="  128.403">  2  9  1 -1</clus>
<clus scale="  469.735">  2  5  1 -1</clus>
<clus scale="  472.039">  1  5  2 -1</clus>
</clustering>
</event>
<event>
 9    2  0.3402837E-005  0.1015279E+03  0.7546771E-02  0.1285675E+00
          2   -1    0    0  502    0  0.00000000000E+00  0.00000000000E+00  0.39823668193E+03  0.39823668193E+03  0.00000000000E+00 0. -1.
         -1   -1    0    0    0  501 -0.00000000000E+00 -0.00000000000E+00 -0.12275508390E+03  0.12275508390E+03  0.00000000000E+00 0.  1.
         24    2    1    2    0    0 -0.92979902619E+02 -0.30415599462E+02 -0.18075326213E+02  0.12853159295E+03  0.81383548621E+02 0.  0.
         23    2    1    2    0    0  0.12984884483E+02 -0.19581195033E+01  0.28920707140E+03  0.30605310242E+03  0.99274014217E+02 0.  0.
        -13    1    3    3    0    0 -0.68740347167E+02 -0.47134748440E+02 -0.39383333642E+02  0.92184417381E+02  0.00000000000E+00 0.  1.
         14    1    3    3    0    0 -0.24239555453E+02  0.16719148978E+02  0.21308007429E+02  0.36347175567E+02  0.00000000000E+00 0. -1.
        -11    1    4    4    0    0 -0.40211947083E+02 -0.18307620722E+02  0.11627822723E+03  0.12438969327E+03  0.00000000000E+00 0.  1.
         11    1    4    4    0    0  0.53196831566E+02  0.16349501218E+02  0.17292884416E+03  0.18166340915E+03  0.00000000000E+00 0. -1.
         21    1    1    2  502  501  0.79995018136E+02  0.32373718965E+02  0.43498528405E+01  0.86407070463E+02  0.00000000000E+00 0. -1.
<scales pt_clust_5="13000.00000" pt_clust_6="13000.00000" pt_clust_7="13000.00000" pt_clust_8="13000.00000" pt_clust_9="86.29751"></scales>
<clustering>
<clus scale="   81.384">  5  6 -1 -1</clus>
<clus scale="   86.298">  2  9  1 -1</clus>
<clus scale="   86.298">  2  5  1 -1</clus>
<clus scale="   99.274">  7  8 -1 -1</clus>
<clus scale="  101.528">  1  5  2 -1</clus>
</clustering>
</event>
<event>
 9    2  0.3402837E-005  0.9146667E+02  0.7546771E-02  0.1304354E+00
          2   -1    0    0  502    0  0.00000000000E+00  0.00000000000E+00  0.55035995713E+03  0.55035995713E+03  0.00000000000E+00 0. -1.
         -1   -1    0    0    0  501 -0.00000000000E+00 -0.00000000000E+00 -0.34283974921E+02  0.34283974921E+02  0.00000000000E+00 0.  1.
         23    2    1    2    0    0  0.32744900159E+02  0.20657832126E+02  0.13349593092E+03  0.16529311640E+03  0.89452089102E+02 0.  0.
         24    2    1    2    0    0 -0.15138769142E+02  0.30963375374E+01  0.38086849108E+03  0.38973382958E+03  0.81196556451E+02 0.  0.
        -13    1    4    4    0    0 -0.17603234326E+01 -0.29406401427E+02  0.58937658819E+02  0.65889929508E+02  0.00000000000E+00 0.  1.
         14    1    4    4    0    0 -0.13378445709E+02  0.32502738964E+02  0.32193083226E+03  0.32384390007E+03  0.00000000000E+00 0. -1.
        -13    1    3    3    0    0 -0.26075828533E+01  0.38125568044E+02  0.11603845776E+03  0.12216907181E+03  0.00000000000E+00 0. -1.
         13    1    3    3    0    0  0.35352483013E+02 -0.17467735918E+02  0.17457473155E+02  0.43124044595E+02  0.00000000000E+00 0.  1.
         21    1    1    2  502  501 -0.17606131017E+02 -0.23754169663E+02  0.17115602137E+01  0.29616986075E+02  0.00000000000E+00 0.  1.
<scales pt_clust_5="13000.00000" pt_clust_6="13000.00000" pt_clust_7="13000.00000" pt_clust_8="13000.00000" pt_clust_9="29.56749"></scales>
<clustering>
<clus scale="   29.567">  2  9  1 -1</clus>
<clus scale="   81.197">  5  6 -1 -1</clus>
<clus scale="   83.411">  1  5  2 -1</clus>
<clus scale="   89.452">  7  8 -1 -1</clus>
<clus scale="   83.411">  1  5  2 -1</clus>
</clustering>
</event>
<event>
 9    2  0.3402837E-005  0.3167711E+03  0.7546771E-02  0.1077481E+00
         -1   -1    0    0    0  501 -0.00000000000E+00  0.00000000000E+00  0.34364530686E+03  0.34364530686E+03  0.00000000000E+00 0.  1.
          2   -1    0    0  502    0  0.00000000000E+00 -0.00000000000E+00 -0.56659978048E+03  0.56659978048E+03  0.00000000000E+00 0. -1.
         24    2    1    2    0    0 -0.75791376171E+02  0.29987227778E+03  0.53148806927E+02  0.32387492107E+03  0.80015330617E+02 0.  0.
         23    2    1    2    0    0  0.40834185721E+02 -0.29943620418E+03 -0.36995511342E+03  0.48621847204E+03  0.90620888923E+02 0.  0.
        -13    1    3    3    0    0 -0.59383257289E+02  0.28454933238E+03  0.65899835855E+02  0.29805617284E+03  0.00000000000E+00 0.  1.
         14    1    3    3    0    0 -0.16408118882E+02  0.15322945400E+02 -0.12751028928E+02  0.25818748221E+02  0.00000000000E+00 0. -1.
        -11    1    4    4    0    0 -0.10298866850E+02 -0.37371433120E+02 -0.13923589581E+02  0.41189282813E+02  0.00000000000E+00 0.  1.
         11    1    4    4    0    0  0.51133052570E+02 -0.26206477106E+03 -0.35603152384E+03  0.44502918922E+03  0.00000000000E+00 0. -1.
         21    1    1    2  502  501  0.34957190450E+02 -0.43607360472E+00  0.93851832875E+02  0.10015169424E+03  0.00000000000E+00 0.  1.
<scales pt_clust_5="13000.00000" pt_clust_6="13000.00000" pt_clust_7="13000.00000" pt_clust_8="13000.00000" pt_clust_9="34.95991"></scales>
<clustering>
<clus scale="   34.960">  1  9  2 -1</clus>
<clus scale="   80.015">  5  6 -1 -1</clus>
<clus scale="   90.621">  7  8 -1 -1</clus>
<clus scale="  313.902">  1  5  2 -1</clus>
<clus scale="  316.771">  2  5  1 -1</clus>
</clustering>
</event>
<event>
 9    2  0.3402837E-005  0.1060129E+03  0.7546771E-02  0.1270210E+00
          2   -1    0    0  502    0  0.00000000000E+00  0.00000000000E+00  0.45690676034E+03  0.45690676034E+03  0.00000000000E+00 0. -1.
         -1   -1    0    0    0  501 -0.00000000000E+00 -0.00000000000E+00 -0.12644407986E+03  0.12644407986E+03  0.00000000000E+00 0.  1.
         23    2    1    2    0    0 -0.24519092198E+02 -0.27296207729E+02  0.99607849513E+01  0.96372513361E+02  0.88556057139E+02 0.  0.
         24    2    1    2    0    0  0.63186105580E+02 -0.13742377191E+02  0.38621053995E+03  0.40039351680E+03  0.83516766355E+02 0.  0.
        -13    1    4    4    0    0  0.60845056932E+02 -0.10854658361E+02  0.12784280949E+03  0.14199904401E+03  0.00000000000E+00 0.  1.
         14    1    4    4    0    0  0.23410486485E+01 -0.28877188307E+01  0.25836773046E+03  0.25839447280E+03  0.00000000000E+00 0. -1.
        -11    1    3    3    0    0  0.94052140648E+01 -0.30383449460E+02 -0.30097342690E+02  0.43788835218E+02  0.00000000000E+00 0. -1.
         11    1    3    3    0    0 -0.33924306263E+02  0.30872417308E+01  0.40058127642E+02  0.52583678143E+02  0.00000000000E+00 0.  1.
         21    1    1    2  502  501 -0.38667013382E+02  0.41038584921E+02 -0.65708644426E+02  0.86584810033E+02  0.00000000000E+00 0.  1.
<scales pt_clust_5="13000.00000" pt_clust_6="13000.00000" pt_clust_7="13000.00000" pt_clust_8="13000.00000" pt_clust_9="56.38531"></scales>
<clustering>
<clus scale="   56.385">  2  9  1 -1</clus>
<clus scale="   83.517">  5  6 -1 -1</clus>
<clus scale="   88.556">  7  8 -1 -1</clus>
<clus scale="  101.841">  1  5  2 -1</clus>
<clus scale="  101.841">  1  5  2 -1</clus>
</clustering>
</event>
<event>
 9    2  0.3402837E-005  0.9533052E+02  0.7546771E-02  0.1296825E+00
          2   -1    0    0  502    0  0.00000000000E+00  0.00000000000E+00  0.46173080226E+03  0.46173080226E+03  0.00000000000E+00 0. -1.
         -1   -1    0    0    0  501 -0.00000000000E+00 -0.00000000000E+00 -0.49589672169E+02  0.49589672169E+02  0.00000000000E+00 0.  1.
         23    2    1    2    0    0 -0.23255056735E+02 -0.76876762239E+01  0.18079844877E+02  0.96020494390E+02  0.91066769584E+02 0.  0.
         24    2    1    2    0    0  0.11817051777E+02  0.27084277332E+02  0.37845184429E+03  0.38790087900E+03  0.79800330119E+02 0.  0.
        -13    1    4    4    0    0  0.69089987559E+01  0.55525018807E+02  0.23432965498E+03  0.24091730777E+03  0.00000000000E+00 0.  1.
         14    1    4    4    0    0  0.49080530215E+01 -0.28440741475E+02  0.14412218931E+03  0.14698357123E+03  0.00000000000E+00 0. -1.
        -13    1    3    3    0    0 -0.21963059779E+02  0.25389858920E+02 -0.24880559817E+02  0.41785920926E+02  0.00000000000E+00 0.  1.
         13    1    3    3    0    0 -0.12919969562E+01 -0.33077535144E+02  0.42960404694E+02  0.54234573464E+02  0.00000000000E+00 0. -1.
         21    1    1    2  502  501  0.11438004958E+02 -0.19396601108E+02  0.15609440917E+02  0.27399101038E+02  0.00000000000E+00 0.  1.
<scales pt_clust_5="13000.00000" pt_clust_6="13000.00000" pt_clust_7="13000.00000" pt_clust_8="13000.00000" pt_clust_9="22.51791"></scales>
<clustering>
<clus scale="   22.518">  2  9  1 -1</clus>
<clus scale="   79.800">  5  6 -1 -1</clus>
<clus scale="   84.634">  1  5  2 -1</clus>
<clus scale="   91.067">  7  8 -1 -1</clus>
<clus scale="   84.634">  1  5  2 -1</clus>
</clustering>
</event>
<event>
 9    2  0.3402837E-005  0.9317385E+02  0.7546771E-02  0.1303354E+00
         -1   -1    0    0    0  501 -0.00000000000E+00  0.00000000000E+00  0.13752556163E+03  0.13752556163E+03  0.00000000000E+00 0.  1.
          2   -1    0    0  502    0  0.00000000000E+00 -0.00000000000E+00 -0.87823215296E+02  0.87823215296E+02  0.00000000000E+00 0. -1.
         24    2    1    2    0    0 -0.40699173597E+01 -0.33291215092E+02  0.58298373041E+02  0.10308504483E+03  0.78121424324E+02 0.  0.
         23    2    1    2    0    0  0.70578925983E+01  0.11007041667E+02 -0.23706628056E+02  0.95174201749E+02  0.91242290911E+02 0.  0.
        -13    1    3    3    0    0  0.33868080420E+02 -0.17985025940E+02  0.96895006765E+01  0.39552426636E+02  0.00000000000E+00 0.  1.
         14    1    3    3    0    0 -0.37937997780E+02 -0.15306189152E+02  0.48608872364E+02  0.63532618193E+02  0.00000000000E+00 0. -1.
        -13    1    4    4    0    0  0.20647539949E+02  0.32564636836E+02  0.20857406006E+02  0.43838429072E+02  0.00000000000E+00 0.  1.
         13    1    4    4    0    0 -0.13589647350E+02 -0.21557595169E+02 -0.44564034062E+02  0.51335772678E+02  0.00000000000E+00 0. -1.
         21    1    1    2  502  501 -0.29879752386E+01  0.22284173425E+02  0.15110601345E+02  0.27089530344E+02  0.00000000000E+00 0. -1.
<scales pt_clust_5="13000.00000" pt_clust_6="13000.00000" pt_clust_7="13000.00000" pt_clust_8="13000.00000" pt_clust_9="22.48360"></scales>
<clustering>
<clus scale="   22.484">  1  9  2 -1</clus>
<clus scale="   78.121">  5  6 -1 -1</clus>
<clus scale="   80.369">  1  5  2 -1</clus>
<clus scale="   91.242">  7  8 -1 -1</clus>
<clus scale="   93.174">  2  5  1 -1</clus>
</clustering>
</event>
<event>
 9    2  0.3422103E-005  0.1430569E+03  0.7546771E-02  0.1223853E+00
         -1   -1    0    0    0  501 -0.00000000000E+00  0.00000000000E+00  0.31243253659E+03  0.31243253659E+03  0.00000000000E+00 0.  1.
          2   -1    0    0  502    0  0.00000000000E+00 -0.00000000000E+00 -0.34605010145E+03  0.34605010145E+03  0.00000000000E+00 0. -1.
         24    2    1    2    0    0  0.58281802790E+02 -0.16110933838E+01  0.25547792214E+03  0.27413631924E+03  0.80513282572E+02 0.  0.
         23    2    1    2    0    0 -0.65380619622E+02 -0.19877519352E+02 -0.31729273868E+03  0.34819056296E+03  0.12606444746E+03 0.  0.
        -11    1    3    3    0    0  0.60533815733E+02 -0.24780263700E+02  0.23211818068E+03  0.24115815167E+03  0.00000000000E+00 0.  1.
         12    1    3    3    0    0 -0.22520129423E+01  0.23169170316E+02  0.23359741459E+02  0.32978167573E+02  0.00000000000E+00 0. -1.
        -13    1    4    4    0    0 -0.10545254664E+02  0.30363816245E+02 -0.12553306674E+02  0.34507234623E+02  0.00000000000E+00 0.  1.
         13    1    4    4    0    0 -0.54835364958E+02 -0.50241335597E+02 -0.30473943201E+03  0.31368332833E+03  0.00000000000E+00 0. -1.
         21    1    1    2  502  501  0.70988168315E+01  0.21488612736E+02  0.28197251688E+02  0.36155755841E+02  0.00000000000E+00 0.  1.
<scales pt_clust_5="13000.00000" pt_clust_6="13000.00000" pt_clust_7="13000.00000" pt_clust_8="13000.00000" pt_clust_9="22.63081"></scales>
<clustering>
<clus scale="   22.631">  1  9  2 -1</clus>
<clus scale="   80.513">  5  6 -1 -1</clus>
<clus scale="  105.145">  1  5  2 -1</clus>
<clus scale="  126.064">  7  8 -1 -1</clus>
<clus scale="  143.057">  2  5  1 -1</clus>
</clustering>
</event>
<event>
 9    2  0.3402837E-005  0.1019352E+03  0.7546771E-02  0.1281222E+00
         -1   -1    0    0    0  501 -0.00000000000E+00  0.00000000000E+00  0.35160014454E+02  0.35160014454E+02  0.00000000000E+00 0.  1.
          2   -1    0    0  502    0  0.00000000000E+00 -0.00000000000E+00 -0.77151850456E+03  0.77151850456E+03  0.00000000000E+00 0. -1.
         23    2    1    2    0    0 -0.13181040366E+02 -0.61306686344E+02 -0.14605833028E+03  0.18310946355E+03  0.90905391387E+02 0.  0.
         24    2    1    2    0    0 -0.34124299599E+01  0.43234634223E+02 -0.59195962308E+03  0.59897848524E+03  0.80486968817E+02 0.  0.
        -11    1    4    4    0    0 -0.25818583954E+02  0.20528851416E+02 -0.87493500357E+02  0.93504789303E+02  0.00000000000E+00 0.  1.
         12    1    4    4    0    0  0.22406153994E+02  0.22705782807E+02 -0.50446612273E+03  0.50547369594E+03  0.00000000000E+00 0. -1.
        -11    1    3    3    0    0 -0.20342823749E+02  0.76048051917E+01 -0.29644915934E+00  0.21719839368E+02  0.00000000000E+00 0. -1.
         11    1    3    3    0    0  0.71617833826E+01 -0.68911491535E+02 -0.14576188112E+03  0.16138962419E+03  0.00000000000E+00 0.  1.
         21    1    1    2  502  501  0.16593470326E+02  0.18072052121E+02  0.16594632568E+01  0.24590570218E+02  0.00000000000E+00 0.  1.
<scales pt_clust_5="13000.00000" pt_clust_6="13000.00000" pt_clust_7="13000.00000" pt_clust_8="13000.00000" pt_clust_9="24.53451"></scales>
<clustering>
<clus scale="   24.535">  1  9  2 -1</clus>
<clus scale="   80.487">  5  6 -1 -1</clus>
<clus scale="   90.905">  7  8 -1 -1</clus>
<clus scale="   92.764">  2  5  1 -1</clus>
<clus scale="   92.764">  2  5  1 -1</clus>
</clustering>
</event>
<event>
 9    2  0.3402837E-005  0.2781406E+03  0.7546771E-02  0.1096786E+00
         -1   -1    0    0    0  501 -0.00000000000E+00  0.00000000000E+00  0.25500315580E+03  0.25500315580E+03  0.00000000000E+00 0.  1.
          2   -1    0    0  502    0  0.00000000000E+00 -0.00000000000E+00 -0.76489092834E+03  0.76489092834E+03  0.00000000000E+00 0. -1.
         23    2    1    2    0    0  0.98294644195E+02 -0.21674946462E+03 -0.48596047827E+01  0.25383441767E+03  0.88125639544E+02 0.  0.
         24    2    1    2    0    0 -0.65204736562E+02  0.26340465679E+03 -0.59489309770E+03  0.65953570401E+03  0.86347416173E+02 0.  0.
        -13    1    4    4    0    0 -0.37185378990E+02  0.72050496426E+02 -0.10365208255E+03  0.13159703896E+03  0.00000000000E+00 0.  1.
         14    1    4    4    0    0 -0.28019357572E+02  0.19135416037E+03 -0.49124101515E+03  0.52793866505E+03  0.00000000000E+00 0. -1.
        -13    1    3    3    0    0  0.10773918453E+03 -0.17617912237E+03 -0.24170590025E+02  0.20792073601E+03  0.00000000000E+00 0.  1.
         13    1    3    3    0    0 -0.94445403323E+01 -0.40570342257E+02  0.19310985242E+02  0.45913681664E+02  0.00000000000E+00 0. -1.
         21    1    1    2  502  501 -0.33089907633E+02 -0.46655192170E+02  0.89864929941E+02  0.10652396245E+03  0.00000000000E+00 0.  1.
<scales pt_clust_5="13000.00000" pt_clust_6="13000.00000" pt_clust_7="13000.00000" pt_clust_8="13000.00000" pt_clust_9="57.19833"></scales>
<clustering>
<clus scale="   57.198">  1  9  2 -1</clus>
<clus scale="   86.347">  5  6 -1 -1</clus>
<clus scale="   88.126">  7  8 -1 -1</clus>
<clus scale="  277.582">  2  5  1 -1</clus>
<clus scale="  277.582">  2  5  1 -1</clus>
</clustering>
</event>
<event>
 9    2  0.3402837E-005  0.1044889E+03  0.7546771E-02  0.1277058E+00
         -1   -1    0    0    0  501 -0.00000000000E+00  0.00000000000E+00  0.13939039851E+03  0.13939039851E+03  0.00000000000E+00 0.  1.
          2   -1    0    0  502    0  0.00000000000E+00 -0.00000000000E+00 -0.28104606618E+03  0.28104606618E+03  0.00000000000E+00 0. -1.
         23    2    1    2    0    0  0.63685611892E+02  0.37449248018E+02  0.18069414918E+02  0.12230863140E+03  0.95784102128E+02 0.  0.
         24    2    1    2    0    0 -0.31646642480E+02 -0.20076225766E+02 -0.21402719687E+03  0.23272877307E+03  0.83369514782E+02 0.  0.
        -13    1    4    4    0    0 -0.13735776744E+02  0.32539134015E+02 -0.95348180350E+02  0.10167960612E+03  0.00000000000E+00 0.  1.
         14    1    4    4    0    0 -0.17910865736E+02 -0.52615359781E+02 -0.11867901652E+03  0.13104916695E+03  0.00000000000E+00 0. -1.
        -13    1    3    3    0    0  0.34466858371E+02  0.67635329106E+02 -0.15840431838E+01  0.75927671254E+02  0.00000000000E+00 0.  1.
         13    1    3    3    0    0  0.29218753521E+02 -0.30186081088E+02  0.19653458101E+02  0.46380960147E+02  0.00000000000E+00 0. -1.
         21    1    1    2  502  501 -0.32038969413E+02 -0.17373022252E+02  0.54302114271E+02  0.65399060219E+02  0.00000000000E+00 0.  1.
<scales pt_clust_5="13000.00000" pt_clust_6="13000.00000" pt_clust_7="13000.00000" pt_clust_8="13000.00000" pt_clust_9="36.44609"></scales>
<clustering>
<clus scale="   36.446">  1  9  2 -1</clus>
<clus scale="   83.370">  5  6 -1 -1</clus>
<clus scale="   93.241">  2  5  1 -1</clus>
<clus scale="   95.784">  7  8 -1 -1</clus>
<clus scale="   93.241">  2  5  1 -1</clus>
</clustering>
</event>
<event>
 9    2  0.3402837E-005  0.9651136E+02  0.7546771E-02  0.1296523E+00
          2   -1    0    0  502    0  0.00000000000E+00  0.00000000000E+00  0.42578996256E+03  0.42578996256E+03  0.00000000000E+00 0. -1.
         -1   -1    0    0    0  501 -0.00000000000E+00 -0.00000000000E+00 -0.32640504519E+02  0.32640504519E+02  0.00000000000E+00 0.  1.
         23    2    1    2    0    0 -0.51597101978E+01  0.82861917858E+01  0.85858254273E+02  0.12790638082E+03  0.94303334211E+02 0.  0.
         24    2    1    2    0    0  0.18180416421E+02  0.20913087699E+02  0.26136928200E+03  0.27456910783E+03  0.79412899582E+02 0.  0.
        -13    1    4    4    0    0  0.35710679690E+02 -0.77748141354E+01  0.21013120316E+03  0.21328577759E+03  0.00000000000E+00 0.  1.
         14    1    4    4    0    0 -0.17530263270E+02  0.28687901835E+02  0.51238078841E+02  0.61283330240E+02  0.00000000000E+00 0. -1.
        -11    1    3    3    0    0 -0.16275392408E+02 -0.34281752627E+02  0.84641595850E+01  0.38881473206E+02  0.00000000000E+00 0.  1.
         11    1    3    3    0    0  0.11115682211E+02  0.42567944413E+02  0.77394094688E+02  0.89024907610E+02  0.00000000000E+00 0. -1.
         21    1    1    2  502  501 -0.13020706223E+02 -0.29199279485E+02  0.45921921770E+02  0.55954978438E+02  0.00000000000E+00 0.  1.
<scales pt_clust_5="13000.00000" pt_clust_6="13000.00000" pt_clust_7="13000.00000" pt_clust_8="13000.00000" pt_clust_9="31.97087"></scales>
<clustering>
<clus scale="   31.971">  2  9  1 -1</clus>
<clus scale="   79.413">  5  6 -1 -1</clus>
<clus scale="   82.023">  1  5  2 -1</clus>
<clus scale="   94.303">  7  8 -1 -1</clus>
<clus scale="   82.023">  1  5  2 -1</clus>
</clustering>
</event>
<event>
 9    2  0.3402837E-005  0.2199153E+03  0.7546771E-02  0.1134588E+00
         -1   -1    0    0    0  501 -0.00000000000E+00  0.00000000000E+00  0.14669703878E+03  0.14669703878E+03  0.00000000000E+00 0.  1.
          2   -1    0    0  502    0  0.00000000000E+00 -0.00000000000E+00 -0.59028618085E+03  0.59028618085E+03  0.00000000000E+00 0. -1.
         23    2    1    2    0    0 -0.85776492377E+02 -0.18142601400E+03 -0.91440475852E+02  0.23871613537E+03  0.91383956257E+02 0.  0.
         24    2    1    2    0    0  0.14383881702E+03  0.14358124960E+03 -0.36678442578E+03  0.42743160449E+03  0.82835867871E+02 0.  0.
        -13    1    4    4    0    0  0.38672950760E+02  0.77969298752E+02 -0.95731992051E+02  0.12938092197E+03  0.00000000000E+00 0.  1.
         14    1    4    4    0    0  0.10516586626E+03  0.65611950848E+02 -0.27105243373E+03  0.29805068252E+03  0.00000000000E+00 0. -1.
        -11    1    3    3    0    0 -0.87383232284E+02 -0.90186799083E+02 -0.74164291143E+02  0.14584179817E+03  0.00000000000E+00 0.  1.
         11    1    3    3    0    0  0.16067399068E+01 -0.91239214918E+02 -0.17276184709E+02  0.92874337199E+02  0.00000000000E+00 0. -1.
         21    1    1    2  502  501 -0.58062324643E+02  0.37844764401E+02  0.14635759557E+02  0.70835479764E+02  0.00000000000E+00 0.  1.
<scales pt_clust_5="13000.00000" pt_clust_6="13000.00000" pt_clust_7="13000.00000" pt_clust_8="13000.00000" pt_clust_9="69.30700"></scales>
<clustering>
<clus scale="   69.307">  1  9  2 -1</clus>
<clus scale="   82.836">  5  6 -1 -1</clus>
<clus scale="   91.384">  7  8 -1 -1</clus>
<clus scale="  216.503">  2  5  1 -1</clus>
<clus scale="  216.503">  2  5  1 -1</clus>
</clustering>
</event>
<event>
 9    2  0.3402837E-005  0.1070635E+03  0.7546771E-02  0.1270219E+00
          2   -1    0    0  502    0  0.00000000000E+00  0.00000000000E+00  0.91213045168E+02  0.91213045168E+02  0.00000000000E+00 0. -1.
         -1   -1    0    0    0  501 -0.00000000000E+00 -0.00000000000E+00 -0.18659408927E+03  0.18659408927E+03  0.00000000000E+00 0.  1.
         24    2    1    2    0    0  0.26447135492E+02  0.65410241718E+02 -0.37391214454E+02  0.11418838723E+03  0.81626798069E+02 0.  0.
         23    2    1    2    0    0 -0.37455531728E+02 -0.29810960491E+02 -0.11162681109E+02  0.10377498853E+03  0.91394926408E+02 0.  0.
        -11    1    3    3    0    0  0.18127425340E+02  0.72753741226E+02 -0.55268639829E+02  0.93146835482E+02  0.00000000000E+00 0.  1.
         12    1    3    3    0    0  0.83197101518E+01 -0.73434995071E+01  0.17877425375E+02  0.21041551750E+02  0.00000000000E+00 0. -1.
        -13    1    4    4    0    0  0.21319393691E+02 -0.18318839666E+02 -0.29886799576E+02  0.41028249085E+02  0.00000000000E+00 0.  1.
         13    1    4    4    0    0 -0.58774925419E+02 -0.11492120824E+02  0.18724118467E+02  0.62746739449E+02  0.00000000000E+00 0. -1.
         21    1    1    2  502  501  0.11008396236E+02 -0.35599281228E+02 -0.46827148536E+02  0.59843758669E+02  0.00000000000E+00 0.  1.
<scales pt_clust_5="13000.00000" pt_clust_6="13000.00000" pt_clust_7="13000.00000" pt_clust_8="13000.00000" pt_clust_9="37.26250"></scales>
<clustering>
<clus scale="   37.262">  2  9  1 -1</clus>
<clus scale="   81.627">  5  6 -1 -1</clus>
<clus scale="   91.395">  7  8 -1 -1</clus>
<clus scale="   98.856">  2  5  1 -1</clus>
<clus scale="  107.063">  1  5  2 -1</clus>
</clustering>
</event>
<event>
 9    2  0.3402837E-005  0.9365696E+02  0.7546771E-02  0.1301941E+00
          2   -1    0    0  502    0  0.00000000000E+00  0.00000000000E+00  0.26644479426E+02  0.26644479426E+02  0.00000000000E+00 0. -1.
         -1   -1    0    0    0  501 -0.00000000000E+00 -0.00000000000E+00 -0.55531948733E+03  0.55531948733E+03  0.00000000000E+00 0.  1.
         24    2    1    2    0    0 -0.17407526827E+02  0.21446317748E+02 -0.27040543714E+03  0.28348426320E+03  0.80506276221E+02 0.  0.
         23    2    1    2    0    0 -0.78589992787E+01 -0.61263981824E+01 -0.97975281559E+02  0.13548474527E+03  0.93046567798E+02 0.  0.
        -13    1    3    3    0    0  0.22553992416E+02  0.35424664608E+02 -0.15383806465E+03  0.15946704855E+03  0.00000000000E+00 0.  1.
         14    1    3    3    0    0 -0.39961519242E+02 -0.13978346859E+02 -0.11656737249E+03  0.12401721465E+03  0.00000000000E+00 0. -1.
        -13    1    4    4    0    0  0.46687847656E+00 -0.33822304560E+02 -0.52068444688E+00  0.33829534043E+02  0.00000000000E+00 0. -1.
         13    1    4    4    0    0 -0.83258777553E+01  0.27695906378E+02 -0.97454597112E+02  0.10165521122E+03  0.00000000000E+00 0.  1.
         21    1    1    2  502  501  0.25266526106E+02 -0.15319919566E+02 -0.16029428920E+03  0.16299495829E+03  0.00000000000E+00 0. -1.
<scales pt_clust_5="13000.00000" pt_clust_6="13000.00000" pt_clust_7="13000.00000" pt_clust_8="13000.00000" pt_clust_9="29.54822"></scales>
<clustering>
<clus scale="   29.548">  2  9  1 -1</clus>
<clus scale="   80.506">  5  6 -1 -1</clus>
<clus scale="   81.211">  2  5  1 -1</clus>
<clus scale="   93.047">  7  8 -1 -1</clus>
<clus scale="   93.657">  1  5  2 -1</clus>
</clustering>
</event>
<event>
 9    2  0.3402837E-005  0.9151849E+02  0.7546771E-02  0.1306310E+00
         -1   -1    0    0    0  501 -0.00000000000E+00  0.00000000000E+00  0.11271658112E+03  0.11271658112E+03  0.00000000000E+00 0.  1.
          2   -1    0    0  502    0  0.00000000000E+00 -0.00000000000E+00 -0.27862184637E+03  0.27862184637E+03  0.00000000000E+00 0. -1.
         24    2    1    2    0    0  0.84600134859E+01 -0.52870552281E+01  0.79798811029E+02  0.11315856599E+03  0.79608328929E+02 0.  0.
         23    2    1    2    0    0 -0.31325354279E+02 -0.17868008529E+02 -0.17891998098E+03  0.20388924183E+03  0.90873097164E+02 0.  0.
        -11    1    3    3    0    0  0.12969928692E+02 -0.39293085941E+02  0.24510732268E+02  0.48093051986E+02  0.00000000000E+00 0.  1.
         12    1    3    3    0    0 -0.45099152063E+01  0.34006030712E+02  0.55288078761E+02  0.65065514007E+02  0.00000000000E+00 0. -1.
        -13    1    4    4    0    0 -0.62278708241E+02 -0.92686018644E+00 -0.12031113950E+03  0.13547792019E+03  0.00000000000E+00 0. -1.
         13    1    4    4    0    0  0.30953353962E+02 -0.16941148343E+02 -0.58608841483E+02  0.68411321641E+02  0.00000000000E+00 0.  1.
         21    1    1    2  502  501  0.22865340793E+02  0.23155063757E+02 -0.66784095291E+02  0.74290619671E+02  0.00000000000E+00 0. -1.
<scales pt_clust_5="13000.00000" pt_clust_6="13000.00000" pt_clust_7="13000.00000" pt_clust_8="13000.00000" pt_clust_9="32.54198"></scales>
<clustering>
<clus scale="   32.542">  2  9  1 -1</clus>
<clus scale="   79.608">  5  6 -1 -1</clus>
<clus scale="   80.344">  1  5  2 -1</clus>
<clus scale="   90.873">  7  8 -1 -1</clus>
<clus scale="   32.542">  2  5  1 -1</clus>
</clustering>
</event>
<event>
 9    2  0.3402837E-005  0.1344596E+03  0.7546771E-02  0.1223912E+00
         -1   -1    0    0    0  501 -0.00000000000E+00  0.00000000000E+00  0.84878072839E+02  0.84878072839E+02  0.00000000000E+00 0.  1.
          2   -1    0    0  502    0  0.00000000000E+00 -0.00000000000E+00 -0.30402254413E+03  0.30402254413E+03  0.00000000000E+00 0. -1.
         24    2    1    2    0    0  0.56144405220E+02  0.76001818691E+02 -0.64603382102E+02  0.13929812956E+03  0.79384515098E+02 0.  0.
         23    2    1    2    0    0 -0.85624828633E+02 -0.57987088716E+02 -0.16337578066E+03  0.21394189805E+03  0.91571700308E+02 0.  0.
        -11    1    3    3    0    0  0.27465272966E+02  0.79817590871E+02 -0.21024602730E+02  0.86989786478E+02  0.00000000000E+00 0.  1.
         12    1    3    3    0    0  0.28679132254E+02 -0.38157721798E+01 -0.43578779372E+02  0.52308343079E+02  0.00000000000E+00 0. -1.
        -13    1    4    4    0    0 -0.30261796977E+02 -0.23467294693E+02 -0.29658298741E+00  0.38295929783E+02  0.00000000000E+00 0.  1.
         13    1    4    4    0    0 -0.55363031656E+02 -0.34519794023E+02 -0.16307919768E+03  0.17564596827E+03  0.00000000000E+00 0. -1.
         21    1    1    2  502  501  0.29480423413E+02 -0.18014729975E+02  0.88346914690E+01  0.35660589368E+02  0.00000000000E+00 0. -1.
<scales pt_clust_5="13000.00000" pt_clust_6="13000.00000" pt_clust_7="13000.00000" pt_clust_8="13000.00000" pt_clust_9="34.54889"></scales>
<clustering>
<clus scale="   34.549">  1  9  2 -1</clus>
<clus scale="   79.385">  5  6 -1 -1</clus>
<clus scale="   91.572">  7  8 -1 -1</clus>
<clus scale="  126.475">  1  5  2 -1</clus>
<clus scale="  134.460">  2  5  1 -1</clus>
</clustering>
</event>
<event>
 9    2  0.3402837E-005  0.1028936E+03  0.7546771E-02  0.1279061E+00
          2   -1    0    0  502    0  0.00000000000E+00  0.00000000000E+00  0.69301993076E+03  0.69301993076E+03  0.00000000000E+00 0. -1.
         -1   -1    0    0    0  501 -0.00000000000E+00 -0.00000000000E+00 -0.20466419905E+02  0.20466419905E+02  0.00000000000E+00 0.  1.
         24    2    1    2    0    0 -0.89088753291E+01 -0.30113244985E+02  0.15341348734E+03  0.17632870293E+03  0.81055152788E+02 0.  0.
         23    2    1    2    0    0  0.24369080463E+02  0.50809392646E+02  0.46450846204E+03  0.47672623224E+03  0.91237836082E+02 0.  0.
        -11    1    3    3    0    0 -0.19527137811E+02 -0.12969457532E+02  0.19434342191E+01  0.23522178393E+02  0.00000000000E+00 0.  1.
         12    1    3    3    0    0  0.10618262482E+02 -0.17143787453E+02  0.15147005312E+03  0.15280652453E+03  0.00000000000E+00 0. -1.
        -13    1    4    4    0    0  0.17986371671E+01  0.74145320085E+02  0.34535150028E+03  0.35322573849E+03  0.00000000000E+00 0. -1.
         13    1    4    4    0    0  0.22570443296E+02 -0.23335927439E+02  0.11915696176E+03  0.12350049374E+03  0.00000000000E+00 0.  1.
         21    1    1    2  502  501 -0.15460205134E+02 -0.20696147661E+02  0.54631561477E+02  0.60431415507E+02  0.00000000000E+00 0.  1.
<scales pt_clust_5="13000.00000" pt_clust_6="13000.00000" pt_clust_7="13000.00000" pt_clust_8="13000.00000" pt_clust_9="25.83309"></scales>
<clustering>
<clus scale="   25.833">  2  9  1 -1</clus>
<clus scale="   81.055">  5  6 -1 -1</clus>
<clus scale="   91.238">  7  8 -1 -1</clus>
<clus scale="   93.982">  2  5  1 -1</clus>
<clus scale="  102.894">  1  5  2 -1</clus>
</clustering>
</event>
<event>
 9    2  0.3402837E-005  0.1025373E+03  0.7546771E-02  0.1279651E+00
          2   -1    0    0  502    0  0.00000000000E+00  0.00000000000E+00  0.42596089839E+03  0.42596089839E+03  0.00000000000E+00 0. -1.
         -1   -1    0    0    0  501 -0.00000000000E+00 -0.00000000000E+00 -0.24262965475E+03  0.24262965475E+03  0.00000000000E+00 0.  1.
         23    2    1    2    0    0 -0.12536978085E+02  0.50524245720E+01 -0.47411253397E+01  0.91627637184E+02  0.90501065258E+02 0.  0.
         24    2    1    2    0    0  0.47600095214E+01  0.54789340808E+02  0.37137786218E+03  0.38397995826E+03  0.80588847057E+02 0.  0.
        -13    1    4    4    0    0 -0.33421130583E+02  0.44461139075E+02  0.17385604141E+03  0.18253681270E+03  0.00000000000E+00 0.  1.
         14    1    4    4    0    0  0.38181140104E+02  0.10328201734E+02  0.19752182078E+03  0.20144314556E+03  0.00000000000E+00 0. -1.
        -13    1    3    3    0    0  0.24095778578E+02  0.28430335701E+02  0.19295075951E+02  0.41966540116E+02  0.00000000000E+00 0. -1.
         13    1    3    3    0    0 -0.36632756663E+02 -0.23377911129E+02 -0.24036201291E+02  0.49661097068E+02  0.00000000000E+00 0.  1.
         21    1    1    2  502  501  0.77769685640E+01 -0.59841765380E+02 -0.18330549320E+03  0.19298295770E+03  0.00000000000E+00 0.  1.
<scales pt_clust_5="13000.00000" pt_clust_6="13000.00000" pt_clust_7="13000.00000" pt_clust_8="13000.00000" pt_clust_9="60.34499"></scales>
<clustering>
<clus scale="   60.345">  2  9  1 -1</clus>
<clus scale="   80.589">  5  6 -1 -1</clus>
<clus scale="   90.501">  7  8 -1 -1</clus>
<clus scale="   93.904">  1  5  2 -1</clus>
<clus scale="   93.904">  1  5  2 -1</clus>
</clustering>
</event>
<event>
 9    2  0.3402837E-005  0.2229744E+03  0.7546771E-02  0.1132465E+00
          4   -1    0    0  502    0  0.00000000000E+00  0.00000000000E+00  0.47198526321E+03  0.47198526321E+03  0.00000000000E+00 0. -1.
         -3   -1    0    0    0  501 -0.00000000000E+00 -0.00000000000E+00 -0.25566124391E+03  0.25566124391E+03  0.00000000000E+00 0.  1.
         24    2    1    2    0    0  0.16885846624E+03  0.87287058578E+02 -0.13282459438E+03  0.24502170760E+03  0.79126810287E+02 0.  0.
         23    2    1    2    0    0 -0.20694636358E+03 -0.24437991636E+02  0.33962066549E+03  0.40852031291E+03  0.90125672262E+02 0.  0.
        -13    1    3    3    0    0  0.44965031714E+02  0.37801746996E+02 -0.84946893256E+02  0.10328020540E+03  0.00000000000E+00 0.  1.
         14    1    3    3    0    0  0.12389343453E+03  0.49485311583E+02 -0.47877701123E+02  0.14174150220E+03  0.00000000000E+00 0. -1.
        -13    1    4    4    0    0 -0.12176813611E+03  0.23631055611E+02  0.14583613707E+03  0.19145256498E+03  0.00000000000E+00 0.  1.
         13    1    4    4    0    0 -0.85178227462E+02 -0.48069047247E+02  0.19378452842E+03  0.21706774793E+03  0.00000000000E+00 0. -1.
         21    1    1    2  502  501  0.38087897331E+02 -0.62849066942E+02  0.95279481930E+01  0.74104486608E+02  0.00000000000E+00 0. -1.
<scales pt_clust_5="13000.00000" pt_clust_6="13000.00000" pt_clust_7="13000.00000" pt_clust_8="13000.00000" pt_clust_9="73.48941"></scales>
<clustering>
<clus scale="   73.489">  2  9  1 -1</clus>
<clus scale="   79.127">  5  6 -1 -1</clus>
<clus scale="   90.126">  7  8 -1 -1</clus>
<clus scale="  218.760">  2  5  1 -1</clus>
<clus scale="  222.974">  1  5  2 -1</clus>
</clustering>
</event>
<event>
 9    2  0.3402837E-005  0.1221802E+03  0.7546771E-02  0.1241970E+00
          4   -1    0    0  502    0  0.00000000000E+00  0.00000000000E+00  0.37084292346E+03  0.37084292346E+03  0.00000000000E+00 0. -1.
         -3   -1    0    0    0  501 -0.00000000000E+00 -0.00000000000E+00 -0.94042718487E+02  0.94042718487E+02  0.00000000000E+00 0.  1.
         24    2    1    2    0    0  0.70295396946E+02 -0.61591345923E+02  0.66526528954E+02  0.14284587618E+03  0.85113034040E+02 0.  0.
         23    2    1    2    0    0 -0.72335458810E+02  0.23356930378E+02  0.24339735091E+03  0.27141160934E+03  0.92973256690E+02 0.  0.
        -13    1    3    3    0    0  0.62001795365E+02 -0.80370172974E+02  0.39533347873E+02  0.10893334167E+03  0.00000000000E+00 0.  1.
         14    1    3    3    0    0  0.82936015807E+01  0.18778827050E+02  0.26993181082E+02  0.33912534519E+02  0.00000000000E+00 0. -1.
        -11    1    4    4    0    0  0.22430361909E+02  0.11305152520E+00  0.49612808614E+02  0.54447816252E+02  0.00000000000E+00 0. -1.
         11    1    4    4    0    0 -0.94765820719E+02  0.23243878853E+02  0.19378454229E+03  0.21696379309E+03  0.00000000000E+00 0.  1.
         21    1    1    2  502  501  0.20400618642E+01  0.38234415545E+02 -0.33123674888E+02  0.50628156421E+02  0.00000000000E+00 0.  1.
<scales pt_clust_5="13000.00000" pt_clust_6="13000.00000" pt_clust_7="13000.00000" pt_clust_8="13000.00000" pt_clust_9="38.28880"></scales>
<clustering>
<clus scale="   38.289">  2  9  1 -1</clus>
<clus scale="   85.113">  5  6 -1 -1</clus>
<clus scale="   92.973">  7  8 -1 -1</clus>
<clus scale="  116.311">  2  5  1 -1</clus>
<clus scale="  122.180">  1  5  2 -1</clus>
</clustering>
</event>
<event>
 9    2  0.3402837E-005  0.1600421E+03  0.7546771E-02  0.1190488E+00
          2   -1    0    0  502    0  0.00000000000E+00  0.00000000000E+00  0.48609207642E+03  0.48609207642E+03  0.00000000000E+00 0. -1.
         -1   -1    0    0    0  501 -0.00000000000E+00 -0.00000000000E+00 -0.11378369184E+03  0.11378369184E+03  0.00000000000E+00 0.  1.
         23    2    1    2    0    0 -0.50697564495E+02 -0.15282220255E+03  0.41757044025E+02  0.19036334497E+03  0.92572586370E+02 0.  0.
         24    2    1    2    0    0  0.34939016526E+02  0.11921419781E+03  0.34022451986E+03  0.37115358839E+03  0.81052467104E+02 0.  0.
        -13    1    4    4    0    0  0.42731001733E+01  0.11730733287E+03  0.27757325789E+03  0.30137382638E+03  0.00000000000E+00 0.  1.
         14    1    4    4    0    0  0.30665916353E+02  0.19068649392E+01  0.62651261976E+02  0.69779762015E+02  0.00000000000E+00 0. -1.
        -13    1    3    3    0    0 -0.41622290949E+02 -0.50628102602E+02 -0.22511848176E+02  0.69299373628E+02  0.00000000000E+00 0.  1.
         13    1    3    3    0    0 -0.90752735456E+01 -0.10219409994E+03  0.64268892201E+02  0.12106397135E+03  0.00000000000E+00 0. -1.
         21    1    1    2  502  501  0.15758547968E+02  0.33608004741E+02 -0.96731793039E+01  0.38358834897E+02  0.00000000000E+00 0. -1.
<scales pt_clust_5="13000.00000" pt_clust_6="13000.00000" pt_clust_7="13000.00000" pt_clust_8="13000.00000" pt_clust_9="37.11913"></scales>
<clustering>
<clus scale="   37.119">  2  9  1 -1</clus>
<clus scale="   81.052">  5  6 -1 -1</clus>
<clus scale="   92.573">  7  8 -1 -1</clus>
<clus scale="  153.666">  1  5  2 -1</clus>
<clus scale="  153.666">  1  5  2 -1</clus>
</clustering>
</event>
<event>
 9    2  0.3402837E-005  0.1039570E+03  0.7546771E-02  0.1276305E+00
          2   -1    0    0  502    0  0.00000000000E+00  0.00000000000E+00  0.10639635546E+03  0.10639635546E+03  0.00000000000E+00 0. -1.
         -1   -1    0    0    0  501 -0.00000000000E+00 -0.00000000000E+00 -0.38454880963E+03  0.38454880963E+03  0.00000000000E+00 0.  1.
         24    2    1    2    0    0 -0.88237737317E+02 -0.45008894445E+02 -0.16969717557E+03  0.21317587643E+03  0.82674808923E+02 0.  0.
         23    2    1    2    0    0  0.26463568168E+02  0.31861458606E+02  0.46173250074E+02  0.11073969571E+03  0.91737877662E+02 0.  0.
        -11    1    3    3    0    0 -0.34762745539E+02 -0.22841335219E+02 -0.14391646004E+03  0.14980695092E+03  0.00000000000E+00 0.  1.
         12    1    3    3    0    0 -0.53474991778E+02 -0.22167559226E+02 -0.25780715524E+02  0.63368925513E+02  0.00000000000E+00 0. -1.
        -11    1    4    4    0    0  0.41273240055E+02 -0.17034657605E+02  0.46270267137E+01  0.44889523060E+02  0.00000000000E+00 0.  1.
         11    1    4    4    0    0 -0.14809671887E+02  0.48896116211E+02  0.41546223360E+02  0.65850172645E+02  0.00000000000E+00 0. -1.
         21    1    1    2  502  501  0.61774169149E+02  0.13147435839E+02 -0.15462852868E+03  0.16702959296E+03  0.00000000000E+00 0.  1.
<scales pt_clust_5="13000.00000" pt_clust_6="13000.00000" pt_clust_7="13000.00000" pt_clust_8="13000.00000" pt_clust_9="63.15776"></scales>
<clustering>
<clus scale="   63.158">  2  9  1 -1</clus>
<clus scale="   82.675">  5  6 -1 -1</clus>
<clus scale="   91.738">  7  8 -1 -1</clus>
<clus scale="   96.054">  2  5  1 -1</clus>
<clus scale="  103.957">  1  5  2 -1</clus>
</clustering>
</event>
<event>
 9    2  0.3402837E-005  0.1187603E+03  0.7546771E-02  0.1247483E+00
         -1   -1    0    0    0  501 -0.00000000000E+00  0.00000000000E+00  0.49400198638E+02  0.49400198638E+02  0.00000000000E+00 0.  1.
          2   -1    0    0  502    0  0.00000000000E+00 -0.00000000000E+00 -0.59760847547E+03  0.59760847547E+03  0.00000000000E+00 0. -1.
         23    2    1    2    0    0 -0.53146297535E+02 -0.77331477871E+01 -0.16021258915E+03  0.19090797286E+03  0.88845089124E+02 0.  0.
         24    2    1    2    0    0  0.91754991839E+02  0.23599168912E+02 -0.39453905998E+03  0.41384933887E+03  0.81451250030E+02 0.  0.
        -13    1    4    4    0    0  0.44786353390E+02 -0.11329772496E+02 -0.68657377008E+02  0.82752743836E+02  0.00000000000E+00 0.  1.
         14    1    4    4    0    0  0.46968638449E+02  0.34928941408E+02 -0.32588168297E+03  0.33109659503E+03  0.00000000000E+00 0. -1.
        -11    1    3    3    0    0 -0.71951179090E+02 -0.15236530440E+02 -0.82148523805E+02  0.11026107199E+03  0.00000000000E+00 0.  1.
         11    1    3    3    0    0  0.18804881556E+02  0.75033826527E+01 -0.78064065348E+02  0.80646900871E+02  0.00000000000E+00 0. -1.
         21    1    1    2  502  501 -0.38608694304E+02 -0.15866021125E+02  0.65433722983E+01  0.42251362383E+02  0.00000000000E+00 0.  1.
<scales pt_clust_5="13000.00000" pt_clust_6="13000.00000" pt_clust_7="13000.00000" pt_clust_8="13000.00000" pt_clust_9="41.74161"></scales>
<clustering>
<clus scale="   41.742">  1  9  2 -1</clus>
<clus scale="   81.451">  5  6 -1 -1</clus>
<clus scale="   88.845">  7  8 -1 -1</clus>
<clus scale="  113.335">  2  5  1 -1</clus>
<clus scale="  113.335">  2  5  1 -1</clus>
</clustering>
</event>
<event>
 9    2  0.3402837E-005  0.4705526E+03  0.7546771E-02  0.1076577E+00
         -1   -1    0    0    0  501 -0.00000000000E+00  0.00000000000E+00  0.31027184300E+03  0.31027184300E+03  0.00000000000E+00 0.  1.
          2   -1    0    0  502    0  0.00000000000E+00 -0.00000000000E+00 -0.10637352620E+04  0.10637352620E+04  0.00000000000E+00 0. -1.
         23    2    1    2    0    0 -0.24337921680E+02 -0.21959818959E+02 -0.45724552600E+02  0.10826920223E+03  0.92503607279E+02 0.  0.
         24    2    1    2    0    0 -0.45216710882E+03 -0.58818081391E+02 -0.62097536944E+03  0.77470835406E+03  0.81535043953E+02 0.  0.
        -13    1    4    4    0    0 -0.75306357583E+02 -0.15872988440E+02 -0.60231796319E+02  0.97728545177E+02  0.00000000000E+00 0.  1.
         14    1    4    4    0    0 -0.37686075124E+03 -0.42945092951E+02 -0.56074357312E+03  0.67697980888E+03  0.00000000000E+00 0. -1.
        -13    1    3    3    0    0  0.30216982714E+02 -0.85938074181E+01 -0.41350771999E+02  0.51930780037E+02  0.00000000000E+00 0.  1.
         13    1    3    3    0    0 -0.54554904394E+02 -0.13366011541E+02 -0.43737806008E+01  0.56338422189E+02  0.00000000000E+00 0. -1.
         21    1    1    2  502  501  0.47650503050E+03  0.80777900350E+02 -0.86763496927E+02  0.49102954868E+03  0.00000000000E+00 0.  1.
<scales pt_clust_5="13000.00000" pt_clust_6="13000.00000" pt_clust_7="13000.00000" pt_clust_8="13000.00000" pt_clust_9="463.43473"></scales>
<clustering>
<clus scale="   81.535">  5  6 -1 -1</clus>
<clus scale="   92.504">  7  8 -1 -1</clus>
<clus scale="   98.140">  1  7  2 -1</clus>
<clus scale="  463.435">  1  9  2 -1</clus>
<clus scale="  470.553">  2  5  1 -1</clus>
</clustering>
</event>
<event>
 9    2  0.3402837E-005  0.9120024E+02  0.7546771E-02  0.1303711E+00
         -1   -1    0    0    0  501 -0.00000000000E+00  0.00000000000E+00  0.31400356853E+02  0.31400356853E+02  0.00000000000E+00 0.  1.
          2   -1    0    0  502    0  0.00000000000E+00 -0.00000000000E+00 -0.83049777466E+03  0.83049777466E+03  0.00000000000E+00 0. -1.
         23    2    1    2    0    0  0.41035765566E+01 -0.27069338757E+01 -0.23675824913E+03  0.25317765796E+03  0.89556078101E+02 0.  0.
         24    2    1    2    0    0 -0.17762298367E+01 -0.24990874034E+02 -0.57253321647E+03  0.57911466810E+03  0.83377551414E+02 0.  0.
        -13    1    4    4    0    0  0.38080137255E+02 -0.96829034856E+01 -0.17840069937E+03  0.18267639423E+03  0.00000000000E+00 0.  1.
         14    1    4    4    0    0 -0.39856367092E+02 -0.15307970548E+02 -0.39413251709E+03  0.39643827387E+03  0.00000000000E+00 0. -1.
        -11    1    3    3    0    0  0.26131297922E+01 -0.42573304428E+02 -0.72247993983E+02  0.83899268959E+02  0.00000000000E+00 0. -1.
         11    1    3    3    0    0  0.14904467644E+01  0.39866370553E+02 -0.16451025515E+03  0.16927838900E+03  0.00000000000E+00 0.  1.
         21    1    1    2  502  501 -0.23273467199E+01  0.27697807909E+02  0.10194047795E+02  0.29605805447E+02  0.00000000000E+00 0.  1.
<scales pt_clust_5="13000.00000" pt_clust_6="13000.00000" pt_clust_7="13000.00000" pt_clust_8="13000.00000" pt_clust_9="27.79542"></scales>
<clustering>
<clus scale="   27.795">  1  9  2 -1</clus>
<clus scale="   83.378">  5  6 -1 -1</clus>
<clus scale="   85.141">  2  5  1 -1</clus>
<clus scale="   89.556">  7  8 -1 -1</clus>
<clus scale="   85.141">  2  5  1 -1</clus>
</clustering>
</event>
<event>
 9    2  0.3402837E-005  0.9773385E+02  0.7546771E-02  0.1290563E+00
         -1   -1    0    0    0  501 -0.00000000000E+00  0.00000000000E+00  0.22237458333E+03  0.22237458333E+03  0.00000000000E+00 0.  1.
          2   -1    0    0  502    0  0.00000000000E+00 -0.00000000000E+00 -0.21398984850E+03  0.21398984850E+03  0.00000000000E+00 0. -1.
         24    2    1    2    0    0  0.64478825403E+02  0.10144859798E+02  0.13471199229E+03  0.17008201552E+03  0.80747346897E+02 0.  0.
         23    2    1    2    0    0 -0.28140979118E+02 -0.18390045610E+02 -0.17791197549E+03  0.20264747861E+03  0.91012202935E+02 0.  0.
        -13    1    3    3    0    0  0.64670091435E+02  0.85167245539E+01  0.14535162916E+03  0.15931682718E+03  0.00000000000E+00 0.  1.
         14    1    3    3    0    0 -0.19126603225E+00  0.16281352446E+01 -0.10639636875E+02  0.10765188335E+02  0.00000000000E+00 0. -1.
        -11    1    4    4    0    0  0.15320771603E+01 -0.46275790434E+02 -0.48814753902E+02  0.67280578470E+02  0.00000000000E+00 0.  1.
         11    1    4    4    0    0 -0.29673056278E+02  0.27885744824E+02 -0.12909722158E+03  0.13536690014E+03  0.00000000000E+00 0. -1.
         21    1    1    2  502  501 -0.36337846285E+02  0.82451858114E+01  0.51584718029E+02  0.63634937698E+02  0.00000000000E+00 0. -1.
<scales pt_clust_5="13000.00000" pt_clust_6="13000.00000" pt_clust_7="13000.00000" pt_clust_8="13000.00000" pt_clust_9="37.26154"></scales>
<clustering>
<clus scale="   37.262">  1  9  2 -1</clus>
<clus scale="   80.747">  5  6 -1 -1</clus>
<clus scale="   88.254">  1  5  2 -1</clus>
<clus scale="   91.012">  7  8 -1 -1</clus>
<clus scale="   97.734">  2  5  1 -1</clus>
</clustering>
</event>
<event>
 9    2  0.3402837E-005  0.1576960E+03  0.7546771E-02  0.1207197E+00
         -1   -1    0    0    0  501 -0.00000000000E+00  0.00000000000E+00  0.17755333807E+03  0.17755333807E+03  0.00000000000E+00 0.  1.
          2   -1    0    0  502    0  0.00000000000E+00 -0.00000000000E+00 -0.44958254089E+03  0.44958254089E+03  0.00000000000E+00 0. -1.
         24    2    1    2    0    0  0.29659691015E+02  0.71993244340E+02  0.45837145059E+02  0.12070017131E+03  0.80029763129E+02 0.  0.
         23    2    1    2    0    0  0.10758293417E+03 -0.10465800913E+03 -0.94401233624E+01  0.16727606825E+03  0.73244661774E+02 0.  0.
        -13    1    3    3    0    0  0.30627873817E+02  0.89251400495E+02  0.38090428230E+02  0.10175834053E+03  0.00000000000E+00 0.  1.
         14    1    3    3    0    0 -0.96818280125E+00 -0.17258156155E+02  0.77467168287E+01  0.18941830784E+02  0.00000000000E+00 0. -1.
        -11    1    4    4    0    0  0.37385482567E+02 -0.54393046578E+02  0.29826061536E+02  0.72428390632E+02  0.00000000000E+00 0.  1.
         11    1    4    4    0    0  0.70197451604E+02 -0.50264962554E+02 -0.39266184899E+02  0.94847677614E+02  0.00000000000E+00 0. -1.
         21    1    1    2  502  501 -0.13724262519E+03  0.32664764792E+02 -0.30842622451E+03  0.33915963940E+03  0.00000000000E+00 0. -1.
<scales pt_clust_5="13000.00000" pt_clust_6="13000.00000" pt_clust_7="13000.00000" pt_clust_8="13000.00000" pt_clust_9="139.65407"></scales>
<clustering>
<clus scale="   73.245">  7  8 -1 -1</clus>
<clus scale="   80.030">  5  6 -1 -1</clus>
<clus scale="  111.658">  1  5  2 -1</clus>
<clus scale="  139.654">  2  9  1 -1</clus>
<clus scale="  139.654">  2  5  1 -1</clus>
</clustering>
</event>
<event>
 9    2  0.9046230E-005  0.9276655E+02  0.7546771E-02  0.1301933E+00
         -1   -1    0    0    0  501 -0.00000000000E+00  0.00000000000E+00  0.18804192324E+03  0.18804192324E+03  0.00000000000E+00 0.  1.
          2   -1    0    0  502    0  0.00000000000E+00 -0.00000000000E+00 -0.29938183018E+03  0.29938183018E+03  0.00000000000E+00 0. -1.
         24    2    1    2    0    0 -0.26283322436E+02 -0.36801081361E+01  0.14975346643E+03  0.17258775446E+03  0.81584778277E+02 0.  0.
         23    2    1    2    0    0  0.13264489700E+02 -0.12489713232E+02 -0.27474733865E+03  0.28998878792E+03  0.90969541070E+02 0.  0.
        -11    1    3    3    0    0 -0.50581352743E+02  0.55770691370E+01  0.57707942015E+02  0.76940129433E+02  0.00000000000E+00 0.  1.
         12    1    3    3    0    0  0.24298030307E+02 -0.92571772730E+01  0.92045524418E+02  0.95647625026E+02  0.00000000000E+00 0. -1.
        -13    1    4    4    0    0 -0.34405748137E+02 -0.25106874020E+02 -0.10773744311E+03  0.11585105643E+03  0.00000000000E+00 0.  1.
         13    1    4    4    0    0  0.47670237836E+02  0.12617160788E+02 -0.16700989554E+03  0.17413773149E+03  0.00000000000E+00 0. -1.
         21    1    1    2  502  501  0.13018832737E+02  0.16169821368E+02  0.13653965268E+02  0.24847211039E+02  0.00000000000E+00 0. -1.
<scales pt_clust_5="13000.00000" pt_clust_6="13000.00000" pt_clust_7="13000.00000" pt_clust_8="13000.00000" pt_clust_9="20.75941"></scales>
<clustering>
<clus scale="   20.759">  1  9  2 -1</clus>
<clus scale="   81.585">  5  6 -1 -1</clus>
<clus scale="   83.584">  1  5  2 -1</clus>
<clus scale="   90.970">  7  8 -1 -1</clus>
<clus scale="   92.767">  2  5  1 -1</clus>
</clustering>
</event>
<event>
 9    2  0.3402837E-005  0.1576989E+03  0.7546771E-02  0.1209648E+00
         -1   -1    0    0    0  501 -0.00000000000E+00  0.00000000000E+00  0.49293036609E+02  0.49293036609E+02  0.00000000000E+00 0.  1.
          2   -1    0    0  502    0  0.00000000000E+00 -0.00000000000E+00 -0.11237303356E+04  0.11237303356E+04  0.00000000000E+00 0. -1.
         23    2    1    2    0    0 -0.19787193256E+02  0.20509147774E+02 -0.16325727388E+03  0.19462065544E+03  0.10203971722E+03 0.  0.
         24    2    1    2    0    0  0.28257595081E+02 -0.13922823495E+03 -0.79706821182E+03  0.81351646718E+03  0.79424901595E+02 0.  0.
        -11    1    4    4    0    0 -0.16775424980E+02 -0.74815220301E+02 -0.27204583035E+03  0.28264406217E+03  0.00000000000E+00 0.  1.
         12    1    4    4    0    0  0.45033020061E+02 -0.64413014645E+02 -0.52502238147E+03  0.53087240501E+03  0.00000000000E+00 0. -1.
        -11    1    3    3    0    0  0.19510412547E+02 -0.33430917374E+02 -0.51028583636E+02  0.64048409677E+02  0.00000000000E+00 0. -1.
         11    1    3    3    0    0 -0.39297605802E+02  0.53940065147E+02 -0.11222869024E+03  0.13057224576E+03  0.00000000000E+00 0.  1.
         21    1    1    2  502  501 -0.84704018250E+01  0.11871908717E+03 -0.11411181324E+03  0.16488624954E+03  0.00000000000E+00 0.  1.
<scales pt_clust_5="13000.00000" pt_clust_6="13000.00000" pt_clust_7="13000.00000" pt_clust_8="13000.00000" pt_clust_9="136.23741"></scales>
<clustering>
<clus scale="   79.425">  5  6 -1 -1</clus>
<clus scale="  102.040">  7  8 -1 -1</clus>
<clus scale="  105.945">  1  7  2 -1</clus>
<clus scale="  136.237">  1  9  2 -1</clus>
<clus scale="  157.699">  2  5  1 -1</clus>
</clustering>
</event>
<event>
 9    2  0.3402837E-005  0.1404387E+03  0.7546771E-02  0.1215977E+00
         -1   -1    0    0    0  501 -0.00000000000E+00  0.00000000000E+00  0.31752304413E+03  0.31752304413E+03  0.00000000000E+00 0.  1.
          2   -1    0    0  502    0  0.00000000000E+00 -0.00000000000E+00 -0.11696350188E+03  0.11696350188E+03  0.00000000000E+00 0. -1.
         23    2    1    2    0    0 -0.58167035002E+02 -0.63944227955E+02  0.12806591138E+03  0.18101566067E+03  0.94305479687E+02 0.  0.
         24    2    1    2    0    0  0.93221106721E+02  0.60121944876E+02 -0.34410963542E+02  0.14090095109E+03  0.79775563997E+02 0.  0.
        -11    1    4    4    0    0  0.82129620242E+02  0.13864864327E+02 -0.19541342663E+01  0.83314630316E+02  0.00000000000E+00 0.  1.
         12    1    4    4    0    0  0.11091486479E+02  0.46257080549E+02 -0.32456829276E+02  0.57586320770E+02  0.00000000000E+00 0. -1.
        -13    1    3    3    0    0  0.23432330821E+02  0.11947951373E+01  0.25599419101E+02  0.34725090661E+02  0.00000000000E+00 0.  1.
         13    1    3    3    0    0 -0.81599365824E+02 -0.65139023092E+02  0.10246649228E+03  0.14629057001E+03  0.00000000000E+00 0. -1.
         21    1    1    2  502  501 -0.35054071719E+02  0.38222830785E+01  0.10690459440E+03  0.11256993425E+03  0.00000000000E+00 0. -1.
<scales pt_clust_5="13000.00000" pt_clust_6="13000.00000" pt_clust_7="13000.00000" pt_clust_8="13000.00000" pt_clust_9="35.26185"></scales>
<clustering>
<clus scale="   35.262">  1  9  2 -1</clus>
<clus scale="   79.776">  5  6 -1 -1</clus>
<clus scale="   94.305">  7  8 -1 -1</clus>
<clus scale="  131.125">  2  5  1 -1</clus>
<clus scale="  131.125">  2  5  1 -1</clus>
</clustering>
</event>
<event>
 9    2  0.3402837E-005  0.1951579E+03  0.7546771E-02  0.1193766E+00
         -1   -1    0    0    0  501 -0.00000000000E+00  0.00000000000E+00  0.79536549256E+02  0.79536549256E+02  0.00000000000E+00 0.  1.
          2   -1    0    0  502    0  0.00000000000E+00 -0.00000000000E+00 -0.11051844849E+04  0.11051844849E+04  0.00000000000E+00 0. -1.
         23    2    1    2    0    0 -0.16394712312E+03  0.48907817755E+02 -0.37838415821E+03  0.42531667458E+03  0.91918815654E+02 0.  0.
         24    2    1    2    0    0 -0.21025042775E+01 -0.20598610751E+01 -0.56099101552E+03  0.56650490586E+03  0.78792292286E+02 0.  0.
        -11    1    4    4    0    0  0.32207807861E+02 -0.20574001817E+02 -0.22031164026E+03  0.22360199300E+03  0.00000000000E+00 0.  1.
         12    1    4    4    0    0 -0.34310312139E+02  0.18514140742E+02 -0.34067937525E+03  0.34290291286E+03  0.00000000000E+00 0. -1.
        -11    1    3    3    0    0 -0.55584170668E+02 -0.22197823311E+02 -0.79260842722E+02  0.99320816436E+02  0.00000000000E+00 0.  1.
         11    1    3    3    0    0 -0.10836295245E+03  0.71105641066E+02 -0.29912331549E+03  0.32599585814E+03  0.00000000000E+00 0. -1.
         21    1    1    2  502  501  0.16604962739E+03 -0.46847956680E+02 -0.86272761944E+02  0.19289945375E+03  0.00000000000E+00 0.  1.
<scales pt_clust_5="13000.00000" pt_clust_6="13000.00000" pt_clust_7="13000.00000" pt_clust_8="13000.00000" pt_clust_9="172.15554"></scales>
<clustering>
<clus scale="   78.792">  5  6 -1 -1</clus>
<clus scale="   78.847">  2  5  1 -1</clus>
<clus scale="   91.919">  7  8 -1 -1</clus>
<clus scale="  172.156">  1  9  2 -1</clus>
<clus scale="   78.847">  2  5  1 -1</clus>
</clustering>
</event>
<event>
 9    2  0.3402837E-005  0.1530731E+03  0.7546771E-02  0.1198765E+00
          2   -1    0    0  502    0  0.00000000000E+00  0.00000000000E+00  0.37587536683E+03  0.37587536683E+03  0.00000000000E+00 0. -1.
         -1   -1    0    0    0  501 -0.00000000000E+00 -0.00000000000E+00 -0.10469623924E+03  0.10469623924E+03  0.00000000000E+00 0.  1.
         24    2    1    2    0    0 -0.13488893539E+03 -0.61957559792E+02  0.40459360436E+02  0.17340906418E+03  0.79999872431E+02 0.  0.
         23    2    1    2    0    0  0.10028987030E+03  0.55245934177E+02  0.22898181413E+03  0.27187569301E+03  0.91507103088E+02 0.  0.
        -11    1    3    3    0    0 -0.58578120601E+02 -0.63509425282E+02 -0.12930342152E+01  0.86408999822E+02  0.00000000000E+00 0.  1.
         12    1    3    3    0    0 -0.76310814786E+02  0.15518654899E+01  0.41752394651E+02  0.87000064362E+02  0.00000000000E+00 0. -1.
        -13    1    4    4    0    0  0.15493089451E+02  0.15984638545E+02 -0.23490116501E+01  0.22384421946E+02  0.00000000000E+00 0.  1.
         13    1    4    4    0    0  0.84796780853E+02  0.39261295632E+02  0.23133082578E+03  0.24949127106E+03  0.00000000000E+00 0. -1.
         21    1    1    2  502  501  0.34599065084E+02  0.67116256151E+01  0.17379530199E+01  0.35286848879E+02  0.00000000000E+00 0.  1.
<scales pt_clust_5="13000.00000" pt_clust_6="13000.00000" pt_clust_7="13000.00000" pt_clust_8="13000.00000" pt_clust_9="35.24402"></scales>
<clustering>
<clus scale="   35.244">  2  9  1 -1</clus>
<clus scale="   80.000">  5  6 -1 -1</clus>
<clus scale="   91.507">  7  8 -1 -1</clus>
<clus scale="  146.485">  2  5  1 -1</clus>
<clus scale="  153.073">  1  5  2 -1</clus>
</clustering>
</event>
<event>
 9    2  0.3402837E-005  0.4017652E+03  0.7546771E-02  0.1074992E+00
         -1   -1    0    0    0  501 -0.00000000000E+00  0.00000000000E+00  0.20884947589E+03  0.20884947589E+03  0.00000000000E+00 0.  1.
          2   -1    0    0  502    0  0.00000000000E+00 -0.00000000000E+00 -0.15609514873E+04  0.15609514873E+04  0.00000000000E+00 0. -1.
         23    2    1    2    0    0  0.33876041585E+03 -0.12287763906E+03 -0.15737064045E+03  0.40402264615E+03  0.92796802724E+02 0.  0.
         24    2    1    2    0    0  0.14473409919E+03  0.71837850200E+01 -0.30381965828E+03  0.34554516050E+03  0.78073727684E+02 0.  0.
        -13    1    4    4    0    0  0.10575615920E+02  0.26744526953E+02 -0.45976954083E+02  0.54230929189E+02  0.00000000000E+00 0.  1.
         14    1    4    4    0    0  0.13415848327E+03 -0.19560741933E+02 -0.25784270420E+03  0.29131423131E+03  0.00000000000E+00 0. -1.
        -13    1    3    3    0    0  0.62303630115E+02  0.26085453575E+01 -0.56368573165E+02  0.84059281909E+02  0.00000000000E+00 0. -1.
         13    1    3    3    0    0  0.27645678573E+03 -0.12548618442E+03 -0.10100206729E+03  0.31996336424E+03  0.00000000000E+00 0.  1.
         21    1    1    2  502  501 -0.48349451504E+03  0.11569385404E+03 -0.89091171272E+03  0.10202331566E+04  0.00000000000E+00 0. -1.
<scales pt_clust_5="13000.00000" pt_clust_6="13000.00000" pt_clust_7="13000.00000" pt_clust_8="13000.00000" pt_clust_9="390.90153"></scales>
<clustering>
<clus scale="   78.074">  5  6 -1 -1</clus>
<clus scale="   92.797">  7  8 -1 -1</clus>
<clus scale="  164.606">  2  5  1 -1</clus>
<clus scale="  390.902">  2  9  1 -1</clus>
<clus scale="  164.606">  2  5  1 -1</clus>
</clustering>
</event>
<event>
 9    2  0.3402837E-005  0.1154244E+03  0.7546771E-02  0.1254589E+00
          2   -1    0    0  502    0  0.00000000000E+00  0.00000000000E+00  0.14163772598E+04  0.14163772598E+04  0.00000000000E+00 0. -1.
         -1   -1    0    0    0  501 -0.00000000000E+00 -0.00000000000E+00 -0.19609595740E+02  0.19609595740E+02  0.00000000000E+00 0.  1.
         23    2    1    2    0    0  0.42601489441E+02 -0.77343176640E+02  0.24993940566E+03  0.28016113225E+03  0.90684616389E+02 0.  0.
         24    2    1    2    0    0 -0.22599756673E+02  0.64885036227E+02  0.10767429398E+04  0.10818850277E+04  0.79868879265E+02 0.  0.
        -13    1    4    4    0    0  0.14020595106E+02  0.19089905540E+02  0.80351086651E+02  0.83769318409E+02  0.00000000000E+00 0.  1.
         14    1    4    4    0    0 -0.36620351780E+02  0.45795130687E+02  0.99639185317E+03  0.99811570933E+03  0.00000000000E+00 0. -1.
        -11    1    3    3    0    0 -0.43052084171E+01 -0.69871678963E+02  0.94356035972E+02  0.11748892656E+03  0.00000000000E+00 0.  1.
         11    1    3    3    0    0  0.46906697858E+02 -0.74714976773E+01  0.15558336968E+03  0.16267220569E+03  0.00000000000E+00 0. -1.
         21    1    1    2  502  501 -0.20001732768E+02  0.12458140413E+02  0.70085318546E+02  0.73940695506E+02  0.00000000000E+00 0.  1.
<scales pt_clust_5="13000.00000" pt_clust_6="13000.00000" pt_clust_7="13000.00000" pt_clust_8="13000.00000" pt_clust_9="23.56426"></scales>
<clustering>
<clus scale="   23.564">  2  9  1 -1</clus>
<clus scale="   79.869">  5  6 -1 -1</clus>
<clus scale="   90.685">  7  8 -1 -1</clus>
<clus scale="  107.136">  1  5  2 -1</clus>
<clus scale="  107.136">  1  5  2 -1</clus>
</clustering>
</event>
<event>
 9    2  0.3402837E-005  0.1012010E+03  0.7546771E-02  0.1280836E+00
         -1   -1    0    0    0  501 -0.00000000000E+00  0.00000000000E+00  0.41608889528E+02  0.41608889528E+02  0.00000000000E+00 0.  1.
          2   -1    0    0  502    0  0.00000000000E+00 -0.00000000000E+00 -0.49945594742E+03  0.49945594742E+03  0.00000000000E+00 0. -1.
         24    2    1    2    0    0  0.29425060649E+02  0.44541489409E+01 -0.85902971913E+02  0.12333870884E+03  0.83351321993E+02 0.  0.
         23    2    1    2    0    0 -0.36512476657E+02 -0.42198883735E+02 -0.36327637940E+03  0.37835576352E+03  0.89830113107E+02 0.  0.
        -11    1    3    3    0    0  0.49546029719E+02  0.41481636438E+01 -0.18588282096E+02  0.53080510112E+02  0.00000000000E+00 0.  1.
         12    1    3    3    0    0 -0.20120969070E+02  0.30598529712E+00 -0.67314689817E+02  0.70258198728E+02  0.00000000000E+00 0. -1.
        -13    1    4    4    0    0  0.18512010887E+02 -0.43394951906E+02 -0.21696311559E+03  0.22203335318E+03  0.00000000000E+00 0. -1.
         13    1    4    4    0    0 -0.55024487544E+02  0.11960681706E+01 -0.14631326381E+03  0.15632241034E+03  0.00000000000E+00 0.  1.
         21    1    1    2  502  501  0.70874160082E+01  0.37744734794E+02 -0.86677065820E+01  0.39370364588E+02  0.00000000000E+00 0.  1.
<scales pt_clust_5="13000.00000" pt_clust_6="13000.00000" pt_clust_7="13000.00000" pt_clust_8="13000.00000" pt_clust_9="38.40438"></scales>
<clustering>
<clus scale="   38.404">  1  9  2 -1</clus>
<clus scale="   83.351">  5  6 -1 -1</clus>
<clus scale="   89.830">  7  8 -1 -1</clus>
<clus scale="   95.497">  1  5  2 -1</clus>
<clus scale="  101.201">  2  5  1 -1</clus>
</clustering>
</event>
<event>
 9    2  0.3402837E-005  0.1196626E+03  0.7546771E-02  0.1246239E+00
         -1   -1    0    0    0  501 -0.00000000000E+00  0.00000000000E+00  0.15403363646E+02  0.15403363646E+02  0.00000000000E+00 0.  1.
          2   -1    0    0  502    0  0.00000000000E+00 -0.00000000000E+00 -0.14430197162E+04  0.14430197162E+04  0.00000000000E+00 0. -1.
         23    2    1    2    0    0 -0.90685245630E+02 -0.12173891122E+02 -0.38535958772E+03  0.40630610513E+03  0.90612481574E+02 0.  0.
         24    2    1    2    0    0  0.74376393488E+02 -0.33634276440E+00 -0.98584772288E+03  0.99207978105E+03  0.82429352897E+02 0.  0.
        -13    1    4    4    0    0  0.38129178109E+02  0.31939810576E+02 -0.26686086523E+03  0.27145663947E+03  0.00000000000E+00 0.  1.
         14    1    4    4    0    0  0.36247215379E+02 -0.32276153341E+02 -0.71898685765E+03  0.72062314158E+03  0.00000000000E+00 0. -1.
        -11    1    3    3    0    0 -0.24256841760E+01 -0.36473452801E+02 -0.92034211023E+02  0.99027737032E+02  0.00000000000E+00 0. -1.
         11    1    3    3    0    0 -0.88259561454E+02  0.24299561679E+02 -0.29332537670E+03  0.30727836810E+03  0.00000000000E+00 0.  1.
         21    1    1    2  502  501  0.16308852142E+02  0.12510233887E+02 -0.56409041993E+02  0.60037193711E+02  0.00000000000E+00 0.  1.
<scales pt_clust_5="13000.00000" pt_clust_6="13000.00000" pt_clust_7="13000.00000" pt_clust_8="13000.00000" pt_clust_9="20.55443"></scales>
<clustering>
<clus scale="   20.554">  1  9  2 -1</clus>
<clus scale="   82.429">  5  6 -1 -1</clus>
<clus scale="   90.612">  7  8 -1 -1</clus>
<clus scale="  113.592">  2  5  1 -1</clus>
<clus scale="  113.592">  2  5  1 -1</clus>
</clustering>
</event>
<event>
 9    2  0.3402837E-005  0.1122459E+03  0.7546771E-02  0.1260982E+00
          2   -1    0    0  502    0  0.00000000000E+00  0.00000000000E+00  0.12659667166E+04  0.12659667166E+04  0.00000000000E+00 0. -1.
         -1   -1    0    0    0  501 -0.00000000000E+00 -0.00000000000E+00 -0.57657403411E+02  0.57657403411E+02  0.00000000000E+00 0.  1.
         23    2    1    2    0    0  0.24593061618E+02  0.37810460674E+02  0.10118509807E+02  0.10301083720E+03  0.92056497454E+02 0.  0.
         24    2    1    2    0    0  0.53628824838E+02 -0.41256610281E+02  0.10272947013E+04  0.10326345149E+04  0.80134133530E+02 0.  0.
        -13    1    4    4    0    0  0.41432468361E+02  0.49900536865E+01  0.21992437497E+03  0.22384878998E+03  0.00000000000E+00 0.  1.
         14    1    4    4    0    0  0.12196356477E+02 -0.46246663967E+02  0.80737032630E+03  0.80878572492E+03  0.00000000000E+00 0. -1.
        -13    1    3    3    0    0 -0.17534388447E+02 -0.21713030485E+02  0.11219009664E+02  0.30079505463E+02  0.00000000000E+00 0. -1.
         13    1    3    3    0    0  0.42127450066E+02  0.59523491159E+02 -0.11004998566E+01  0.72931331735E+02  0.00000000000E+00 0.  1.
         21    1    1    2  502  501 -0.78221886457E+02  0.34461496072E+01  0.17089610207E+03  0.18797876787E+03  0.00000000000E+00 0.  1.
<scales pt_clust_5="13000.00000" pt_clust_6="13000.00000" pt_clust_7="13000.00000" pt_clust_8="13000.00000" pt_clust_9="78.29776"></scales>
<clustering>
<clus scale="   78.298">  2  9  1 -1</clus>
<clus scale="   80.134">  5  6 -1 -1</clus>
<clus scale="   92.056">  7  8 -1 -1</clus>
<clus scale="  102.695">  1  5  2 -1</clus>
<clus scale="  102.695">  1  5  2 -1</clus>
</clustering>
</event>
<event>
 9    2  0.3402837E-005  0.1101317E+03  0.7546771E-02  0.1265397E+00
         -1   -1    0    0    0  501 -0.00000000000E+00  0.00000000000E+00  0.14409028394E+03  0.14409028394E+03  0.00000000000E+00 0.  1.
          2   -1    0    0  502    0  0.00000000000E+00 -0.00000000000E+00 -0.25938739834E+03  0.25938739834E+03  0.00000000000E+00 0. -1.
         23    2    1    2    0    0  0.55185360748E+02  0.40001641770E+02 -0.28543788945E+02  0.11904624880E+03  0.93336520614E+02 0.  0.
         24    2    1    2    0    0 -0.53019074894E+02 -0.18760876224E+02 -0.17111292924E+03  0.19741186289E+03  0.80801090816E+02 0.  0.
        -13    1    4    4    0    0 -0.97966782302E+01 -0.44890185252E+02 -0.61931331223E+02  0.77114158385E+02  0.00000000000E+00 0.  1.
         14    1    4    4    0    0 -0.43222396664E+02  0.26129309028E+02 -0.10918159801E+03  0.12029770450E+03  0.00000000000E+00 0. -1.
        -11    1    3    3    0    0  0.36954701271E+02 -0.10487209883E+02 -0.48418190255E+02  0.61805765627E+02  0.00000000000E+00 0. -1.
         11    1    3    3    0    0  0.18230659477E+02  0.50488851653E+02  0.19874401310E+02  0.57240483171E+02  0.00000000000E+00 0.  1.
         21    1    1    2  502  501 -0.21662858536E+01 -0.21240765547E+02  0.84359603781E+02  0.87019570589E+02  0.00000000000E+00 0.  1.
<scales pt_clust_5="13000.00000" pt_clust_6="13000.00000" pt_clust_7="13000.00000" pt_clust_8="13000.00000" pt_clust_9="21.35095"></scales>
<clustering>
<clus scale="   21.351">  1  9  2 -1</clus>
<clus scale="   80.801">  5  6 -1 -1</clus>
<clus scale="   93.337">  7  8 -1 -1</clus>
<clus scale="   99.730">  2  5  1 -1</clus>
<clus scale="   99.730">  2  5  1 -1</clus>
</clustering>
</event>
<event>
 9    2  0.3402837E-005  0.9505835E+02  0.7546771E-02  0.1296905E+00
          2   -1    0    0  502    0  0.00000000000E+00  0.00000000000E+00  0.86679417792E+03  0.86679417792E+03  0.00000000000E+00 0. -1.
         -1   -1    0    0    0  501 -0.00000000000E+00 -0.00000000000E+00 -0.67464791975E+02  0.67464791975E+02  0.00000000000E+00 0.  1.
         23    2    1    2    0    0 -0.17070464109E+02 -0.51168986119E+01  0.44439347604E+02  0.10202255572E+03  0.90089748935E+02 0.  0.
         24    2    1    2    0    0  0.17829256292E+02 -0.27001619991E+02  0.78410936432E+03  0.78880895728E+03  0.79656173691E+02 0.  0.
        -11    1    4    4    0    0 -0.15118228237E+02  0.13818306315E+02  0.74527853501E+02  0.77291056157E+02  0.00000000000E+00 0.  1.
         12    1    4    4    0    0  0.32947484529E+02 -0.40819926306E+02  0.70958151082E+03  0.71151790112E+03  0.00000000000E+00 0. -1.
        -13    1    3    3    0    0  0.35519832244E+01  0.36202441786E+02 -0.21298037309E+01  0.36438570774E+02  0.00000000000E+00 0.  1.
         13    1    3    3    0    0 -0.20622447333E+02 -0.41319340398E+02  0.46569151334E+02  0.65583984943E+02  0.00000000000E+00 0. -1.
         21    1    1    2  502  501 -0.75879218353E+00  0.32118518603E+02 -0.29219325973E+02  0.43427456904E+02  0.00000000000E+00 0.  1.
<scales pt_clust_5="13000.00000" pt_clust_6="13000.00000" pt_clust_7="13000.00000" pt_clust_8="13000.00000" pt_clust_9="32.12748"></scales>
<clustering>
<clus scale="   32.127">  2  9  1 -1</clus>
<clus scale="   79.656">  5  6 -1 -1</clus>
<clus scale="   85.235">  1  5  2 -1</clus>
<clus scale="   90.090">  7  8 -1 -1</clus>
<clus scale="   85.235">  1  5  2 -1</clus>
</clustering>
</event>
<event>
 9    2  0.3402837E-005  0.1281647E+03  0.7546771E-02  0.1232967E+00
          2   -1    0    0  502    0  0.00000000000E+00  0.00000000000E+00  0.52685394183E+03  0.52685394183E+03  0.00000000000E+00 0. -1.
         -1   -1    0    0    0  501 -0.00000000000E+00 -0.00000000000E+00 -0.82970353285E+02  0.82970353285E+02  0.00000000000E+00 0.  1.
         23    2    1    2    0    0 -0.91548244230E+02 -0.10469279744E+02 -0.47546240541E+01  0.12982388110E+03  0.91328784148E+02 0.  0.
         24    2    1    2    0    0  0.69581865979E+02  0.53285507951E+02  0.35791947693E+03  0.37730844659E+03  0.81082245136E+02 0.  0.
        -13    1    4    4    0    0  0.49115923639E+02  0.62084744896E+02  0.16392737871E+03  0.18204141011E+03  0.00000000000E+00 0.  1.
         14    1    4    4    0    0  0.20465942340E+02 -0.87992369455E+01  0.19399209822E+03  0.19526703649E+03  0.00000000000E+00 0. -1.
        -13    1    3    3    0    0 -0.23846116095E+02 -0.37124932144E+02  0.25569627705E+02  0.50997095020E+02  0.00000000000E+00 0. -1.
         13    1    3    3    0    0 -0.67702128135E+02  0.26655652400E+02 -0.30324251759E+02  0.78826786079E+02  0.00000000000E+00 0.  1.
         21    1    1    2  502  501  0.21966378250E+02 -0.42816228207E+02  0.90718735673E+02  0.10269196742E+03  0.00000000000E+00 0.  1.
<scales pt_clust_5="13000.00000" pt_clust_6="13000.00000" pt_clust_7="13000.00000" pt_clust_8="13000.00000" pt_clust_9="48.12225"></scales>
<clustering>
<clus scale="   48.122">  1  9  2 -1</clus>
<clus scale="   81.082">  5  6 -1 -1</clus>
<clus scale="   91.329">  7  8 -1 -1</clus>
<clus scale="  121.077">  1  5  2 -1</clus>
<clus scale="   48.122">  1  5  2 -1</clus>
</clustering>
</event>
<event>
 9    2  0.3402837E-005  0.9224876E+02  0.7546771E-02  0.1306786E+00
         -1   -1    0    0    0  501 -0.00000000000E+00  0.00000000000E+00  0.23357332616E+02  0.23357332616E+02  0.00000000000E+00 0.  1.
          2   -1    0    0  502    0  0.00000000000E+00 -0.00000000000E+00 -0.50397386508E+03  0.50397386508E+03  0.00000000000E+00 0. -1.
         24    2    1    2    0    0 -0.28023951522E+02 -0.11400062062E+02 -0.12544590866E+03  0.15016565879E+03  0.76796782534E+02 0.  0.
         23    2    1    2    0    0 -0.26248571298E+01  0.78158318612E+01 -0.30249277809E+03  0.31611513671E+03  0.91427139090E+02 0.  0.
        -11    1    3    3    0    0 -0.36138032705E+02 -0.34455550733E+02 -0.49201565239E+02  0.70099475077E+02  0.00000000000E+00 0.  1.
         12    1    3    3    0    0  0.81140811834E+01  0.23055488671E+02 -0.76244343419E+02  0.80066183715E+02  0.00000000000E+00 0. -1.
        -11    1    4    4    0    0  0.28678467577E+02  0.38467214541E+02 -0.15993271524E+03  0.16697501161E+03  0.00000000000E+00 0. -1.
         11    1    4    4    0    0 -0.31303324707E+02 -0.30651382680E+02 -0.14256006285E+03  0.14914012511E+03  0.00000000000E+00 0.  1.
         21    1    1    2  502  501  0.30648808652E+02  0.35842302010E+01 -0.52677845720E+02  0.61050402190E+02  0.00000000000E+00 0. -1.
<scales pt_clust_5="13000.00000" pt_clust_6="13000.00000" pt_clust_7="13000.00000" pt_clust_8="13000.00000" pt_clust_9="30.85768"></scales>
<clustering>
<clus scale="   30.858">  1  9  2 -1</clus>
<clus scale="   76.797">  5  6 -1 -1</clus>
<clus scale="   77.773">  1  5  2 -1</clus>
<clus scale="   91.427">  7  8 -1 -1</clus>
<clus scale="   92.249">  2  5  1 -1</clus>
</clustering>
</event>
<event>
 9    2  0.3459767E-005  0.1620128E+03  0.7546771E-02  0.1191127E+00
          2   -1    0    0  502    0  0.00000000000E+00  0.00000000000E+00  0.12219338324E+04  0.12219338324E+04  0.00000000000E+00 0. -1.
         -1   -1    0    0    0  501 -0.00000000000E+00 -0.00000000000E+00 -0.76307797626E+02  0.76307797626E+02  0.00000000000E+00 0.  1.
         23    2    1    2    0    0  0.77845372018E+02  0.95889322553E+02  0.25920716950E+02  0.16481828904E+03  0.10601188948E+03 0.  0.
         24    2    1    2    0    0 -0.55887036803E+02 -0.97803561569E+02  0.10724890966E+04  0.10813157183E+04  0.79510519878E+02 0.  0.
        -11    1    4    4    0    0 -0.27137252442E+02 -0.66007361300E+02  0.33186783366E+03  0.33945494729E+03  0.00000000000E+00 0.  1.
         12    1    4    4    0    0 -0.28749784361E+02 -0.31796200269E+02  0.74062126290E+03  0.74186077097E+03  0.00000000000E+00 0. -1.
        -11    1    3    3    0    0 -0.21344237887E+02  0.25351690629E+02  0.27546618371E+02  0.43094093474E+02  0.00000000000E+00 0. -1.
         11    1    3    3    0    0  0.99189609905E+02  0.70537631924E+02 -0.16259014203E+01  0.12172419557E+03  0.00000000000E+00 0.  1.
         21    1    1    2  502  501 -0.21958335215E+02  0.19142390154E+01  0.47216221286E+02  0.52107622753E+02  0.00000000000E+00 0. -1.
<scales pt_clust_5="13000.00000" pt_clust_6="13000.00000" pt_clust_7="13000.00000" pt_clust_8="13000.00000" pt_clust_9="22.04162"></scales>
<clustering>
<clus scale="   22.042">  1  9  2 -1</clus>
<clus scale="   79.511">  5  6 -1 -1</clus>
<clus scale="  106.012">  7  8 -1 -1</clus>
<clus scale="  146.053">  1  5  2 -1</clus>
<clus scale="   22.042">  1  5  2 -1</clus>
</clustering>
</event>
<event>
 9    2  0.3402837E-005  0.1101840E+03  0.7546771E-02  0.1264558E+00
         -1   -1    0    0    0  501 -0.00000000000E+00  0.00000000000E+00  0.11705394790E+03  0.11705394790E+03  0.00000000000E+00 0.  1.
          2   -1    0    0  502    0  0.00000000000E+00 -0.00000000000E+00 -0.58685015868E+03  0.58685015868E+03  0.00000000000E+00 0. -1.
         23    2    1    2    0    0 -0.10462110281E+02  0.91018194932E+02 -0.30851922652E+02  0.13259661931E+03  0.90753814033E+02 0.  0.
         24    2    1    2    0    0  0.89160919083E+01 -0.58988664385E+02 -0.49598586573E+03  0.50587032217E+03  0.79647000123E+02 0.  0.
        -11    1    4    4    0    0  0.24094062132E+01 -0.48983193542E+02 -0.11918727438E+03  0.12888275626E+03  0.00000000000E+00 0.  1.
         12    1    4    4    0    0  0.65066856951E+01 -0.10005470843E+02 -0.37679859135E+03  0.37698756591E+03  0.00000000000E+00 0. -1.
        -11    1    3    3    0    0 -0.35339348126E+02  0.81698375754E+02  0.36060095815E+01  0.89087021680E+02  0.00000000000E+00 0.  1.
         11    1    3    3    0    0  0.24877237844E+02  0.93198191784E+01 -0.34457932234E+02  0.43509597632E+02  0.00000000000E+00 0. -1.
         21    1    1    2  502  501  0.15460183731E+01 -0.32029530547E+02  0.57041577604E+02  0.65437165093E+02  0.00000000000E+00 0.  1.
<scales pt_clust_5="13000.00000" pt_clust_6="13000.00000" pt_clust_7="13000.00000" pt_clust_8="13000.00000" pt_clust_9="32.06682"></scales>
<clustering>
<clus scale="   32.067">  1  9  2 -1</clus>
<clus scale="   79.647">  5  6 -1 -1</clus>
<clus scale="   90.754">  7  8 -1 -1</clus>
<clus scale="  101.232">  2  5  1 -1</clus>
<clus scale="  101.232">  2  5  1 -1</clus>
</clustering>
</event>
<event>
 9    2  0.3402837E-005  0.1234837E+03  0.7546771E-02  0.1240904E+00
         -1   -1    0    0    0  501 -0.00000000000E+00  0.00000000000E+00  0.20969976912E+03  0.20969976912E+03  0.00000000000E+00 0.  1.
          2   -1    0    0  502    0  0.00000000000E+00 -0.00000000000E+00 -0.40347094445E+03  0.40347094445E+03  0.00000000000E+00 0. -1.
         23    2    1    2    0    0 -0.67265798144E+02  0.23018334974E+02  0.91155547051E+02  0.14777239375E+03  0.92047896502E+02 0.  0.
         24    2    1    2    0    0  0.74120176519E+02  0.41560073994E+02 -0.35265200092E+03  0.37156833123E+03  0.80489444644E+02 0.  0.
        -13    1    4    4    0    0  0.17764638100E+02  0.36960775538E+02 -0.55065710428E+02  0.68657947538E+02  0.00000000000E+00 0.  1.
         14    1    4    4    0    0  0.56355538419E+02  0.45992984559E+01 -0.29758629049E+03  0.30291038369E+03  0.00000000000E+00 0. -1.
        -13    1    3    3    0    0  0.23349209561E+02  0.57338963185E+01  0.19828056252E+02  0.31164322050E+02  0.00000000000E+00 0. -1.
         13    1    3    3    0    0 -0.90615007705E+02  0.17284438655E+02  0.71327490799E+02  0.11660807170E+03  0.00000000000E+00 0.  1.
         21    1    1    2  502  501 -0.68543783746E+01 -0.64578408968E+02  0.67725278533E+02  0.93829988597E+02  0.00000000000E+00 0.  1.
<scales pt_clust_5="13000.00000" pt_clust_6="13000.00000" pt_clust_7="13000.00000" pt_clust_8="13000.00000" pt_clust_9="64.94115"></scales>
<clustering>
<clus scale="   64.941">  1  9  2 -1</clus>
<clus scale="   80.489">  5  6 -1 -1</clus>
<clus scale="   92.048">  7  8 -1 -1</clus>
<clus scale="  115.126">  2  5  1 -1</clus>
<clus scale="  115.126">  2  5  1 -1</clus>
</clustering>
</event>
<event>
 9    2  0.3402837E-005  0.9126138E+02  0.7546771E-02  0.1307291E+00
         -1   -1    0    0    0  501 -0.00000000000E+00  0.00000000000E+00  0.96035098448E+02  0.96035098448E+02  0.00000000000E+00 0.  1.
          2   -1    0    0  502    0  0.00000000000E+00 -0.00000000000E+00 -0.23655724858E+03  0.23655724858E+03  0.00000000000E+00 0. -1.
         23    2    1    2    0    0 -0.36464305086E+02  0.10552437956E+02 -0.31519593032E+02  0.10353760458E+03  0.91025003845E+02 0.  0.
         24    2    1    2    0    0 -0.86586640276E+01 -0.53058527736E+01 -0.14862812771E+03  0.16877377659E+03  0.79316724480E+02 0.  0.
        -13    1    4    4    0    0  0.35055529190E+01  0.34790021407E+02 -0.44947387714E+02  0.56946484993E+02  0.00000000000E+00 0.  1.
         14    1    4    4    0    0 -0.12164216947E+02 -0.40095874181E+02 -0.10368074000E+03  0.11182729160E+03  0.00000000000E+00 0. -1.
        -11    1    3    3    0    0 -0.33890608812E+02 -0.16754061465E+02 -0.55467735060E+02  0.67126310594E+02  0.00000000000E+00 0. -1.
         11    1    3    3    0    0 -0.25736962738E+01  0.27306499421E+02  0.23948142028E+02  0.36411293986E+02  0.00000000000E+00 0.  1.
         21    1    1    2  502  501  0.45122969114E+02 -0.52465851827E+01  0.39625570613E+02  0.60280965853E+02  0.00000000000E+00 0. -1.
<scales pt_clust_5="13000.00000" pt_clust_6="13000.00000" pt_clust_7="13000.00000" pt_clust_8="13000.00000" pt_clust_9="45.42696"></scales>
<clustering>
<clus scale="   45.427">  1  9  2 -1</clus>
<clus scale="   79.317">  5  6 -1 -1</clus>
<clus scale="   79.588">  2  5  1 -1</clus>
<clus scale="   91.025">  7  8 -1 -1</clus>
<clus scale="   79.588">  2  5  1 -1</clus>
</clustering>
</event>
<event>
 9    2  0.3402837E-005  0.9436523E+02  0.7546771E-02  0.1301070E+00
         -1   -1    0    0    0  501 -0.00000000000E+00  0.00000000000E+00  0.31928098573E+02  0.31928098573E+02  0.00000000000E+00 0.  1.
          2   -1    0    0  502    0  0.00000000000E+00 -0.00000000000E+00 -0.12754741949E+04  0.12754741949E+04  0.00000000000E+00 0. -1.
         23    2    1    2    0    0  0.13084788575E+01  0.87376512360E+00 -0.20669639094E+03  0.22656868138E+03  0.92776579854E+02 0.  0.
         24    2    1    2    0    0  0.14065620406E+02  0.14516492568E+02 -0.10514764200E+04  0.10546198039E+04  0.78814329952E+02 0.  0.
        -11    1    4    4    0    0 -0.21793193576E+02  0.15307269566E+02 -0.14445127793E+03  0.14688576338E+03  0.00000000000E+00 0.  1.
         12    1    4    4    0    0  0.35858813982E+02 -0.79077699713E+00 -0.90702514209E+03  0.90773404048E+03  0.00000000000E+00 0. -1.
        -11    1    3    3    0    0  0.39564253183E+00  0.46786418412E+02 -0.99606387602E+02  0.11004798014E+03  0.00000000000E+00 0. -1.
         11    1    3    3    0    0  0.91283632570E+00 -0.45912653288E+02 -0.10709000334E+03  0.11652070124E+03  0.00000000000E+00 0.  1.
         21    1    1    2  502  501 -0.15374099264E+02 -0.15390257692E+02  0.14626714650E+02  0.26213808221E+02  0.00000000000E+00 0.  1.
<scales pt_clust_5="13000.00000" pt_clust_6="13000.00000" pt_clust_7="13000.00000" pt_clust_8="13000.00000" pt_clust_9="21.75369"></scales>
<clustering>
<clus scale="   21.754">  1  9  2 -1</clus>
<clus scale="   78.814">  5  6 -1 -1</clus>
<clus scale="   80.678">  2  5  1 -1</clus>
<clus scale="   92.777">  7  8 -1 -1</clus>
<clus scale="   80.678">  2  5  1 -1</clus>
</clustering>
</event>
<event>
 9    2  0.3402837E-005  0.1218592E+03  0.7546771E-02  0.1243418E+00
          2   -1    0    0  502    0  0.00000000000E+00  0.00000000000E+00  0.42067251741E+03  0.42067251741E+03  0.00000000000E+00 0. -1.
         -1   -1    0    0    0  501 -0.00000000000E+00 -0.00000000000E+00 -0.54440630703E+02  0.54440630703E+02  0.00000000000E+00 0.  1.
         24    2    1    2    0    0 -0.24609197733E+02  0.44843164324E+02  0.49686466150E+02  0.10776787567E+03  0.80800050176E+02 0.  0.
         23    2    1    2    0    0  0.26078964887E+02 -0.92850720247E+02  0.26700496608E+03  0.29834424150E+03  0.91740208557E+02 0.  0.
        -13    1    3    3    0    0  0.29201239415E+02  0.23985185153E+02  0.16928019229E+02  0.41407237595E+02  0.00000000000E+00 0.  1.
         14    1    3    3    0    0 -0.53810437148E+02  0.20857979170E+02  0.32758446921E+02  0.66360638076E+02  0.00000000000E+00 0. -1.
        -13    1    4    4    0    0  0.48402614501E+02 -0.97969916645E+02  0.20613102414E+03  0.23330434366E+03  0.00000000000E+00 0. -1.
         13    1    4    4    0    0 -0.22323649614E+02  0.51191963987E+01  0.60873941938E+02  0.65039897840E+02  0.00000000000E+00 0.  1.
         21    1    1    2  502  501 -0.14697671545E+01  0.48007555923E+02  0.49540454483E+02  0.69001030946E+02  0.00000000000E+00 0. -1.
<scales pt_clust_5="13000.00000" pt_clust_6="13000.00000" pt_clust_7="13000.00000" pt_clust_8="13000.00000" pt_clust_9="48.03005"></scales>
<clustering>
<clus scale="   48.030">  2  9  1 -1</clus>
<clus scale="   80.800">  5  6 -1 -1</clus>
<clus scale="   91.740">  7  8 -1 -1</clus>
<clus scale="  113.851">  2  5  1 -1</clus>
<clus scale="  121.859">  1  5  2 -1</clus>
</clustering>
</event>
<event>
 9    2  0.3402837E-005  0.2208035E+03  0.7546771E-02  0.1134222E+00
          2   -1    0    0  502    0  0.00000000000E+00  0.00000000000E+00  0.10038787950E+04  0.10038787950E+04  0.00000000000E+00 0. -1.
         -1   -1    0    0    0  501 -0.00000000000E+00 -0.00000000000E+00 -0.89332173477E+02  0.89332173477E+02  0.00000000000E+00 0.  1.
         24    2    1    2    0    0  0.22284173279E+03  0.46272344612E+02  0.23318665119E+03  0.33575879420E+03  0.80983861615E+02 0.  0.
         23    2    1    2    0    0 -0.18970898971E+03 -0.26037333404E+02  0.68602092920E+03  0.71835027047E+03  0.93460966618E+02 0.  0.
        -11    1    3    3    0    0  0.15782518585E+03  0.24809844088E+02  0.10728129681E+03  0.19244114502E+03  0.00000000000E+00 0.  1.
         12    1    3    3    0    0  0.65016546938E+02  0.21462500523E+02  0.12590535438E+03  0.14331764918E+03  0.00000000000E+00 0. -1.
        -11    1    4    4    0    0 -0.73561643627E+02 -0.14932789404E+02  0.12907472748E+03  0.14931372638E+03  0.00000000000E+00 0.  1.
         11    1    4    4    0    0 -0.11614734609E+03 -0.11104544000E+02  0.55694620172E+03  0.56903654409E+03  0.00000000000E+00 0. -1.
         21    1    1    2  502  501 -0.33132743075E+02 -0.20235011208E+02 -0.46609588798E+01  0.39101903789E+02  0.00000000000E+00 0.  1.
<scales pt_clust_5="13000.00000" pt_clust_6="13000.00000" pt_clust_7="13000.00000" pt_clust_8="13000.00000" pt_clust_9="38.82312"></scales>
<clustering>
<clus scale="   38.823">  2  9  1 -1</clus>
<clus scale="   80.984">  5  6 -1 -1</clus>
<clus scale="   93.461">  7  8 -1 -1</clus>
<clus scale="  215.818">  2  5  1 -1</clus>
<clus scale="  220.804">  1  5  2 -1</clus>
</clustering>
</event>
<event>
 9    2  0.3402837E-005  0.1119159E+03  0.7546771E-02  0.1260312E+00
          2   -1    0    0  502    0  0.00000000000E+00  0.00000000000E+00  0.45668048407E+02  0.45668048407E+02  0.00000000000E+00 0. -1.
         -1   -1    0    0    0  501 -0.00000000000E+00 -0.00000000000E+00 -0.12469593094E+04  0.12469593094E+04  0.00000000000E+00 0.  1.
         23    2    1    2    0    0  0.98919782552E+02 -0.20056018584E+02 -0.60941854757E+03  0.62548278979E+03  0.98236382976E+02 0.  0.
         24    2    1    2    0    0 -0.43837111543E+02 -0.24646390985E+02 -0.40095241634E+02  0.11082560875E+03  0.90252701985E+02 0.  0.
        -11    1    4    4    0    0  0.11810705574E+02 -0.42997602939E+02 -0.20113642164E+02  0.48916717242E+02  0.00000000000E+00 0.  1.
         12    1    4    4    0    0 -0.55647817117E+02  0.18351211954E+02 -0.19981599470E+02  0.61908891506E+02  0.00000000000E+00 0. -1.
        -13    1    3    3    0    0  0.98593536814E+02 -0.49621357015E+02 -0.44945452425E+03  0.46280917659E+03  0.00000000000E+00 0.  1.
         13    1    3    3    0    0  0.32624573810E+00  0.29565338430E+02 -0.15996402333E+03  0.16267361320E+03  0.00000000000E+00 0. -1.
         21    1    1    2  502  501 -0.55082671010E+02  0.44702409570E+02 -0.55177747177E+03  0.55631895925E+03  0.00000000000E+00 0.  1.
<scales pt_clust_5="13000.00000" pt_clust_6="13000.00000" pt_clust_7="13000.00000" pt_clust_8="13000.00000" pt_clust_9="70.93945"></scales>
<clustering>
<clus scale="   70.939">  2  9  1 -1</clus>
<clus scale="   90.253">  5  6 -1 -1</clus>
<clus scale="   98.236">  7  8 -1 -1</clus>
<clus scale="  104.978">  1  5  2 -1</clus>
<clus scale="  104.978">  1  5  2 -1</clus>
</clustering>
</event>
<event>
 9    2  0.3402837E-005  0.1218709E+03  0.7546771E-02  0.1241655E+00
         -1   -1    0    0    0  501 -0.00000000000E+00  0.00000000000E+00  0.56729882215E+02  0.56729882215E+02  0.00000000000E+00 0.  1.
          2   -1    0    0  502    0  0.00000000000E+00 -0.00000000000E+00 -0.47630750928E+03  0.47630750928E+03  0.00000000000E+00 0. -1.
         24    2    1    2    0    0  0.34667274419E+02  0.68128032673E+02 -0.16246977685E+03  0.19649726661E+03  0.79821667751E+02 0.  0.
         23    2    1    2    0    0 -0.82033257431E+02 -0.59591504232E+02 -0.25609032500E+03  0.28840028668E+03  0.85509462043E+02 0.  0.
        -13    1    3    3    0    0  0.56489676891E+02  0.61078113063E+02 -0.10078552625E+03  0.13068795580E+03  0.00000000000E+00 0.  1.
         14    1    3    3    0    0 -0.21822402472E+02  0.70499196097E+01 -0.61684250605E+02  0.65809310806E+02  0.00000000000E+00 0. -1.
        -11    1    4    4    0    0 -0.79700855050E+02 -0.20173181392E+02 -0.22017103277E+03  0.23502014215E+03  0.00000000000E+00 0. -1.
         11    1    4    4    0    0 -0.23324023809E+01 -0.39418322840E+02 -0.35919292225E+02  0.53380144533E+02  0.00000000000E+00 0.  1.
         21    1    1    2  502  501  0.47365983012E+02 -0.85365284410E+01 -0.10175252105E+01  0.48139838202E+02  0.00000000000E+00 0.  1.
<scales pt_clust_5="13000.00000" pt_clust_6="13000.00000" pt_clust_7="13000.00000" pt_clust_8="13000.00000" pt_clust_9="48.12908"></scales>
<clustering>
<clus scale="   48.129">  1  9  2 -1</clus>
<clus scale="   79.822">  5  6 -1 -1</clus>
<clus scale="   85.509">  7  8 -1 -1</clus>
<clus scale="  117.950">  1  5  2 -1</clus>
<clus scale="  121.871">  2  5  1 -1</clus>
</clustering>
</event>
<event>
 9    2  0.3402837E-005  0.1740305E+03  0.7546771E-02  0.1174763E+00
          2   -1    0    0  502    0  0.00000000000E+00  0.00000000000E+00  0.85136189968E+03  0.85136189968E+03  0.00000000000E+00 0. -1.
         -1   -1    0    0    0  501 -0.00000000000E+00 -0.00000000000E+00 -0.17470385966E+03  0.17470385966E+03  0.00000000000E+00 0.  1.
         24    2    1    2    0    0  0.15084815345E+03  0.48414286766E+02 -0.13920667028E+01  0.17695272880E+03  0.78811305137E+02 0.  0.
         23    2    1    2    0    0 -0.14885071940E+03 -0.18021154145E+02  0.75061764428E+03  0.77041246028E+03  0.87333913168E+02 0.  0.
        -13    1    3    3    0    0  0.15945821664E+03  0.46763085278E+02  0.47611184826E+01  0.16624192386E+03  0.00000000000E+00 0.  1.
         14    1    3    3    0    0 -0.86100631919E+01  0.16512014883E+01 -0.61531851854E+01  0.10710804939E+02  0.00000000000E+00 0. -1.
        -11    1    4    4    0    0 -0.51787336712E+02 -0.47449055418E+02  0.25332576682E+03  0.26288264537E+03  0.00000000000E+00 0.  1.
         11    1    4    4    0    0 -0.97063382686E+02  0.29427901273E+02  0.49729187746E+03  0.50752981490E+03  0.00000000000E+00 0. -1.
         21    1    1    2  502  501 -0.19974340534E+01 -0.30393132622E+02 -0.72567537555E+02  0.78700570266E+02  0.00000000000E+00 0.  1.
<scales pt_clust_5="13000.00000" pt_clust_6="13000.00000" pt_clust_7="13000.00000" pt_clust_8="13000.00000" pt_clust_9="30.45870"></scales>
<clustering>
<clus scale="   30.459">  2  9  1 -1</clus>
<clus scale="   78.811">  5  6 -1 -1</clus>
<clus scale="   87.334">  7  8 -1 -1</clus>
<clus scale="  169.914">  2  5  1 -1</clus>
<clus scale="  174.030">  1  5  2 -1</clus>
</clustering>
</event>
<event>
 9    2  0.3402837E-005  0.1352559E+03  0.7546771E-02  0.1226560E+00
         -1   -1    0    0    0  501 -0.00000000000E+00  0.00000000000E+00  0.39121713558E+02  0.39121713558E+02  0.00000000000E+00 0.  1.
          2   -1    0    0  502    0  0.00000000000E+00 -0.00000000000E+00 -0.16335666788E+04  0.16335666788E+04  0.00000000000E+00 0. -1.
         23    2    1    2    0    0  0.73853779493E+02  0.12460166407E+02 -0.17778921017E+03  0.21390649628E+03  0.92397778143E+02 0.  0.
         24    2    1    2    0    0  0.57442379313E+02 -0.63769402383E+02 -0.11601438678E+04  0.11660880845E+04  0.80383227342E+02 0.  0.
        -11    1    4    4    0    0  0.14627107801E+02 -0.37281045991E+02 -0.16954435903E+03  0.17420998350E+03  0.00000000000E+00 0.  1.
         12    1    4    4    0    0  0.42815271512E+02 -0.26488356392E+02 -0.99059950877E+03  0.99187810101E+03  0.00000000000E+00 0. -1.
        -13    1    3    3    0    0 -0.98752165889E+01  0.19845723999E+02 -0.64917981111E+01  0.23097967582E+02  0.00000000000E+00 0.  1.
         13    1    3    3    0    0  0.83728996082E+02 -0.73855575917E+01 -0.17129741206E+03  0.19080852870E+03  0.00000000000E+00 0. -1.
         21    1    1    2  502  501 -0.13129615881E+03  0.51309235976E+02 -0.25651188727E+03  0.29269381156E+03  0.00000000000E+00 0.  1.
<scales pt_clust_5="13000.00000" pt_clust_6="13000.00000" pt_clust_7="13000.00000" pt_clust_8="13000.00000" pt_clust_9="98.77660"></scales>
<clustering>
<clus scale="   80.383">  5  6 -1 -1</clus>
<clus scale="   92.398">  7  8 -1 -1</clus>
<clus scale="  117.591">  2  5  1 -1</clus>
<clus scale="   98.777">  2  9  1 -1</clus>
<clus scale="  117.591">  2  5  1 -1</clus>
</clustering>
</event>
<event>
 9    2  0.3402837E-005  0.3977803E+03  0.7546771E-02  0.1044799E+00
          2   -1    0    0  502    0  0.00000000000E+00  0.00000000000E+00  0.20933279575E+04  0.20933279575E+04  0.00000000000E+00 0. -1.
         -1   -1    0    0    0  501 -0.00000000000E+00 -0.00000000000E+00 -0.15524203655E+03  0.15524203655E+03  0.00000000000E+00 0.  1.
         24    2    1    2    0    0  0.23852332423E+03 -0.39245753081E+02  0.81139592905E+02  0.26623830343E+03  0.76587174778E+02 0.  0.
         23    2    1    2    0    0 -0.40909553819E+03  0.16303889021E+03  0.15184340117E+04  0.15835708484E+04  0.90077438302E+02 0.  0.
        -13    1    3    3    0    0  0.14806836260E+03 -0.33823824115E+02  0.12187954739E+02  0.15237072331E+03  0.00000000000E+00 0.  1.
         14    1    3    3    0    0  0.90454961628E+02 -0.54219289656E+01  0.68951638166E+02  0.11386758012E+03  0.00000000000E+00 0. -1.
        -11    1    4    4    0    0 -0.16466321324E+03  0.54134124538E+02  0.45254004796E+03  0.48459980627E+03  0.00000000000E+00 0.  1.
         11    1    4    4    0    0 -0.24443232495E+03  0.10890476567E+03  0.10658939638E+04  0.10989710421E+04  0.00000000000E+00 0. -1.
         21    1    1    2  502  501  0.17057221397E+03 -0.12379313713E+03  0.33851231634E+03  0.39876084222E+03  0.00000000000E+00 0.  1.
<scales pt_clust_5="13000.00000" pt_clust_6="13000.00000" pt_clust_7="13000.00000" pt_clust_8="13000.00000" pt_clust_9="210.75963"></scales>
<clustering>
<clus scale="   76.587">  5  6 -1 -1</clus>
<clus scale="   90.077">  7  8 -1 -1</clus>
<clus scale="  210.760">  2  9  1 -1</clus>
<clus scale="  394.944">  2  5  1 -1</clus>
<clus scale="  397.780">  1  5  2 -1</clus>
</clustering>
</event>
<event>
 9    2  0.3402837E-005  0.1167268E+03  0.7546771E-02  0.1252551E+00
         -1   -1    0    0    0  501 -0.00000000000E+00  0.00000000000E+00  0.92030230515E+02  0.92030230515E+02  0.00000000000E+00 0.  1.
          2   -1    0    0  502    0  0.00000000000E+00 -0.00000000000E+00 -0.32759763965E+03  0.32759763965E+03  0.00000000000E+00 0. -1.
         24    2    1    2    0    0  0.75005601884E+02  0.50744413349E+02  0.67477977127E+01  0.12036630362E+03  0.79004294018E+02 0.  0.
         23    2    1    2    0    0 -0.46624490903E+02  0.66162821215E+01 -0.98981691967E+02  0.14228948835E+03  0.90726538611E+02 0.  0.
        -13    1    3    3    0    0  0.71163101559E+02  0.34351400370E+02  0.35828178420E+02  0.86763264690E+02  0.00000000000E+00 0.  1.
         14    1    3    3    0    0  0.38425003247E+01  0.16393012979E+02 -0.29080380707E+02  0.33603038930E+02  0.00000000000E+00 0. -1.
        -13    1    4    4    0    0 -0.73671170095E+02  0.11781773896E+02 -0.74716823900E+02  0.10558813983E+03  0.00000000000E+00 0. -1.
         13    1    4    4    0    0  0.27046679192E+02 -0.51654917747E+01 -0.24264868067E+02  0.36701348516E+02  0.00000000000E+00 0.  1.
         21    1    1    2  502  501 -0.28381110980E+02 -0.57360695470E+02 -0.14333351488E+03  0.15697207820E+03  0.00000000000E+00 0. -1.
<scales pt_clust_5="13000.00000" pt_clust_6="13000.00000" pt_clust_7="13000.00000" pt_clust_8="13000.00000" pt_clust_9="63.99794"></scales>
<clustering>
<clus scale="   63.998">  2  9  1 -1</clus>
<clus scale="   79.004">  5  6 -1 -1</clus>
<clus scale="   90.727">  7  8 -1 -1</clus>
<clus scale="  107.868">  1  5  2 -1</clus>
<clus scale="   63.998">  2  5  1 -1</clus>
</clustering>
</event>
<event>
 9    2  0.3402837E-005  0.1035616E+03  0.7546771E-02  0.1278961E+00
         -3   -1    0    0    0  501 -0.00000000000E+00  0.00000000000E+00  0.10497717937E+03  0.10497717937E+03  0.00000000000E+00 0.  1.
          4   -1    0    0  502    0  0.00000000000E+00 -0.00000000000E+00 -0.29533077426E+03  0.29533077426E+03  0.00000000000E+00 0. -1.
         23    2    1    2    0    0 -0.53014699760E+02  0.32780123165E+02  0.31794541872E+02  0.11629072063E+03  0.92884573241E+02 0.  0.
         24    2    1    2    0    0 -0.30867495230E+02 -0.34349855376E+02 -0.10557164280E+03  0.14039005715E+03  0.80195271418E+02 0.  0.
        -13    1    4    4    0    0 -0.35733418363E+02 -0.44984185517E+02 -0.31733070046E+02  0.65631104433E+02  0.00000000000E+00 0.  1.
         14    1    4    4    0    0  0.48659231327E+01  0.10634330142E+02 -0.73838572753E+02  0.74758952719E+02  0.00000000000E+00 0. -1.
        -11    1    3    3    0    0 -0.23815565539E+02 -0.14784231720E+02  0.50222196914E+02  0.57515421691E+02  0.00000000000E+00 0.  1.
         11    1    3    3    0    0 -0.29199134221E+02  0.47564354884E+02 -0.18427655041E+02  0.58775298937E+02  0.00000000000E+00 0. -1.
         21    1    1    2  502  501  0.83882194990E+02  0.15697322110E+01 -0.11657649396E+03  0.14362717584E+03  0.00000000000E+00 0. -1.
<scales pt_clust_5="13000.00000" pt_clust_6="13000.00000" pt_clust_7="13000.00000" pt_clust_8="13000.00000" pt_clust_9="83.89688"></scales>
<clustering>
<clus scale="   80.195">  5  6 -1 -1</clus>
<clus scale="   83.897">  2  9  1 -1</clus>
<clus scale="   92.351">  2  5  1 -1</clus>
<clus scale="   92.885">  7  8 -1 -1</clus>
<clus scale="   83.897">  2  5  1 -1</clus>
</clustering>
</event>
<event>
 9    2  0.3402837E-005  0.2147435E+03  0.7546771E-02  0.1138558E+00
         -1   -1    0    0    0  501 -0.00000000000E+00  0.00000000000E+00  0.92744298949E+02  0.92744298949E+02  0.00000000000E+00 0.  1.
          2   -1    0    0  502    0  0.00000000000E+00 -0.00000000000E+00 -0.10788944184E+04  0.10788944184E+04  0.00000000000E+00 0. -1.
         24    2    1    2    0    0 -0.17554121250E+03  0.10449252716E+03 -0.17969444352E+03  0.28423737638E+03  0.82264133009E+02 0.  0.
         23    2    1    2    0    0  0.15437772102E+03 -0.11444689327E+03 -0.82844305585E+03  0.85530106606E+03  0.91057370380E+02 0.  0.
        -11    1    3    3    0    0 -0.11847959431E+03  0.26962901393E+02 -0.79007613061E+02  0.14493659041E+03  0.00000000000E+00 0.  1.
         12    1    3    3    0    0 -0.57061618192E+02  0.77529625771E+02 -0.10068683045E+03  0.13930078596E+03  0.00000000000E+00 0. -1.
        -13    1    4    4    0    0  0.59011941765E+02 -0.98480824409E+02 -0.49363807918E+03  0.50681301805E+03  0.00000000000E+00 0. -1.
         13    1    4    4    0    0  0.95365779256E+02 -0.15966068866E+02 -0.33480497666E+03  0.34848804801E+03  0.00000000000E+00 0.  1.
         21    1    1    2  502  501  0.21163491480E+02  0.99543661109E+01  0.21987379889E+02  0.32100274931E+02  0.00000000000E+00 0. -1.
<scales pt_clust_5="13000.00000" pt_clust_6="13000.00000" pt_clust_7="13000.00000" pt_clust_8="13000.00000" pt_clust_9="23.38766"></scales>
<clustering>
<clus scale="   23.388">  1  9  2 -1</clus>
<clus scale="   82.264">  5  6 -1 -1</clus>
<clus scale="   91.057">  7  8 -1 -1</clus>
<clus scale="  211.165">  1  5  2 -1</clus>
<clus scale="  214.743">  2  5  1 -1</clus>
</clustering>
</event>
<event>
 9    2  0.3402837E-005  0.1209891E+03  0.7546771E-02  0.1246121E+00
          2   -1    0    0  502    0  0.00000000000E+00  0.00000000000E+00  0.10770976071E+04  0.10770976071E+04  0.00000000000E+00 0. -1.
         -1   -1    0    0    0  501 -0.00000000000E+00 -0.00000000000E+00 -0.57478546134E+02  0.57478546134E+02  0.00000000000E+00 0.  1.
         23    2    1    2    0    0  0.49854243454E+02 -0.18335398618E+02  0.23222546674E+03  0.25695768465E+03  0.96316934456E+02 0.  0.
         24    2    1    2    0    0 -0.59006955452E+02  0.55403234274E+02  0.81958731250E+03  0.82767618123E+03  0.82299204195E+02 0.  0.
        -11    1    4    4    0    0 -0.69853530678E+02  0.38950228485E+02  0.41662446392E+03  0.42423175268E+03  0.00000000000E+00 0.  1.
         12    1    4    4    0    0  0.10846575226E+02  0.16453005788E+02  0.40296284857E+03  0.40344442855E+03  0.00000000000E+00 0. -1.
        -13    1    3    3    0    0  0.61139653776E+02  0.24307551789E+02  0.13394491208E+03  0.14923187934E+03  0.00000000000E+00 0.  1.
         13    1    3    3    0    0 -0.11285410322E+02 -0.42642950407E+02  0.98280554660E+02  0.10772580531E+03  0.00000000000E+00 0. -1.
         21    1    1    2  502  501  0.91527119979E+01 -0.37067835656E+02 -0.32193718231E+02  0.49942287399E+02  0.00000000000E+00 0.  1.
<scales pt_clust_5="13000.00000" pt_clust_6="13000.00000" pt_clust_7="13000.00000" pt_clust_8="13000.00000" pt_clust_9="38.18110"></scales>
<clustering>
<clus scale="   38.181">  2  9  1 -1</clus>
<clus scale="   82.299">  5  6 -1 -1</clus>
<clus scale="   96.317">  7  8 -1 -1</clus>
<clus scale="  110.157">  1  5  2 -1</clus>
<clus scale="  110.157">  1  5  2 -1</clus>
</clustering>
</event>
<event>
 9    2  0.3402837E-005  0.3586186E+03  0.7546771E-02  0.1059432E+00
          2   -1    0    0  502    0  0.00000000000E+00  0.00000000000E+00  0.17095278635E+04  0.17095278635E+04  0.00000000000E+00 0. -1.
         -1   -1    0    0    0  501 -0.00000000000E+00 -0.00000000000E+00 -0.17716229961E+03  0.17716229961E+03  0.00000000000E+00 0.  1.
         24    2    1    2    0    0  0.13746035818E+03  0.23827118498E+03  0.71785860289E+02  0.29471949440E+03  0.77703687014E+02 0.  0.
         23    2    1    2    0    0 -0.21644630542E+03 -0.29100665266E+03  0.14488351245E+04  0.14962745635E+04  0.90445985862E+02 0.  0.
        -13    1    3    3    0    0  0.11047386939E+03  0.12512608561E+03  0.61735994734E+02  0.17796726149E+03  0.00000000000E+00 0.  1.
         14    1    3    3    0    0  0.26986488788E+02  0.11314509938E+03  0.10049865555E+02  0.11675223290E+03  0.00000000000E+00 0. -1.
        -11    1    4    4    0    0 -0.20784422244E+03 -0.22610867878E+03  0.12368798960E+04  0.12744395759E+04  0.00000000000E+00 0. -1.
         11    1    4    4    0    0 -0.86020829810E+01 -0.64897973880E+02  0.21195522847E+03  0.22183498759E+03  0.00000000000E+00 0.  1.
         21    1    1    2  502  501  0.78985947236E+02  0.52735467675E+02  0.11744579086E+02  0.95696105195E+02  0.00000000000E+00 0.  1.
<scales pt_clust_5="13000.00000" pt_clust_6="13000.00000" pt_clust_7="13000.00000" pt_clust_8="13000.00000" pt_clust_9="94.97268"></scales>
<clustering>
<clus scale="   77.704">  5  6 -1 -1</clus>
<clus scale="   90.446">  7  8 -1 -1</clus>
<clus scale="   94.973">  2  9  1 -1</clus>
<clus scale="  355.619">  2  5  1 -1</clus>
<clus scale="  358.619">  1  5  2 -1</clus>
</clustering>
</event>
<event>
 9    2  0.3402837E-005  0.9814261E+02  0.7546771E-02  0.1294278E+00
         -1   -1    0    0    0  501 -0.00000000000E+00  0.00000000000E+00  0.69643961387E+02  0.69643961387E+02  0.00000000000E+00 0.  1.
          2   -1    0    0  502    0  0.00000000000E+00 -0.00000000000E+00 -0.25502589847E+03  0.25502589847E+03  0.00000000000E+00 0. -1.
         24    2    1    2    0    0 -0.18675408817E+02 -0.50479531354E+01  0.11873579130E+02  0.81882647538E+02  0.78673587443E+02 0.  0.
         23    2    1    2    0    0  0.46822834536E+01  0.22695828244E+02 -0.19690086971E+03  0.22026209684E+03  0.95960483592E+02 0.  0.
        -13    1    3    3    0    0 -0.16363348576E+02 -0.40930502342E+02  0.12841615353E+02  0.45912659294E+02  0.00000000000E+00 0.  1.
         14    1    3    3    0    0 -0.23120602405E+01  0.35882549206E+02 -0.96803622305E+00  0.35969988244E+02  0.00000000000E+00 0. -1.
        -11    1    4    4    0    0  0.13213581807E+02 -0.36319745435E+02 -0.87784274603E+02  0.95915595814E+02  0.00000000000E+00 0.  1.
         11    1    4    4    0    0 -0.85312983536E+01  0.59015573680E+02 -0.10911659511E+03  0.12434650102E+03  0.00000000000E+00 0. -1.
         21    1    1    2  502  501  0.13993125363E+02 -0.17647875109E+02 -0.35464649823E+00  0.22525115481E+02  0.00000000000E+00 0.  1.
<scales pt_clust_5="13000.00000" pt_clust_6="13000.00000" pt_clust_7="13000.00000" pt_clust_8="13000.00000" pt_clust_9="22.52232"></scales>
<clustering>
<clus scale="   22.522">  1  9  2 -1</clus>
<clus scale="   78.674">  5  6 -1 -1</clus>
<clus scale="   81.321">  1  5  2 -1</clus>
<clus scale="   95.960">  7  8 -1 -1</clus>
<clus scale="   98.143">  2  5  1 -1</clus>
</clustering>
</event>
<event>
 9    2  0.3402837E-005  0.1914244E+03  0.7546771E-02  0.1157807E+00
          4   -1    0    0  502    0  0.00000000000E+00  0.00000000000E+00  0.16650821481E+03  0.16650821481E+03  0.00000000000E+00 0. -1.
         -3   -1    0    0    0  501 -0.00000000000E+00 -0.00000000000E+00 -0.46211916293E+03  0.46211916293E+03  0.00000000000E+00 0.  1.
         24    2    1    2    0    0 -0.12027508807E+03  0.12663977822E+03 -0.36325393458E+03  0.41118611652E+03  0.81344152747E+02 0.  0.
         23    2    1    2    0    0  0.10047772072E+03 -0.10554353594E+03  0.77539948408E+02  0.18686452091E+03  0.87582505313E+02 0.  0.
        -11    1    3    3    0    0 -0.10309137638E+03  0.69896411325E+02 -0.29821084417E+03  0.32317649633E+03  0.00000000000E+00 0.  1.
         12    1    3    3    0    0 -0.17183711687E+02  0.56743366898E+02 -0.65043090410E+02  0.88009620180E+02  0.00000000000E+00 0. -1.
        -13    1    4    4    0    0  0.66877984423E+02 -0.10066326438E+03  0.90014619485E+02  0.15069303009E+03  0.00000000000E+00 0. -1.
         13    1    4    4    0    0  0.33599736295E+02 -0.48802715517E+01 -0.12474671077E+02  0.36171490818E+02  0.00000000000E+00 0.  1.
         21    1    1    2  502  501  0.19797367350E+02 -0.21096242287E+02 -0.98969619506E+01  0.30576740318E+02  0.00000000000E+00 0. -1.
<scales pt_clust_5="13000.00000" pt_clust_6="13000.00000" pt_clust_7="13000.00000" pt_clust_8="13000.00000" pt_clust_9="28.93073"></scales>
<clustering>
<clus scale="   28.931">  1  9  2 -1</clus>
<clus scale="   81.344">  5  6 -1 -1</clus>
<clus scale="   87.583">  7  8 -1 -1</clus>
<clus scale="  188.652">  2  5  1 -1</clus>
<clus scale="   28.931">  1  5  2 -1</clus>
</clustering>
</event>
<event>
 9    2  0.3402837E-005  0.1096428E+03  0.7546771E-02  0.1265587E+00
         -1   -1    0    0    0  501 -0.00000000000E+00  0.00000000000E+00  0.12097238743E+03  0.12097238743E+03  0.00000000000E+00 0.  1.
          2   -1    0    0  502    0  0.00000000000E+00 -0.00000000000E+00 -0.24153733296E+03  0.24153733296E+03  0.00000000000E+00 0. -1.
         23    2    1    2    0    0 -0.27016993116E+02  0.15684691082E+02  0.52174843517E+02  0.10574656937E+03  0.86511243121E+02 0.  0.
         24    2    1    2    0    0  0.67298376801E+02 -0.30167978573E+02 -0.18454076131E+03  0.21236024081E+03  0.74849187317E+02 0.  0.
        -11    1    4    4    0    0  0.27752779260E+01  0.20765033962E+02 -0.23027273277E+02  0.31131079608E+02  0.00000000000E+00 0.  1.
         12    1    4    4    0    0  0.64523098875E+02 -0.50933012535E+02 -0.16151348803E+03  0.18122916120E+03  0.00000000000E+00 0. -1.
        -11    1    3    3    0    0 -0.25454220818E+02  0.39044598686E+02  0.64272429917E+02  0.79393597295E+02  0.00000000000E+00 0.  1.
         11    1    3    3    0    0 -0.15627722983E+01 -0.23359907604E+02 -0.12097586400E+02  0.26352972076E+02  0.00000000000E+00 0. -1.
         21    1    1    2  502  501 -0.40281383685E+02  0.14483287491E+02  0.11800972265E+02  0.44402910203E+02  0.00000000000E+00 0.  1.
<scales pt_clust_5="13000.00000" pt_clust_6="13000.00000" pt_clust_7="13000.00000" pt_clust_8="13000.00000" pt_clust_9="42.80602"></scales>
<clustering>
<clus scale="   42.806">  1  9  2 -1</clus>
<clus scale="   74.849">  5  6 -1 -1</clus>
<clus scale="   86.511">  7  8 -1 -1</clus>
<clus scale="  100.696">  2  5  1 -1</clus>
<clus scale="  100.696">  2  5  1 -1</clus>
</clustering>
</event>
<event>
 9    2  0.3402837E-005  0.1063404E+03  0.7546771E-02  0.1269381E+00
          2   -1    0    0  502    0  0.00000000000E+00  0.00000000000E+00  0.10640379893E+03  0.10640379893E+03  0.00000000000E+00 0. -1.
         -1   -1    0    0    0  501 -0.00000000000E+00 -0.00000000000E+00 -0.35903331506E+03  0.35903331506E+03  0.00000000000E+00 0.  1.
         23    2    1    2    0    0  0.92295599705E+02  0.18202535189E+02 -0.27134457596E+03  0.29968627208E+03  0.85639784905E+02 0.  0.
         24    2    1    2    0    0 -0.57911452377E+02 -0.15058602555E+02  0.55837027971E+02  0.11505375700E+03  0.80864673872E+02 0.  0.
        -11    1    4    4    0    0 -0.33098184099E+02  0.32847259858E+02  0.24904656832E+02  0.52864678215E+02  0.00000000000E+00 0.  1.
         12    1    4    4    0    0 -0.24813268277E+02 -0.47905862413E+02  0.30932371139E+02  0.62189078787E+02  0.00000000000E+00 0. -1.
        -13    1    3    3    0    0  0.49494844676E+02  0.49654382393E+02 -0.19014081564E+03  0.20265445249E+03  0.00000000000E+00 0.  1.
         13    1    3    3    0    0  0.42800755029E+02 -0.31451847204E+02 -0.81203760318E+02  0.97031819592E+02  0.00000000000E+00 0. -1.
         21    1    1    2  502  501 -0.34384147329E+02 -0.31439326342E+01 -0.37121968140E+02  0.50697084911E+02  0.00000000000E+00 0.  1.
<scales pt_clust_5="13000.00000" pt_clust_6="13000.00000" pt_clust_7="13000.00000" pt_clust_8="13000.00000" pt_clust_9="34.52758"></scales>
<clustering>
<clus scale="   34.528">  2  9  1 -1</clus>
<clus scale="   80.865">  5  6 -1 -1</clus>
<clus scale="   85.640">  7  8 -1 -1</clus>
<clus scale="  102.534">  1  5  2 -1</clus>
<clus scale="  102.534">  1  5  2 -1</clus>
</clustering>
</event>
<event>
 9    2  0.3402837E-005  0.1184365E+03  0.7546771E-02  0.1250494E+00
          2   -1    0    0  502    0  0.00000000000E+00  0.00000000000E+00  0.24423825392E+03  0.24423825392E+03  0.00000000000E+00 0. -1.
         -1   -1    0    0    0  501 -0.00000000000E+00 -0.00000000000E+00 -0.94095016805E+02  0.94095016805E+02  0.00000000000E+00 0.  1.
         24    2    1    2    0    0  0.64687731651E+02  0.29483672601E+02  0.91381032655E+01  0.11027283209E+03  0.83802165781E+02 0.  0.
         23    2    1    2    0    0 -0.45975893969E+02 -0.49522812760E+02  0.15670631851E+03  0.19646570477E+03  0.97342750542E+02 0.  0.
        -13    1    3    3    0    0  0.76720515327E+02  0.28109377310E+02  0.29258668472E+02  0.86788502957E+02  0.00000000000E+00 0.  1.
         14    1    3    3    0    0 -0.12032783676E+02  0.13742952905E+01 -0.20120565207E+02  0.23484329132E+02  0.00000000000E+00 0. -1.
        -13    1    4    4    0    0 -0.14416538432E+02  0.19099089006E+02  0.97786043045E+02  0.10067135638E+03  0.00000000000E+00 0. -1.
         13    1    4    4    0    0 -0.31559355537E+02 -0.68621901765E+02  0.58920275461E+02  0.95794348394E+02  0.00000000000E+00 0.  1.
         21    1    1    2  502  501 -0.18711837682E+02  0.20039140159E+02 -0.15701184661E+02  0.31594733857E+02  0.00000000000E+00 0.  1.
<scales pt_clust_5="13000.00000" pt_clust_6="13000.00000" pt_clust_7="13000.00000" pt_clust_8="13000.00000" pt_clust_9="27.41715"></scales>
<clustering>
<clus scale="   27.417">  2  9  1 -1</clus>
<clus scale="   83.802">  5  6 -1 -1</clus>
<clus scale="   97.343">  7  8 -1 -1</clus>
<clus scale="  107.584">  2  5  1 -1</clus>
<clus scale="  118.437">  1  5  2 -1</clus>
</clustering>
</event>
<event>
 9    2  0.3402837E-005  0.2564626E+03  0.7546771E-02  0.1109776E+00
         -1   -1    0    0    0  501 -0.00000000000E+00  0.00000000000E+00  0.49250626558E+03  0.49250626558E+03  0.00000000000E+00 0.  1.
          2   -1    0    0  502    0  0.00000000000E+00 -0.00000000000E+00 -0.30027470482E+03  0.30027470482E+03  0.00000000000E+00 0. -1.
         23    2    1    2    0    0  0.24812703002E+03  0.92361740725E+02  0.16644500463E+03  0.32550388178E+03  0.90283571663E+02 0.  0.
         24    2    1    2    0    0 -0.21949815168E+03 -0.78403263741E+02 -0.14993997634E+03  0.28868743057E+03  0.80820329796E+02 0.  0.
        -11    1    4    4    0    0 -0.18224961657E+03 -0.84224713379E+02 -0.95141172474E+02  0.22217238303E+03  0.00000000000E+00 0.  1.
         12    1    4    4    0    0 -0.37248535110E+02  0.58214496377E+01 -0.54798803861E+02  0.66515047533E+02  0.00000000000E+00 0. -1.
        -13    1    3    3    0    0  0.20594436200E+03  0.99628547307E+02  0.16607034117E+03  0.28269822407E+03  0.00000000000E+00 0. -1.
         13    1    3    3    0    0  0.42182668019E+02 -0.72668065819E+01  0.37466346192E+00  0.42805657708E+02  0.00000000000E+00 0.  1.
         21    1    1    2  502  501 -0.28628878340E+02 -0.13958476984E+02  0.17572653246E+03  0.17858965806E+03  0.00000000000E+00 0.  1.
<scales pt_clust_5="13000.00000" pt_clust_6="13000.00000" pt_clust_7="13000.00000" pt_clust_8="13000.00000" pt_clust_9="31.85046"></scales>
<clustering>
<clus scale="   31.850">  1  9  2 -1</clus>
<clus scale="   80.820">  5  6 -1 -1</clus>
<clus scale="   90.284">  7  8 -1 -1</clus>
<clus scale="  253.286">  2  5  1 -1</clus>
<clus scale="  253.286">  2  5  1 -1</clus>
</clustering>
</event>
<event>
 9    2  0.3402837E-005  0.9069361E+02  0.7546771E-02  0.1313130E+00
         -1   -1    0    0    0  501 -0.00000000000E+00  0.00000000000E+00  0.18571734527E+03  0.18571734527E+03  0.00000000000E+00 0.  1.
          2   -1    0    0  502    0  0.00000000000E+00 -0.00000000000E+00 -0.98434046241E+02  0.98434046241E+02  0.00000000000E+00 0. -1.
         24    2    1    2    0    0  0.52106508435E+01 -0.41147133029E+01  0.12884224694E+03  0.14725075330E+03  0.70981532823E+02 0.  0.
         23    2    1    2    0    0 -0.49606188345E+01 -0.19706684158E+02 -0.57722481224E+02  0.10811207621E+03  0.89125613849E+02 0.  0.
        -11    1    3    3    0    0 -0.11732524471E+02  0.16712918242E+02  0.11545972289E+03  0.11725153038E+03  0.00000000000E+00 0.  1.
         12    1    3    3    0    0  0.16943175315E+02 -0.20827631544E+02  0.13382524047E+02  0.29999222913E+02  0.00000000000E+00 0. -1.
        -13    1    4    4    0    0 -0.36193845866E+02 -0.24818113425E+02 -0.18812595306E+01  0.43925759754E+02  0.00000000000E+00 0. -1.
         13    1    4    4    0    0  0.31233227032E+02  0.51114292663E+01 -0.55841221693E+02  0.64186316456E+02  0.00000000000E+00 0.  1.
         21    1    1    2  502  501 -0.25003200902E+00  0.23821397461E+02  0.16163533309E+02  0.28788562000E+02  0.00000000000E+00 0.  1.
<scales pt_clust_5="13000.00000" pt_clust_6="13000.00000" pt_clust_7="13000.00000" pt_clust_8="13000.00000" pt_clust_9="23.82271"></scales>
<clustering>
<clus scale="   23.823">  1  9  2 -1</clus>
<clus scale="   70.982">  5  6 -1 -1</clus>
<clus scale="   72.941">  1  5  2 -1</clus>
<clus scale="   89.126">  7  8 -1 -1</clus>
<clus scale="   90.694">  2  5  1 -1</clus>
</clustering>
</event>
<event>
 9    2  0.3402837E-005  0.9340406E+02  0.7546771E-02  0.1302653E+00
          2   -1    0    0  502    0  0.00000000000E+00  0.00000000000E+00  0.25560891440E+03  0.25560891440E+03  0.00000000000E+00 0. -1.
         -1   -1    0    0    0  501 -0.00000000000E+00 -0.00000000000E+00 -0.11105769532E+03  0.11105769532E+03  0.00000000000E+00 0.  1.
         23    2    1    2    0    0 -0.19227357452E+02 -0.29358417330E+02  0.51755279039E+02  0.11210043742E+03  0.93039191842E+02 0.  0.
         24    2    1    2    0    0 -0.71927101860E+01 -0.21684425582E+02  0.15111592353E+03  0.17268447556E+03  0.80386294628E+02 0.  0.
        -11    1    4    4    0    0  0.25051889475E+02 -0.15014136199E+02  0.15373561354E+02  0.33005572874E+02  0.00000000000E+00 0.  1.
         12    1    4    4    0    0 -0.32244599661E+02 -0.66702893829E+01  0.13574236217E+03  0.13967890269E+03  0.00000000000E+00 0. -1.
        -11    1    3    3    0    0 -0.23448096631E+02  0.22092647867E+02  0.51177361868E+02  0.60473305625E+02  0.00000000000E+00 0. -1.
         11    1    3    3    0    0  0.42207391794E+01 -0.51451065197E+02  0.57791717033E+00  0.51627131795E+02  0.00000000000E+00 0.  1.
         21    1    1    2  502  501  0.26420067638E+02  0.51042842912E+02 -0.58319983489E+02  0.81881696738E+02  0.00000000000E+00 0. -1.
<scales pt_clust_5="13000.00000" pt_clust_6="13000.00000" pt_clust_7="13000.00000" pt_clust_8="13000.00000" pt_clust_9="57.47514"></scales>
<clustering>
<clus scale="   57.475">  2  9  1 -1</clus>
<clus scale="   80.386">  5  6 -1 -1</clus>
<clus scale="   80.808">  1  5  2 -1</clus>
<clus scale="   93.039">  7  8 -1 -1</clus>
<clus scale="   80.808">  1  5  2 -1</clus>
</clustering>
</event>
<event>
 9    2  0.3402837E-005  0.1647247E+03  0.7546771E-02  0.1185278E+00
          2   -1    0    0  502    0  0.00000000000E+00  0.00000000000E+00  0.84399277417E+03  0.84399277417E+03  0.00000000000E+00 0. -1.
         -1   -1    0    0    0  501 -0.00000000000E+00 -0.00000000000E+00 -0.71234279297E+02  0.71234279297E+02  0.00000000000E+00 0.  1.
         23    2    1    2    0    0  0.70188122719E+02  0.14051338180E+03  0.22405573391E+03  0.28875620822E+03  0.92243118191E+02 0.  0.
         24    2    1    2    0    0 -0.51465799371E+02 -0.11952841766E+03  0.57068519315E+03  0.59077600758E+03  0.79993314162E+02 0.  0.
        -13    1    4    4    0    0 -0.48074867559E+02 -0.12545976829E+03  0.44342576722E+03  0.46333331133E+03  0.00000000000E+00 0.  1.
         14    1    4    4    0    0 -0.33909318119E+01  0.59313506264E+01  0.12725942593E+03  0.12744269625E+03  0.00000000000E+00 0. -1.
        -13    1    3    3    0    0  0.18034589140E+02  0.12242190934E+03  0.17842731050E+03  0.21713745744E+03  0.00000000000E+00 0. -1.
         13    1    3    3    0    0  0.52153533579E+02  0.18091472458E+02  0.45628423409E+02  0.71618750779E+02  0.00000000000E+00 0.  1.
         21    1    1    2  502  501 -0.18722323348E+02 -0.20984964133E+02 -0.21982432191E+02  0.35694837669E+02  0.00000000000E+00 0.  1.
<scales pt_clust_5="13000.00000" pt_clust_6="13000.00000" pt_clust_7="13000.00000" pt_clust_8="13000.00000" pt_clust_9="28.12284"></scales>
<clustering>
<clus scale="   28.123">  2  9  1 -1</clus>
<clus scale="   79.993">  5  6 -1 -1</clus>
<clus scale="   92.243">  7  8 -1 -1</clus>
<clus scale="  158.191">  1  5  2 -1</clus>
<clus scale="  158.191">  1  5  2 -1</clus>
</clustering>
</event>
<event>
 9    2  0.3402837E-005  0.1559125E+03  0.7546771E-02  0.1195633E+00
         -1   -1    0    0    0  501 -0.00000000000E+00  0.00000000000E+00  0.11973260897E+03  0.11973260897E+03  0.00000000000E+00 0.  1.
          2   -1    0    0  502    0  0.00000000000E+00 -0.00000000000E+00 -0.31645075231E+03  0.31645075231E+03  0.00000000000E+00 0. -1.
         23    2    1    2    0    0 -0.14287224071E+03 -0.58552670112E+02 -0.85155485857E+02  0.19876114372E+03  0.91725913120E+02 0.  0.
         24    2    1    2    0    0  0.11262695427E+03  0.28990321879E+01 -0.10683118887E+03  0.17390456993E+03  0.78336845179E+02 0.  0.
        -13    1    4    4    0    0  0.71605804605E+02 -0.25974076331E+01 -0.15040318135E+02  0.73214403973E+02  0.00000000000E+00 0.  1.
         14    1    4    4    0    0  0.41021149664E+02  0.54964398210E+01 -0.91790870739E+02  0.10069016596E+03  0.00000000000E+00 0. -1.
        -11    1    3    3    0    0 -0.24083785496E+02 -0.37663381206E+02  0.91817545458E+01  0.45638400763E+02  0.00000000000E+00 0.  1.
         11    1    3    3    0    0 -0.11878845521E+03 -0.20889288906E+02 -0.94337240403E+02  0.15312274295E+03  0.00000000000E+00 0. -1.
         21    1    1    2  502  501  0.30245286439E+02  0.55653637924E+02 -0.47314686113E+01  0.63517647635E+02  0.00000000000E+00 0. -1.
<scales pt_clust_5="13000.00000" pt_clust_6="13000.00000" pt_clust_7="13000.00000" pt_clust_8="13000.00000" pt_clust_9="63.34118"></scales>
<clustering>
<clus scale="   63.341">  1  9  2 -1</clus>
<clus scale="   78.337">  5  6 -1 -1</clus>
<clus scale="   91.726">  7  8 -1 -1</clus>
<clus scale="  148.431">  2  5  1 -1</clus>
<clus scale="  148.431">  2  5  1 -1</clus>
</clustering>
</event>
<event>
 9    2  0.3402837E-005  0.1109282E+03  0.7546771E-02  0.1263034E+00
          2   -1    0    0  502    0  0.00000000000E+00  0.00000000000E+00  0.50249569441E+03  0.50249569441E+03  0.00000000000E+00 0. -1.
         -1   -1    0    0    0  501 -0.00000000000E+00 -0.00000000000E+00 -0.43925786565E+02  0.43925786565E+02  0.00000000000E+00 0.  1.
         23    2    1    2    0    0  0.37795753862E+02 -0.61293465560E+02  0.77252320045E+02  0.13912688829E+03  0.90570205708E+02 0.  0.
         24    2    1    2    0    0 -0.48772904768E+02  0.16819064726E+02  0.28998359062E+03  0.30511646776E+03  0.79648596316E+02 0.  0.
        -13    1    4    4    0    0  0.44283826176E+01  0.35971812577E+02  0.83410216041E+02  0.90944191748E+02  0.00000000000E+00 0.  1.
         14    1    4    4    0    0 -0.53201287386E+02 -0.19152747850E+02  0.20657337458E+03  0.21417227601E+03  0.00000000000E+00 0. -1.
        -11    1    3    3    0    0  0.30879398704E+02  0.17621559768E+02  0.32349923528E+02  0.48068432315E+02  0.00000000000E+00 0.  1.
         11    1    3    3    0    0  0.69163551574E+01 -0.78915025327E+02  0.44902396518E+02  0.91058455973E+02  0.00000000000E+00 0. -1.
         21    1    1    2  502  501  0.10977150906E+02  0.44474400834E+02  0.91333997184E+02  0.10217812492E+03  0.00000000000E+00 0.  1.
<scales pt_clust_5="13000.00000" pt_clust_6="13000.00000" pt_clust_7="13000.00000" pt_clust_8="13000.00000" pt_clust_9="45.80906"></scales>
<clustering>
<clus scale="   45.809">  1  9  2 -1</clus>
<clus scale="   79.649">  5  6 -1 -1</clus>
<clus scale="   90.570">  7  8 -1 -1</clus>
<clus scale="  102.206">  1  5  2 -1</clus>
<clus scale="   45.809">  1  5  2 -1</clus>
</clustering>
</event>
<event>
 9    2  0.3402837E-005  0.1015637E+03  0.7546771E-02  0.1282164E+00
         -1   -1    0    0    0  501 -0.00000000000E+00  0.00000000000E+00  0.39018118486E+03  0.39018118486E+03  0.00000000000E+00 0.  1.
          2   -1    0    0  502    0  0.00000000000E+00 -0.00000000000E+00 -0.66320371634E+02  0.66320371634E+02  0.00000000000E+00 0. -1.
         23    2    1    2    0    0  0.74084910361E+02 -0.19924596195E+02  0.19688488082E+03  0.23046171770E+03  0.91996649673E+02 0.  0.
         24    2    1    2    0    0 -0.36571145419E+02  0.38701996322E+00 -0.30137892944E+01  0.89341897363E+02  0.81457309290E+02 0.  0.
        -11    1    4    4    0    0 -0.22408547987E+02  0.40551206243E+02  0.25011423751E+01  0.46398265741E+02  0.00000000000E+00 0.  1.
         12    1    4    4    0    0 -0.14162597432E+02 -0.40164186279E+02 -0.55149316695E+01  0.42943631621E+02  0.00000000000E+00 0. -1.
        -11    1    3    3    0    0  0.14946005440E+02  0.33823130711E+02  0.87517526407E+02  0.95008971566E+02  0.00000000000E+00 0.  1.
         11    1    3    3    0    0  0.59138904921E+02 -0.53747726906E+02  0.10936735442E+03  0.13545274613E+03  0.00000000000E+00 0. -1.
         21    1    1    2  502  501 -0.37513764941E+02  0.19537576232E+02  0.12998972169E+03  0.13669794143E+03  0.00000000000E+00 0.  1.
<scales pt_clust_5="13000.00000" pt_clust_6="13000.00000" pt_clust_7="13000.00000" pt_clust_8="13000.00000" pt_clust_9="42.29657"></scales>
<clustering>
<clus scale="   42.297">  1  9  2 -1</clus>
<clus scale="   81.457">  5  6 -1 -1</clus>
<clus scale="   91.997">  7  8 -1 -1</clus>
<clus scale="   92.125">  2  5  1 -1</clus>
<clus scale="   92.125">  2  5  1 -1</clus>
</clustering>
</event>
<event>
 9    2  0.3402837E-005  0.2199961E+03  0.7546771E-02  0.1134004E+00
         -1   -1    0    0    0  501 -0.00000000000E+00  0.00000000000E+00  0.22605055094E+03  0.22605055094E+03  0.00000000000E+00 0.  1.
          2   -1    0    0  502    0  0.00000000000E+00 -0.00000000000E+00 -0.42341822043E+03  0.42341822043E+03  0.00000000000E+00 0. -1.
         24    2    1    2    0    0  0.15856294862E+03 -0.11261715332E+03  0.91774156756E+02  0.22881849979E+03  0.78170186790E+02 0.  0.
         23    2    1    2    0    0 -0.15031328664E+03  0.14328751032E+03 -0.31077312227E+03  0.38222318882E+03  0.79932707919E+02 0.  0.
        -13    1    3    3    0    0  0.15286298630E+03 -0.73244795408E+02  0.69277701416E+02  0.18311551695E+03  0.00000000000E+00 0.  1.
         14    1    3    3    0    0  0.56999623207E+01 -0.39372357910E+02  0.22496455341E+02  0.45702982843E+02  0.00000000000E+00 0. -1.
        -13    1    4    4    0    0 -0.15385434970E+03  0.11933547162E+03 -0.25053363097E+03  0.31729988332E+03  0.00000000000E+00 0.  1.
         13    1    4    4    0    0  0.35410630603E+01  0.23952038697E+02 -0.60239491295E+02  0.64923305498E+02  0.00000000000E+00 0. -1.
         21    1    1    2  502  501 -0.82496619784E+01 -0.30670356999E+02  0.21631296021E+02  0.38427082751E+02  0.00000000000E+00 0.  1.
<scales pt_clust_5="13000.00000" pt_clust_6="13000.00000" pt_clust_7="13000.00000" pt_clust_8="13000.00000" pt_clust_9="31.76047"></scales>
<clustering>
<clus scale="   31.760">  1  9  2 -1</clus>
<clus scale="   78.170">  5  6 -1 -1</clus>
<clus scale="   79.933">  7  8 -1 -1</clus>
<clus scale="  219.362">  1  5  2 -1</clus>
<clus scale="  219.996">  2  5  1 -1</clus>
</clustering>
</event>
<event>
 9    2  0.3402837E-005  0.1109825E+03  0.7546771E-02  0.1264061E+00
          2   -1    0    0  502    0  0.00000000000E+00  0.00000000000E+00  0.79214206352E+02  0.79214206352E+02  0.00000000000E+00 0. -1.
         -1   -1    0    0    0  501 -0.00000000000E+00 -0.00000000000E+00 -0.71642921312E+03  0.71642921312E+03  0.00000000000E+00 0.  1.
         23    2    1    2    0    0 -0.35838085345E+02  0.94971477093E+02 -0.31925566991E+03  0.34774297218E+03  0.93257933189E+02 0.  0.
         24    2    1    2    0    0  0.19332640708E+02 -0.52067964924E+02  0.26123720634E+02  0.10076028611E+03  0.79908463313E+02 0.  0.
        -13    1    4    4    0    0  0.37791421529E+02  0.21761337274E+01  0.20857735501E+02  0.43220044302E+02  0.00000000000E+00 0.  1.
         14    1    4    4    0    0 -0.18458780821E+02 -0.54244098652E+02  0.52659851327E+01  0.57540241808E+02  0.00000000000E+00 0. -1.
        -13    1    3    3    0    0  0.45503918195E+01  0.81240926104E+02 -0.12714046467E+03  0.15094863993E+03  0.00000000000E+00 0.  1.
         13    1    3    3    0    0 -0.40388477164E+02  0.13730550989E+02 -0.19211520525E+03  0.19679433225E+03  0.00000000000E+00 0. -1.
         21    1    1    2  502  501  0.16505444637E+02 -0.42903512169E+02 -0.34408305749E+03  0.34714016119E+03  0.00000000000E+00 0. -1.
<scales pt_clust_5="13000.00000" pt_clust_6="13000.00000" pt_clust_7="13000.00000" pt_clust_8="13000.00000" pt_clust_9="45.96891"></scales>
<clustering>
<clus scale="   45.969">  2  9  1 -1</clus>
<clus scale="   79.908">  5  6 -1 -1</clus>
<clus scale="   93.258">  7  8 -1 -1</clus>
<clus scale="  100.027">  1  5  2 -1</clus>
<clus scale="  100.027">  1  5  2 -1</clus>
</clustering>
</event>
<event>
 9    2  0.3402837E-005  0.9180009E+02  0.7546771E-02  0.1304108E+00
          2   -1    0    0  502    0  0.00000000000E+00  0.00000000000E+00  0.93074006664E+02  0.93074006664E+02  0.00000000000E+00 0. -1.
         -1   -1    0    0    0  501 -0.00000000000E+00 -0.00000000000E+00 -0.40118438281E+03  0.40118438281E+03  0.00000000000E+00 0.  1.
         23    2    1    2    0    0  0.78636491908E+01  0.51731117345E+02 -0.26006018461E+03  0.28037066617E+03  0.90765992263E+02 0.  0.
         24    2    1    2    0    0  0.89822162211E+01 -0.80948227817E+01  0.55998153667E+02  0.99808945588E+02  0.81730202747E+02 0.  0.
        -13    1    4    4    0    0  0.34852417235E+02  0.12123051251E+02  0.55893173223E+02  0.66975414681E+02  0.00000000000E+00 0.  1.
         14    1    4    4    0    0 -0.25870201014E+02 -0.20217874033E+02  0.10498044372E+00  0.32833530907E+02  0.00000000000E+00 0. -1.
        -11    1    3    3    0    0  0.48846215855E+02  0.27796540187E+02 -0.12050983619E+03  0.13297075268E+03  0.00000000000E+00 0.  1.
         11    1    3    3    0    0 -0.40982566664E+02  0.23934577158E+02 -0.13955034842E+03  0.14739991349E+03  0.00000000000E+00 0. -1.
         21    1    1    2  502  501 -0.16845865412E+02 -0.43636294563E+02 -0.10404834521E+03  0.11407877771E+03  0.00000000000E+00 0.  1.
<scales pt_clust_5="13000.00000" pt_clust_6="13000.00000" pt_clust_7="13000.00000" pt_clust_8="13000.00000" pt_clust_9="46.77509"></scales>
<clustering>
<clus scale="   46.775">  2  9  1 -1</clus>
<clus scale="   81.730">  5  6 -1 -1</clus>
<clus scale="   82.877">  1  5  2 -1</clus>
<clus scale="   90.766">  7  8 -1 -1</clus>
<clus scale="   82.877">  1  5  2 -1</clus>
</clustering>
</event>
<event>
 9    2  0.3402837E-005  0.9753167E+02  0.7546771E-02  0.1290914E+00
         -1   -1    0    0    0  501 -0.00000000000E+00  0.00000000000E+00  0.31378585739E+03  0.31378585739E+03  0.00000000000E+00 0.  1.
          2   -1    0    0  502    0  0.00000000000E+00 -0.00000000000E+00 -0.11139612853E+03  0.11139612853E+03  0.00000000000E+00 0. -1.
         23    2    1    2    0    0  0.51895679537E+02  0.12085208217E+01  0.81142101104E+02  0.13263729240E+03  0.91181076367E+02 0.  0.
         24    2    1    2    0    0  0.16540072451E+02 -0.43462781223E+02 -0.48023129172E+02  0.10513747961E+03  0.81148514064E+02 0.  0.
        -11    1    4    4    0    0 -0.30924610550E+02 -0.29449505771E+02 -0.13466596210E+02  0.44776714276E+02  0.00000000000E+00 0.  1.
         12    1    4    4    0    0  0.47464683001E+02 -0.14013275452E+02 -0.34556532961E+02  0.60360765333E+02  0.00000000000E+00 0. -1.
        -13    1    3    3    0    0  0.33773847793E+02  0.34146230349E+02  0.82004561883E+02  0.95033604643E+02  0.00000000000E+00 0.  1.
         13    1    3    3    0    0  0.18121831744E+02 -0.32937709527E+02 -0.86246077842E+00  0.37603687762E+02  0.00000000000E+00 0. -1.
         21    1    1    2  502  501 -0.68435751988E+02  0.42254260401E+02  0.16927075692E+03  0.18740721390E+03  0.00000000000E+00 0.  1.
<scales pt_clust_5="13000.00000" pt_clust_6="13000.00000" pt_clust_7="13000.00000" pt_clust_8="13000.00000" pt_clust_9="80.42931"></scales>
<clustering>
<clus scale="   80.429">  1  9  2 -1</clus>
<clus scale="   81.149">  5  6 -1 -1</clus>
<clus scale="   88.224">  2  5  1 -1</clus>
<clus scale="   91.181">  7  8 -1 -1</clus>
<clus scale="   88.224">  2  5  1 -1</clus>
</clustering>
</event>
<event>
 9    2  0.3402837E-005  0.1058817E+03  0.7546771E-02  0.1272342E+00
         -3   -1    0    0    0  501 -0.00000000000E+00  0.00000000000E+00  0.21235917388E+03  0.21235917388E+03  0.00000000000E+00 0.  1.
          4   -1    0    0  502    0  0.00000000000E+00 -0.00000000000E+00 -0.31037289735E+03  0.31037289735E+03  0.00000000000E+00 0. -1.
         23    2    1    2    0    0 -0.43751492042E+02  0.69473575120E+02  0.15967613588E+03  0.20113371371E+03  0.90650602456E+02 0.  0.
         24    2    1    2    0    0  0.38493316200E+02 -0.37185558877E+02 -0.26969015864E+03  0.28675339247E+03  0.81426195090E+02 0.  0.
        -13    1    4    4    0    0  0.38760446293E+01 -0.25876201790E+02 -0.16446322326E+02  0.30904418117E+02  0.00000000000E+00 0.  1.
         14    1    4    4    0    0  0.34617271570E+02 -0.11309357087E+02 -0.25324383631E+03  0.25584897436E+03  0.00000000000E+00 0. -1.
        -13    1    3    3    0    0  0.21139114022E+01  0.74245208538E+02  0.80679666216E+02  0.10966324887E+03  0.00000000000E+00 0. -1.
         13    1    3    3    0    0 -0.45865403445E+02 -0.47716334182E+01  0.78996469660E+02  0.91470464836E+02  0.00000000000E+00 0.  1.
         21    1    1    2  502  501  0.52581758428E+01 -0.32288016243E+02  0.12000299287E+02  0.34844965047E+02  0.00000000000E+00 0. -1.
<scales pt_clust_5="13000.00000" pt_clust_6="13000.00000" pt_clust_7="13000.00000" pt_clust_8="13000.00000" pt_clust_9="32.71337"></scales>
<clustering>
<clus scale="   32.713">  1  9  2 -1</clus>
<clus scale="   81.426">  5  6 -1 -1</clus>
<clus scale="   90.651">  7  8 -1 -1</clus>
<clus scale="   98.100">  2  5  1 -1</clus>
<clus scale="   98.100">  2  5  1 -1</clus>
</clustering>
</event>
<event>
 9    2  0.3402837E-005  0.1423218E+03  0.7546771E-02  0.1212724E+00
          2   -1    0    0  502    0  0.00000000000E+00  0.00000000000E+00  0.69511832170E+03  0.69511832170E+03  0.00000000000E+00 0. -1.
         -1   -1    0    0    0  501 -0.00000000000E+00 -0.00000000000E+00 -0.59028154863E+02  0.59028154863E+02  0.00000000000E+00 0.  1.
         23    2    1    2    0    0  0.20513559121E+02 -0.88551789954E+02  0.11121506452E+03  0.17125318676E+03  0.93255765431E+02 0.  0.
         24    2    1    2    0    0 -0.57000305696E+02  0.98200525297E+02  0.52685897597E+03  0.54510021473E+03  0.81617923993E+02 0.  0.
        -11    1    4    4    0    0 -0.36057748848E+02  0.25182876195E+02  0.75354881810E+02  0.87250769155E+02  0.00000000000E+00 0.  1.
         12    1    4    4    0    0 -0.20942556848E+02  0.73017649102E+02  0.45150409416E+03  0.45784944557E+03  0.00000000000E+00 0. -1.
        -13    1    3    3    0    0 -0.18177689973E+02 -0.87277430202E+02  0.91726537560E+02  0.12791221962E+03  0.00000000000E+00 0. -1.
         13    1    3    3    0    0  0.38691249094E+02 -0.12743597514E+01  0.19488526962E+02  0.43340967137E+02  0.00000000000E+00 0.  1.
         21    1    1    2  502  501  0.36486746575E+02 -0.96487353433E+01 -0.19838736540E+01  0.37793075081E+02  0.00000000000E+00 0.  1.
<scales pt_clust_5="13000.00000" pt_clust_6="13000.00000" pt_clust_7="13000.00000" pt_clust_8="13000.00000" pt_clust_9="37.74097"></scales>
<clustering>
<clus scale="   37.741">  2  9  1 -1</clus>
<clus scale="   81.618">  5  6 -1 -1</clus>
<clus scale="   93.256">  7  8 -1 -1</clus>
<clus scale="  134.983">  1  5  2 -1</clus>
<clus scale="  134.983">  1  5  2 -1</clus>
</clustering>
</event>
<event>
 9    2  0.3402837E-005  0.1206523E+03  0.7546771E-02  0.1244894E+00
          4   -1    0    0  502    0  0.00000000000E+00  0.00000000000E+00  0.85454265813E+03  0.85454265813E+03  0.00000000000E+00 0. -1.
         -3   -1    0    0    0  501 -0.00000000000E+00 -0.00000000000E+00 -0.93445528561E+02  0.93445528561E+02  0.00000000000E+00 0.  1.
         23    2    1    2    0    0  0.17854365474E+02  0.13437643966E+02 -0.22744602840E+02  0.98219319626E+02  0.92899780126E+02 0.  0.
         24    2    1    2    0    0 -0.41687929847E+02  0.71897685164E+02  0.74279213031E+03  0.75212038003E+03  0.83891337908E+02 0.  0.
        -11    1    4    4    0    0  0.13596496807E+02  0.42675131310E+02  0.16557248491E+03  0.17152340749E+03  0.00000000000E+00 0.  1.
         12    1    4    4    0    0 -0.55284426654E+02  0.29222553854E+02  0.57721964540E+03  0.58059697254E+03  0.00000000000E+00 0. -1.
        -13    1    3    3    0    0 -0.31087685554E+02 -0.10880179755E+02 -0.28116467423E+02  0.43305406648E+02  0.00000000000E+00 0. -1.
         13    1    3    3    0    0  0.48942051028E+02  0.24317823721E+02  0.53718645830E+01  0.54913912977E+02  0.00000000000E+00 0.  1.
         21    1    1    2  502  501  0.23833564373E+02 -0.85335329130E+02  0.41049602101E+02  0.97648487040E+02  0.00000000000E+00 0.  1.
<scales pt_clust_5="13000.00000" pt_clust_6="13000.00000" pt_clust_7="13000.00000" pt_clust_8="13000.00000" pt_clust_9="88.60111"></scales>
<clustering>
<clus scale="   83.891">  5  6 -1 -1</clus>
<clus scale="   88.601">  2  9  1 -1</clus>
<clus scale="   92.900">  7  8 -1 -1</clus>
<clus scale="  113.861">  1  5  2 -1</clus>
<clus scale="  113.861">  1  5  2 -1</clus>
</clustering>
</event>
<event>
 9    2  0.3402837E-005  0.2455923E+03  0.7546771E-02  0.1116886E+00
         -1   -1    0    0    0  501 -0.00000000000E+00  0.00000000000E+00  0.37127445347E+03  0.37127445347E+03  0.00000000000E+00 0.  1.
          2   -1    0    0  502    0  0.00000000000E+00 -0.00000000000E+00 -0.24833569536E+03  0.24833569536E+03  0.00000000000E+00 0. -1.
         23    2    1    2    0    0 -0.21696945576E+03  0.38773388635E+02  0.42488984040E+02  0.24238082389E+03  0.91455068890E+02 0.  0.
         24    2    1    2    0    0  0.22654513759E+03 -0.56904355989E+02 -0.44796040055E+02  0.25031620656E+03  0.78043019971E+02 0.  0.
        -11    1    4    4    0    0  0.93744928875E+02 -0.37187659950E+02  0.17420066567E+02  0.10234496793E+03  0.00000000000E+00 0.  1.
         12    1    4    4    0    0  0.13280020872E+03 -0.19716696039E+02 -0.62216106622E+02  0.14797123863E+03  0.00000000000E+00 0. -1.
        -11    1    3    3    0    0 -0.16637530228E+03  0.15850377479E+02  0.69026534038E+02  0.18082211722E+03  0.00000000000E+00 0.  1.
         11    1    3    3    0    0 -0.50594153477E+02  0.22923011156E+02 -0.26537549998E+02  0.61558706666E+02  0.00000000000E+00 0. -1.
         21    1    1    2  502  501 -0.95756818335E+01  0.18130967354E+02  0.12524581413E+03  0.12691311838E+03  0.00000000000E+00 0. -1.
<scales pt_clust_5="13000.00000" pt_clust_6="13000.00000" pt_clust_7="13000.00000" pt_clust_8="13000.00000" pt_clust_9="20.50428"></scales>
<clustering>
<clus scale="   20.504">  1  9  2 -1</clus>
<clus scale="   78.043">  5  6 -1 -1</clus>
<clus scale="   91.455">  7  8 -1 -1</clus>
<clus scale="  240.920">  2  5  1 -1</clus>
<clus scale="  240.920">  2  5  1 -1</clus>
</clustering>
</event>
<event>
 9    2  0.3402837E-005  0.1021356E+03  0.7546771E-02  0.1286649E+00
         -1   -1    0    0    0  501 -0.00000000000E+00  0.00000000000E+00  0.15116355101E+03  0.15116355101E+03  0.00000000000E+00 0.  1.
          2   -1    0    0  502    0  0.00000000000E+00 -0.00000000000E+00 -0.25245276582E+03  0.25245276582E+03  0.00000000000E+00 0. -1.
         23    2    1    2    0    0 -0.58654040586E+02 -0.20321422504E+02  0.10881850516E+03  0.15522087763E+03  0.91644951302E+02 0.  0.
         24    2    1    2    0    0  0.43929145823E+02  0.46147420881E+01 -0.21121268509E+03  0.22683753383E+03  0.69952860674E+02 0.  0.
        -13    1    4    4    0    0  0.49579504466E+02 -0.53702434645E+01 -0.74537664448E+02  0.89681827587E+02  0.00000000000E+00 0.  1.
         14    1    4    4    0    0 -0.56503586425E+01  0.99849855526E+01 -0.13667502064E+03  0.13715570625E+03  0.00000000000E+00 0. -1.
        -13    1    3    3    0    0 -0.16398770673E+02  0.12607219737E+02  0.98521749427E+02  0.10066974113E+03  0.00000000000E+00 0.  1.
         13    1    3    3    0    0 -0.42255269913E+02 -0.32928642241E+02  0.10296755730E+02  0.54551136504E+02  0.00000000000E+00 0. -1.
         21    1    1    2  502  501  0.14724894762E+02  0.15706680416E+02  0.11049651164E+01  0.21557905356E+02  0.00000000000E+00 0.  1.
<scales pt_clust_5="13000.00000" pt_clust_6="13000.00000" pt_clust_7="13000.00000" pt_clust_8="13000.00000" pt_clust_9="21.52957"></scales>
<clustering>
<clus scale="   21.530">  1  9  2 -1</clus>
<clus scale="   69.953">  5  6 -1 -1</clus>
<clus scale="   83.224">  2  5  1 -1</clus>
<clus scale="   91.645">  7  8 -1 -1</clus>
<clus scale="   83.224">  2  5  1 -1</clus>
</clustering>
</event>
<event>
 9    2  0.3402837E-005  0.1597705E+03  0.7546771E-02  0.1201933E+00
         -1   -1    0    0    0  501 -0.00000000000E+00  0.00000000000E+00  0.69056366692E+02  0.69056366692E+02  0.00000000000E+00 0.  1.
          2   -1    0    0  502    0  0.00000000000E+00 -0.00000000000E+00 -0.85480823562E+03  0.85480823562E+03  0.00000000000E+00 0. -1.
         23    2    1    2    0    0 -0.67653085952E+02  0.35385109548E+02 -0.57600587928E+02  0.13334660038E+03  0.92921698690E+02 0.  0.
         24    2    1    2    0    0 -0.28688749323E+02 -0.14107585852E+03 -0.38183435588E+03  0.41583454050E+03  0.79971542108E+02 0.  0.
        -11    1    4    4    0    0 -0.24549816313E+02 -0.10811908006E+02 -0.28071018399E+02  0.38827476221E+02  0.00000000000E+00 0.  1.
         12    1    4    4    0    0 -0.41389330103E+01 -0.13026395052E+03 -0.35376333749E+03  0.37700706428E+03  0.00000000000E+00 0. -1.
        -11    1    3    3    0    0  0.10460881202E+02  0.37097722841E+02 -0.34864341558E+02  0.51973006338E+02  0.00000000000E+00 0. -1.
         11    1    3    3    0    0 -0.78113967154E+02 -0.17126132932E+01 -0.22736246369E+02  0.81373594045E+02  0.00000000000E+00 0.  1.
         21    1    1    2  502  501  0.96341835275E+02  0.10569074898E+03 -0.34631692512E+03  0.37468346142E+03  0.00000000000E+00 0. -1.
<scales pt_clust_5="13000.00000" pt_clust_6="13000.00000" pt_clust_7="13000.00000" pt_clust_8="13000.00000" pt_clust_9="138.31542"></scales>
<clustering>
<clus scale="   79.972">  5  6 -1 -1</clus>
<clus scale="   92.922">  7  8 -1 -1</clus>
<clus scale="  120.264">  1  7  2 -1</clus>
<clus scale="  138.315">  2  9  1 -1</clus>
<clus scale="  138.315">  2  5  1 -1</clus>
</clustering>
</event>
<event>
 9    2  0.3402837E-005  0.1034121E+03  0.7546771E-02  0.1278040E+00
          4   -1    0    0  502    0  0.00000000000E+00  0.00000000000E+00  0.44752118258E+02  0.44752118258E+02  0.00000000000E+00 0. -1.
         -3   -1    0    0    0  501 -0.00000000000E+00 -0.00000000000E+00 -0.31613446051E+03  0.31613446051E+03  0.00000000000E+00 0.  1.
         23    2    1    2    0    0 -0.34183590828E+02  0.28150943228E+02 -0.19037215308E+03  0.21545979344E+03  0.90666269556E+02 0.  0.
         24    2    1    2    0    0  0.25074084851E+02 -0.46509539433E+02 -0.50116674837E+02  0.10835347442E+03  0.80230588508E+02 0.  0.
        -11    1    4    4    0    0  0.13604775933E+01 -0.64026641095E+02 -0.45389381038E+02  0.78494952578E+02  0.00000000000E+00 0.  1.
         12    1    4    4    0    0  0.23713607258E+02  0.17517101662E+02 -0.47272937991E+01  0.29858521840E+02  0.00000000000E+00 0. -1.
        -11    1    3    3    0    0  0.16618953275E+02  0.33036112881E+02 -0.31456612737E+02  0.48549900588E+02  0.00000000000E+00 0. -1.
         11    1    3    3    0    0 -0.50802544103E+02 -0.48851696527E+01 -0.15891554034E+03  0.16690989285E+03  0.00000000000E+00 0.  1.
         21    1    1    2  502  501  0.91095059766E+01  0.18358596205E+02 -0.30893514334E+02  0.37073310908E+02  0.00000000000E+00 0.  1.
<scales pt_clust_5="13000.00000" pt_clust_6="13000.00000" pt_clust_7="13000.00000" pt_clust_8="13000.00000" pt_clust_9="20.49442"></scales>
<clustering>
<clus scale="   20.494">  2  9  1 -1</clus>
<clus scale="   80.231">  5  6 -1 -1</clus>
<clus scale="   90.666">  7  8 -1 -1</clus>
<clus scale="   94.396">  1  5  2 -1</clus>
<clus scale="   94.396">  1  5  2 -1</clus>
</clustering>
</event>
<event>
 9    2  0.3402837E-005  0.1160783E+03  0.7546771E-02  0.1263444E+00
         -1   -1    0    0    0  501 -0.00000000000E+00  0.00000000000E+00  0.28028234566E+03  0.28028234566E+03  0.00000000000E+00 0.  1.
          2   -1    0    0  502    0  0.00000000000E+00 -0.00000000000E+00 -0.32484789318E+03  0.32484789318E+03  0.00000000000E+00 0. -1.
         23    2    1    2    0    0  0.25237792057E+02  0.57247102232E+02  0.10281002530E+03  0.14590887133E+03  0.82494366891E+02 0.  0.
         24    2    1    2    0    0  0.19850063021E+02  0.26631912768E+02 -0.28130187945E+03  0.29488981412E+03  0.82012019295E+02 0.  0.
        -13    1    4    4    0    0  0.18551428097E+02  0.32274087929E+02 -0.44501129959E+02  0.58018297146E+02  0.00000000000E+00 0.  1.
         14    1    4    4    0    0  0.12986349246E+01 -0.56421751605E+01 -0.23680074949E+03  0.23687151698E+03  0.00000000000E+00 0. -1.
        -11    1    3    3    0    0 -0.16533635134E+02  0.18137019302E+02  0.81056922263E+02  0.84690833074E+02  0.00000000000E+00 0. -1.
         11    1    3    3    0    0  0.41771427191E+02  0.39110082930E+02  0.21753103039E+02  0.61218038258E+02  0.00000000000E+00 0.  1.
         21    1    1    2  502  501 -0.45087855078E+02 -0.83879015000E+02  0.13392630663E+03  0.16433155339E+03  0.00000000000E+00 0.  1.
<scales pt_clust_5="13000.00000" pt_clust_6="13000.00000" pt_clust_7="13000.00000" pt_clust_8="13000.00000" pt_clust_9="81.66309"></scales>
<clustering>
<clus scale="   82.012">  5  6 -1 -1</clus>
<clus scale="   82.494">  7  8 -1 -1</clus>
<clus scale="   88.483">  2  5  1 -1</clus>
<clus scale="   81.663">  2  9  1 -1</clus>
<clus scale="   88.483">  2  5  1 -1</clus>
</clustering>
</event>
<event>
 9    2  0.3402837E-005  0.1125986E+03  0.7546771E-02  0.1261241E+00
         -3   -1    0    0    0  501 -0.00000000000E+00  0.00000000000E+00  0.16833725702E+03  0.16833725702E+03  0.00000000000E+00 0.  1.
          4   -1    0    0  502    0  0.00000000000E+00 -0.00000000000E+00 -0.29359847432E+03  0.29359847432E+03  0.00000000000E+00 0. -1.
         23    2    1    2    0    0 -0.14437132496E+02 -0.12188140797E+02 -0.15687900054E+02  0.97698446385E+02  0.94561591818E+02 0.  0.
         24    2    1    2    0    0 -0.30135170203E+02  0.74534855867E+02 -0.20940805410E+03  0.23837713347E+03  0.80674354156E+02 0.  0.
        -13    1    4    4    0    0 -0.13040432042E+02  0.55297028149E+02 -0.46410545490E+02  0.73360431588E+02  0.00000000000E+00 0.  1.
         14    1    4    4    0    0 -0.17094738161E+02  0.19237827717E+02 -0.16299750861E+03  0.16501670189E+03  0.00000000000E+00 0. -1.
        -11    1    3    3    0    0 -0.42635267728E+02 -0.38601419743E+02 -0.57259654169E+01  0.57798117101E+02  0.00000000000E+00 0.  1.
         11    1    3    3    0    0  0.28198135232E+02  0.26413278946E+02 -0.99619346375E+01  0.39900329284E+02  0.00000000000E+00 0. -1.
         21    1    1    2  502  501  0.44572302699E+02 -0.62346715069E+02  0.99834736853E+02  0.12586015148E+03  0.00000000000E+00 0.  1.
<scales pt_clust_5="13000.00000" pt_clust_6="13000.00000" pt_clust_7="13000.00000" pt_clust_8="13000.00000" pt_clust_9="76.64074"></scales>
<clustering>
<clus scale="   76.641">  1  9  2 -1</clus>
<clus scale="   80.674">  5  6 -1 -1</clus>
<clus scale="   94.562">  7  8 -1 -1</clus>
<clus scale="  101.217">  2  5  1 -1</clus>
<clus scale="  101.217">  2  5  1 -1</clus>
</clustering>
</event>
<event>
 9    2  0.3402837E-005  0.1041757E+03  0.7546771E-02  0.1274877E+00
         -1   -1    0    0    0  501 -0.00000000000E+00  0.00000000000E+00  0.16789934340E+03  0.16789934340E+03  0.00000000000E+00 0.  1.
          2   -1    0    0  502    0  0.00000000000E+00 -0.00000000000E+00 -0.38257094375E+03  0.38257094375E+03  0.00000000000E+00 0. -1.
         23    2    1    2    0    0  0.22373994549E+02  0.19040385648E+01 -0.33322362161E+02  0.99994206397E+02  0.91565498405E+02 0.  0.
         24    2    1    2    0    0 -0.56434574780E+02  0.68757376548E+00 -0.30536035888E+03  0.32184638886E+03  0.84586141073E+02 0.  0.
        -13    1    4    4    0    0  0.21098925856E+02 -0.39493072632E+01 -0.10024184870E+03  0.10251434012E+03  0.00000000000E+00 0.  1.
         14    1    4    4    0    0 -0.77533500636E+02  0.46368810287E+01 -0.20511851018E+03  0.21933204875E+03  0.00000000000E+00 0. -1.
        -13    1    3    3    0    0  0.36458307912E+02  0.39379630332E+02 -0.13583093496E+02  0.55357600471E+02  0.00000000000E+00 0.  1.
         13    1    3    3    0    0 -0.14084313364E+02 -0.37475591768E+02 -0.19739268665E+02  0.44636605927E+02  0.00000000000E+00 0. -1.
         21    1    1    2  502  501  0.34060580231E+02 -0.25916123303E+01  0.12401112069E+03  0.12862969189E+03  0.00000000000E+00 0.  1.
<scales pt_clust_5="13000.00000" pt_clust_6="13000.00000" pt_clust_7="13000.00000" pt_clust_8="13000.00000" pt_clust_9="34.15903"></scales>
<clustering>
<clus scale="   34.159">  1  9  2 -1</clus>
<clus scale="   84.586">  5  6 -1 -1</clus>
<clus scale="   91.565">  7  8 -1 -1</clus>
<clus scale="   98.098">  2  5  1 -1</clus>
<clus scale="   98.098">  2  5  1 -1</clus>
</clustering>
</event>
<event>
 9    2  0.3402837E-005  0.9557933E+02  0.7546771E-02  0.1295627E+00
         -1   -1    0    0    0  501 -0.00000000000E+00  0.00000000000E+00  0.44419685245E+03  0.44419685245E+03  0.00000000000E+00 0.  1.
          2   -1    0    0  502    0  0.00000000000E+00 -0.00000000000E+00 -0.74278470127E+02  0.74278470127E+02  0.00000000000E+00 0. -1.
         23    2    1    2    0    0  0.25107627276E+01 -0.12759884927E+02  0.31570529084E+03  0.32880768018E+03  0.90970002137E+02 0.  0.
         24    2    1    2    0    0  0.14889596287E+02  0.27195205204E+02 -0.38211639403E+02  0.94517856034E+02  0.80698305185E+02 0.  0.
        -11    1    4    4    0    0  0.41206861959E+02 -0.78687762933E+01 -0.12879988549E+02  0.43884134011E+02  0.00000000000E+00 0.  1.
         12    1    4    4    0    0 -0.26317265672E+02  0.35063981497E+02 -0.25331650854E+02  0.50633722023E+02  0.00000000000E+00 0. -1.
        -13    1    3    3    0    0 -0.25889934328E+02 -0.38228430177E+02  0.23561831114E+03  0.24009933385E+03  0.00000000000E+00 0.  1.
         13    1    3    3    0    0  0.28400697056E+02  0.25468545250E+02  0.80086979701E+02  0.88708346327E+02  0.00000000000E+00 0. -1.
         21    1    1    2  502  501 -0.17400359015E+02 -0.14435320277E+02  0.92424730888E+02  0.95149786364E+02  0.00000000000E+00 0.  1.
<scales pt_clust_5="13000.00000" pt_clust_6="13000.00000" pt_clust_7="13000.00000" pt_clust_8="13000.00000" pt_clust_9="22.60865"></scales>
<clustering>
<clus scale="   22.609">  1  9  2 -1</clus>
<clus scale="   80.698">  5  6 -1 -1</clus>
<clus scale="   85.861">  2  5  1 -1</clus>
<clus scale="   90.970">  7  8 -1 -1</clus>
<clus scale="   85.861">  2  5  1 -1</clus>
</clustering>
</event>
<event>
 9    2  0.3402837E-005  0.2724714E+03  0.7546771E-02  0.1100219E+00
          2   -1    0    0  502    0  0.00000000000E+00  0.00000000000E+00  0.13336751258E+04  0.13336751258E+04  0.00000000000E+00 0. -1.
         -1   -1    0    0    0  501 -0.00000000000E+00 -0.00000000000E+00 -0.14129772103E+03  0.14129772103E+03  0.00000000000E+00 0.  1.
         23    2    1    2    0    0  0.19222914100E+03 -0.14947110287E+03  0.56160339500E+02  0.26496289577E+03  0.88077801709E+02 0.  0.
         24    2    1    2    0    0 -0.19346692575E+03  0.17385680372E+03  0.11501338589E+04  0.11819052956E+04  0.80228390820E+02 0.  0.
        -11    1    4    4    0    0 -0.55864280891E+02  0.45846005361E+02  0.18442999274E+03  0.19808355891E+03  0.00000000000E+00 0.  1.
         12    1    4    4    0    0 -0.13760264485E+03  0.12801079836E+03  0.96570386616E+03  0.98382173664E+03  0.00000000000E+00 0. -1.
        -13    1    3    3    0    0  0.12707513775E+03 -0.92948133625E+02 -0.77191313037E+01  0.15762941085E+03  0.00000000000E+00 0.  1.
         13    1    3    3    0    0  0.65154003257E+02 -0.56522969248E+02  0.63879470804E+02  0.10733348491E+03  0.00000000000E+00 0. -1.
         21    1    1    2  502  501  0.12377847408E+01 -0.24385700845E+02 -0.13916793631E+02  0.28104655517E+02  0.00000000000E+00 0.  1.
<scales pt_clust_5="13000.00000" pt_clust_6="13000.00000" pt_clust_7="13000.00000" pt_clust_8="13000.00000" pt_clust_9="24.41709"></scales>
<clustering>
<clus scale="   24.417">  2  9  1 -1</clus>
<clus scale="   80.228">  5  6 -1 -1</clus>
<clus scale="   88.078">  7  8 -1 -1</clus>
<clus scale="  270.036">  1  5  2 -1</clus>
<clus scale="  270.036">  1  5  2 -1</clus>
</clustering>
</event>
<event>
 9    2  0.3402837E-005  0.1332811E+03  0.7546771E-02  0.1226157E+00
          2   -1    0    0  502    0  0.00000000000E+00  0.00000000000E+00  0.46480952486E+03  0.46480952486E+03  0.00000000000E+00 0. -1.
         -1   -1    0    0    0  501 -0.00000000000E+00 -0.00000000000E+00 -0.24262935614E+03  0.24262935614E+03  0.00000000000E+00 0.  1.
         24    2    1    2    0    0  0.26290507998E+02  0.70667810038E+02 -0.21349430449E+02  0.11143903193E+03  0.79232123974E+02 0.  0.
         23    2    1    2    0    0 -0.51314327379E+02 -0.84425106781E+02  0.40751406745E+03  0.42954757188E+03  0.93180698048E+02 0.  0.
        -11    1    3    3    0    0  0.18888920773E+02  0.60676227940E+02 -0.49573478108E+02  0.80597305765E+02  0.00000000000E+00 0.  1.
         12    1    3    3    0    0  0.74015872253E+01  0.99915820988E+01  0.28224047658E+02  0.30841726160E+02  0.00000000000E+00 0. -1.
        -13    1    4    4    0    0 -0.39240225259E+02 -0.10413110330E+03  0.35819202926E+03  0.37507947395E+03  0.00000000000E+00 0. -1.
         13    1    4    4    0    0 -0.12074102120E+02  0.19705996520E+02  0.49322038191E+02  0.54468097930E+02  0.00000000000E+00 0.  1.
         21    1    1    2  502  501  0.25023819380E+02  0.13757296743E+02 -0.16398446828E+03  0.16645227720E+03  0.00000000000E+00 0.  1.
<scales pt_clust_5="13000.00000" pt_clust_6="13000.00000" pt_clust_7="13000.00000" pt_clust_8="13000.00000" pt_clust_9="28.55617"></scales>
<clustering>
<clus scale="   28.556">  2  9  1 -1</clus>
<clus scale="   79.232">  5  6 -1 -1</clus>
<clus scale="   93.181">  7  8 -1 -1</clus>
<clus scale="  123.931">  2  5  1 -1</clus>
<clus scale="  133.281">  1  5  2 -1</clus>
</clustering>
</event>
<event>
 9    2  0.3402837E-005  0.1415803E+03  0.7546771E-02  0.1225936E+00
          2   -1    0    0  502    0  0.00000000000E+00  0.00000000000E+00  0.39284352068E+03  0.39284352068E+03  0.00000000000E+00 0. -1.
         -1   -1    0    0    0  501 -0.00000000000E+00 -0.00000000000E+00 -0.18629473738E+03  0.18629473738E+03  0.00000000000E+00 0.  1.
         23    2    1    2    0    0  0.10541463653E+03  0.31293038332E+02 -0.55130456436E+02  0.15401118627E+03  0.92674583501E+02 0.  0.
         24    2    1    2    0    0 -0.32279904865E+02  0.55095995887E+02  0.29034569230E+03  0.30836440775E+03  0.81917189332E+02 0.  0.
        -11    1    4    4    0    0  0.26232805453E+02  0.50572594645E+01  0.67561762655E+02  0.72652100646E+02  0.00000000000E+00 0.  1.
         12    1    4    4    0    0 -0.58512710318E+02  0.50038736422E+02  0.22278392965E+03  0.23571230711E+03  0.00000000000E+00 0. -1.
        -13    1    3    3    0    0 -0.97984960458E+01  0.18489018955E+02 -0.28002176807E+02  0.34956776920E+02  0.00000000000E+00 0. -1.
         13    1    3    3    0    0  0.11521313258E+03  0.12804019377E+02 -0.27128279629E+02  0.11905440935E+03  0.00000000000E+00 0.  1.
         21    1    1    2  502  501 -0.73134731669E+02 -0.86389034219E+02 -0.28666452575E+02  0.11676266404E+03  0.00000000000E+00 0. -1.
<scales pt_clust_5="13000.00000" pt_clust_6="13000.00000" pt_clust_7="13000.00000" pt_clust_8="13000.00000" pt_clust_9="107.03457"></scales>
<clustering>
<clus scale="   81.917">  5  6 -1 -1</clus>
<clus scale="   92.675">  7  8 -1 -1</clus>
<clus scale="  103.865">  1  5  2 -1</clus>
<clus scale="  107.035">  1  9  2 -1</clus>
<clus scale="  103.865">  1  5  2 -1</clus>
</clustering>
</event>
<event>
 9    2  0.3402837E-005  0.1705419E+03  0.7546771E-02  0.1182729E+00
         -1   -1    0    0    0  501 -0.00000000000E+00  0.00000000000E+00  0.69043595389E+02  0.69043595389E+02  0.00000000000E+00 0.  1.
          2   -1    0    0  502    0  0.00000000000E+00 -0.00000000000E+00 -0.60856007350E+03  0.60856007350E+03  0.00000000000E+00 0. -1.
         23    2    1    2    0    0  0.10090250113E+03 -0.69156522454E+02 -0.23816400872E+03  0.29010855680E+03  0.11170022537E+03 0.  0.
         24    2    1    2    0    0 -0.97102228725E+02  0.92353635935E+02 -0.32116998621E+03  0.35674967150E+03  0.78499243191E+02 0.  0.
        -13    1    4    4    0    0 -0.39266176028E+02  0.32452479112E+02 -0.43901179468E+02  0.67248119223E+02  0.00000000000E+00 0.  1.
         14    1    4    4    0    0 -0.57836052697E+02  0.59901156823E+02 -0.27726880674E+03  0.28950155228E+03  0.00000000000E+00 0. -1.
        -11    1    3    3    0    0  0.11616669247E+03 -0.51041276049E+02 -0.13921425126E+03  0.18836273531E+03  0.00000000000E+00 0.  1.
         11    1    3    3    0    0 -0.15264191339E+02 -0.18115246406E+02 -0.98949757454E+02  0.10174582149E+03  0.00000000000E+00 0. -1.
         21    1    1    2  502  501 -0.38002724056E+01 -0.23197113481E+02  0.19817516815E+02  0.30745440587E+02  0.00000000000E+00 0. -1.
<scales pt_clust_5="13000.00000" pt_clust_6="13000.00000" pt_clust_7="13000.00000" pt_clust_8="13000.00000" pt_clust_9="23.50634"></scales>
<clustering>
<clus scale="   23.506">  1  9  2 -1</clus>
<clus scale="   78.499">  5  6 -1 -1</clus>
<clus scale="  111.700">  7  8 -1 -1</clus>
<clus scale="  150.896">  2  5  1 -1</clus>
<clus scale="  150.896">  2  5  1 -1</clus>
</clustering>
</event>
<event>
 9    2  0.3402837E-005  0.2190622E+03  0.7546771E-02  0.1135292E+00
         -1   -1    0    0    0  501 -0.00000000000E+00  0.00000000000E+00  0.54265651599E+03  0.54265651599E+03  0.00000000000E+00 0.  1.
          2   -1    0    0  502    0  0.00000000000E+00 -0.00000000000E+00 -0.16402582992E+03  0.16402582992E+03  0.00000000000E+00 0. -1.
         23    2    1    2    0    0  0.14248013584E+03 -0.14869185790E+03  0.41321497912E+03  0.47056853545E+03  0.90984998073E+02 0.  0.
         24    2    1    2    0    0 -0.12936259241E+03  0.11276114512E+03 -0.47299737928E+02  0.19580539193E+03  0.81564269979E+02 0.  0.
        -11    1    4    4    0    0 -0.74025760354E+02  0.67537398776E+02  0.14595107878E+02  0.10126268120E+03  0.00000000000E+00 0.  1.
         12    1    4    4    0    0 -0.55336832053E+02  0.45223746347E+02 -0.61894845805E+02  0.94542710732E+02  0.00000000000E+00 0. -1.
        -13    1    3    3    0    0  0.25003391027E+02 -0.17146779614E+00  0.13852116790E+02  0.28584613057E+02  0.00000000000E+00 0. -1.
         13    1    3    3    0    0  0.11747674481E+03 -0.14852039010E+03  0.39936286232E+03  0.44198392239E+03  0.00000000000E+00 0.  1.
         21    1    1    2  502  501 -0.13117543433E+02  0.35930712776E+02  0.12715444878E+02  0.40308418535E+02  0.00000000000E+00 0. -1.
<scales pt_clust_5="13000.00000" pt_clust_6="13000.00000" pt_clust_7="13000.00000" pt_clust_8="13000.00000" pt_clust_9="38.25031"></scales>
<clustering>
<clus scale="   38.250">  2  9  1 -1</clus>
<clus scale="   81.564">  5  6 -1 -1</clus>
<clus scale="   90.985">  7  8 -1 -1</clus>
<clus scale="  215.320">  2  5  1 -1</clus>
<clus scale="   38.250">  2  5  1 -1</clus>
</clustering>
</event>
<event>
 9    2  0.3402837E-005  0.3396373E+03  0.7546771E-02  0.1067161E+00
          2   -1    0    0  502    0  0.00000000000E+00  0.00000000000E+00  0.11447299586E+04  0.11447299586E+04  0.00000000000E+00 0. -1.
         -1   -1    0    0    0  501 -0.00000000000E+00 -0.00000000000E+00 -0.50142169905E+03  0.50142169905E+03  0.00000000000E+00 0.  1.
         23    2    1    2    0    0 -0.10691784835E+03 -0.21141452252E+03 -0.19483837222E+03  0.31669462827E+03  0.78777976968E+02 0.  0.
         24    2    1    2    0    0  0.15753429959E+03  0.29965130330E+03  0.10434007077E+04  0.11003784614E+04  0.86831805207E+02 0.  0.
        -13    1    4    4    0    0  0.51459615688E+02  0.38853248656E+02  0.14027461969E+03  0.15438470102E+03  0.00000000000E+00 0.  1.
         14    1    4    4    0    0  0.10607468391E+03  0.26079805465E+03  0.90312608797E+03  0.94599376036E+03  0.00000000000E+00 0. -1.
        -11    1    3    3    0    0 -0.42133418718E+02 -0.18553859649E+02 -0.31398120870E+02  0.55725332434E+02  0.00000000000E+00 0. -1.
         11    1    3    3    0    0 -0.64784429633E+02 -0.19286066287E+03 -0.16344025135E+03  0.26096929583E+03  0.00000000000E+00 0.  1.
         21    1    1    2  502  501 -0.50616451243E+02 -0.88236780781E+02 -0.20525407593E+03  0.22907856797E+03  0.00000000000E+00 0. -1.
<scales pt_clust_5="13000.00000" pt_clust_6="13000.00000" pt_clust_7="13000.00000" pt_clust_8="13000.00000" pt_clust_9="101.72391"></scales>
<clustering>
<clus scale="   78.778">  7  8 -1 -1</clus>
<clus scale="   86.832">  5  6 -1 -1</clus>
<clus scale="  101.724">  2  9  1 -1</clus>
<clus scale="  337.668">  2  7  1 -1</clus>
<clus scale="  339.637">  1  5  2 -1</clus>
</clustering>
</event>
<event>
 9    2  0.3402837E-005  0.1250046E+03  0.7546771E-02  0.1238242E+00
         -1   -1    0    0    0  501 -0.00000000000E+00  0.00000000000E+00  0.12735286141E+03  0.12735286141E+03  0.00000000000E+00 0.  1.
          2   -1    0    0  502    0  0.00000000000E+00 -0.00000000000E+00 -0.34476215535E+03  0.34476215535E+03  0.00000000000E+00 0. -1.
         24    2    1    2    0    0  0.53240830527E+02 -0.46984508064E+02  0.15330845328E+02  0.10810490699E+03  0.80059390853E+02 0.  0.
         23    2    1    2    0    0 -0.93798754670E+02 -0.20906269413E+02 -0.25012538661E+03  0.28303882040E+03  0.91175579771E+02 0.  0.
        -11    1    3    3    0    0  0.55794102272E+02 -0.63604894725E+01  0.31406426261E+02  0.64341287562E+02  0.00000000000E+00 0.  1.
         12    1    3    3    0    0 -0.25532717449E+01 -0.40624018591E+02 -0.16075580933E+02  0.43763619428E+02  0.00000000000E+00 0. -1.
        -11    1    4    4    0    0 -0.23124603728E+02  0.92201577024E+01 -0.40161749848E+01  0.25216825080E+02  0.00000000000E+00 0.  1.
         11    1    4    4    0    0 -0.70674150942E+02 -0.30126427116E+02 -0.24610921163E+03  0.25782199532E+03  0.00000000000E+00 0. -1.
         21    1    1    2  502  501  0.40557924143E+02  0.67890777477E+02  0.17385247338E+02  0.80971289370E+02  0.00000000000E+00 0.  1.
<scales pt_clust_5="13000.00000" pt_clust_6="13000.00000" pt_clust_7="13000.00000" pt_clust_8="13000.00000" pt_clust_9="79.08289"></scales>
<clustering>
<clus scale="   79.083">  1  9  2 -1</clus>
<clus scale="   80.059">  5  6 -1 -1</clus>
<clus scale="   91.176">  7  8 -1 -1</clus>
<clus scale="  117.144">  1  5  2 -1</clus>
<clus scale="  125.005">  2  5  1 -1</clus>
</clustering>
</event>
<event>
 9    2  0.3402837E-005  0.1744234E+03  0.7546771E-02  0.1190722E+00
          2   -1    0    0  502    0  0.00000000000E+00  0.00000000000E+00  0.92103047581E+02  0.92103047581E+02  0.00000000000E+00 0. -1.
         -1   -1    0    0    0  501 -0.00000000000E+00 -0.00000000000E+00 -0.79723881978E+03  0.79723881978E+03  0.00000000000E+00 0.  1.
         23    2    1    2    0    0  0.95236521597E+02 -0.12857589736E+03 -0.21044619258E+03  0.27865464388E+03  0.88085493463E+02 0.  0.
         24    2    1    2    0    0 -0.84423469748E+02 -0.24870398694E+02 -0.30923527817E+02  0.12207527247E+03  0.78741657344E+02 0.  0.
        -13    1    4    4    0    0 -0.48213538543E+02  0.25762680097E+02 -0.23068833815E+02  0.59333229124E+02  0.00000000000E+00 0.  1.
         14    1    4    4    0    0 -0.36209931205E+02 -0.50633078792E+02 -0.78546940022E+01  0.62742043349E+02  0.00000000000E+00 0. -1.
        -11    1    3    3    0    0  0.10491894283E+03 -0.76928024805E+02 -0.15051950588E+03  0.19895232397E+03  0.00000000000E+00 0.  1.
         11    1    3    3    0    0 -0.96824212287E+01 -0.51647872553E+02 -0.59926686701E+02  0.79702319910E+02  0.00000000000E+00 0. -1.
         21    1    1    2  502  501 -0.10813051848E+02  0.15344629605E+03 -0.46376605179E+03  0.48861195100E+03  0.00000000000E+00 0.  1.
<scales pt_clust_5="13000.00000" pt_clust_6="13000.00000" pt_clust_7="13000.00000" pt_clust_8="13000.00000" pt_clust_9="150.54721"></scales>
<clustering>
<clus scale="   78.742">  5  6 -1 -1</clus>
<clus scale="   88.085">  7  8 -1 -1</clus>
<clus scale="  118.094">  1  5  2 -1</clus>
<clus scale="  150.547">  2  9  1 -1</clus>
<clus scale="  118.094">  1  5  2 -1</clus>
</clustering>
</event>
<event>
 9    2  0.3402837E-005  0.1738473E+03  0.7546771E-02  0.1175154E+00
         -1   -1    0    0    0  501 -0.00000000000E+00  0.00000000000E+00  0.10214418957E+03  0.10214418957E+03  0.00000000000E+00 0.  1.
          2   -1    0    0  502    0  0.00000000000E+00 -0.00000000000E+00 -0.52669932844E+03  0.52669932844E+03  0.00000000000E+00 0. -1.
         23    2    1    2    0    0  0.10860935393E+03  0.33708629750E+02 -0.44360965239E+02  0.15193865683E+03  0.90472077025E+02 0.  0.
         24    2    1    2    0    0 -0.15258112044E+03 -0.52376825443E+02 -0.38858561125E+03  0.42840296425E+03  0.80659731943E+02 0.  0.
        -13    1    4    4    0    0 -0.67533810760E+02 -0.49490004366E+02 -0.11752716508E+03  0.14430076458E+03  0.00000000000E+00 0.  1.
         14    1    4    4    0    0 -0.85047309679E+02 -0.28868210762E+01 -0.27105844617E+03  0.28410219967E+03  0.00000000000E+00 0. -1.
        -11    1    3    3    0    0  0.87649610385E+02  0.61551922893E+02 -0.47055219229E+02  0.11698413170E+03  0.00000000000E+00 0. -1.
         11    1    3    3    0    0  0.20959743542E+02 -0.27843293143E+02  0.26942539899E+01  0.34954525129E+02  0.00000000000E+00 0.  1.
         21    1    1    2  502  501  0.43971766511E+02  0.18668195693E+02  0.83914376148E+01  0.48501896929E+02  0.00000000000E+00 0.  1.
<scales pt_clust_5="13000.00000" pt_clust_6="13000.00000" pt_clust_7="13000.00000" pt_clust_8="13000.00000" pt_clust_9="47.77047"></scales>
<clustering>
<clus scale="   47.770">  1  9  2 -1</clus>
<clus scale="   80.660">  5  6 -1 -1</clus>
<clus scale="   90.472">  7  8 -1 -1</clus>
<clus scale="  168.949">  2  5  1 -1</clus>
<clus scale="  168.949">  2  5  1 -1</clus>
</clustering>
</event>
<event>
 9    2  0.3402837E-005  0.9313763E+02  0.7546771E-02  0.1302506E+00
          2   -1    0    0  502    0  0.00000000000E+00  0.00000000000E+00  0.14968259903E+04  0.14968259903E+04  0.00000000000E+00 0. -1.
         -1   -1    0    0    0  501 -0.00000000000E+00 -0.00000000000E+00 -0.11106011797E+02  0.11106011797E+02  0.00000000000E+00 0.  1.
         23    2    1    2    0    0 -0.28734011370E+02 -0.22477684137E+02  0.32140335084E+03  0.33610903283E+03  0.91314173747E+02 0.  0.
         24    2    1    2    0    0  0.63446780946E+01  0.13846202962E+02  0.11030309975E+04  0.11060072175E+04  0.79640514294E+02 0.  0.
        -11    1    4    4    0    0 -0.23397038587E+02  0.11068574927E+01  0.11079763697E+03  0.11324646973E+03  0.00000000000E+00 0.  1.
         12    1    4    4    0    0  0.29741716681E+02  0.12739345469E+02  0.99223336048E+03  0.99276074776E+03  0.00000000000E+00 0. -1.
        -13    1    3    3    0    0  0.31214235688E+02 -0.37537911361E+01  0.15702419108E+03  0.16014061334E+03  0.00000000000E+00 0. -1.
         13    1    3    3    0    0 -0.59948247058E+02 -0.18723893001E+02  0.16437915976E+03  0.17596841949E+03  0.00000000000E+00 0.  1.
         21    1    1    2  502  501  0.22389333276E+02  0.86314811749E+01  0.61285630246E+02  0.65815751811E+02  0.00000000000E+00 0. -1.
<scales pt_clust_5="13000.00000" pt_clust_6="13000.00000" pt_clust_7="13000.00000" pt_clust_8="13000.00000" pt_clust_9="23.99551"></scales>
<clustering>
<clus scale="   23.996">  2  9  1 -1</clus>
<clus scale="   79.641">  5  6 -1 -1</clus>
<clus scale="   81.725">  1  5  2 -1</clus>
<clus scale="   91.314">  7  8 -1 -1</clus>
<clus scale="   81.725">  1  5  2 -1</clus>
</clustering>
</event>
<event>
 9    2  0.3402837E-005  0.1062194E+03  0.7546771E-02  0.1272054E+00
         -1   -1    0    0    0  501 -0.00000000000E+00  0.00000000000E+00  0.73620608946E+02  0.73620608946E+02  0.00000000000E+00 0.  1.
          2   -1    0    0  502    0  0.00000000000E+00 -0.00000000000E+00 -0.59834191869E+03  0.59834191869E+03  0.00000000000E+00 0. -1.
         23    2    1    2    0    0  0.75603179076E+02  0.20743360389E+02 -0.75040210774E+02  0.14229418319E+03  0.92035176154E+02 0.  0.
         24    2    1    2    0    0 -0.33297030128E+02 -0.38533072965E+02 -0.46975147718E+03  0.47957738524E+03  0.82064171205E+02 0.  0.
        -11    1    4    4    0    0  0.27550429875E+02 -0.14690528633E+02 -0.14912474287E+03  0.15235821853E+03  0.00000000000E+00 0.  1.
         12    1    4    4    0    0 -0.60847460004E+02 -0.23842544333E+02 -0.32062673431E+03  0.32721916671E+03  0.00000000000E+00 0. -1.
        -11    1    3    3    0    0  0.22313758555E+02 -0.22924186642E+02  0.93717962320E+01  0.33335457379E+02  0.00000000000E+00 0.  1.
         11    1    3    3    0    0  0.53289420521E+02  0.43667547031E+02 -0.84412007006E+02  0.10895872581E+03  0.00000000000E+00 0. -1.
         21    1    1    2  502  501 -0.42306148948E+02  0.17789712576E+02  0.20070378212E+02  0.50090959203E+02  0.00000000000E+00 0. -1.
<scales pt_clust_5="13000.00000" pt_clust_6="13000.00000" pt_clust_7="13000.00000" pt_clust_8="13000.00000" pt_clust_9="45.89427"></scales>
<clustering>
<clus scale="   45.894">  1  9  2 -1</clus>
<clus scale="   82.064">  5  6 -1 -1</clus>
<clus scale="   92.035">  7  8 -1 -1</clus>
<clus scale="   97.707">  2  5  1 -1</clus>
<clus scale="   97.707">  2  5  1 -1</clus>
</clustering>
</event>
<event>
 9    2  0.3402837E-005  0.5381483E+03  0.7546771E-02  0.1004394E+00
         -1   -1    0    0    0  501 -0.00000000000E+00  0.00000000000E+00  0.23939997352E+03  0.23939997352E+03  0.00000000000E+00 0.  1.
          2   -1    0    0  502    0  0.00000000000E+00 -0.00000000000E+00 -0.32170703724E+04  0.32170703724E+04  0.00000000000E+00 0. -1.
         24    2    1    2    0    0  0.38469126151E+03 -0.26763067312E+03 -0.87135231525E+02  0.48297437247E+03  0.77834131451E+02 0.  0.
         23    2    1    2    0    0 -0.39255634779E+03  0.37025511599E+03 -0.27185210632E+04  0.27730402729E+04  0.90588337554E+02 0.  0.
        -11    1    3    3    0    0  0.35342614875E+03 -0.26563672406E+03 -0.71178438190E+02  0.44781612505E+03  0.00000000000E+00 0.  1.
         12    1    3    3    0    0  0.31265112759E+02 -0.19939490620E+01 -0.15956793336E+02  0.35158247428E+02  0.00000000000E+00 0. -1.
        -11    1    4    4    0    0 -0.38942271851E+03  0.34760928194E+03 -0.26461121304E+04  0.26971080203E+04  0.00000000000E+00 0. -1.
         11    1    4    4    0    0 -0.31336292821E+01  0.22645834052E+02 -0.72408932803E+02  0.75932252581E+02  0.00000000000E+00 0.  1.
         21    1    1    2  502  501  0.78650862874E+01 -0.10262444287E+03 -0.17201410421E+03  0.20045570060E+03  0.00000000000E+00 0.  1.
<scales pt_clust_5="13000.00000" pt_clust_6="13000.00000" pt_clust_7="13000.00000" pt_clust_8="13000.00000" pt_clust_9="102.92539"></scales>
<clustering>
<clus scale="   77.834">  5  6 -1 -1</clus>
<clus scale="   90.588">  7  8 -1 -1</clus>
<clus scale="  102.925">  1  9  2 -1</clus>
<clus scale="  536.149">  1  5  2 -1</clus>
<clus scale="  538.148">  2  5  1 -1</clus>
</clustering>
</event>
<event>
 9    2  0.3402837E-005  0.9302666E+02  0.7546771E-02  0.1311083E+00
          2   -1    0    0  502    0  0.00000000000E+00  0.00000000000E+00  0.43155755301E+03  0.43155755301E+03  0.00000000000E+00 0. -1.
         -1   -1    0    0    0  501 -0.00000000000E+00 -0.00000000000E+00 -0.60464131737E+02  0.60464131737E+02  0.00000000000E+00 0.  1.
         23    2    1    2    0    0  0.21361481766E+01 -0.20522762118E+02 -0.56400633043E+01  0.94604401163E+02  0.92154411242E+02 0.  0.
         24    2    1    2    0    0 -0.10330599321E+02 -0.29499645572E+02  0.21705874984E+03  0.22988993891E+03  0.68977770030E+02 0.  0.
        -13    1    4    4    0    0 -0.13561690718E+02 -0.42030691754E+02  0.21105114401E+03  0.21562254960E+03  0.00000000000E+00 0.  1.
         14    1    4    4    0    0  0.32310913969E+01  0.12531046183E+02  0.60076058245E+01  0.14267389312E+02  0.00000000000E+00 0. -1.
        -11    1    3    3    0    0  0.40440189719E+02  0.74021627055E+01 -0.19093804705E+02  0.45329618742E+02  0.00000000000E+00 0.  1.
         11    1    3    3    0    0 -0.38304041542E+02 -0.27924924824E+02  0.13453741401E+02  0.49274782420E+02  0.00000000000E+00 0. -1.
         21    1    1    2  502  501  0.81944511447E+01  0.50022407690E+02  0.15967473474E+03  0.16752734468E+03  0.00000000000E+00 0. -1.
<scales pt_clust_5="13000.00000" pt_clust_6="13000.00000" pt_clust_7="13000.00000" pt_clust_8="13000.00000" pt_clust_9="50.68915"></scales>
<clustering>
<clus scale="   50.689">  1  9  2 -1</clus>
<clus scale="   68.978">  5  6 -1 -1</clus>
<clus scale="   70.139">  1  5  2 -1</clus>
<clus scale="   92.154">  7  8 -1 -1</clus>
<clus scale="   50.689">  1  5  2 -1</clus>
</clustering>
</event>
<event>
 9    2  0.3402837E-005  0.1655604E+03  0.7546771E-02  0.1215120E+00
          2   -1    0    0  502    0  0.00000000000E+00  0.00000000000E+00  0.71516431231E+03  0.71516431231E+03  0.00000000000E+00 0. -1.
         -1   -1    0    0    0  501 -0.00000000000E+00 -0.00000000000E+00 -0.94708165682E+02  0.94708165682E+02  0.00000000000E+00 0.  1.
         24    2    1    2    0    0  0.13816905208E+02 -0.59907154499E+01  0.49252908257E+01  0.81646825096E+02  0.80094631639E+02 0.  0.
         23    2    1    2    0    0  0.12964905148E+03  0.41342635600E+02  0.53608734857E+03  0.56046537802E+03  0.90629490744E+02 0.  0.
        -13    1    3    3    0    0 -0.28200610823E+02 -0.16342402978E+02 -0.12619702677E+02  0.34951473239E+02  0.00000000000E+00 0.  1.
         14    1    3    3    0    0  0.42017516031E+02  0.10351687528E+02  0.17544993503E+02  0.46695351858E+02  0.00000000000E+00 0. -1.
        -13    1    4    4    0    0  0.18529771631E+01 -0.21146000632E+02  0.67014934249E+02  0.70296431485E+02  0.00000000000E+00 0.  1.
         13    1    4    4    0    0  0.12779607431E+03  0.62488636232E+02  0.46907241433E+03  0.49016894654E+03  0.00000000000E+00 0. -1.
         21    1    1    2  502  501 -0.14346595668E+03 -0.35351920150E+02  0.79443507231E+02  0.16776027488E+03  0.00000000000E+00 0.  1.
<scales pt_clust_5="13000.00000" pt_clust_6="13000.00000" pt_clust_7="13000.00000" pt_clust_8="13000.00000" pt_clust_9="138.55164"></scales>
<clustering>
<clus scale="   80.095">  5  6 -1 -1</clus>
<clus scale="   81.498">  2  5  1 -1</clus>
<clus scale="   90.629">  7  8 -1 -1</clus>
<clus scale="  138.552">  2  9  1 -1</clus>
<clus scale="  165.560">  1  5  2 -1</clus>
</clustering>
</event>
<event>
 9    2  0.3402837E-005  0.9365642E+02  0.7546771E-02  0.1301027E+00
         -1   -1    0    0    0  501 -0.00000000000E+00  0.00000000000E+00  0.34636970240E+02  0.34636970240E+02  0.00000000000E+00 0.  1.
          2   -1    0    0  502    0  0.00000000000E+00 -0.00000000000E+00 -0.34972474756E+03  0.34972474756E+03  0.00000000000E+00 0. -1.
         24    2    1    2    0    0  0.12061482443E+02 -0.28758632744E+00 -0.59958700756E+02  0.10200857417E+03  0.81640316903E+02 0.  0.
         23    2    1    2    0    0  0.30020677898E+00  0.17074044377E+02 -0.23554820457E+03  0.25375232052E+03  0.92820635524E+02 0.  0.
        -13    1    3    3    0    0  0.45257268521E+02 -0.34533262281E+01 -0.19033950586E+02  0.49218259731E+02  0.00000000000E+00 0.  1.
         14    1    3    3    0    0 -0.33195786078E+02  0.31657399006E+01 -0.40924750170E+02  0.52790314443E+02  0.00000000000E+00 0. -1.
        -13    1    4    4    0    0  0.25819598604E+02 -0.29624386032E+02 -0.12557123592E+03  0.13157656026E+03  0.00000000000E+00 0.  1.
         13    1    4    4    0    0 -0.25519391825E+02  0.46698430409E+02 -0.10997696864E+03  0.12217576025E+03  0.00000000000E+00 0. -1.
         21    1    1    2  502  501 -0.12361689222E+02 -0.16786458049E+02 -0.19580872002E+02  0.28600823111E+02  0.00000000000E+00 0. -1.
<scales pt_clust_5="13000.00000" pt_clust_6="13000.00000" pt_clust_7="13000.00000" pt_clust_8="13000.00000" pt_clust_9="20.84698"></scales>
<clustering>
<clus scale="   20.847">  1  9  2 -1</clus>
<clus scale="   81.640">  5  6 -1 -1</clus>
<clus scale="   82.589">  1  5  2 -1</clus>
<clus scale="   92.821">  7  8 -1 -1</clus>
<clus scale="   93.656">  2  5  1 -1</clus>
</clustering>
</event>
<event>
 9    2  0.3402837E-005  0.1148596E+03  0.7546771E-02  0.1258549E+00
          2   -1    0    0  502    0  0.00000000000E+00  0.00000000000E+00  0.11333892345E+03  0.11333892345E+03  0.00000000000E+00 0. -1.
         -1   -1    0    0    0  501 -0.00000000000E+00 -0.00000000000E+00 -0.32005649727E+03  0.32005649727E+03  0.00000000000E+00 0.  1.
         24    2    1    2    0    0  0.35937335084E+02 -0.29876595293E+02 -0.23158789114E+03  0.24960454828E+03  0.80531833451E+02 0.  0.
         23    2    1    2    0    0 -0.34898447292E+02  0.51564918139E+02  0.68766523017E+02  0.13481802782E+03  0.97827519300E+02 0.  0.
        -13    1    3    3    0    0  0.32119971277E+02 -0.52790949392E+02 -0.11328905657E+03  0.12904645377E+03  0.00000000000E+00 0.  1.
         14    1    3    3    0    0  0.38173638062E+01  0.22914354099E+02 -0.11829883457E+03  0.12055809451E+03  0.00000000000E+00 0. -1.
        -13    1    4    4    0    0 -0.14185902832E+02  0.69541235280E+02  0.78396645028E+02  0.10575092054E+03  0.00000000000E+00 0. -1.
         13    1    4    4    0    0 -0.20712544460E+02 -0.17976317140E+02 -0.96301220106E+01  0.29067107285E+02  0.00000000000E+00 0.  1.
         21    1    1    2  502  501 -0.10388877914E+01 -0.21688322846E+02 -0.43896205686E+02  0.48972844612E+02  0.00000000000E+00 0. -1.
<scales pt_clust_5="13000.00000" pt_clust_6="13000.00000" pt_clust_7="13000.00000" pt_clust_8="13000.00000" pt_clust_9="21.71319"></scales>
<clustering>
<clus scale="   21.713">  2  9  1 -1</clus>
<clus scale="   80.532">  5  6 -1 -1</clus>
<clus scale="   97.828">  7  8 -1 -1</clus>
<clus scale="  100.538">  2  5  1 -1</clus>
<clus scale="  114.860">  1  5  2 -1</clus>
</clustering>
</event>
<event>
 9    2  0.3402837E-005  0.2075465E+03  0.7546771E-02  0.1180726E+00
         -1   -1    0    0    0  501 -0.00000000000E+00  0.00000000000E+00  0.95198106698E+02  0.95198106698E+02  0.00000000000E+00 0.  1.
          2   -1    0    0  502    0  0.00000000000E+00 -0.00000000000E+00 -0.10174086980E+04  0.10174086980E+04  0.00000000000E+00 0. -1.
         23    2    1    2    0    0  0.15743992048E+03  0.53219678887E+02 -0.39747876612E+03  0.44053587337E+03  0.91993605367E+02 0.  0.
         24    2    1    2    0    0  0.30824699240E+02 -0.12450751523E+02 -0.46089695444E+03  0.46914098477E+03  0.81006652073E+02 0.  0.
        -13    1    4    4    0    0  0.60147639777E+01 -0.45452948276E+02 -0.26547283374E+03  0.26940299431E+03  0.00000000000E+00 0.  1.
         14    1    4    4    0    0  0.24809935262E+02  0.33002196753E+02 -0.19542412071E+03  0.19973799046E+03  0.00000000000E+00 0. -1.
        -11    1    3    3    0    0  0.23787629085E+02  0.21556838377E+02 -0.18336522951E+03  0.18615411887E+03  0.00000000000E+00 0.  1.
         11    1    3    3    0    0  0.13365229139E+03  0.31662840510E+02 -0.21411353661E+03  0.25438175451E+03  0.00000000000E+00 0. -1.
         21    1    1    2  502  501 -0.18826461972E+03 -0.40768927364E+02 -0.63834870694E+02  0.20292994651E+03  0.00000000000E+00 0.  1.
<scales pt_clust_5="13000.00000" pt_clust_6="13000.00000" pt_clust_7="13000.00000" pt_clust_8="13000.00000" pt_clust_9="186.04493"></scales>
<clustering>
<clus scale="   81.007">  5  6 -1 -1</clus>
<clus scale="   87.563">  2  5  1 -1</clus>
<clus scale="   91.994">  7  8 -1 -1</clus>
<clus scale="  186.045">  1  9  2 -1</clus>
<clus scale="   87.563">  2  5  1 -1</clus>
</clustering>
</event>
<event>
 9    2  0.3402837E-005  0.1540544E+03  0.7546771E-02  0.1197204E+00
          2   -1    0    0  502    0  0.00000000000E+00  0.00000000000E+00  0.76359226763E+03  0.76359226763E+03  0.00000000000E+00 0. -1.
         -1   -1    0    0    0  501 -0.00000000000E+00 -0.00000000000E+00 -0.14340056536E+03  0.14340056536E+03  0.00000000000E+00 0.  1.
         23    2    1    2    0    0  0.25625120925E+02 -0.10038155772E+03 -0.52712499896E+02  0.14760350547E+03  0.90967484458E+02 0.  0.
         24    2    1    2    0    0  0.32038543151E+02  0.12293838129E+03  0.68046779355E+03  0.69701051414E+03  0.81528675393E+02 0.  0.
        -11    1    4    4    0    0  0.43139677871E+02  0.11301310428E+03  0.44732186549E+03  0.46338951746E+03  0.00000000000E+00 0.  1.
         12    1    4    4    0    0 -0.11101134720E+02  0.99252770116E+01  0.23314592806E+03  0.23362099668E+03  0.00000000000E+00 0. -1.
        -13    1    3    3    0    0  0.32475309306E+02 -0.22283377475E+02  0.16807378914E+02  0.42821520433E+02  0.00000000000E+00 0. -1.
         13    1    3    3    0    0 -0.68501883804E+01 -0.78098180242E+02 -0.69519878810E+02  0.10478198503E+03  0.00000000000E+00 0.  1.
         21    1    1    2  502  501 -0.57663664076E+02 -0.22556823574E+02 -0.75635913885E+01  0.62378813384E+02  0.00000000000E+00 0. -1.
<scales pt_clust_5="13000.00000" pt_clust_6="13000.00000" pt_clust_7="13000.00000" pt_clust_8="13000.00000" pt_clust_9="61.91856"></scales>
<clustering>
<clus scale="   61.919">  2  9  1 -1</clus>
<clus scale="   81.529">  5  6 -1 -1</clus>
<clus scale="   90.967">  7  8 -1 -1</clus>
<clus scale="  148.676">  1  5  2 -1</clus>
<clus scale="  148.676">  1  5  2 -1</clus>
</clustering>
</event>
<event>
 9    2  0.3402837E-005  0.2592489E+03  0.7546771E-02  0.1144709E+00
         -1   -1    0    0    0  501 -0.00000000000E+00  0.00000000000E+00  0.12918298335E+03  0.12918298335E+03  0.00000000000E+00 0.  1.
          2   -1    0    0  502    0  0.00000000000E+00 -0.00000000000E+00 -0.12034685259E+04  0.12034685259E+04  0.00000000000E+00 0. -1.
         23    2    1    2    0    0  0.21935808953E+03  0.66901204898E+02 -0.90357238532E+02  0.26211235080E+03  0.89133109605E+02 0.  0.
         24    2    1    2    0    0  0.46498337812E+02  0.46692094668E+02 -0.46625414658E+03  0.47760610072E+03  0.79827383278E+02 0.  0.
        -11    1    4    4    0    0  0.68599795294E+02  0.34965258493E+02 -0.38346976484E+03  0.39112346102E+03  0.00000000000E+00 0.  1.
         12    1    4    4    0    0 -0.22101457482E+02  0.11726836175E+02 -0.82784381745E+02  0.86482639705E+02  0.00000000000E+00 0. -1.
        -11    1    3    3    0    0  0.48266824175E+02 -0.15891427887E+02  0.18654178349E+01  0.50849813961E+02  0.00000000000E+00 0. -1.
         11    1    3    3    0    0  0.17109126536E+03  0.82792632785E+02 -0.92222656367E+02  0.21126253684E+03  0.00000000000E+00 0.  1.
         21    1    1    2  502  501 -0.26585642734E+03 -0.11359329957E+03 -0.51767415741E+03  0.59293305770E+03  0.00000000000E+00 0. -1.
<scales pt_clust_5="13000.00000" pt_clust_6="13000.00000" pt_clust_7="13000.00000" pt_clust_8="13000.00000" pt_clust_9="243.44466"></scales>
<clustering>
<clus scale="   79.827">  5  6 -1 -1</clus>
<clus scale="   89.133">  7  8 -1 -1</clus>
<clus scale="  103.512">  2  5  1 -1</clus>
<clus scale="  243.445">  2  9  1 -1</clus>
<clus scale="  103.512">  2  5  1 -1</clus>
</clustering>
</event>
<event>
 9    2  0.3402837E-005  0.1274875E+03  0.7546771E-02  0.1232109E+00
          2   -1    0    0  502    0  0.00000000000E+00  0.00000000000E+00  0.29572603146E+03  0.29572603146E+03  0.00000000000E+00 0. -1.
         -1   -1    0    0    0  501 -0.00000000000E+00 -0.00000000000E+00 -0.20832444623E+03  0.20832444623E+03  0.00000000000E+00 0.  1.
         24    2    1    2    0    0 -0.53065189148E+01  0.10592451278E+03 -0.70140708728E+02  0.15510265654E+03  0.88819780988E+02 0.  0.
         23    2    1    2    0    0  0.27180786844E+02 -0.81803407642E+02  0.23402279617E+03  0.26582394654E+03  0.92006025638E+02 0.  0.
        -11    1    3    3    0    0 -0.48015856562E+01  0.32680714636E+02 -0.74738994291E+02  0.81712921876E+02  0.00000000000E+00 0.  1.
         12    1    3    3    0    0 -0.50493325858E+00  0.73243798146E+02  0.45982855628E+01  0.73389734667E+02  0.00000000000E+00 0. -1.
        -13    1    4    4    0    0 -0.12942945224E+01 -0.45071769750E+02  0.24717610878E+02  0.51420812073E+02  0.00000000000E+00 0.  1.
         13    1    4    4    0    0  0.28475081366E+02 -0.36731637892E+02  0.20930518529E+03  0.21440313447E+03  0.00000000000E+00 0. -1.
         21    1    1    2  502  501 -0.21874267929E+02 -0.24121105140E+02 -0.76480502214E+02  0.83123874606E+02  0.00000000000E+00 0. -1.
<scales pt_clust_5="13000.00000" pt_clust_6="13000.00000" pt_clust_7="13000.00000" pt_clust_8="13000.00000" pt_clust_9="32.56242"></scales>
<clustering>
<clus scale="   32.562">  2  9  1 -1</clus>
<clus scale="   88.820">  5  6 -1 -1</clus>
<clus scale="   92.006">  7  8 -1 -1</clus>
<clus scale="  125.207">  2  5  1 -1</clus>
<clus scale="  127.487">  1  5  2 -1</clus>
</clustering>
</event>
<event>
 9    2  0.3402837E-005  0.1041818E+03  0.7546771E-02  0.1277322E+00
         -1   -1    0    0    0  501 -0.00000000000E+00  0.00000000000E+00  0.50351905996E+02  0.50351905996E+02  0.00000000000E+00 0.  1.
          2   -1    0    0  502    0  0.00000000000E+00 -0.00000000000E+00 -0.29999919417E+03  0.29999919417E+03  0.00000000000E+00 0. -1.
         24    2    1    2    0    0  0.39196585076E+02 -0.21187407573E+02 -0.41332912968E+02  0.10653253067E+03  0.87495667751E+02 0.  0.
         23    2    1    2    0    0 -0.17909140754E+02  0.23630607063E+02 -0.18734404372E+03  0.21383725344E+03  0.98739239061E+02 0.  0.
        -13    1    3    3    0    0  0.58983210341E+02 -0.27983172980E+02 -0.61164938212E+01  0.65570485501E+02  0.00000000000E+00 0.  1.
         14    1    3    3    0    0 -0.19786625265E+02  0.67957654075E+01 -0.35216419147E+02  0.40962045168E+02  0.00000000000E+00 0. -1.
        -13    1    4    4    0    0 -0.16406028367E+02 -0.30811131641E+02 -0.25933231006E+02  0.43485814586E+02  0.00000000000E+00 0.  1.
         13    1    4    4    0    0 -0.15031123867E+01  0.54441738705E+02 -0.16141081271E+03  0.17035143886E+03  0.00000000000E+00 0. -1.
         21    1    1    2  502  501 -0.21287444322E+02 -0.24431994904E+01 -0.20970331485E+02  0.29981316050E+02  0.00000000000E+00 0. -1.
<scales pt_clust_5="13000.00000" pt_clust_6="13000.00000" pt_clust_7="13000.00000" pt_clust_8="13000.00000" pt_clust_9="21.42719"></scales>
<clustering>
<clus scale="   21.427">  1  9  2 -1</clus>
<clus scale="   87.496">  5  6 -1 -1</clus>
<clus scale="   93.594">  1  5  2 -1</clus>
<clus scale="   98.739">  7  8 -1 -1</clus>
<clus scale="  104.182">  2  5  1 -1</clus>
</clustering>
</event>
<event>
 9    2  0.3402837E-005  0.1094492E+03  0.7546771E-02  0.1266380E+00
          2   -1    0    0  502    0  0.00000000000E+00  0.00000000000E+00  0.24522855569E+03  0.24522855569E+03  0.00000000000E+00 0. -1.
         -1   -1    0    0    0  501 -0.00000000000E+00 -0.00000000000E+00 -0.34767698925E+03  0.34767698925E+03  0.00000000000E+00 0.  1.
         23    2    1    2    0    0  0.58712445894E+02 -0.13580432992E+02 -0.26773527413E+03  0.28958811976E+03  0.92452813002E+02 0.  0.
         24    2    1    2    0    0 -0.39645529623E+02 -0.44738124404E+02  0.20635937745E+03  0.22948278074E+03  0.80652874725E+02 0.  0.
        -11    1    4    4    0    0  0.95237429461E+01 -0.20418847811E+02  0.83704145196E+01  0.24035283748E+02  0.00000000000E+00 0.  1.
         12    1    4    4    0    0 -0.49169272569E+02 -0.24319276593E+02  0.19798896293E+03  0.20544749699E+03  0.00000000000E+00 0. -1.
        -13    1    3    3    0    0 -0.19387895257E+02 -0.22757780986E+02 -0.52196135144E+02  0.60151837893E+02  0.00000000000E+00 0. -1.
         13    1    3    3    0    0  0.78100341151E+02  0.91773479946E+01 -0.21553913898E+03  0.22943628187E+03  0.00000000000E+00 0.  1.
         21    1    1    2  502  501 -0.19066916271E+02  0.58318557396E+02 -0.41072536883E+02  0.73834644435E+02  0.00000000000E+00 0. -1.
<scales pt_clust_5="13000.00000" pt_clust_6="13000.00000" pt_clust_7="13000.00000" pt_clust_8="13000.00000" pt_clust_9="61.35635"></scales>
<clustering>
<clus scale="   61.356">  2  9  1 -1</clus>
<clus scale="   80.653">  5  6 -1 -1</clus>
<clus scale="   92.453">  7  8 -1 -1</clus>
<clus scale="   99.682">  1  5  2 -1</clus>
<clus scale="   99.682">  1  5  2 -1</clus>
</clustering>
</event>
<event>
 9    2  0.3402837E-005  0.1916637E+03  0.7546771E-02  0.1157369E+00
         -1   -1    0    0    0  501 -0.00000000000E+00  0.00000000000E+00  0.20003409520E+03  0.20003409520E+03  0.00000000000E+00 0.  1.
          2   -1    0    0  502    0  0.00000000000E+00 -0.00000000000E+00 -0.40217247866E+03  0.40217247866E+03  0.00000000000E+00 0. -1.
         23    2    1    2    0    0 -0.92400759132E+02  0.13667190539E+03  0.92075885418E+02  0.20956732420E+03  0.90682879769E+02 0.  0.
         24    2    1    2    0    0  0.74804930115E+02 -0.17686167461E+03 -0.27002859574E+03  0.34254156974E+03  0.86853065400E+02 0.  0.
        -13    1    4    4    0    0 -0.55062287732E+01 -0.92086211391E+02 -0.97671071713E+02  0.13434964508E+03  0.00000000000E+00 0.  1.
         14    1    4    4    0    0  0.80311158889E+02 -0.84775463218E+02 -0.17235752402E+03  0.20819192466E+03  0.00000000000E+00 0. -1.
        -13    1    3    3    0    0 -0.62102264700E+02  0.28633950911E+02  0.69759993712E+01  0.68740519295E+02  0.00000000000E+00 0. -1.
         13    1    3    3    0    0 -0.30298494432E+02  0.10803795448E+03  0.85099886047E+02  0.14082680490E+03  0.00000000000E+00 0.  1.
         21    1    1    2  502  501  0.17595829017E+02  0.40189769215E+02 -0.24185673138E+02  0.50097679921E+02  0.00000000000E+00 0. -1.
<scales pt_clust_5="13000.00000" pt_clust_6="13000.00000" pt_clust_7="13000.00000" pt_clust_8="13000.00000" pt_clust_9="43.87289"></scales>
<clustering>
<clus scale="   43.873">  2  9  1 -1</clus>
<clus scale="   86.853">  5  6 -1 -1</clus>
<clus scale="   90.683">  7  8 -1 -1</clus>
<clus scale="  189.882">  2  5  1 -1</clus>
<clus scale="   43.873">  2  5  1 -1</clus>
</clustering>
</event>
<event>
 9    2  0.3402837E-005  0.1801929E+03  0.7546771E-02  0.1168946E+00
         -1   -1    0    0    0  501 -0.00000000000E+00  0.00000000000E+00  0.60595336967E+03  0.60595336967E+03  0.00000000000E+00 0.  1.
          2   -1    0    0  502    0  0.00000000000E+00 -0.00000000000E+00 -0.13071343029E+03  0.13071343029E+03  0.00000000000E+00 0. -1.
         24    2    1    2    0    0  0.50786831904E+02 -0.15037222241E+03  0.45226333780E+03  0.48601751554E+03  0.80497149778E+02 0.  0.
         23    2    1    2    0    0 -0.16105861888E+02  0.15426448943E+03 -0.34473572314E+02  0.18342992780E+03  0.91657949662E+02 0.  0.
        -13    1    3    3    0    0  0.27433983111E+02 -0.13111409650E+03  0.42380632210E+03  0.44447196580E+03  0.00000000000E+00 0.  1.
         14    1    3    3    0    0  0.23352848794E+02 -0.19258125916E+02  0.28457015705E+02  0.41545549742E+02  0.00000000000E+00 0. -1.
        -11    1    4    4    0    0  0.33596367951E+02  0.99634342210E+02 -0.99834705503E+01  0.10561906917E+03  0.00000000000E+00 0.  1.
         11    1    4    4    0    0 -0.49702229839E+02  0.54630147222E+02 -0.24490101764E+02  0.77810858631E+02  0.00000000000E+00 0. -1.
         21    1    1    2  502  501 -0.34680970016E+02 -0.38922670183E+01  0.57450173897E+02  0.67219356621E+02  0.00000000000E+00 0. -1.
<scales pt_clust_5="13000.00000" pt_clust_6="13000.00000" pt_clust_7="13000.00000" pt_clust_8="13000.00000" pt_clust_9="34.89870"></scales>
<clustering>
<clus scale="   34.899">  1  9  2 -1</clus>
<clus scale="   80.497">  5  6 -1 -1</clus>
<clus scale="   91.658">  7  8 -1 -1</clus>
<clus scale="  174.780">  1  5  2 -1</clus>
<clus scale="  180.193">  2  5  1 -1</clus>
</clustering>
</event>
<event>
 9    2  0.3402837E-005  0.1010663E+03  0.7546771E-02  0.1285273E+00
          2   -1    0    0  502    0  0.00000000000E+00  0.00000000000E+00  0.46805533450E+03  0.46805533450E+03  0.00000000000E+00 0. -1.
         -1   -1    0    0    0  501 -0.00000000000E+00 -0.00000000000E+00 -0.37508849759E+02  0.37508849759E+02  0.00000000000E+00 0.  1.
         23    2    1    2    0    0 -0.31841538732E+02 -0.30745337789E+02  0.63305139696E+02  0.12002467985E+03  0.91865247377E+02 0.  0.
         24    2    1    2    0    0  0.62116930829E+01  0.41311798576E+02  0.30429552937E+03  0.31675931255E+03  0.77430246422E+02 0.  0.
        -13    1    4    4    0    0 -0.32734484232E+02  0.36020218679E+02  0.16670417664E+03  0.17366428856E+03  0.00000000000E+00 0.  1.
         14    1    4    4    0    0  0.38946177315E+02  0.52915798970E+01  0.13759135273E+03  0.14309502399E+03  0.00000000000E+00 0. -1.
        -11    1    3    3    0    0 -0.22079379270E+02 -0.61435999087E+02  0.24820656407E+02  0.69842293470E+02  0.00000000000E+00 0.  1.
         11    1    3    3    0    0 -0.97621594626E+01  0.30690661298E+02  0.38484483289E+02  0.50182386375E+02  0.00000000000E+00 0. -1.
         21    1    1    2  502  501  0.25629845650E+02 -0.10566460788E+02  0.62945815677E+02  0.68780191864E+02  0.00000000000E+00 0. -1.
<scales pt_clust_5="13000.00000" pt_clust_6="13000.00000" pt_clust_7="13000.00000" pt_clust_8="13000.00000" pt_clust_9="27.72254"></scales>
<clustering>
<clus scale="   27.723">  1  9  2 -1</clus>
<clus scale="   77.430">  5  6 -1 -1</clus>
<clus scale="   88.151">  1  5  2 -1</clus>
<clus scale="   91.865">  7  8 -1 -1</clus>
<clus scale="   27.723">  1  5  2 -1</clus>
</clustering>
</event>
<event>
 9    2  0.3402837E-005  0.9282225E+02  0.7546771E-02  0.1302768E+00
          2   -1    0    0  502    0  0.00000000000E+00  0.00000000000E+00  0.82514452301E+02  0.82514452301E+02  0.00000000000E+00 0. -1.
         -1   -1    0    0    0  501 -0.00000000000E+00 -0.00000000000E+00 -0.13616297211E+03  0.13616297211E+03  0.00000000000E+00 0.  1.
         24    2    1    2    0    0 -0.10615125643E+02 -0.12357068545E+02 -0.63396699542E+02  0.10393511100E+03  0.80734055698E+02 0.  0.
         23    2    1    2    0    0 -0.84872733506E+01  0.19385771817E+02  0.81192774915E+01  0.94322772782E+02  0.91558838134E+02 0.  0.
        -13    1    3    3    0    0 -0.37058497185E+01  0.24624711982E+02 -0.61403306987E+02  0.66260666094E+02  0.00000000000E+00 0.  1.
         14    1    3    3    0    0 -0.69092759247E+01 -0.36981780527E+02 -0.19933925549E+01  0.37674444902E+02  0.00000000000E+00 0. -1.
        -13    1    4    4    0    0  0.18460366253E+02 -0.30368558287E+02 -0.59074354368E+01  0.36026826783E+02  0.00000000000E+00 0.  1.
         13    1    4    4    0    0 -0.26947639603E+02  0.49754330104E+02  0.14026712928E+02  0.58295945999E+02  0.00000000000E+00 0. -1.
         21    1    1    2  502  501  0.19102398994E+02 -0.70287032716E+01  0.16289022453E+01  0.20419540630E+02  0.00000000000E+00 0. -1.
<scales pt_clust_5="13000.00000" pt_clust_6="13000.00000" pt_clust_7="13000.00000" pt_clust_8="13000.00000" pt_clust_9="20.35447"></scales>
<clustering>
<clus scale="   20.354">  1  9  2 -1</clus>
<clus scale="   80.734">  5  6 -1 -1</clus>
<clus scale="   82.164">  2  5  1 -1</clus>
<clus scale="   91.559">  7  8 -1 -1</clus>
<clus scale="   20.354">  1  5  2 -1</clus>
</clustering>
</event>
<event>
 9    2  0.3402837E-005  0.7988936E+02  0.7546771E-02  0.1335095E+00
         -1   -1    0    0    0  501 -0.00000000000E+00  0.00000000000E+00  0.42558102187E+02  0.42558102187E+02  0.00000000000E+00 0.  1.
          2   -1    0    0  502    0  0.00000000000E+00 -0.00000000000E+00 -0.22781622489E+03  0.22781622489E+03  0.00000000000E+00 0. -1.
         24    2    1    2    0    0 -0.15682143753E+02  0.12771857975E+02 -0.31625613020E+02  0.86722968241E+02  0.78177003222E+02 0.  0.
         23    2    1    2    0    0  0.16492312101E+02  0.14191988371E+02 -0.11295482027E+03  0.13484173070E+03  0.70356890383E+02 0.  0.
        -11    1    3    3    0    0 -0.16156647505E+02  0.26732837804E+02  0.17393618461E+02  0.35752200475E+02  0.00000000000E+00 0.  1.
         12    1    3    3    0    0  0.47450375208E+00 -0.13960979829E+02 -0.49019231481E+02  0.50970767765E+02  0.00000000000E+00 0. -1.
        -13    1    4    4    0    0 -0.26903122658E+02 -0.18530526025E+01 -0.34895818133E+02  0.44101359796E+02  0.00000000000E+00 0.  1.
         13    1    4    4    0    0  0.43395434759E+02  0.16045040974E+02 -0.78059002138E+02  0.90740370908E+02  0.00000000000E+00 0. -1.
         21    1    1    2  502  501 -0.81016834847E+00 -0.26963846346E+02 -0.40677689412E+02  0.48809628132E+02  0.00000000000E+00 0. -1.
<scales pt_clust_5="13000.00000" pt_clust_6="13000.00000" pt_clust_7="13000.00000" pt_clust_8="13000.00000" pt_clust_9="26.97601"></scales>
<clustering>
<clus scale="   26.976">  2  9  1 -1</clus>
<clus scale="   70.357">  7  8 -1 -1</clus>
<clus scale="   72.255">  2  7  1 -1</clus>
<clus scale="   78.177">  5  6 -1 -1</clus>
<clus scale="   26.976">  2  5  1 -1</clus>
</clustering>
</event>
<event>
 9    2  0.3402837E-005  0.5065362E+03  0.7546771E-02  0.1012221E+00
          2   -1    0    0  502    0  0.00000000000E+00  0.00000000000E+00  0.14795651129E+04  0.14795651129E+04  0.00000000000E+00 0. -1.
         -1   -1    0    0    0  501 -0.00000000000E+00 -0.00000000000E+00 -0.31050057522E+03  0.31050057522E+03  0.00000000000E+00 0.  1.
         23    2    1    2    0    0  0.42248425296E+03 -0.71705406723E+02 -0.17594871727E+02  0.43881136179E+03  0.92796672231E+02 0.  0.
         24    2    1    2    0    0 -0.51243370465E+03  0.56931204001E+02  0.11279789927E+04  0.12428450452E+04  0.80608527750E+02 0.  0.
        -13    1    4    4    0    0 -0.72401625710E+02 -0.14756811601E+02  0.12434206161E+03  0.14463992249E+03  0.00000000000E+00 0.  1.
         14    1    4    4    0    0 -0.44003207894E+03  0.71688015602E+02  0.10036369311E+04  0.10982051227E+04  0.00000000000E+00 0. -1.
        -11    1    3    3    0    0  0.22669733323E+03 -0.36080266765E+02 -0.55659011230E+02  0.23620201539E+03  0.00000000000E+00 0.  1.
         11    1    3    3    0    0  0.19578691973E+03 -0.35625139958E+02  0.38064139504E+02  0.20260934640E+03  0.00000000000E+00 0. -1.
         21    1    1    2  502  501  0.89949451696E+02  0.14774202722E+02  0.58680416649E+02  0.10840928108E+03  0.00000000000E+00 0.  1.
<scales pt_clust_5="13000.00000" pt_clust_6="13000.00000" pt_clust_7="13000.00000" pt_clust_8="13000.00000" pt_clust_9="91.15471"></scales>
<clustering>
<clus scale="   80.609">  5  6 -1 -1</clus>
<clus scale="   91.155">  2  9  1 -1</clus>
<clus scale="   92.797">  7  8 -1 -1</clus>
<clus scale="  504.446">  1  5  2 -1</clus>
<clus scale="  504.446">  1  5  2 -1</clus>
</clustering>
</event>
<event>
 9    2  0.3402837E-005  0.2231479E+03  0.7546771E-02  0.1132107E+00
          2   -1    0    0  502    0  0.00000000000E+00  0.00000000000E+00  0.16031903908E+03  0.16031903908E+03  0.00000000000E+00 0. -1.
         -1   -1    0    0    0  501 -0.00000000000E+00 -0.00000000000E+00 -0.70618372031E+03  0.70618372031E+03  0.00000000000E+00 0.  1.
         23    2    1    2    0    0 -0.88008172407E+01 -0.15393773909E+03 -0.48990891671E+03  0.52190039796E+03  0.92709205649E+02 0.  0.
         24    2    1    2    0    0  0.55172571114E+02  0.20587360885E+03  0.32689484472E+02  0.23188300066E+03  0.85282871539E+02 0.  0.
        -11    1    4    4    0    0 -0.13081463973E+02  0.27903923858E+02 -0.16599566351E+02  0.35004275016E+02  0.00000000000E+00 0.  1.
         12    1    4    4    0    0  0.68254035087E+02  0.17796968499E+03  0.49289050823E+02  0.19687872564E+03  0.00000000000E+00 0. -1.
        -11    1    3    3    0    0 -0.24912339730E+02 -0.10093636411E+03 -0.42014836945E+03  0.43282031678E+03  0.00000000000E+00 0.  1.
         11    1    3    3    0    0  0.16111522489E+02 -0.53001374986E+02 -0.69760547262E+02  0.89080081172E+02  0.00000000000E+00 0. -1.
         21    1    1    2  502  501 -0.46371753873E+02 -0.51935869754E+02 -0.88645248985E+02  0.11271936077E+03  0.00000000000E+00 0.  1.
<scales pt_clust_5="13000.00000" pt_clust_6="13000.00000" pt_clust_7="13000.00000" pt_clust_8="13000.00000" pt_clust_9="69.62524"></scales>
<clustering>
<clus scale="   69.625">  2  9  1 -1</clus>
<clus scale="   85.283">  5  6 -1 -1</clus>
<clus scale="   92.709">  7  8 -1 -1</clus>
<clus scale="  220.166">  1  5  2 -1</clus>
<clus scale="  220.166">  1  5  2 -1</clus>
</clustering>
</event>
<event>
 9    2  0.3402837E-005  0.1393277E+03  0.7546771E-02  0.1215763E+00
         -1   -1    0    0    0  501 -0.00000000000E+00  0.00000000000E+00  0.33809474570E+03  0.33809474570E+03  0.00000000000E+00 0.  1.
          2   -1    0    0  502    0  0.00000000000E+00 -0.00000000000E+00 -0.62649496409E+03  0.62649496409E+03  0.00000000000E+00 0. -1.
         23    2    1    2    0    0 -0.26323172419E+02  0.11441630897E+03  0.23776343816E+03  0.28014824215E+03  0.90374686110E+02 0.  0.
         24    2    1    2    0    0  0.42824981391E+02 -0.96713215406E+02 -0.59574070734E+03  0.61077549707E+03  0.83380407612E+02 0.  0.
        -11    1    4    4    0    0  0.25801905603E+02 -0.48365884370E+02 -0.11595628550E+03  0.12826089525E+03  0.00000000000E+00 0.  1.
         12    1    4    4    0    0  0.17023075789E+02 -0.48347331036E+02 -0.47978442185E+03  0.48251460183E+03  0.00000000000E+00 0. -1.
        -11    1    3    3    0    0 -0.57160719092E+02  0.95096427165E+02  0.16568287826E+03  0.19940284455E+03  0.00000000000E+00 0.  1.
         11    1    3    3    0    0  0.30837546673E+02  0.19319881803E+02  0.72080559900E+02  0.80745397598E+02  0.00000000000E+00 0. -1.
         21    1    1    2  502  501 -0.16501808972E+02 -0.17703093561E+02  0.69577050793E+02  0.73665970556E+02  0.00000000000E+00 0. -1.
<scales pt_clust_5="13000.00000" pt_clust_6="13000.00000" pt_clust_7="13000.00000" pt_clust_8="13000.00000" pt_clust_9="24.20143"></scales>
<clustering>
<clus scale="   24.201">  1  9  2 -1</clus>
<clus scale="   83.380">  5  6 -1 -1</clus>
<clus scale="   90.375">  7  8 -1 -1</clus>
<clus scale="  134.896">  2  5  1 -1</clus>
<clus scale="  134.896">  2  5  1 -1</clus>
</clustering>
</event>
<event>
 9    2  0.3402837E-005  0.1068889E+03  0.7546771E-02  0.1272803E+00
         -1   -1    0    0    0  501 -0.00000000000E+00  0.00000000000E+00  0.81332314541E+02  0.81332314541E+02  0.00000000000E+00 0.  1.
          2   -1    0    0  502    0  0.00000000000E+00 -0.00000000000E+00 -0.32032567900E+03  0.32032567900E+03  0.00000000000E+00 0. -1.
         23    2    1    2    0    0 -0.37197166837E+02  0.37070251646E+02  0.15152337761E+02  0.10949411841E+03  0.94876424092E+02 0.  0.
         24    2    1    2    0    0  0.13312478975E+02 -0.47790509520E+02 -0.24771975372E+03  0.26520659305E+03  0.80674070919E+02 0.  0.
        -13    1    4    4    0    0 -0.23220858570E+02  0.79502079603E+01 -0.10291129851E+03  0.10579768164E+03  0.00000000000E+00 0.  1.
         14    1    4    4    0    0  0.36533337546E+02 -0.55740717481E+02 -0.14480845521E+03  0.15940891141E+03  0.00000000000E+00 0. -1.
        -13    1    3    3    0    0 -0.49995038024E+02 -0.96962001799E+01  0.29596733562E+02  0.58902349380E+02  0.00000000000E+00 0.  1.
         13    1    3    3    0    0  0.12797871187E+02  0.46766451826E+02 -0.14444395801E+02  0.50591769028E+02  0.00000000000E+00 0. -1.
         21    1    1    2  502  501  0.23884687861E+02  0.10720257874E+02 -0.64259485007E+01  0.26957282082E+02  0.00000000000E+00 0. -1.
<scales pt_clust_5="13000.00000" pt_clust_6="13000.00000" pt_clust_7="13000.00000" pt_clust_8="13000.00000" pt_clust_9="26.18019"></scales>
<clustering>
<clus scale="   26.180">  1  9  2 -1</clus>
<clus scale="   80.674">  5  6 -1 -1</clus>
<clus scale="   94.509">  2  5  1 -1</clus>
<clus scale="   94.876">  7  8 -1 -1</clus>
<clus scale="   94.509">  2  5  1 -1</clus>
</clustering>
</event>
<event>
 9    2  0.3402837E-005  0.9764083E+02  0.7546771E-02  0.1290104E+00
          2   -1    0    0  502    0  0.00000000000E+00  0.00000000000E+00  0.10017083048E+04  0.10017083048E+04  0.00000000000E+00 0. -1.
         -1   -1    0    0    0  501 -0.00000000000E+00 -0.00000000000E+00 -0.21238077411E+02  0.21238077411E+02  0.00000000000E+00 0.  1.
         23    2    1    2    0    0  0.84355143694E+01 -0.11077604102E+02  0.13774285809E+03  0.16465245561E+03  0.89126118327E+02 0.  0.
         24    2    1    2    0    0 -0.19466133864E+02  0.40549047898E+02  0.79997233335E+03  0.80520688802E+03  0.79870161819E+02 0.  0.
        -11    1    4    4    0    0  0.96414313109E+01  0.48998518167E+02  0.28489779910E+03  0.28924136618E+03  0.00000000000E+00 0.  1.
         12    1    4    4    0    0 -0.29107565175E+02 -0.84494702689E+01  0.51507453425E+03  0.51596552184E+03  0.00000000000E+00 0. -1.
        -13    1    3    3    0    0  0.28490093554E+02 -0.22664805419E+02  0.13670313258E+03  0.14146775355E+03  0.00000000000E+00 0.  1.
         13    1    3    3    0    0 -0.20054579185E+02  0.11587201318E+02  0.10397255079E+01  0.23184702064E+02  0.00000000000E+00 0. -1.
         21    1    1    2  502  501  0.11030619494E+02 -0.29471443796E+02  0.42755035961E+02  0.53087038586E+02  0.00000000000E+00 0.  1.
<scales pt_clust_5="13000.00000" pt_clust_6="13000.00000" pt_clust_7="13000.00000" pt_clust_8="13000.00000" pt_clust_9="31.46809"></scales>
<clustering>
<clus scale="   31.468">  2  9  1 -1</clus>
<clus scale="   79.870">  5  6 -1 -1</clus>
<clus scale="   89.126">  7  8 -1 -1</clus>
<clus scale="   89.272">  1  5  2 -1</clus>
<clus scale="   89.272">  1  5  2 -1</clus>
</clustering>
</event>
<event>
 9    2  0.5544566E-005  0.1585159E+03  0.7546771E-02  0.1192196E+00
          2   -1    0    0  502    0  0.00000000000E+00  0.00000000000E+00  0.10345774634E+04  0.10345774634E+04  0.00000000000E+00 0. -1.
         -1   -1    0    0    0  501 -0.00000000000E+00 -0.00000000000E+00 -0.12024245239E+03  0.12024245239E+03  0.00000000000E+00 0.  1.
         23    2    1    2    0    0  0.34906837928E+02 -0.10330978904E+03 -0.63014064872E+02  0.15583402270E+03  0.91771838882E+02 0.  0.
         24    2    1    2    0    0 -0.36609510116E+02  0.12513432362E+03  0.95668043227E+03  0.96887937834E+03  0.80566401771E+02 0.  0.
        -11    1    4    4    0    0  0.23725882600E+02  0.39435329611E+02  0.21837306736E+03  0.22317002325E+03  0.00000000000E+00 0.  1.
         12    1    4    4    0    0 -0.60335392716E+02  0.85698994012E+02  0.73830736491E+03  0.74570935509E+03  0.00000000000E+00 0. -1.
        -11    1    3    3    0    0  0.33654229485E+02 -0.64747479227E+02 -0.84520121390E+02  0.11166241153E+03  0.00000000000E+00 0.  1.
         11    1    3    3    0    0  0.12526084427E+01 -0.38562309815E+02  0.21506056518E+02  0.44171611167E+02  0.00000000000E+00 0. -1.
         21    1    1    2  502  501  0.17026721884E+01 -0.21824534581E+02  0.20668643607E+02  0.30106514757E+02  0.00000000000E+00 0.  1.
<scales pt_clust_5="13000.00000" pt_clust_6="13000.00000" pt_clust_7="13000.00000" pt_clust_8="13000.00000" pt_clust_9="21.89085"></scales>
<clustering>
<clus scale="   21.891">  2  9  1 -1</clus>
<clus scale="   80.566">  5  6 -1 -1</clus>
<clus scale="   91.772">  7  8 -1 -1</clus>
<clus scale="  152.303">  1  5  2 -1</clus>
<clus scale="  152.303">  1  5  2 -1</clus>
</clustering>
</event>
<event>
 9    2  0.3402837E-005  0.1072042E+03  0.7546771E-02  0.1269530E+00
         -1   -1    0    0    0  501 -0.00000000000E+00  0.00000000000E+00  0.77809013713E+02  0.77809013713E+02  0.00000000000E+00 0.  1.
          2   -1    0    0  502    0  0.00000000000E+00 -0.00000000000E+00 -0.36969029656E+03  0.36969029656E+03  0.00000000000E+00 0. -1.
         23    2    1    2    0    0 -0.36331506431E+02 -0.19016556980E+02  0.18403374919E+02  0.10002008655E+03  0.89351696714E+02 0.  0.
         24    2    1    2    0    0  0.53153063585E+02  0.31374735217E+02 -0.31050375995E+03  0.32660490074E+03  0.80302889508E+02 0.  0.
        -13    1    4    4    0    0  0.32301579037E+02 -0.22934246063E+02 -0.85987289414E+02  0.94674102011E+02  0.00000000000E+00 0.  1.
         14    1    4    4    0    0  0.20851484548E+02  0.54308981280E+02 -0.22451647054E+03  0.23193079873E+03  0.00000000000E+00 0. -1.
        -11    1    3    3    0    0 -0.22661017934E+01 -0.46432761751E+02  0.29305359388E+02  0.54953986843E+02  0.00000000000E+00 0.  1.
         11    1    3    3    0    0 -0.34065404638E+02  0.27416204771E+02 -0.10901984469E+02  0.45066099704E+02  0.00000000000E+00 0. -1.
         21    1    1    2  502  501 -0.16821557154E+02 -0.12358178237E+02  0.21910218528E+00  0.20874322988E+02  0.00000000000E+00 0. -1.
<scales pt_clust_5="13000.00000" pt_clust_6="13000.00000" pt_clust_7="13000.00000" pt_clust_8="13000.00000" pt_clust_9="20.87317"></scales>
<clustering>
<clus scale="   20.873">  1  9  2 -1</clus>
<clus scale="   80.303">  5  6 -1 -1</clus>
<clus scale="   89.352">  7  8 -1 -1</clus>
<clus scale="   99.788">  2  5  1 -1</clus>
<clus scale="   99.788">  2  5  1 -1</clus>
</clustering>
</event>
<event>
 9    2  0.3402837E-005  0.1413398E+03  0.7546771E-02  0.1230321E+00
         -1   -1    0    0    0  501 -0.00000000000E+00  0.00000000000E+00  0.12035457012E+03  0.12035457012E+03  0.00000000000E+00 0.  1.
          2   -1    0    0  502    0  0.00000000000E+00 -0.00000000000E+00 -0.37208837937E+03  0.37208837937E+03  0.00000000000E+00 0. -1.
         23    2    1    2    0    0  0.19628416961E+02  0.12055759124E+02  0.28345347387E+02  0.99455857722E+02  0.92506177287E+02 0.  0.
         24    2    1    2    0    0  0.82458533431E+02 -0.73821170926E+02 -0.21753580074E+03  0.25827115766E+03  0.84458222010E+02 0.  0.
        -11    1    4    4    0    0  0.69259052717E+02 -0.54690599024E+01 -0.11424365154E+03  0.13370990583E+03  0.00000000000E+00 0.  1.
         12    1    4    4    0    0  0.13199480714E+02 -0.68352111024E+02 -0.10329214920E+03  0.12456125183E+03  0.00000000000E+00 0. -1.
        -13    1    3    3    0    0  0.35060722767E+02  0.43554434812E+02  0.26508244118E+01  0.55975619182E+02  0.00000000000E+00 0. -1.
         13    1    3    3    0    0 -0.15432305806E+02 -0.31498675688E+02  0.25694522975E+02  0.43480238540E+02  0.00000000000E+00 0.  1.
         21    1    1    2  502  501 -0.10208695039E+03  0.61765411802E+02 -0.62543355892E+02  0.13471593410E+03  0.00000000000E+00 0.  1.
<scales pt_clust_5="13000.00000" pt_clust_6="13000.00000" pt_clust_7="13000.00000" pt_clust_8="13000.00000" pt_clust_9="113.33026"></scales>
<clustering>
<clus scale="   84.458">  5  6 -1 -1</clus>
<clus scale="   92.506">  7  8 -1 -1</clus>
<clus scale="   95.331">  1  7  2 -1</clus>
<clus scale="  113.330">  1  9  2 -1</clus>
<clus scale="  141.340">  2  5  1 -1</clus>
</clustering>
</event>
<event>
 9    2  0.3402837E-005  0.1562004E+03  0.7546771E-02  0.1196477E+00
          2   -1    0    0  502    0  0.00000000000E+00  0.00000000000E+00  0.11371434953E+03  0.11371434953E+03  0.00000000000E+00 0. -1.
         -1   -1    0    0    0  501 -0.00000000000E+00 -0.00000000000E+00 -0.63278763759E+03  0.63278763759E+03  0.00000000000E+00 0.  1.
         23    2    1    2    0    0 -0.31379103877E+02  0.52394595043E+02 -0.24564216940E+03  0.27314179995E+03  0.10264758030E+03 0.  0.
         24    2    1    2    0    0  0.15168625228E+02 -0.13252052014E+03  0.28599757375E+02  0.16046149180E+03  0.84487684187E+02 0.  0.
        -13    1    4    4    0    0 -0.14834537340E+02 -0.10288609244E+03 -0.84960469724E+01  0.10429666500E+03  0.00000000000E+00 0.  1.
         14    1    4    4    0    0  0.30003162568E+02 -0.29634427694E+02  0.37095804347E+02  0.56164826796E+02  0.00000000000E+00 0. -1.
        -13    1    3    3    0    0  0.18754731013E+02  0.62993263257E+02 -0.10995728842E+03  0.12810345986E+03  0.00000000000E+00 0.  1.
         13    1    3    3    0    0 -0.50133834891E+02 -0.10598668214E+02 -0.13568488099E+03  0.14503834009E+03  0.00000000000E+00 0. -1.
         21    1    1    2  502  501  0.16210478649E+02  0.80125925092E+02 -0.30203087603E+03  0.31289869537E+03  0.00000000000E+00 0. -1.
<scales pt_clust_5="13000.00000" pt_clust_6="13000.00000" pt_clust_7="13000.00000" pt_clust_8="13000.00000" pt_clust_9="81.74927"></scales>
<clustering>
<clus scale="   81.749">  2  9  1 -1</clus>
<clus scale="   84.488">  5  6 -1 -1</clus>
<clus scale="  102.648">  7  8 -1 -1</clus>
<clus scale="  144.914">  1  5  2 -1</clus>
<clus scale="  144.914">  1  5  2 -1</clus>
</clustering>
</event>
<event>
 9    2  0.3402837E-005  0.1284943E+03  0.7546771E-02  0.1232870E+00
          2   -1    0    0  502    0  0.00000000000E+00  0.00000000000E+00  0.10198729158E+04  0.10198729158E+04  0.00000000000E+00 0. -1.
         -1   -1    0    0    0  501 -0.00000000000E+00 -0.00000000000E+00 -0.36825140147E+02  0.36825140147E+02  0.00000000000E+00 0.  1.
         23    2    1    2    0    0  0.49589944989E+02  0.11806654391E+03  0.31715667847E+03  0.35407463676E+03  0.91551178385E+02 0.  0.
         24    2    1    2    0    0  0.24141730532E+01 -0.81440617354E+02  0.60113071280E+03  0.61185010716E+03  0.79774791551E+02 0.  0.
        -11    1    4    4    0    0 -0.29218088855E+02 -0.92042641141E+01  0.10109512690E+03  0.10563446349E+03  0.00000000000E+00 0.  1.
         12    1    4    4    0    0  0.31632261908E+02 -0.72236353240E+02  0.50003558590E+03  0.50621564366E+03  0.00000000000E+00 0. -1.
        -11    1    3    3    0    0  0.71542901182E+02  0.60848289227E+02  0.16204986784E+03  0.18729938782E+03  0.00000000000E+00 0.  1.
         11    1    3    3    0    0 -0.21952956193E+02  0.57218254684E+02  0.15510681063E+03  0.16677524894E+03  0.00000000000E+00 0. -1.
         21    1    1    2  502  501 -0.52004118042E+02 -0.36625926557E+02  0.64760384340E+02  0.90773311989E+02  0.00000000000E+00 0. -1.
<scales pt_clust_5="13000.00000" pt_clust_6="13000.00000" pt_clust_7="13000.00000" pt_clust_8="13000.00000" pt_clust_9="63.60729"></scales>
<clustering>
<clus scale="   63.607">  2  9  1 -1</clus>
<clus scale="   79.775">  5  6 -1 -1</clus>
<clus scale="   91.551">  7  8 -1 -1</clus>
<clus scale="  120.388">  1  5  2 -1</clus>
<clus scale="  120.388">  1  5  2 -1</clus>
</clustering>
</event>
<event>
 9    2  0.3402837E-005  0.1071757E+03  0.7546771E-02  0.1274474E+00
          4   -1    0    0  502    0  0.00000000000E+00  0.00000000000E+00  0.23709651169E+03  0.23709651169E+03  0.00000000000E+00 0. -1.
         -3   -1    0    0    0  501 -0.00000000000E+00 -0.00000000000E+00 -0.54242294312E+02  0.54242294312E+02  0.00000000000E+00 0.  1.
         24    2    1    2    0    0  0.23961933800E+02 -0.32059280371E+02  0.61223015098E+02  0.10459262513E+03  0.74762209198E+02 0.  0.
         23    2    1    2    0    0 -0.31233661979E+02  0.56368559173E+02  0.11147598495E+03  0.15941584049E+03  0.93987014390E+02 0.  0.
        -11    1    3    3    0    0  0.18105389836E+02 -0.13180765722E+02 -0.14269874564E+02  0.26554981570E+02  0.00000000000E+00 0.  1.
         12    1    3    3    0    0  0.58565439644E+01 -0.18878514649E+02  0.75492889662E+02  0.78037643558E+02  0.00000000000E+00 0. -1.
        -13    1    4    4    0    0 -0.36152835603E+02  0.78191815081E+02  0.65270573268E+02  0.10807976315E+03  0.00000000000E+00 0.  1.
         13    1    4    4    0    0  0.49191736245E+01 -0.21823255908E+02  0.46205411687E+02  0.51336077341E+02  0.00000000000E+00 0. -1.
         21    1    1    2  502  501  0.72717281788E+01 -0.24309278802E+02  0.10155217324E+02  0.27330340383E+02  0.00000000000E+00 0.  1.
<scales pt_clust_5="13000.00000" pt_clust_6="13000.00000" pt_clust_7="13000.00000" pt_clust_8="13000.00000" pt_clust_9="25.37359"></scales>
<clustering>
<clus scale="   25.374">  2  9  1 -1</clus>
<clus scale="   74.762">  5  6 -1 -1</clus>
<clus scale="   90.788">  2  5  1 -1</clus>
<clus scale="   93.987">  7  8 -1 -1</clus>
<clus scale="  107.176">  1  5  2 -1</clus>
</clustering>
</event>
<event>
 9    2  0.3402837E-005  0.1408332E+03  0.7546771E-02  0.1216438E+00
         -1   -1    0    0    0  501 -0.00000000000E+00  0.00000000000E+00  0.17403275321E+03  0.17403275321E+03  0.00000000000E+00 0.  1.
          2   -1    0    0  502    0  0.00000000000E+00 -0.00000000000E+00 -0.43125252455E+03  0.43125252455E+03  0.00000000000E+00 0. -1.
         24    2    1    2    0    0  0.40542736258E+02 -0.82296040631E+02  0.12830579341E+03  0.17676795808E+03  0.79800893577E+02 0.  0.
         23    2    1    2    0    0 -0.60724862068E+02  0.81886356591E+02 -0.38285270770E+03  0.40815484910E+03  0.98088229563E+02 0.  0.
        -13    1    3    3    0    0  0.29977751069E+02 -0.13958329381E+02  0.93858339439E+02  0.99513257411E+02  0.00000000000E+00 0.  1.
         14    1    3    3    0    0  0.10564985189E+02 -0.68337711250E+02  0.34447453969E+02  0.77254700672E+02  0.00000000000E+00 0. -1.
        -13    1    4    4    0    0 -0.87456374850E+02  0.66575999084E+02 -0.28047205752E+03  0.30124003088E+03  0.00000000000E+00 0. -1.
         13    1    4    4    0    0  0.26731512782E+02  0.15310357507E+02 -0.10238065018E+03  0.10691481822E+03  0.00000000000E+00 0.  1.
         21    1    1    2  502  501  0.20182125810E+02  0.40968404019E+00 -0.26728570523E+01  0.20362470578E+02  0.00000000000E+00 0. -1.
<scales pt_clust_5="13000.00000" pt_clust_6="13000.00000" pt_clust_7="13000.00000" pt_clust_8="13000.00000" pt_clust_9="20.18628"></scales>
<clustering>
<clus scale="   20.186">  1  9  2 -1</clus>
<clus scale="   79.801">  5  6 -1 -1</clus>
<clus scale="   98.088">  7  8 -1 -1</clus>
<clus scale="  128.767">  1  5  2 -1</clus>
<clus scale="  140.833">  2  5  1 -1</clus>
</clustering>
</event>
<event>
 9    2  0.3402837E-005  0.1458495E+03  0.7546771E-02  0.1206731E+00
         -1   -1    0    0    0  501 -0.00000000000E+00  0.00000000000E+00  0.85612526238E+02  0.85612526238E+02  0.00000000000E+00 0.  1.
          2   -1    0    0  502    0  0.00000000000E+00 -0.00000000000E+00 -0.71307874589E+03  0.71307874589E+03  0.00000000000E+00 0. -1.
         24    2    1    2    0    0  0.28785461616E+02 -0.10387626463E+03 -0.63606035822E+02  0.15218303671E+03  0.86574059133E+02 0.  0.
         23    2    1    2    0    0 -0.28449690319E+01  0.11489232807E+03 -0.58999752472E+03  0.60807096967E+03  0.91896050435E+02 0.  0.
        -13    1    3    3    0    0  0.24782073156E+02 -0.67651418163E+02  0.73427968394E+01  0.72420868504E+02  0.00000000000E+00 0.  1.
         14    1    3    3    0    0  0.40033884594E+01 -0.36224846468E+02 -0.70948832661E+02  0.79762168205E+02  0.00000000000E+00 0. -1.
        -13    1    4    4    0    0  0.43156349774E+02  0.50145317009E+02 -0.22462281266E+03  0.23416325782E+03  0.00000000000E+00 0.  1.
         13    1    4    4    0    0 -0.46001318806E+02  0.64747011057E+02 -0.36537471206E+03  0.37390771185E+03  0.00000000000E+00 0. -1.
         21    1    1    2  502  501 -0.25940492584E+02 -0.11016063435E+02  0.26137340891E+02  0.38437265745E+02  0.00000000000E+00 0.  1.
<scales pt_clust_5="13000.00000" pt_clust_6="13000.00000" pt_clust_7="13000.00000" pt_clust_8="13000.00000" pt_clust_9="28.18267"></scales>
<clustering>
<clus scale="   28.183">  1  9  2 -1</clus>
<clus scale="   86.574">  5  6 -1 -1</clus>
<clus scale="   91.896">  7  8 -1 -1</clus>
<clus scale="  142.556">  1  5  2 -1</clus>
<clus scale="  145.850">  2  5  1 -1</clus>
</clustering>
</event>
<event>
 9    2  0.3402837E-005  0.1375550E+03  0.7546771E-02  0.1219000E+00
         -3   -1    0    0    0  501 -0.00000000000E+00  0.00000000000E+00  0.59032177902E+02  0.59032177902E+02  0.00000000000E+00 0.  1.
          4   -1    0    0  502    0  0.00000000000E+00 -0.00000000000E+00 -0.38912876583E+03  0.38912876583E+03  0.00000000000E+00 0. -1.
         23    2    1    2    0    0 -0.10238214016E+03 -0.58226105544E+02 -0.16212418200E+03  0.21989178096E+03  0.90530453202E+02 0.  0.
         24    2    1    2    0    0  0.84160082065E+02  0.40395914305E+02 -0.15945646939E+03  0.20139016918E+03  0.80105463659E+02 0.  0.
        -11    1    4    4    0    0  0.75111312215E+02  0.43446044196E+02 -0.70167035683E+02  0.11159158067E+03  0.00000000000E+00 0.  1.
         12    1    4    4    0    0  0.90487698496E+01 -0.30501298911E+01 -0.89289433707E+02  0.89798588518E+02  0.00000000000E+00 0. -1.
        -11    1    3    3    0    0 -0.24694439418E+02 -0.55536791659E+02 -0.32962390655E+02  0.69142387604E+02  0.00000000000E+00 0.  1.
         11    1    3    3    0    0 -0.77687700741E+02 -0.26893138851E+01 -0.12916179134E+03  0.15074939336E+03  0.00000000000E+00 0. -1.
         21    1    1    2  502  501  0.18222058094E+02  0.17830191239E+02 -0.85159365363E+01  0.26878993580E+02  0.00000000000E+00 0. -1.
<scales pt_clust_5="13000.00000" pt_clust_6="13000.00000" pt_clust_7="13000.00000" pt_clust_8="13000.00000" pt_clust_9="25.49430"></scales>
<clustering>
<clus scale="   25.494">  1  9  2 -1</clus>
<clus scale="   80.105">  5  6 -1 -1</clus>
<clus scale="   90.530">  7  8 -1 -1</clus>
<clus scale="  130.929">  2  5  1 -1</clus>
<clus scale="  130.929">  2  5  1 -1</clus>
</clustering>
</event>
<event>
 9    2  0.3402837E-005  0.9876544E+02  0.7546771E-02  0.1284937E+00
          2   -1    0    0  502    0  0.00000000000E+00  0.00000000000E+00  0.24565747830E+03  0.24565747830E+03  0.00000000000E+00 0. -1.
         -1   -1    0    0    0  501 -0.00000000000E+00 -0.00000000000E+00 -0.56501148723E+02  0.56501148723E+02  0.00000000000E+00 0.  1.
         24    2    1    2    0    0  0.30562908969E+02 -0.46371357898E+02  0.50050836085E+02  0.11247353304E+03  0.84028657038E+02 0.  0.
         23    2    1    2    0    0 -0.37276345541E+02  0.17036580907E+02  0.11806517901E+03  0.15296596811E+03  0.88201076401E+02 0.  0.
        -11    1    3    3    0    0  0.26405949919E+02 -0.28400422751E+02 -0.17430371333E+02  0.42516773729E+02  0.00000000000E+00 0.  1.
         12    1    3    3    0    0  0.41569590503E+01 -0.17970935148E+02  0.67481207418E+02  0.69956759311E+02  0.00000000000E+00 0. -1.
        -13    1    4    4    0    0  0.15583860655E+02  0.33297822877E+02  0.24182247344E+02  0.44004349875E+02  0.00000000000E+00 0.  1.
         13    1    4    4    0    0 -0.52860206196E+02 -0.16261241970E+02  0.93882931670E+02  0.10896161824E+03  0.00000000000E+00 0. -1.
         21    1    1    2  502  501  0.67134365716E+01  0.29334776992E+02  0.21040314482E+02  0.36719125878E+02  0.00000000000E+00 0.  1.
<scales pt_clust_5="13000.00000" pt_clust_6="13000.00000" pt_clust_7="13000.00000" pt_clust_8="13000.00000" pt_clust_9="30.09318"></scales>
<clustering>
<clus scale="   30.093">  2  9  1 -1</clus>
<clus scale="   84.029">  5  6 -1 -1</clus>
<clus scale="   88.201">  7  8 -1 -1</clus>
<clus scale="   95.058">  2  5  1 -1</clus>
<clus scale="   98.765">  1  5  2 -1</clus>
</clustering>
</event>
<event>
 9    2  0.3402837E-005  0.1421120E+03  0.7546771E-02  0.1230701E+00
         -1   -1    0    0    0  501 -0.00000000000E+00  0.00000000000E+00  0.40435266273E+02  0.40435266273E+02  0.00000000000E+00 0.  1.
          2   -1    0    0  502    0  0.00000000000E+00 -0.00000000000E+00 -0.10434335483E+04  0.10434335483E+04  0.00000000000E+00 0. -1.
         24    2    1    2    0    0 -0.71965445655E+02 -0.57115936139E+02 -0.65273807686E+03  0.66407743887E+03  0.80564212349E+02 0.  0.
         23    2    1    2    0    0 -0.35055195061E+02 -0.33406017370E+01 -0.22875297775E+03  0.24695498824E+03  0.86132543593E+02 0.  0.
        -11    1    3    3    0    0 -0.47578706528E+02 -0.74863891693E+02 -0.41087850459E+03  0.42034447912E+03  0.00000000000E+00 0.  1.
         12    1    3    3    0    0 -0.24386739127E+02  0.17747955554E+02 -0.24185957227E+03  0.24373295975E+03  0.00000000000E+00 0. -1.
        -13    1    4    4    0    0  0.24060189912E+02  0.62586884327E+00 -0.12656577114E+03  0.12883391974E+03  0.00000000000E+00 0.  1.
         13    1    4    4    0    0 -0.59115384973E+02 -0.39664705803E+01 -0.10218720661E+03  0.11812106850E+03  0.00000000000E+00 0. -1.
         21    1    1    2  502  501  0.10702064072E+03  0.60456537876E+02 -0.12150722738E+03  0.17283638742E+03  0.00000000000E+00 0.  1.
<scales pt_clust_5="13000.00000" pt_clust_6="13000.00000" pt_clust_7="13000.00000" pt_clust_8="13000.00000" pt_clust_9="117.06934"></scales>
<clustering>
<clus scale="   80.564">  5  6 -1 -1</clus>
<clus scale="   86.133">  7  8 -1 -1</clus>
<clus scale="   93.053">  2  7  1 -1</clus>
<clus scale="  117.069">  1  9  2 -1</clus>
<clus scale="   93.053">  2  5  1 -1</clus>
</clustering>
</event>
<event>
 9    2  0.4686299E-005  0.1200406E+03  0.7546771E-02  0.1260701E+00
         -1   -1    0    0    0  501 -0.00000000000E+00  0.00000000000E+00  0.97578728346E+02  0.97578728346E+02  0.00000000000E+00 0.  1.
          2   -1    0    0  502    0  0.00000000000E+00 -0.00000000000E+00 -0.52641972948E+03  0.52641972948E+03  0.00000000000E+00 0. -1.
         23    2    1    2    0    0 -0.43223559240E+02  0.24324730119E+02  0.40932877303E+02  0.13283721345E+03  0.11623362794E+03 0.  0.
         24    2    1    2    0    0  0.19614374398E+02 -0.21669397267E+02 -0.45599693106E+03  0.46369765611E+03  0.78917860346E+02 0.  0.
        -13    1    4    4    0    0 -0.23943915793E+02  0.14101733083E+02 -0.14831281357E+03  0.15089354077E+03  0.00000000000E+00 0.  1.
         14    1    4    4    0    0  0.43558290191E+02 -0.35771130350E+02 -0.30768411750E+03  0.31280411534E+03  0.00000000000E+00 0. -1.
        -13    1    3    3    0    0 -0.15069896408E+02  0.69167369657E+02  0.36653890728E+02  0.79716588666E+02  0.00000000000E+00 0. -1.
         13    1    3    3    0    0 -0.28153662831E+02 -0.44842639539E+02  0.42789865745E+01  0.53120624787E+02  0.00000000000E+00 0.  1.
         21    1    1    2  502  501  0.23609184842E+02 -0.26553328514E+01 -0.13776947376E+02  0.27463588266E+02  0.00000000000E+00 0.  1.
<scales pt_clust_5="13000.00000" pt_clust_6="13000.00000" pt_clust_7="13000.00000" pt_clust_8="13000.00000" pt_clust_9="23.75804"></scales>
<clustering>
<clus scale="   23.758">  1  9  2 -1</clus>
<clus scale="   78.918">  5  6 -1 -1</clus>
<clus scale="   84.425">  2  5  1 -1</clus>
<clus scale="  116.234">  7  8 -1 -1</clus>
<clus scale="   84.425">  2  5  1 -1</clus>
</clustering>
</event>
<event>
 9    2  0.3402837E-005  0.1535888E+03  0.7546771E-02  0.1197613E+00
         -3   -1    0    0    0  501 -0.00000000000E+00  0.00000000000E+00  0.43287682709E+03  0.43287682709E+03  0.00000000000E+00 0.  1.
          4   -1    0    0  502    0  0.00000000000E+00 -0.00000000000E+00 -0.13851400340E+03  0.13851400340E+03  0.00000000000E+00 0. -1.
         23    2    1    2    0    0  0.82893438236E+02  0.96154725534E+02  0.28656656244E+03  0.32578519560E+03  0.88873762264E+02 0.  0.
         24    2    1    2    0    0 -0.13029761101E+03 -0.37188265929E+02 -0.31210459765E+02  0.16048382077E+03  0.80128205842E+02 0.  0.
        -13    1    4    4    0    0 -0.71830251625E+02 -0.34307173252E+02  0.20693764324E+02  0.82248398568E+02  0.00000000000E+00 0.  1.
         14    1    4    4    0    0 -0.58467359387E+02 -0.28810926765E+01 -0.51904224089E+02  0.78235422201E+02  0.00000000000E+00 0. -1.
        -11    1    3    3    0    0  0.82951228995E+02  0.39152421442E+02  0.21869264735E+03  0.23715035842E+03  0.00000000000E+00 0.  1.
         11    1    3    3    0    0 -0.57790759018E-01  0.57002304092E+02  0.67873915095E+02  0.88634837180E+02  0.00000000000E+00 0. -1.
         21    1    1    2  502  501  0.47404172776E+02 -0.58966459605E+02  0.39006721009E+02  0.85121814118E+02  0.00000000000E+00 0.  1.
<scales pt_clust_5="13000.00000" pt_clust_6="13000.00000" pt_clust_7="13000.00000" pt_clust_8="13000.00000" pt_clust_9="75.65844"></scales>
<clustering>
<clus scale="   75.658">  2  9  1 -1</clus>
<clus scale="   80.128">  5  6 -1 -1</clus>
<clus scale="   88.874">  7  8 -1 -1</clus>
<clus scale="  148.699">  2  5  1 -1</clus>
<clus scale="   75.658">  2  5  1 -1</clus>
</clustering>
</event>
<event>
 9    2  0.3402837E-005  0.1142833E+03  0.7546771E-02  0.1255819E+00
         -1   -1    0    0    0  501 -0.00000000000E+00  0.00000000000E+00  0.10406895080E+03  0.10406895080E+03  0.00000000000E+00 0.  1.
          2   -1    0    0  502    0  0.00000000000E+00 -0.00000000000E+00 -0.71239638266E+03  0.71239638266E+03  0.00000000000E+00 0. -1.
         23    2    1    2    0    0  0.39064207936E+02  0.38051056126E+02 -0.18911512436E+02  0.10831493219E+03  0.91654699925E+02 0.  0.
         24    2    1    2    0    0 -0.27104084110E+02 -0.64637995252E+02 -0.64030771551E+03  0.64949987014E+03  0.83327120254E+02 0.  0.
        -11    1    4    4    0    0  0.17422931428E+02  0.11301089499E+02 -0.11227665840E+03  0.11418108943E+03  0.00000000000E+00 0.  1.
         12    1    4    4    0    0 -0.44527015538E+02 -0.75939084751E+02 -0.52803105711E+03  0.53531878071E+03  0.00000000000E+00 0. -1.
        -13    1    3    3    0    0 -0.28331906262E+01  0.45666749176E+02  0.20642134525E+02  0.50195384919E+02  0.00000000000E+00 0.  1.
         13    1    3    3    0    0  0.41897398562E+02 -0.76156930497E+01 -0.39553646961E+02  0.58119547269E+02  0.00000000000E+00 0. -1.
         21    1    1    2  502  501 -0.11960123826E+02  0.26586939126E+02  0.50891796076E+02  0.58650531130E+02  0.00000000000E+00 0.  1.
<scales pt_clust_5="13000.00000" pt_clust_6="13000.00000" pt_clust_7="13000.00000" pt_clust_8="13000.00000" pt_clust_9="29.15321"></scales>
<clustering>
<clus scale="   29.153">  1  9  2 -1</clus>
<clus scale="   83.327">  5  6 -1 -1</clus>
<clus scale="   91.655">  7  8 -1 -1</clus>
<clus scale="  107.720">  2  5  1 -1</clus>
<clus scale="  107.720">  2  5  1 -1</clus>
</clustering>
</event>
<event>
 9    2  0.3402837E-005  0.1102545E+03  0.7546771E-02  0.1262552E+00
         -1   -1    0    0    0  501 -0.00000000000E+00  0.00000000000E+00  0.16699742222E+03  0.16699742222E+03  0.00000000000E+00 0.  1.
          2   -1    0    0  502    0  0.00000000000E+00 -0.00000000000E+00 -0.13256014170E+03  0.13256014170E+03  0.00000000000E+00 0. -1.
         23    2    1    2    0    0  0.40717709235E+01 -0.49204783430E+02  0.50757571288E+02  0.11319327310E+03  0.88310225918E+02 0.  0.
         24    2    1    2    0    0 -0.33370226082E+02  0.65514073331E+02 -0.64642884988E+02  0.12754706949E+03  0.81755039985E+02 0.  0.
        -13    1    4    4    0    0 -0.89531951523E+01 -0.19147458491E+02 -0.70494069036E+01  0.22281808898E+02  0.00000000000E+00 0.  1.
         14    1    4    4    0    0 -0.24417030929E+02  0.84661531821E+02 -0.57593478084E+02  0.10526526059E+03  0.00000000000E+00 0. -1.
        -13    1    3    3    0    0  0.45216632143E+02 -0.19648531294E+02  0.16303425458E+02  0.51926970700E+02  0.00000000000E+00 0.  1.
         13    1    3    3    0    0 -0.41144861220E+02 -0.29556252135E+02  0.34454145830E+02  0.61266302402E+02  0.00000000000E+00 0. -1.
         21    1    1    2  502  501  0.29298455158E+02 -0.16309289901E+02  0.48322594218E+02  0.58817221319E+02  0.00000000000E+00 0.  1.
<scales pt_clust_5="13000.00000" pt_clust_6="13000.00000" pt_clust_7="13000.00000" pt_clust_8="13000.00000" pt_clust_9="33.53196"></scales>
<clustering>
<clus scale="   33.532">  1  9  2 -1</clus>
<clus scale="   81.755">  5  6 -1 -1</clus>
<clus scale="   88.310">  7  8 -1 -1</clus>
<clus scale="  105.077">  2  5  1 -1</clus>
<clus scale="  105.077">  2  5  1 -1</clus>
</clustering>
</event>
<event>
 9    2  0.3402837E-005  0.1098445E+03  0.7546771E-02  0.1264087E+00
         -3   -1    0    0    0  501 -0.00000000000E+00  0.00000000000E+00  0.79243330908E+03  0.79243330908E+03  0.00000000000E+00 0.  1.
          4   -1    0    0  502    0  0.00000000000E+00 -0.00000000000E+00 -0.94249366776E+02  0.94249366776E+02  0.00000000000E+00 0. -1.
         24    2    1    2    0    0 -0.19107941509E+02  0.36550457572E+02  0.28228802623E+03  0.29643641286E+03  0.80541714295E+02 0.  0.
         23    2    1    2    0    0 -0.36772229749E+02 -0.59412642604E+02 -0.47660968924E+02  0.12277406203E+03  0.88993501821E+02 0.  0.
        -11    1    3    3    0    0  0.23159064137E+02 -0.11998045234E+02  0.77684917687E+02  0.81946578801E+02  0.00000000000E+00 0.  1.
         12    1    3    3    0    0 -0.42267005646E+02  0.48548502806E+02  0.20460310854E+03  0.21448983406E+03  0.00000000000E+00 0. -1.
        -13    1    4    4    0    0 -0.16212473015E+02 -0.44853966741E+02  0.19131836903E+02  0.51388226248E+02  0.00000000000E+00 0.  1.
         13    1    4    4    0    0 -0.20559756735E+02 -0.14558675862E+02 -0.66792805826E+02  0.71385835780E+02  0.00000000000E+00 0. -1.
         21    1    1    2  502  501  0.55880171259E+02  0.22862185032E+02  0.46355688499E+03  0.46747220096E+03  0.00000000000E+00 0.  1.
<scales pt_clust_5="13000.00000" pt_clust_6="13000.00000" pt_clust_7="13000.00000" pt_clust_8="13000.00000" pt_clust_9="60.37610"></scales>
<clustering>
<clus scale="   60.376">  1  9  2 -1</clus>
<clus scale="   80.542">  5  6 -1 -1</clus>
<clus scale="   88.994">  7  8 -1 -1</clus>
<clus scale="  103.116">  1  5  2 -1</clus>
<clus scale="  109.844">  2  5  1 -1</clus>
</clustering>
</event>
<event>
 9    2  0.3402837E-005  0.1142805E+03  0.7546771E-02  0.1259508E+00
         -1   -1    0    0    0  501 -0.00000000000E+00  0.00000000000E+00  0.39799989699E+02  0.39799989699E+02  0.00000000000E+00 0.  1.
          2   -1    0    0  502    0  0.00000000000E+00 -0.00000000000E+00 -0.77124119664E+03  0.77124119664E+03  0.00000000000E+00 0. -1.
         23    2    1    2    0    0  0.61265526595E+02  0.20280282789E+02 -0.62798493824E+02  0.13141844215E+03  0.95720434029E+02 0.  0.
         24    2    1    2    0    0 -0.51124142351E+02 -0.11637437425E+01 -0.60967829529E+03  0.61681277437E+03  0.78328428095E+02 0.  0.
        -13    1    4    4    0    0 -0.59654493113E+02  0.35007998422E+01 -0.25147069803E+03  0.25847325997E+03  0.00000000000E+00 0.  1.
         14    1    4    4    0    0  0.85303507622E+01 -0.46645435847E+01 -0.35820759726E+03  0.35833951440E+03  0.00000000000E+00 0. -1.
        -13    1    3    3    0    0  0.65589112788E+02 -0.16909712488E+02 -0.12763103678E+02  0.68925807273E+02  0.00000000000E+00 0.  1.
         13    1    3    3    0    0 -0.43235861933E+01  0.37189995277E+02 -0.50035390147E+02  0.62492634873E+02  0.00000000000E+00 0. -1.
         21    1    1    2  502  501 -0.10141384244E+02 -0.19116539047E+02 -0.58964417828E+02  0.62809969824E+02  0.00000000000E+00 0. -1.
<scales pt_clust_5="13000.00000" pt_clust_6="13000.00000" pt_clust_7="13000.00000" pt_clust_8="13000.00000" pt_clust_9="21.64000"></scales>
<clustering>
<clus scale="   21.640">  2  9  1 -1</clus>
<clus scale="   78.328">  5  6 -1 -1</clus>
<clus scale="   95.720">  7  8 -1 -1</clus>
<clus scale="  100.165">  2  5  1 -1</clus>
<clus scale="   21.640">  2  5  1 -1</clus>
</clustering>
</event>
<event>
 9    2  0.3402837E-005  0.9390209E+02  0.7546771E-02  0.1302237E+00
          2   -1    0    0  502    0  0.00000000000E+00  0.00000000000E+00  0.27306255513E+03  0.27306255513E+03  0.00000000000E+00 0. -1.
         -1   -1    0    0    0  501 -0.00000000000E+00 -0.00000000000E+00 -0.10306527699E+03  0.10306527699E+03  0.00000000000E+00 0.  1.
         24    2    1    2    0    0  0.29363657981E+02 -0.69579888075E+01 -0.48311793224E+02  0.98292238211E+02  0.80104286463E+02 0.  0.
         23    2    1    2    0    0  0.64613037529E+01 -0.49061654633E+00  0.22194167334E+03  0.24106460805E+03  0.93872518539E+02 0.  0.
        -13    1    3    3    0    0  0.20028755330E+02 -0.29413824173E+02  0.84198387245E+01  0.36567988414E+02  0.00000000000E+00 0.  1.
         14    1    3    3    0    0  0.93349026512E+01  0.22455835365E+02 -0.56731631949E+02  0.61724249797E+02  0.00000000000E+00 0. -1.
        -13    1    4    4    0    0 -0.97892404254E+00 -0.43401376438E+02  0.64787444160E+02  0.77987503420E+02  0.00000000000E+00 0.  1.
         13    1    4    4    0    0  0.74402277954E+01  0.42910759891E+02  0.15715422918E+03  0.16307710463E+03  0.00000000000E+00 0. -1.
         21    1    1    2  502  501 -0.35824961734E+02  0.74486053538E+01 -0.36326019734E+01  0.36770985873E+02  0.00000000000E+00 0.  1.
<scales pt_clust_5="13000.00000" pt_clust_6="13000.00000" pt_clust_7="13000.00000" pt_clust_8="13000.00000" pt_clust_9="36.59111"></scales>
<clustering>
<clus scale="   36.591">  2  9  1 -1</clus>
<clus scale="   80.104">  5  6 -1 -1</clus>
<clus scale="   80.139">  2  5  1 -1</clus>
<clus scale="   93.873">  7  8 -1 -1</clus>
<clus scale="   93.902">  1  5  2 -1</clus>
</clustering>
</event>
<event>
 9    2  0.3402837E-005  0.1122856E+03  0.7546771E-02  0.1260384E+00
         -1   -1    0    0    0  501 -0.00000000000E+00  0.00000000000E+00  0.42011991420E+03  0.42011991420E+03  0.00000000000E+00 0.  1.
          2   -1    0    0  502    0  0.00000000000E+00 -0.00000000000E+00 -0.96831683147E+02  0.96831683147E+02  0.00000000000E+00 0. -1.
         24    2    1    2    0    0  0.23947375135E+02  0.12733536702E+02  0.23939063480E+03  0.25417268962E+03  0.80995434344E+02 0.  0.
         23    2    1    2    0    0 -0.65592265049E+02 -0.26965963312E+02 -0.46734672672E+02  0.12493244057E+03  0.91621376689E+02 0.  0.
        -11    1    3    3    0    0  0.28519191271E+02 -0.30596080251E+02  0.11455984090E+03  0.12195663797E+03  0.00000000000E+00 0.  1.
         12    1    3    3    0    0 -0.45718161354E+01  0.43329616952E+02  0.12483079390E+03  0.13221605165E+03  0.00000000000E+00 0. -1.
        -11    1    4    4    0    0 -0.79479282874E+02  0.13425990050E+01 -0.48899404650E+02  0.93326902624E+02  0.00000000000E+00 0. -1.
         11    1    4    4    0    0  0.13887017825E+02 -0.28308562317E+02  0.21647319785E+01  0.31605537950E+02  0.00000000000E+00 0.  1.
         21    1    1    2  502  501  0.41644889913E+02  0.14232426611E+02  0.13063226892E+03  0.13784646715E+03  0.00000000000E+00 0.  1.
<scales pt_clust_5="13000.00000" pt_clust_6="13000.00000" pt_clust_7="13000.00000" pt_clust_8="13000.00000" pt_clust_9="44.00976"></scales>
<clustering>
<clus scale="   44.010">  1  9  2 -1</clus>
<clus scale="   80.995">  5  6 -1 -1</clus>
<clus scale="   91.621">  7  8 -1 -1</clus>
<clus scale="  103.797">  1  5  2 -1</clus>
<clus scale="  112.286">  2  5  1 -1</clus>
</clustering>
</event>
<event>
 9    2  0.3402837E-005  0.1111640E+03  0.7546771E-02  0.1262396E+00
         -1   -1    0    0    0  501 -0.00000000000E+00  0.00000000000E+00  0.41005739187E+02  0.41005739187E+02  0.00000000000E+00 0.  1.
          2   -1    0    0  502    0  0.00000000000E+00 -0.00000000000E+00 -0.54068923500E+03  0.54068923500E+03  0.00000000000E+00 0. -1.
         24    2    1    2    0    0  0.71066054948E+02 -0.77307785550E+01 -0.12348232562E+03  0.16375361987E+03  0.80356792974E+02 0.  0.
         23    2    1    2    0    0 -0.56527905791E+02  0.26276721350E+02 -0.37856711962E+03  0.39425786869E+03  0.90776278528E+02 0.  0.
        -11    1    3    3    0    0  0.68503991053E+02 -0.32908528479E+02 -0.64901459354E+02  0.99939819207E+02  0.00000000000E+00 0.  1.
         12    1    3    3    0    0  0.25620638947E+01  0.25177749924E+02 -0.58580866263E+02  0.63813800661E+02  0.00000000000E+00 0. -1.
        -13    1    4    4    0    0 -0.73611761911E+02  0.43523653477E+02 -0.28161730494E+03  0.29431497812E+03  0.00000000000E+00 0. -1.
         13    1    4    4    0    0  0.17083856121E+02 -0.17246932128E+02 -0.96949814687E+02  0.99942890571E+02  0.00000000000E+00 0.  1.
         21    1    1    2  502  501 -0.14538149158E+02 -0.18545942795E+02  0.23659494261E+01  0.23683485634E+02  0.00000000000E+00 0.  1.
<scales pt_clust_5="13000.00000" pt_clust_6="13000.00000" pt_clust_7="13000.00000" pt_clust_8="13000.00000" pt_clust_9="23.56501"></scales>
<clustering>
<clus scale="   23.565">  1  9  2 -1</clus>
<clus scale="   80.357">  5  6 -1 -1</clus>
<clus scale="   90.776">  7  8 -1 -1</clus>
<clus scale="  102.831">  1  5  2 -1</clus>
<clus scale="  111.164">  2  5  1 -1</clus>
</clustering>
</event>
<event>
 9    2  0.3402837E-005  0.1071595E+03  0.7546771E-02  0.1269345E+00
          2   -1    0    0  502    0  0.00000000000E+00  0.00000000000E+00  0.84508007980E+02  0.84508007980E+02  0.00000000000E+00 0. -1.
         -1   -1    0    0    0  501 -0.00000000000E+00 -0.00000000000E+00 -0.21142614856E+03  0.21142614856E+03  0.00000000000E+00 0.  1.
         24    2    1    2    0    0  0.42046048145E+02 -0.14433516703E+02 -0.12318810186E+03  0.15390197971E+03  0.80835105922E+02 0.  0.
         23    2    1    2    0    0 -0.62621894739E+02  0.14914558997E+02  0.18677521221E+02  0.11160693061E+03  0.89237387856E+02 0.  0.
        -11    1    3    3    0    0  0.28839661174E+02 -0.41321029002E+02 -0.11035090280E+03  0.12131148026E+03  0.00000000000E+00 0.  1.
         12    1    3    3    0    0  0.13206386970E+02  0.26887512299E+02 -0.12837199058E+02  0.32590499445E+02  0.00000000000E+00 0. -1.
        -13    1    4    4    0    0  0.47967965398E+01  0.37909922112E+02  0.12048457612E+02  0.40066654245E+02  0.00000000000E+00 0.  1.
         13    1    4    4    0    0 -0.67418691279E+02 -0.22995363115E+02  0.66290636090E+01  0.71540276369E+02  0.00000000000E+00 0. -1.
         21    1    1    2  502  501  0.20575846595E+02 -0.48104229389E+00 -0.22407559935E+02  0.30425246211E+02  0.00000000000E+00 0.  1.
<scales pt_clust_5="13000.00000" pt_clust_6="13000.00000" pt_clust_7="13000.00000" pt_clust_8="13000.00000" pt_clust_9="20.58147"></scales>
<clustering>
<clus scale="   20.581">  2  9  1 -1</clus>
<clus scale="   80.835">  5  6 -1 -1</clus>
<clus scale="   89.237">  7  8 -1 -1</clus>
<clus scale="  100.270">  2  5  1 -1</clus>
<clus scale="  107.160">  1  5  2 -1</clus>
</clustering>
</event>
<event>
 9    2  0.3402837E-005  0.1688832E+03  0.7546771E-02  0.1180210E+00
          2   -1    0    0  502    0  0.00000000000E+00  0.00000000000E+00  0.20314894400E+03  0.20314894400E+03  0.00000000000E+00 0. -1.
         -1   -1    0    0    0  501 -0.00000000000E+00 -0.00000000000E+00 -0.40731874563E+03  0.40731874563E+03  0.00000000000E+00 0.  1.
         24    2    1    2    0    0  0.18742888431E+03 -0.13264417023E+01 -0.23652489333E+03  0.31237700617E+03  0.80647521341E+02 0.  0.
         23    2    1    2    0    0 -0.13132446021E+03  0.39702130348E+02  0.10817531043E+03  0.19626187883E+03  0.89411712279E+02 0.  0.
        -13    1    3    3    0    0  0.12867221735E+03  0.24395673143E+02 -0.19850548112E+03  0.23781529475E+03  0.00000000000E+00 0.  1.
         14    1    3    3    0    0  0.58756666960E+02 -0.25722114845E+02 -0.38019412213E+02  0.74561711417E+02  0.00000000000E+00 0. -1.
        -11    1    4    4    0    0 -0.62580599699E+02 -0.11924853037E+02  0.86805982867E+02  0.10767456636E+03  0.00000000000E+00 0. -1.
         11    1    4    4    0    0 -0.68743860510E+02  0.51626983385E+02  0.21369327567E+02  0.88587312478E+02  0.00000000000E+00 0.  1.
         21    1    1    2  502  501 -0.56104424102E+02 -0.38375688645E+02 -0.75820218739E+02  0.10182880463E+03  0.00000000000E+00 0.  1.
<scales pt_clust_5="13000.00000" pt_clust_6="13000.00000" pt_clust_7="13000.00000" pt_clust_8="13000.00000" pt_clust_9="67.97352"></scales>
<clustering>
<clus scale="   67.974">  2  9  1 -1</clus>
<clus scale="   80.648">  5  6 -1 -1</clus>
<clus scale="   89.412">  7  8 -1 -1</clus>
<clus scale="  164.411">  2  5  1 -1</clus>
<clus scale="  168.883">  1  5  2 -1</clus>
</clustering>
</event>
<event>
 9    2  0.3402837E-005  0.9632766E+02  0.7546771E-02  0.1293475E+00
          2   -1    0    0  502    0  0.00000000000E+00  0.00000000000E+00  0.50849044097E+03  0.50849044097E+03  0.00000000000E+00 0. -1.
         -1   -1    0    0    0  501 -0.00000000000E+00 -0.00000000000E+00 -0.12049311599E+03  0.12049311599E+03  0.00000000000E+00 0.  1.
         23    2    1    2    0    0  0.28952515798E+02 -0.14581942293E+02 -0.90022693146E+02  0.13156593002E+03  0.90302975859E+02 0.  0.
         24    2    1    2    0    0 -0.48093921236E+02  0.32313311410E+02  0.44157579104E+03  0.45259601897E+03  0.80602740656E+02 0.  0.
        -13    1    4    4    0    0 -0.49417448402E+01 -0.21653660670E+02  0.46607523469E+02  0.51629091667E+02  0.00000000000E+00 0.  1.
         14    1    4    4    0    0 -0.43152176396E+02  0.53966972080E+02  0.39496826757E+03  0.40096692730E+03  0.00000000000E+00 0. -1.
        -11    1    3    3    0    0  0.76841933632E+01 -0.28943574535E+02 -0.99729373114E+02  0.10412840725E+03  0.00000000000E+00 0.  1.
         11    1    3    3    0    0  0.21268322435E+02  0.14361632242E+02  0.97066799680E+01  0.27437522772E+02  0.00000000000E+00 0. -1.
         21    1    1    2  502  501  0.19141405438E+02 -0.17731369117E+02  0.36444227090E+02  0.44821607970E+02  0.00000000000E+00 0.  1.
<scales pt_clust_5="13000.00000" pt_clust_6="13000.00000" pt_clust_7="13000.00000" pt_clust_8="13000.00000" pt_clust_9="26.09205"></scales>
<clustering>
<clus scale="   26.092">  1  9  2 -1</clus>
<clus scale="   80.603">  5  6 -1 -1</clus>
<clus scale="   87.299">  1  5  2 -1</clus>
<clus scale="   90.303">  7  8 -1 -1</clus>
<clus scale="   26.092">  1  5  2 -1</clus>
</clustering>
</event>
<event>
 9    2  0.3402837E-005  0.1380597E+03  0.7546771E-02  0.1218388E+00
         -1   -1    0    0    0  501 -0.00000000000E+00  0.00000000000E+00  0.59533511711E+02  0.59533511711E+02  0.00000000000E+00 0.  1.
          2   -1    0    0  502    0  0.00000000000E+00 -0.00000000000E+00 -0.43988800573E+03  0.43988800573E+03  0.00000000000E+00 0. -1.
         24    2    1    2    0    0  0.83626539974E+02  0.79464036518E+02 -0.94191270806E+02  0.16904333613E+03  0.79973262451E+02 0.  0.
         23    2    1    2    0    0 -0.82651271757E+02 -0.55572966918E+02 -0.26920320311E+03  0.30106305489E+03  0.90824066647E+02 0.  0.
        -11    1    3    3    0    0  0.45233026768E+02  0.25220324084E+02  0.23472830848E+01  0.51842079389E+02  0.00000000000E+00 0.  1.
         12    1    3    3    0    0  0.38393513206E+02  0.54243712434E+02 -0.96538553891E+02  0.11720125674E+03  0.00000000000E+00 0. -1.
        -13    1    4    4    0    0 -0.36379011858E+02  0.20489416055E+02 -0.54675166773E+02  0.68794058869E+02  0.00000000000E+00 0. -1.
         13    1    4    4    0    0 -0.46272259898E+02 -0.76062382974E+02 -0.21452803633E+03  0.23226899602E+03  0.00000000000E+00 0.  1.
         21    1    1    2  502  501 -0.97526821755E+00 -0.23891069600E+02 -0.16960020101E+02  0.29315126412E+02  0.00000000000E+00 0. -1.
<scales pt_clust_5="13000.00000" pt_clust_6="13000.00000" pt_clust_7="13000.00000" pt_clust_8="13000.00000" pt_clust_9="23.91097"></scales>
<clustering>
<clus scale="   23.911">  1  9  2 -1</clus>
<clus scale="   79.973">  5  6 -1 -1</clus>
<clus scale="   90.824">  7  8 -1 -1</clus>
<clus scale="  131.176">  1  5  2 -1</clus>
<clus scale="  138.060">  2  5  1 -1</clus>
</clustering>
</event>
<event>
 9    2  0.3402837E-005  0.1112674E+03  0.7546771E-02  0.1262496E+00
         -1   -1    0    0    0  501 -0.00000000000E+00  0.00000000000E+00  0.15972867665E+02  0.15972867665E+02  0.00000000000E+00 0.  1.
          2   -1    0    0  502    0  0.00000000000E+00 -0.00000000000E+00 -0.10277634075E+04  0.10277634075E+04  0.00000000000E+00 0. -1.
         23    2    1    2    0    0  0.46176658587E+02  0.38557246114E+02 -0.31740196909E+03  0.33599654307E+03  0.92361907430E+02 0.  0.
         24    2    1    2    0    0 -0.60865073184E+02 -0.20408056069E+02 -0.64291167449E+03  0.65121528189E+03  0.81393343032E+02 0.  0.
        -13    1    4    4    0    0 -0.33315091050E+02 -0.15933378887E+02 -0.85862491877E+02  0.93467295701E+02  0.00000000000E+00 0.  1.
         14    1    4    4    0    0 -0.27549982134E+02 -0.44746771814E+01 -0.55704918261E+03  0.55774798619E+03  0.00000000000E+00 0. -1.
        -11    1    3    3    0    0 -0.21923865742E+02  0.25173483350E+02 -0.52994279805E+02  0.62631891598E+02  0.00000000000E+00 0. -1.
         11    1    3    3    0    0  0.68100524329E+02  0.13383762765E+02 -0.26440768929E+03  0.27336465147E+03  0.00000000000E+00 0.  1.
         21    1    1    2  502  501  0.14688414597E+02 -0.18149190046E+02 -0.51476896220E+02  0.56524450171E+02  0.00000000000E+00 0. -1.
<scales pt_clust_5="13000.00000" pt_clust_6="13000.00000" pt_clust_7="13000.00000" pt_clust_8="13000.00000" pt_clust_9="23.34829"></scales>
<clustering>
<clus scale="   23.348">  1  9  2 -1</clus>
<clus scale="   81.393">  5  6 -1 -1</clus>
<clus scale="   92.362">  7  8 -1 -1</clus>
<clus scale="  102.345">  2  5  1 -1</clus>
<clus scale="  102.345">  2  5  1 -1</clus>
</clustering>
</event>
<event>
 9    2  0.3402837E-005  0.1274564E+03  0.7546771E-02  0.1233291E+00
          2   -1    0    0  502    0  0.00000000000E+00  0.00000000000E+00  0.23507656345E+03  0.23507656345E+03  0.00000000000E+00 0. -1.
         -1   -1    0    0    0  501 -0.00000000000E+00 -0.00000000000E+00 -0.27255659784E+03  0.27255659784E+03  0.00000000000E+00 0.  1.
         24    2    1    2    0    0 -0.70298664647E+02  0.97575437050E+02 -0.38556907202E+02  0.15152819932E+03  0.83733457653E+02 0.  0.
         23    2    1    2    0    0 -0.10650143265E+02 -0.86796183575E+02  0.14397761410E+03  0.19151600830E+03  0.91114351450E+02 0.  0.
        -13    1    3    3    0    0 -0.33564202193E+02  0.97014393338E+02 -0.48399454939E+02  0.11349385632E+03  0.00000000000E+00 0.  1.
         14    1    3    3    0    0 -0.36734462454E+02  0.56104371126E+00  0.98425477365E+01  0.38034343004E+02  0.00000000000E+00 0. -1.
        -13    1    4    4    0    0  0.23275564263E+02 -0.29812550667E+02  0.58224066797E+01  0.38268008684E+02  0.00000000000E+00 0.  1.
         13    1    4    4    0    0 -0.33925707528E+02 -0.56983632908E+02  0.13815520742E+03  0.15324799962E+03  0.00000000000E+00 0. -1.
         21    1    1    2  502  501  0.80948807912E+02 -0.10779253474E+02 -0.14290074129E+03  0.16458895366E+03  0.00000000000E+00 0. -1.
<scales pt_clust_5="13000.00000" pt_clust_6="13000.00000" pt_clust_7="13000.00000" pt_clust_8="13000.00000" pt_clust_9="81.66334"></scales>
<clustering>
<clus scale="   81.663">  2  9  1 -1</clus>
<clus scale="   83.733">  5  6 -1 -1</clus>
<clus scale="   91.114">  7  8 -1 -1</clus>
<clus scale="  122.289">  2  5  1 -1</clus>
<clus scale="  127.456">  1  5  2 -1</clus>
</clustering>
</event>
<event>
 9    2  0.3402837E-005  0.9389318E+02  0.7546771E-02  0.1298495E+00
          2   -1    0    0  502    0  0.00000000000E+00  0.00000000000E+00  0.16675439423E+03  0.16675439423E+03  0.00000000000E+00 0. -1.
         -1   -1    0    0    0  501 -0.00000000000E+00 -0.00000000000E+00 -0.14807644069E+03  0.14807644069E+03  0.00000000000E+00 0.  1.
         23    2    1    2    0    0  0.13276920386E+02  0.24657121741E+02 -0.10737429619E+03  0.14296842469E+03  0.90146995003E+02 0.  0.
         24    2    1    2    0    0 -0.24873761657E+02 -0.52259768577E+01  0.67331771536E+02  0.10893268214E+03  0.81772531622E+02 0.  0.
        -11    1    4    4    0    0  0.54223647791E+01  0.32939439562E+02  0.43087166005E+02  0.54506078494E+02  0.00000000000E+00 0.  1.
         12    1    4    4    0    0 -0.30296126436E+02 -0.38165416420E+02  0.24244605531E+02  0.54426603650E+02  0.00000000000E+00 0. -1.
        -11    1    3    3    0    0 -0.34511613778E+02 -0.78011006087E+01 -0.29880605068E+02  0.46311545164E+02  0.00000000000E+00 0.  1.
         11    1    3    3    0    0  0.47788534164E+02  0.32458222350E+02 -0.77493691121E+02  0.96656879524E+02  0.00000000000E+00 0. -1.
         21    1    1    2  502  501  0.11596841271E+02 -0.19431144883E+02  0.58720478188E+02  0.62929728091E+02  0.00000000000E+00 0. -1.
<scales pt_clust_5="13000.00000" pt_clust_6="13000.00000" pt_clust_7="13000.00000" pt_clust_8="13000.00000" pt_clust_9="22.62866"></scales>
<clustering>
<clus scale="   22.629">  1  9  2 -1</clus>
<clus scale="   81.773">  5  6 -1 -1</clus>
<clus scale="   85.885">  1  5  2 -1</clus>
<clus scale="   90.147">  7  8 -1 -1</clus>
<clus scale="   22.629">  1  5  2 -1</clus>
</clustering>
</event>
<event>
 9    2  0.3402837E-005  0.1028417E+03  0.7546771E-02  0.1279445E+00
          2   -1    0    0  502    0  0.00000000000E+00  0.00000000000E+00  0.86624207595E+03  0.86624207595E+03  0.00000000000E+00 0. -1.
         -1   -1    0    0    0  501 -0.00000000000E+00 -0.00000000000E+00 -0.25592111706E+02  0.25592111706E+02  0.00000000000E+00 0.  1.
         23    2    1    2    0    0  0.26111862617E+02 -0.20493107527E+02  0.10146851325E+03  0.14014875398E+03  0.90796570625E+02 0.  0.
         24    2    1    2    0    0 -0.47741495399E+02  0.17965004866E+02  0.70361157594E+03  0.70997873962E+03  0.79991056572E+02 0.  0.
        -13    1    4    4    0    0 -0.55667683722E+02 -0.15140738694E+02  0.34888382449E+03  0.35362134546E+03  0.00000000000E+00 0.  1.
         14    1    4    4    0    0  0.79261883227E+01  0.33105743560E+02  0.35472775145E+03  0.35635739415E+03  0.00000000000E+00 0. -1.
        -13    1    3    3    0    0  0.38168402744E+02 -0.44451945561E+02  0.34462476055E+02  0.67974000088E+02  0.00000000000E+00 0.  1.
         13    1    3    3    0    0 -0.12056540127E+02  0.23958838035E+02  0.67006037190E+02  0.72174753895E+02  0.00000000000E+00 0. -1.
         21    1    1    2  502  501  0.21629632783E+02  0.25281026607E+01  0.35569875064E+02  0.41706694061E+02  0.00000000000E+00 0. -1.
<scales pt_clust_5="13000.00000" pt_clust_6="13000.00000" pt_clust_7="13000.00000" pt_clust_8="13000.00000" pt_clust_9="21.77688"></scales>
<clustering>
<clus scale="   21.777">  2  9  1 -1</clus>
<clus scale="   79.991">  5  6 -1 -1</clus>
<clus scale="   90.797">  7  8 -1 -1</clus>
<clus scale="   93.440">  1  5  2 -1</clus>
<clus scale="   93.440">  1  5  2 -1</clus>
</clustering>
</event>
<event>
 9    2  0.3402837E-005  0.2014290E+03  0.7546771E-02  0.1152013E+00
         -1   -1    0    0    0  501 -0.00000000000E+00  0.00000000000E+00  0.13458180451E+03  0.13458180451E+03  0.00000000000E+00 0.  1.
          2   -1    0    0  502    0  0.00000000000E+00 -0.00000000000E+00 -0.36653982952E+03  0.36653982952E+03  0.00000000000E+00 0. -1.
         23    2    1    2    0    0  0.64281448898E+02  0.15459827491E+03 -0.88050157275E+02  0.22021511683E+03  0.11273480477E+03 0.  0.
         24    2    1    2    0    0 -0.38514224223E+02 -0.16297123826E+03 -0.16336084465E+03  0.24755273639E+03  0.80948265950E+02 0.  0.
        -11    1    4    4    0    0 -0.39322071084E+02 -0.10432189992E+03 -0.54953547729E+02  0.12429471624E+03  0.00000000000E+00 0.  1.
         12    1    4    4    0    0  0.80784686069E+00 -0.58649338337E+02 -0.10840729692E+03  0.12325802015E+03  0.00000000000E+00 0. -1.
        -11    1    3    3    0    0 -0.25067769639E+02  0.74423639260E+02 -0.15807516832E+02  0.80107107947E+02  0.00000000000E+00 0.  1.
         11    1    3    3    0    0  0.89349218537E+02  0.80174635654E+02 -0.72242640443E+02  0.14010800888E+03  0.00000000000E+00 0. -1.
         21    1    1    2  502  501 -0.25767224675E+02  0.83729633492E+01  0.19452976916E+02  0.33353780799E+02  0.00000000000E+00 0.  1.
<scales pt_clust_5="13000.00000" pt_clust_6="13000.00000" pt_clust_7="13000.00000" pt_clust_8="13000.00000" pt_clust_9="27.09347"></scales>
<clustering>
<clus scale="   27.093">  1  9  2 -1</clus>
<clus scale="   80.948">  5  6 -1 -1</clus>
<clus scale="  112.735">  7  8 -1 -1</clus>
<clus scale="  185.519">  2  5  1 -1</clus>
<clus scale="  185.519">  2  5  1 -1</clus>
</clustering>
</event>
<event>
 9    2  0.3402837E-005  0.2651815E+03  0.7546771E-02  0.1104509E+00
         -1   -1    0    0    0  501 -0.00000000000E+00  0.00000000000E+00  0.15662467226E+03  0.15662467226E+03  0.00000000000E+00 0.  1.
          2   -1    0    0  502    0  0.00000000000E+00 -0.00000000000E+00 -0.10923576722E+04  0.10923576722E+04  0.00000000000E+00 0. -1.
         24    2    1    2    0    0  0.13213779355E+03  0.23198055575E+03 -0.58349806454E+02  0.28494667420E+03  0.80712653902E+02 0.  0.
         23    2    1    2    0    0 -0.17155977198E+03 -0.17853050313E+03 -0.85386876611E+03  0.89358051571E+03  0.89935379104E+02 0.  0.
        -13    1    3    3    0    0  0.11206040078E+03  0.22740049736E+03 -0.38637900219E+02  0.25643987006E+03  0.00000000000E+00 0.  1.
         14    1    3    3    0    0  0.20077392768E+02  0.45800583846E+01 -0.19711906236E+02  0.28506804146E+02  0.00000000000E+00 0. -1.
        -11    1    4    4    0    0 -0.58118071630E+02 -0.11782290845E+03 -0.50268465572E+03  0.51956887041E+03  0.00000000000E+00 0. -1.
         11    1    4    4    0    0 -0.11344170035E+03 -0.60707594677E+02 -0.35118411039E+03  0.37401164530E+03  0.00000000000E+00 0.  1.
         21    1    1    2  502  501  0.39421978431E+02 -0.53450052616E+02 -0.23514427386E+02  0.70455154555E+02  0.00000000000E+00 0.  1.
<scales pt_clust_5="13000.00000" pt_clust_6="13000.00000" pt_clust_7="13000.00000" pt_clust_8="13000.00000" pt_clust_9="66.41536"></scales>
<clustering>
<clus scale="   66.415">  1  9  2 -1</clus>
<clus scale="   80.713">  5  6 -1 -1</clus>
<clus scale="   89.935">  7  8 -1 -1</clus>
<clus scale="  262.197">  1  5  2 -1</clus>
<clus scale="  265.182">  2  5  1 -1</clus>
</clustering>
</event>
<event>
 9    2  0.3402837E-005  0.1066221E+03  0.7546771E-02  0.1274785E+00
         -1   -1    0    0    0  501 -0.00000000000E+00  0.00000000000E+00  0.69165074820E+02  0.69165074820E+02  0.00000000000E+00 0.  1.
          2   -1    0    0  502    0  0.00000000000E+00 -0.00000000000E+00 -0.29685317979E+03  0.29685317979E+03  0.00000000000E+00 0. -1.
         24    2    1    2    0    0  0.30584489202E+02  0.10613876731E+02 -0.15043899338E+02  0.89096133548E+02  0.81631714099E+02 0.  0.
         23    2    1    2    0    0 -0.45069651789E+02  0.97252701868E+01 -0.22447663352E+03  0.24929048734E+03  0.98133244578E+02 0.  0.
        -11    1    3    3    0    0  0.36672831348E+02  0.42050700891E+02 -0.96558450088E+01  0.56625024038E+02  0.00000000000E+00 0.  1.
         12    1    3    3    0    0 -0.60883421456E+01 -0.31436824160E+02 -0.53880543291E+01  0.32471109510E+02  0.00000000000E+00 0. -1.
        -13    1    4    4    0    0 -0.23697608908E+02 -0.43286758357E+02 -0.81016844352E+02  0.94863318442E+02  0.00000000000E+00 0.  1.
         13    1    4    4    0    0 -0.21372042881E+02  0.53012028544E+02 -0.14345978917E+03  0.15442716890E+03  0.00000000000E+00 0. -1.
         21    1    1    2  502  501  0.14485162587E+02 -0.20339146918E+02  0.11832427884E+02  0.27631633722E+02  0.00000000000E+00 0.  1.
<scales pt_clust_5="13000.00000" pt_clust_6="13000.00000" pt_clust_7="13000.00000" pt_clust_8="13000.00000" pt_clust_9="24.97000"></scales>
<clustering>
<clus scale="   24.970">  1  9  2 -1</clus>
<clus scale="   81.632">  5  6 -1 -1</clus>
<clus scale="   91.662">  1  5  2 -1</clus>
<clus scale="   98.133">  7  8 -1 -1</clus>
<clus scale="  106.622">  2  5  1 -1</clus>
</clustering>
</event>
<event>
 9    2  0.3402837E-005  0.9832477E+02  0.7546771E-02  0.1293322E+00
         -1   -1    0    0    0  501 -0.00000000000E+00  0.00000000000E+00  0.98336357464E+02  0.98336357464E+02  0.00000000000E+00 0.  1.
          2   -1    0    0  502    0  0.00000000000E+00 -0.00000000000E+00 -0.46653698974E+03  0.46653698974E+03  0.00000000000E+00 0. -1.
         23    2    1    2    0    0  0.14815223559E+02 -0.22532427155E+02  0.51785550171E+02  0.11290098538E+03  0.96631714109E+02 0.  0.
         24    2    1    2    0    0  0.14387016386E+02 -0.44295954958E+02 -0.20738566582E+03  0.22721074779E+03  0.80291915253E+02 0.  0.
        -11    1    4    4    0    0 -0.44776535698E+00 -0.66244017349E+02 -0.14366708368E+03  0.15820461834E+03  0.00000000000E+00 0.  1.
         12    1    4    4    0    0  0.14834781743E+02  0.21948062392E+02 -0.63718582137E+02  0.69006129450E+02  0.00000000000E+00 0. -1.
        -11    1    3    3    0    0  0.22422878387E+01 -0.48119191366E+02  0.65466406135E+02  0.81279362477E+02  0.00000000000E+00 0.  1.
         11    1    3    3    0    0  0.12572935720E+02  0.25586764211E+02 -0.13680855964E+02  0.31621622907E+02  0.00000000000E+00 0. -1.
         21    1    1    2  502  501 -0.29202239944E+02  0.66828382113E+02 -0.21260051662E+03  0.22476161403E+03  0.00000000000E+00 0. -1.
<scales pt_clust_5="13000.00000" pt_clust_6="13000.00000" pt_clust_7="13000.00000" pt_clust_8="13000.00000" pt_clust_9="72.93013"></scales>
<clustering>
<clus scale="   72.930">  2  9  1 -1</clus>
<clus scale="   80.292">  5  6 -1 -1</clus>
<clus scale="   82.322">  2  5  1 -1</clus>
<clus scale="   96.632">  7  8 -1 -1</clus>
<clus scale="   72.930">  2  5  1 -1</clus>
</clustering>
</event>
<event>
 9    2  0.3402837E-005  0.1283116E+03  0.7546771E-02  0.1233805E+00
          2   -1    0    0  502    0  0.00000000000E+00  0.00000000000E+00  0.49937829657E+03  0.49937829657E+03  0.00000000000E+00 0. -1.
         -1   -1    0    0    0  501 -0.00000000000E+00 -0.00000000000E+00 -0.26302407009E+03  0.26302407009E+03  0.00000000000E+00 0.  1.
         23    2    1    2    0    0  0.10268561528E+02  0.63969521239E+02 -0.24494001010E+02  0.11674892132E+03  0.93983038584E+02 0.  0.
         24    2    1    2    0    0 -0.95460020635E+02 -0.96693588810E+01  0.43044559924E+03  0.44824685771E+03  0.80222936258E+02 0.  0.
        -13    1    4    4    0    0 -0.38587789744E+02  0.29682634645E+02  0.25607924605E+03  0.26066579480E+03  0.00000000000E+00 0.  1.
         14    1    4    4    0    0 -0.56872230891E+02 -0.39351993526E+02  0.17436635318E+03  0.18758106291E+03  0.00000000000E+00 0. -1.
        -13    1    3    3    0    0 -0.38501486325E+02  0.78932546592E+01 -0.31550236294E+01  0.39428696307E+02  0.00000000000E+00 0. -1.
         13    1    3    3    0    0  0.48770047853E+02  0.56076266580E+02 -0.21338977381E+02  0.77320225017E+02  0.00000000000E+00 0.  1.
         21    1    1    2  502  501  0.85191459107E+02 -0.54300162358E+02 -0.16959737174E+03  0.19740658763E+03  0.00000000000E+00 0.  1.
<scales pt_clust_5="13000.00000" pt_clust_6="13000.00000" pt_clust_7="13000.00000" pt_clust_8="13000.00000" pt_clust_9="101.02521"></scales>
<clustering>
<clus scale="   80.223">  5  6 -1 -1</clus>
<clus scale="   93.983">  7  8 -1 -1</clus>
<clus scale="  101.025">  2  9  1 -1</clus>
<clus scale="  118.603">  1  5  2 -1</clus>
<clus scale="  118.603">  1  5  2 -1</clus>
</clustering>
</event>
<event>
 9    2  0.3402837E-005  0.1063350E+03  0.7546771E-02  0.1271646E+00
         -1   -1    0    0    0  501 -0.00000000000E+00  0.00000000000E+00  0.39896184743E+02  0.39896184743E+02  0.00000000000E+00 0.  1.
          2   -1    0    0  502    0  0.00000000000E+00 -0.00000000000E+00 -0.11453765100E+04  0.11453765100E+04  0.00000000000E+00 0. -1.
         23    2    1    2    0    0 -0.62261171053E+02 -0.56814146304E+01 -0.58347317301E+02  0.12424925924E+03  0.90137323528E+02 0.  0.
         24    2    1    2    0    0 -0.11378033327E+01  0.36946964063E+01 -0.85318009137E+03  0.85696189857E+03  0.80327342264E+02 0.  0.
        -11    1    4    4    0    0 -0.25268454814E+02 -0.15262413396E+02 -0.13791934996E+03  0.14104319609E+03  0.00000000000E+00 0.  1.
         12    1    4    4    0    0  0.24130651481E+02  0.18957109802E+02 -0.71526074141E+03  0.71591870247E+03  0.00000000000E+00 0. -1.
        -11    1    3    3    0    0  0.53937904831E+01 -0.30952230929E+02 -0.23166914579E-01  0.31418690488E+02  0.00000000000E+00 0. -1.
         11    1    3    3    0    0 -0.67654961536E+02  0.25270816299E+02 -0.58324150387E+02  0.92830568754E+02  0.00000000000E+00 0.  1.
         21    1    1    2  502  501  0.63398974386E+02  0.19867182240E+01 -0.19395291663E+03  0.20406153697E+03  0.00000000000E+00 0.  1.
<scales pt_clust_5="13000.00000" pt_clust_6="13000.00000" pt_clust_7="13000.00000" pt_clust_8="13000.00000" pt_clust_9="63.43010"></scales>
<clustering>
<clus scale="   63.430">  2  9  1 -1</clus>
<clus scale="   80.327">  5  6 -1 -1</clus>
<clus scale="   90.137">  7  8 -1 -1</clus>
<clus scale="   98.157">  2  5  1 -1</clus>
<clus scale="   63.430">  2  5  1 -1</clus>
</clustering>
</event>
<event>
 9    2  0.3402837E-005  0.1141698E+03  0.7546771E-02  0.1256542E+00
         -1   -1    0    0    0  501 -0.00000000000E+00  0.00000000000E+00  0.50036627702E+02  0.50036627702E+02  0.00000000000E+00 0.  1.
          2   -1    0    0  502    0  0.00000000000E+00 -0.00000000000E+00 -0.41916338585E+03  0.41916338585E+03  0.00000000000E+00 0. -1.
         23    2    1    2    0    0  0.31534110275E+02 -0.93290719183E+02 -0.10547670417E+03  0.16996335492E+03  0.89803387993E+02 0.  0.
         24    2    1    2    0    0 -0.15481705068E+02  0.58958447084E+02 -0.21708373498E+03  0.23919661629E+03  0.79836655592E+02 0.  0.
        -13    1    4    4    0    0 -0.14099799331E+02  0.41334961273E+02 -0.34227505547E+02  0.55487886070E+02  0.00000000000E+00 0.  1.
         14    1    4    4    0    0 -0.13819057375E+01  0.17623485812E+02 -0.18285622943E+03  0.18370873022E+03  0.00000000000E+00 0. -1.
        -11    1    3    3    0    0  0.45088531905E+02 -0.53141530785E+02 -0.16809798668E+02  0.71690775800E+02  0.00000000000E+00 0.  1.
         11    1    3    3    0    0 -0.13554421630E+02 -0.40149188398E+02 -0.88666905503E+02  0.98272579116E+02  0.00000000000E+00 0. -1.
         21    1    1    2  502  501 -0.16052405207E+02  0.34332272098E+02 -0.46566319002E+02  0.60040042353E+02  0.00000000000E+00 0. -1.
<scales pt_clust_5="13000.00000" pt_clust_6="13000.00000" pt_clust_7="13000.00000" pt_clust_8="13000.00000" pt_clust_9="37.89967"></scales>
<clustering>
<clus scale="   37.900">  1  9  2 -1</clus>
<clus scale="   79.837">  5  6 -1 -1</clus>
<clus scale="   89.803">  7  8 -1 -1</clus>
<clus scale="  106.508">  2  5  1 -1</clus>
<clus scale="  106.508">  2  5  1 -1</clus>
</clustering>
</event>
<event>
 9    2  0.3402837E-005  0.9996246E+02  0.7546771E-02  0.1287474E+00
         -1   -1    0    0    0  501 -0.00000000000E+00  0.00000000000E+00  0.31387986279E+03  0.31387986279E+03  0.00000000000E+00 0.  1.
          2   -1    0    0  502    0  0.00000000000E+00 -0.00000000000E+00 -0.87068976865E+02  0.87068976865E+02  0.00000000000E+00 0. -1.
         24    2    1    2    0    0  0.22267755348E+02 -0.45226064261E+02  0.24871663761E+03  0.26569505870E+03  0.78693383338E+02 0.  0.
         23    2    1    2    0    0 -0.26836976022E+02  0.25159246167E+02 -0.40592332141E+02  0.10745552102E+03  0.92443175081E+02 0.  0.
        -11    1    3    3    0    0  0.38266788428E+02 -0.57463474242E+02  0.22029259381E+03  0.23085758565E+03  0.00000000000E+00 0.  1.
         12    1    3    3    0    0 -0.15999033080E+02  0.12237409981E+02  0.28424043801E+02  0.34837473051E+02  0.00000000000E+00 0. -1.
        -11    1    4    4    0    0  0.41620060473E+01  0.55415032566E+02 -0.16907242964E+02  0.58086168692E+02  0.00000000000E+00 0.  1.
         11    1    4    4    0    0 -0.30998982069E+02 -0.30255786399E+02 -0.23685089177E+02  0.49369352327E+02  0.00000000000E+00 0. -1.
         21    1    1    2  502  501  0.45692206739E+01  0.20066818093E+02  0.18686580462E+02  0.27798259933E+02  0.00000000000E+00 0.  1.
<scales pt_clust_5="13000.00000" pt_clust_6="13000.00000" pt_clust_7="13000.00000" pt_clust_8="13000.00000" pt_clust_9="20.58045"></scales>
<clustering>
<clus scale="   20.580">  1  9  2 -1</clus>
<clus scale="   78.693">  5  6 -1 -1</clus>
<clus scale="   87.404">  1  5  2 -1</clus>
<clus scale="   92.443">  7  8 -1 -1</clus>
<clus scale="   99.962">  2  5  1 -1</clus>
</clustering>
</event>
<event>
 9    2  0.3402837E-005  0.9885549E+02  0.7546771E-02  0.1284417E+00
          2   -1    0    0  502    0  0.00000000000E+00  0.00000000000E+00  0.42942185474E+02  0.42942185474E+02  0.00000000000E+00 0. -1.
         -1   -1    0    0    0  501 -0.00000000000E+00 -0.00000000000E+00 -0.70062659216E+03  0.70062659216E+03  0.00000000000E+00 0.  1.
         24    2    1    2    0    0  0.61243248483E+02  0.53851983054E+02 -0.46176637981E+03  0.47613911799E+03  0.82640780465E+02 0.  0.
         23    2    1    2    0    0 -0.17026222485E+02 -0.40784869752E+02 -0.39996367707E+02  0.10483366143E+03  0.86238560316E+02 0.  0.
        -13    1    3    3    0    0  0.55754739150E+02  0.70763336990E+02 -0.29557522283E+03  0.30899960056E+03  0.00000000000E+00 0.  1.
         14    1    3    3    0    0  0.54885093325E+01 -0.16911353936E+02 -0.16619115698E+03  0.16713951743E+03  0.00000000000E+00 0. -1.
        -13    1    4    4    0    0 -0.49954723886E+02 -0.90773325343E+01 -0.16178186596E+02  0.53287954792E+02  0.00000000000E+00 0. -1.
         13    1    4    4    0    0  0.32928501401E+02 -0.31707537218E+02 -0.23818181112E+02  0.51545706634E+02  0.00000000000E+00 0.  1.
         21    1    1    2  502  501 -0.44217025998E+02 -0.13067113302E+02 -0.15592165917E+03  0.16259599821E+03  0.00000000000E+00 0. -1.
<scales pt_clust_5="13000.00000" pt_clust_6="13000.00000" pt_clust_7="13000.00000" pt_clust_8="13000.00000" pt_clust_9="46.10743"></scales>
<clustering>
<clus scale="   46.107">  2  9  1 -1</clus>
<clus scale="   82.641">  5  6 -1 -1</clus>
<clus scale="   86.239">  7  8 -1 -1</clus>
<clus scale="   95.733">  2  5  1 -1</clus>
<clus scale="   98.855">  1  5  2 -1</clus>
</clustering>
</event>
<event>
 9    2  0.3402837E-005  0.1043583E+03  0.7546771E-02  0.1274527E+00
         -1   -1    0    0    0  501 -0.00000000000E+00  0.00000000000E+00  0.12977379338E+03  0.12977379338E+03  0.00000000000E+00 0.  1.
          2   -1    0    0  502    0  0.00000000000E+00 -0.00000000000E+00 -0.12927714057E+03  0.12927714057E+03  0.00000000000E+00 0. -1.
         23    2    1    2    0    0 -0.53888404563E+02  0.28643884185E+02 -0.41851591578E+01  0.10776444806E+03  0.88719943991E+02 0.  0.
         24    2    1    2    0    0  0.54874927339E+02  0.80806229699E+01 -0.27659995115E+02  0.10234105567E+03  0.81437474350E+02 0.  0.
        -13    1    4    4    0    0  0.51494110501E+02 -0.12693463068E+02 -0.49116027057E+02  0.72285209655E+02  0.00000000000E+00 0.  1.
         14    1    4    4    0    0  0.33808168383E+01  0.20774086038E+02  0.21456031942E+02  0.30055846019E+02  0.00000000000E+00 0. -1.
        -11    1    3    3    0    0 -0.56534783001E+01 -0.29618738705E+02 -0.10337918545E+02  0.31876387173E+02  0.00000000000E+00 0.  1.
         11    1    3    3    0    0 -0.48234926263E+02  0.58262622890E+02  0.61527593871E+01  0.75888060890E+02  0.00000000000E+00 0. -1.
         21    1    1    2  502  501 -0.98652277619E+00 -0.36724507155E+02  0.32341807085E+02  0.48945430210E+02  0.00000000000E+00 0. -1.
<scales pt_clust_5="13000.00000" pt_clust_6="13000.00000" pt_clust_7="13000.00000" pt_clust_8="13000.00000" pt_clust_9="36.73776"></scales>
<clustering>
<clus scale="   36.738">  1  9  2 -1</clus>
<clus scale="   81.437">  5  6 -1 -1</clus>
<clus scale="   88.720">  7  8 -1 -1</clus>
<clus scale="   98.242">  2  5  1 -1</clus>
<clus scale="   98.242">  2  5  1 -1</clus>
</clustering>
</event>
<event>
 9    2  0.3402837E-005  0.1351662E+03  0.7546771E-02  0.1221391E+00
          2   -1    0    0  502    0  0.00000000000E+00  0.00000000000E+00  0.60641416251E+03  0.60641416251E+03  0.00000000000E+00 0. -1.
         -1   -1    0    0    0  501 -0.00000000000E+00 -0.00000000000E+00 -0.82628327224E+02  0.82628327224E+02  0.00000000000E+00 0.  1.
         23    2    1    2    0    0  0.78552589013E+02  0.18403984015E+02 -0.54162043371E+01  0.12204033296E+03  0.91407284892E+02 0.  0.
         24    2    1    2    0    0 -0.98179234365E+02 -0.27756135317E+02  0.52875906451E+03  0.54525671659E+03  0.85493704900E+02 0.  0.
        -13    1    4    4    0    0 -0.86444604440E+02  0.49460463473E+01  0.25494720664E+03  0.26924934760E+03  0.00000000000E+00 0.  1.
         14    1    4    4    0    0 -0.11734629925E+02 -0.32702181664E+02  0.27381185787E+03  0.27600736899E+03  0.00000000000E+00 0. -1.
        -13    1    3    3    0    0  0.40585390441E+02  0.21489927827E+02  0.41299479817E+02  0.61762755350E+02  0.00000000000E+00 0. -1.
         13    1    3    3    0    0  0.37967198572E+02 -0.30859438122E+01 -0.46715684154E+02  0.60277577610E+02  0.00000000000E+00 0.  1.
         21    1    1    2  502  501  0.19626645352E+02  0.93521513019E+01  0.44297511217E+00  0.21745440182E+02  0.00000000000E+00 0. -1.
<scales pt_clust_5="13000.00000" pt_clust_6="13000.00000" pt_clust_7="13000.00000" pt_clust_8="13000.00000" pt_clust_9="21.74093"></scales>
<clustering>
<clus scale="   21.741">  2  9  1 -1</clus>
<clus scale="   85.494">  5  6 -1 -1</clus>
<clus scale="   91.407">  7  8 -1 -1</clus>
<clus scale="  131.239">  1  5  2 -1</clus>
<clus scale="  131.239">  1  5  2 -1</clus>
</clustering>
</event>
<event>
 9    2  0.3402837E-005  0.3347572E+03  0.7546771E-02  0.1099042E+00
          2   -1    0    0  502    0  0.00000000000E+00  0.00000000000E+00  0.19400082778E+03  0.19400082778E+03  0.00000000000E+00 0. -1.
         -1   -1    0    0    0  501 -0.00000000000E+00 -0.00000000000E+00 -0.11734501317E+04  0.11734501317E+04  0.00000000000E+00 0.  1.
         23    2    1    2    0    0  0.25379638706E+03  0.10115281985E+03 -0.36564954167E+03  0.46389763279E+03  0.82806565795E+02 0.  0.
         24    2    1    2    0    0  0.11746053745E+03 -0.18305437538E+02  0.32510217475E+02  0.15361200723E+03  0.91693334677E+02 0.  0.
        -13    1    4    4    0    0  0.12962903555E+03 -0.12296461994E+02  0.42265096357E+02  0.13689860557E+03  0.00000000000E+00 0.  1.
         14    1    4    4    0    0 -0.12168498104E+02 -0.60089755441E+01 -0.97548788822E+01  0.16713401665E+02  0.00000000000E+00 0. -1.
        -13    1    3    3    0    0  0.22349778831E+03  0.69885387847E+02 -0.26155508653E+03  0.35106451274E+03  0.00000000000E+00 0. -1.
         13    1    3    3    0    0  0.30298598749E+02  0.31267432001E+02 -0.10409445514E+03  0.11283312005E+03  0.00000000000E+00 0.  1.
         21    1    1    2  502  501 -0.37125692451E+03 -0.82847382309E+02 -0.64630997978E+03  0.74994131951E+03  0.00000000000E+00 0. -1.
<scales pt_clust_5="13000.00000" pt_clust_6="13000.00000" pt_clust_7="13000.00000" pt_clust_8="13000.00000" pt_clust_9="324.35392"></scales>
<clustering>
<clus scale="   82.807">  7  8 -1 -1</clus>
<clus scale="   91.693">  5  6 -1 -1</clus>
<clus scale="  150.132">  1  5  2 -1</clus>
<clus scale="  324.354">  1  9  2 -1</clus>
<clus scale="  150.132">  1  5  2 -1</clus>
</clustering>
</event>
<event>
 9    2  0.3402837E-005  0.1548546E+03  0.7546771E-02  0.1207710E+00
         -1   -1    0    0    0  501 -0.00000000000E+00  0.00000000000E+00  0.46901382808E+03  0.46901382808E+03  0.00000000000E+00 0.  1.
          2   -1    0    0  502    0  0.00000000000E+00 -0.00000000000E+00 -0.82122478529E+03  0.82122478529E+03  0.00000000000E+00 0. -1.
         24    2    1    2    0    0  0.83638766034E+02 -0.10340270944E+02  0.38933122932E+03  0.40642418370E+03  0.80619145278E+02 0.  0.
         23    2    1    2    0    0 -0.46552709614E+02  0.12093120800E+03 -0.75031107093E+03  0.76684167953E+03  0.91038159404E+02 0.  0.
        -13    1    3    3    0    0  0.56618100202E+01 -0.31366924512E+02  0.16370742520E+03  0.16678147712E+03  0.00000000000E+00 0.  1.
         14    1    3    3    0    0  0.77976956014E+02  0.21026653568E+02  0.22562380413E+03  0.23964270658E+03  0.00000000000E+00 0. -1.
        -13    1    4    4    0    0 -0.63443939215E+02  0.50776133065E+02 -0.49094300350E+03  0.49762273039E+03  0.00000000000E+00 0. -1.
         13    1    4    4    0    0  0.16891229601E+02  0.70155074937E+02 -0.25936806743E+03  0.26921894915E+03  0.00000000000E+00 0.  1.
         21    1    1    2  502  501 -0.37086056420E+02 -0.11059093706E+03  0.87688843977E+01  0.11697275013E+03  0.00000000000E+00 0.  1.
<scales pt_clust_5="13000.00000" pt_clust_6="13000.00000" pt_clust_7="13000.00000" pt_clust_8="13000.00000" pt_clust_9="125.26777"></scales>
<clustering>
<clus scale="   80.619">  5  6 -1 -1</clus>
<clus scale="   91.038">  7  8 -1 -1</clus>
<clus scale="  116.627">  1  5  2 -1</clus>
<clus scale="  125.268">  1  9  2 -1</clus>
<clus scale="  154.855">  2  5  1 -1</clus>
</clustering>
</event>
<event>
 9    2  0.3402837E-005  0.2129101E+03  0.7546771E-02  0.1140092E+00
          2   -1    0    0  502    0  0.00000000000E+00  0.00000000000E+00  0.43324568840E+03  0.43324568840E+03  0.00000000000E+00 0. -1.
         -1   -1    0    0    0  501 -0.00000000000E+00 -0.00000000000E+00 -0.20234696075E+03  0.20234696075E+03  0.00000000000E+00 0.  1.
         24    2    1    2    0    0  0.33897611941E+02  0.18744448292E+03  0.12023943651E+02  0.20726482218E+03  0.80806243691E+02 0.  0.
         23    2    1    2    0    0 -0.58161437601E+02 -0.18472194216E+03  0.28584550276E+03  0.35704513177E+03  0.90931985219E+02 0.  0.
        -11    1    3    3    0    0 -0.68486648659E+01  0.14392787403E+03  0.25027308595E+02  0.14624808822E+03  0.00000000000E+00 0.  1.
         12    1    3    3    0    0  0.40746276807E+02  0.43516608894E+02 -0.13003364945E+02  0.61016733960E+02  0.00000000000E+00 0. -1.
        -13    1    4    4    0    0  0.10797742100E+02 -0.73859438133E+02  0.15585422197E+03  0.17280725200E+03  0.00000000000E+00 0.  1.
         13    1    4    4    0    0 -0.68959179701E+02 -0.11086250403E+03  0.12999128079E+03  0.18423787978E+03  0.00000000000E+00 0. -1.
         21    1    1    2  502  501  0.24263825660E+02 -0.27225407645E+01 -0.66970718756E+02  0.71282695198E+02  0.00000000000E+00 0.  1.
<scales pt_clust_5="13000.00000" pt_clust_6="13000.00000" pt_clust_7="13000.00000" pt_clust_8="13000.00000" pt_clust_9="24.41609"></scales>
<clustering>
<clus scale="   24.416">  2  9  1 -1</clus>
<clus scale="   80.806">  5  6 -1 -1</clus>
<clus scale="   90.932">  7  8 -1 -1</clus>
<clus scale="  208.786">  2  5  1 -1</clus>
<clus scale="  212.910">  1  5  2 -1</clus>
</clustering>
</event>
<event>
 9    2  0.5212527E-005  0.1037033E+03  0.7546771E-02  0.1279216E+00
         -1   -1    0    0    0  501 -0.00000000000E+00  0.00000000000E+00  0.26656354379E+03  0.26656354379E+03  0.00000000000E+00 0.  1.
          2   -1    0    0  502    0  0.00000000000E+00 -0.00000000000E+00 -0.21243182679E+03  0.21243182679E+03  0.00000000000E+00 0. -1.
         24    2    1    2    0    0  0.67314013166E+02 -0.66532951798E+01  0.21783970896E+03  0.24113989410E+03  0.78223187256E+02 0.  0.
         23    2    1    2    0    0 -0.46318042600E+02 -0.20587416136E+01 -0.18164216425E+03  0.20890094486E+03  0.92174451143E+02 0.  0.
        -11    1    3    3    0    0  0.72166420198E+02  0.19764079136E+02  0.13913613608E+03  0.15797935116E+03  0.00000000000E+00 0.  1.
         12    1    3    3    0    0 -0.48524070323E+01 -0.26417374316E+02  0.78703572877E+02  0.83160542947E+02  0.00000000000E+00 0. -1.
        -11    1    4    4    0    0 -0.30872843822E+02  0.31551796080E+02 -0.31399106371E+02  0.54171507293E+02  0.00000000000E+00 0.  1.
         11    1    4    4    0    0 -0.15445198778E+02 -0.33610537694E+02 -0.15024305788E+03  0.15472943757E+03  0.00000000000E+00 0. -1.
         21    1    1    2  502  501 -0.20995970566E+02  0.87120367934E+01  0.17934172292E+02  0.28954531613E+02  0.00000000000E+00 0.  1.
<scales pt_clust_5="13000.00000" pt_clust_6="13000.00000" pt_clust_7="13000.00000" pt_clust_8="13000.00000" pt_clust_9="22.73170"></scales>
<clustering>
<clus scale="   22.732">  1  9  2 -1</clus>
<clus scale="   78.223">  5  6 -1 -1</clus>
<clus scale="   91.527">  1  5  2 -1</clus>
<clus scale="   92.174">  7  8 -1 -1</clus>
<clus scale="  103.703">  2  5  1 -1</clus>
</clustering>
</event>
<event>
 9    2  0.3402837E-005  0.1364454E+03  0.7546771E-02  0.1221524E+00
          2   -1    0    0  502    0  0.00000000000E+00  0.00000000000E+00  0.87401316611E+03  0.87401316611E+03  0.00000000000E+00 0. -1.
         -1   -1    0    0    0  501 -0.00000000000E+00 -0.00000000000E+00 -0.14400139649E+03  0.14400139649E+03  0.00000000000E+00 0.  1.
         23    2    1    2    0    0  0.32009326015E+02 -0.83614036114E+02 -0.25842510767E+02  0.12982496379E+03  0.90392377293E+02 0.  0.
         24    2    1    2    0    0  0.10689383949E+03 -0.35474229437E+01  0.70347518265E+03  0.71604204812E+03  0.80000030850E+02 0.  0.
        -13    1    4    4    0    0  0.13674711463E+02 -0.28742942732E+02  0.10158601572E+03  0.10645596780E+03  0.00000000000E+00 0.  1.
         14    1    4    4    0    0  0.93219128022E+02  0.25195519788E+02  0.60188916693E+03  0.60958608032E+03  0.00000000000E+00 0. -1.
        -13    1    3    3    0    0  0.27942726461E+01 -0.91575370016E+02 -0.26036311130E+01  0.91654979397E+02  0.00000000000E+00 0. -1.
         13    1    3    3    0    0  0.29215053369E+02  0.79613339028E+01 -0.23238879654E+02  0.38169984391E+02  0.00000000000E+00 0.  1.
         21    1    1    2  502  501 -0.13890316550E+03  0.87161459057E+02  0.52379097732E+02  0.17214755070E+03  0.00000000000E+00 0.  1.
<scales pt_clust_5="13000.00000" pt_clust_6="13000.00000" pt_clust_7="13000.00000" pt_clust_8="13000.00000" pt_clust_9="110.53209"></scales>
<clustering>
<clus scale="   80.000">  5  6 -1 -1</clus>
<clus scale="   90.392">  7  8 -1 -1</clus>
<clus scale="  127.227">  2  7  1 -1</clus>
<clus scale="  110.532">  2  9  1 -1</clus>
<clus scale="  136.445">  1  5  2 -1</clus>
</clustering>
</event>
<event>
 9    2  0.3402837E-005  0.2266318E+03  0.7546771E-02  0.1139767E+00
         -1   -1    0    0    0  501 -0.00000000000E+00  0.00000000000E+00  0.65890855953E+02  0.65890855953E+02  0.00000000000E+00 0.  1.
          2   -1    0    0  502    0  0.00000000000E+00 -0.00000000000E+00 -0.18522461397E+04  0.18522461397E+04  0.00000000000E+00 0. -1.
         23    2    1    2    0    0 -0.79036149833E+02  0.12728584914E+03 -0.20983678929E+03  0.27289925834E+03  0.89409880292E+02 0.  0.
         24    2    1    2    0    0  0.23096920886E+03  0.22445068675E+02 -0.10214221713E+04  0.10505656174E+04  0.80835066415E+02 0.  0.
        -13    1    4    4    0    0  0.55616938777E+02  0.41320522997E+02 -0.30041704683E+03  0.30830347310E+03  0.00000000000E+00 0.  1.
         14    1    4    4    0    0  0.17535227008E+03 -0.18875454322E+02 -0.72100512442E+03  0.74226214428E+03  0.00000000000E+00 0. -1.
        -13    1    3    3    0    0 -0.87720815418E+02  0.88101539239E+02 -0.19255047778E+03  0.22919971459E+03  0.00000000000E+00 0.  1.
         13    1    3    3    0    0  0.86846655852E+01  0.39184309901E+02 -0.17286311504E+02  0.43699543753E+02  0.00000000000E+00 0. -1.
         21    1    1    2  502  501 -0.15193305902E+03 -0.14973091781E+03 -0.55509632318E+03  0.59467211990E+03  0.00000000000E+00 0.  1.
<scales pt_clust_5="13000.00000" pt_clust_6="13000.00000" pt_clust_7="13000.00000" pt_clust_8="13000.00000" pt_clust_9="211.72540"></scales>
<clustering>
<clus scale="   80.835">  5  6 -1 -1</clus>
<clus scale="   89.410">  7  8 -1 -1</clus>
<clus scale="  174.478">  1  7  2 -1</clus>
<clus scale="  211.725">  1  9  2 -1</clus>
<clus scale="  226.632">  2  5  1 -1</clus>
</clustering>
</event>
<event>
 9    2  0.3402837E-005  0.1082394E+03  0.7546771E-02  0.1268710E+00
         -1   -1    0    0    0  501 -0.00000000000E+00  0.00000000000E+00  0.48324700595E+03  0.48324700595E+03  0.00000000000E+00 0.  1.
          2   -1    0    0  502    0  0.00000000000E+00 -0.00000000000E+00 -0.56081502651E+02  0.56081502651E+02  0.00000000000E+00 0. -1.
         24    2    1    2    0    0 -0.20869895812E+02  0.28603041096E+01  0.14125350890E+03  0.16302351102E+03  0.78615376850E+02 0.  0.
         23    2    1    2    0    0  0.68027232062E+02  0.60676153497E+02  0.69880252059E+02  0.14623889946E+03  0.90516662455E+02 0.  0.
        -11    1    3    3    0    0  0.91983713427E+01  0.25345953649E+02  0.11262610891E+03  0.11580875533E+03  0.00000000000E+00 0.  1.
         12    1    3    3    0    0 -0.30068267155E+02 -0.22485649540E+02  0.28627399990E+02  0.47214755693E+02  0.00000000000E+00 0. -1.
        -11    1    4    4    0    0  0.16643771696E+02 -0.22083648790E+02  0.24448052779E+01  0.27761119448E+02  0.00000000000E+00 0.  1.
         11    1    4    4    0    0  0.51383460366E+02  0.82759802287E+02  0.67435446781E+02  0.11847778001E+03  0.00000000000E+00 0. -1.
         21    1    1    2  502  501 -0.47157336250E+02 -0.63536457607E+02  0.21603174234E+03  0.23006609812E+03  0.00000000000E+00 0.  1.
<scales pt_clust_5="13000.00000" pt_clust_6="13000.00000" pt_clust_7="13000.00000" pt_clust_8="13000.00000" pt_clust_9="79.12456"></scales>
<clustering>
<clus scale="   78.615">  5  6 -1 -1</clus>
<clus scale="   79.125">  1  9  2 -1</clus>
<clus scale="   90.517">  7  8 -1 -1</clus>
<clus scale="   98.503">  1  5  2 -1</clus>
<clus scale="  108.239">  2  5  1 -1</clus>
</clustering>
</event>
<event>
 9    2  0.3402837E-005  0.2344418E+03  0.7546771E-02  0.1124334E+00
         -1   -1    0    0    0  501 -0.00000000000E+00  0.00000000000E+00  0.95165364500E+03  0.95165364500E+03  0.00000000000E+00 0.  1.
          2   -1    0    0  502    0  0.00000000000E+00 -0.00000000000E+00 -0.11042339769E+03  0.11042339769E+03  0.00000000000E+00 0. -1.
         23    2    1    2    0    0 -0.32034320330E+02  0.21946463465E+03  0.74130772988E+03  0.77909139150E+03  0.90858804609E+02 0.  0.
         24    2    1    2    0    0  0.60600503204E+02 -0.18395488294E+03  0.48998507301E+02  0.21464661346E+03  0.78488820889E+02 0.  0.
        -13    1    4    4    0    0  0.26067160872E+02 -0.19806226488E+02  0.32441797140E+02  0.46089626656E+02  0.00000000000E+00 0.  1.
         14    1    4    4    0    0  0.34533342332E+02 -0.16414865646E+03  0.16556710161E+02  0.16855698680E+03  0.00000000000E+00 0. -1.
        -13    1    3    3    0    0  0.17075633035E+02  0.15396604352E+03  0.53983154750E+03  0.56161839311E+03  0.00000000000E+00 0. -1.
         13    1    3    3    0    0 -0.49109953365E+02  0.65498591135E+02  0.20147618238E+03  0.21747299839E+03  0.00000000000E+00 0.  1.
         21    1    1    2  502  501 -0.28566182874E+02 -0.35509751708E+02  0.50924010128E+02  0.68339037730E+02  0.00000000000E+00 0. -1.
<scales pt_clust_5="13000.00000" pt_clust_6="13000.00000" pt_clust_7="13000.00000" pt_clust_8="13000.00000" pt_clust_9="45.57378"></scales>
<clustering>
<clus scale="   45.574">  2  9  1 -1</clus>
<clus scale="   78.489">  5  6 -1 -1</clus>
<clus scale="   90.859">  7  8 -1 -1</clus>
<clus scale="  229.931">  2  5  1 -1</clus>
<clus scale="   45.574">  2  5  1 -1</clus>
</clustering>
</event>
<event>
 9    2  0.3402837E-005  0.1130411E+03  0.7546771E-02  0.1258345E+00
          2   -1    0    0  502    0  0.00000000000E+00  0.00000000000E+00  0.99414150097E+02  0.99414150097E+02  0.00000000000E+00 0. -1.
         -1   -1    0    0    0  501 -0.00000000000E+00 -0.00000000000E+00 -0.42931861047E+03  0.42931861047E+03  0.00000000000E+00 0.  1.
         23    2    1    2    0    0  0.36137775601E+02 -0.53166305923E+02 -0.29110752198E+03  0.31174086645E+03  0.91138266102E+02 0.  0.
         24    2    1    2    0    0 -0.53339025687E+02  0.41294665200E+02  0.55863566547E+02  0.12005155137E+03  0.82105638557E+02 0.  0.
        -11    1    4    4    0    0  0.18410278130E+02  0.11499989386E+02  0.32208567915E+02  0.38840442117E+02  0.00000000000E+00 0.  1.
         12    1    4    4    0    0 -0.71749303818E+02  0.29794675813E+02  0.23654998632E+02  0.81211109249E+02  0.00000000000E+00 0. -1.
        -13    1    3    3    0    0  0.37566515374E+02  0.24478480197E+01 -0.41594931869E+02  0.56101456260E+02  0.00000000000E+00 0. -1.
         13    1    3    3    0    0 -0.14287397730E+01 -0.55614153943E+02 -0.24951259012E+03  0.25563941019E+03  0.00000000000E+00 0.  1.
         21    1    1    2  502  501  0.17201250086E+02  0.11871640724E+02 -0.94660504934E+02  0.96940342749E+02  0.00000000000E+00 0.  1.
<scales pt_clust_5="13000.00000" pt_clust_6="13000.00000" pt_clust_7="13000.00000" pt_clust_8="13000.00000" pt_clust_9="20.90021"></scales>
<clustering>
<clus scale="   20.900">  2  9  1 -1</clus>
<clus scale="   82.106">  5  6 -1 -1</clus>
<clus scale="   91.138">  7  8 -1 -1</clus>
<clus scale="  105.894">  1  5  2 -1</clus>
<clus scale="  105.894">  1  5  2 -1</clus>
</clustering>
</event>
<event>
 9    2  0.3402837E-005  0.1211450E+03  0.7546771E-02  0.1247876E+00
         -1   -1    0    0    0  501 -0.00000000000E+00  0.00000000000E+00  0.22809113926E+03  0.22809113926E+03  0.00000000000E+00 0.  1.
          2   -1    0    0  502    0  0.00000000000E+00 -0.00000000000E+00 -0.41402210959E+03  0.41402210959E+03  0.00000000000E+00 0. -1.
         23    2    1    2    0    0  0.46343191616E+02  0.13571785594E+03  0.13780827998E+03  0.22233306280E+03  0.99367202616E+02 0.  0.
         24    2    1    2    0    0 -0.52575258741E+02 -0.41145697023E+02 -0.30609465322E+03  0.32337446159E+03  0.80124774352E+02 0.  0.
        -11    1    4    4    0    0  0.19437959913E+02 -0.22770484096E+02 -0.91675471344E+02  0.96440247188E+02  0.00000000000E+00 0.  1.
         12    1    4    4    0    0 -0.72013218653E+02 -0.18375212928E+02 -0.21441918187E+03  0.22693421440E+03  0.00000000000E+00 0. -1.
        -11    1    3    3    0    0  0.72859156332E+02  0.99658212922E+02  0.12521020509E+03  0.17583461412E+03  0.00000000000E+00 0.  1.
         11    1    3    3    0    0 -0.26515964715E+02  0.36059643016E+02  0.12598074891E+02  0.46498448686E+02  0.00000000000E+00 0. -1.
         21    1    1    2  502  501  0.62320671242E+01 -0.94572158915E+02 -0.17644597089E+02  0.96405724462E+02  0.00000000000E+00 0. -1.
<scales pt_clust_5="13000.00000" pt_clust_6="13000.00000" pt_clust_7="13000.00000" pt_clust_8="13000.00000" pt_clust_9="94.77728"></scales>
<clustering>
<clus scale="   80.125">  5  6 -1 -1</clus>
<clus scale="   94.777">  1  9  2 -1</clus>
<clus scale="   99.367">  7  8 -1 -1</clus>
<clus scale="  105.935">  2  5  1 -1</clus>
<clus scale="  105.935">  2  5  1 -1</clus>
</clustering>
</event>
<event>
 9    2  0.3402837E-005  0.1713585E+03  0.7546771E-02  0.1177723E+00
         -1   -1    0    0    0  501 -0.00000000000E+00  0.00000000000E+00  0.54256293475E+02  0.54256293475E+02  0.00000000000E+00 0.  1.
          2   -1    0    0  502    0  0.00000000000E+00 -0.00000000000E+00 -0.10067072237E+04  0.10067072237E+04  0.00000000000E+00 0. -1.
         23    2    1    2    0    0 -0.12843100177E+03  0.13918649985E+03 -0.46206410459E+03  0.50712203100E+03  0.88329573869E+02 0.  0.
         24    2    1    2    0    0  0.66629890029E+02 -0.10619040380E+03 -0.44843720604E+03  0.47218433492E+03  0.78397539997E+02 0.  0.
        -11    1    4    4    0    0 -0.15480873566E+02 -0.35341392449E+02 -0.96928114036E+02  0.10432512045E+03  0.00000000000E+00 0.  1.
         12    1    4    4    0    0  0.82110763595E+02 -0.70849011354E+02 -0.35150909200E+03  0.36785921447E+03  0.00000000000E+00 0. -1.
        -11    1    3    3    0    0 -0.14127480896E+03  0.11847456690E+03 -0.41529967996E+03  0.45438818076E+03  0.00000000000E+00 0.  1.
         11    1    3    3    0    0  0.12843807182E+02  0.20711932947E+02 -0.46764424633E+02  0.52733850234E+02  0.00000000000E+00 0. -1.
         21    1    1    2  502  501  0.61801111744E+02 -0.32996096042E+02 -0.41949619597E+02  0.81657151256E+02  0.00000000000E+00 0. -1.
<scales pt_clust_5="13000.00000" pt_clust_6="13000.00000" pt_clust_7="13000.00000" pt_clust_8="13000.00000" pt_clust_9="70.05797"></scales>
<clustering>
<clus scale="   70.058">  1  9  2 -1</clus>
<clus scale="   78.398">  5  6 -1 -1</clus>
<clus scale="   88.330">  7  8 -1 -1</clus>
<clus scale="  166.457">  2  5  1 -1</clus>
<clus scale="  166.457">  2  5  1 -1</clus>
</clustering>
</event>
<event>
 9    2  0.3402837E-005  0.9921202E+02  0.7546771E-02  0.1288914E+00
          2   -1    0    0  502    0  0.00000000000E+00  0.00000000000E+00  0.51624994216E+03  0.51624994216E+03  0.00000000000E+00 0. -1.
         -1   -1    0    0    0  501 -0.00000000000E+00 -0.00000000000E+00 -0.14886140254E+03  0.14886140254E+03  0.00000000000E+00 0.  1.
         23    2    1    2    0    0  0.24071475463E+02 -0.64969113066E+01 -0.19387828696E+02  0.97720604273E+02  0.92475849877E+02 0.  0.
         24    2    1    2    0    0  0.25224767614E+02 -0.31010343219E+02  0.46171287363E+03  0.47016731963E+03  0.79250239617E+02 0.  0.
        -13    1    4    4    0    0  0.24380806809E+02  0.23439051899E+02  0.15361344648E+03  0.15729241505E+03  0.00000000000E+00 0.  1.
         14    1    4    4    0    0  0.84396080481E+00 -0.54449395118E+02  0.30809942716E+03  0.31287490457E+03  0.00000000000E+00 0. -1.
        -11    1    3    3    0    0 -0.21026807759E+01 -0.24656308429E+02  0.30037709904E+02  0.38918104117E+02  0.00000000000E+00 0. -1.
         11    1    3    3    0    0  0.26174156239E+02  0.18159397122E+02 -0.49425538600E+02  0.58802500156E+02  0.00000000000E+00 0.  1.
         21    1    1    2  502  501 -0.49296243077E+02  0.37507254526E+02 -0.74936505317E+02  0.97223420804E+02  0.00000000000E+00 0.  1.
<scales pt_clust_5="13000.00000" pt_clust_6="13000.00000" pt_clust_7="13000.00000" pt_clust_8="13000.00000" pt_clust_9="61.94283"></scales>
<clustering>
<clus scale="   61.943">  2  9  1 -1</clus>
<clus scale="   79.250">  5  6 -1 -1</clus>
<clus scale="   87.016">  1  5  2 -1</clus>
<clus scale="   92.476">  7  8 -1 -1</clus>
<clus scale="   87.016">  1  5  2 -1</clus>
</clustering>
</event>
<event>
 9    2  0.3402837E-005  0.2263455E+03  0.7546771E-02  0.1157589E+00
         -1   -1    0    0    0  501 -0.00000000000E+00  0.00000000000E+00  0.23986121048E+03  0.23986121048E+03  0.00000000000E+00 0.  1.
          2   -1    0    0  502    0  0.00000000000E+00 -0.00000000000E+00 -0.47147712058E+03  0.47147712058E+03  0.00000000000E+00 0. -1.
         24    2    1    2    0    0 -0.54697923353E+02 -0.63384503456E+02  0.10408601179E+02  0.11516730539E+03  0.78394586265E+02 0.  0.
         23    2    1    2    0    0 -0.18965502869E+03  0.62863038339E+02 -0.27262787833E+03  0.34990855761E+03  0.90494459202E+02 0.  0.
        -11    1    3    3    0    0  0.19316263968E+02 -0.12355363577E+02  0.10612926416E+02  0.25266722579E+02  0.00000000000E+00 0.  1.
         12    1    3    3    0    0 -0.74014187320E+02 -0.51029139879E+02 -0.20432523731E+00  0.89900582814E+02  0.00000000000E+00 0. -1.
        -13    1    4    4    0    0 -0.12628870988E+03  0.73331778720E+02 -0.23127277822E+03  0.27352054028E+03  0.00000000000E+00 0. -1.
         13    1    4    4    0    0 -0.63366318812E+02 -0.10468740382E+02 -0.41355100112E+02  0.76388017321E+02  0.00000000000E+00 0.  1.
         21    1    1    2  502  501  0.24435295205E+03  0.52146511735E+00  0.30603367052E+02  0.24626246806E+03  0.00000000000E+00 0.  1.
<scales pt_clust_5="13000.00000" pt_clust_6="13000.00000" pt_clust_7="13000.00000" pt_clust_8="13000.00000" pt_clust_9="207.46814"></scales>
<clustering>
<clus scale="   78.395">  5  6 -1 -1</clus>
<clus scale="   90.494">  7  8 -1 -1</clus>
<clus scale="  114.696">  1  5  2 -1</clus>
<clus scale="  207.468">  1  9  2 -1</clus>
<clus scale="  226.345">  2  5  1 -1</clus>
</clustering>
</event>
<event>
 9    2  0.3402837E-005  0.1025774E+03  0.7546771E-02  0.1281581E+00
         -1   -1    0    0    0  501 -0.00000000000E+00  0.00000000000E+00  0.11832517691E+03  0.11832517691E+03  0.00000000000E+00 0.  1.
          2   -1    0    0  502    0  0.00000000000E+00 -0.00000000000E+00 -0.14130854749E+03  0.14130854749E+03  0.00000000000E+00 0. -1.
         24    2    1    2    0    0 -0.31011593359E+02  0.23663212830E+02  0.57626336257E+02  0.10656298212E+03  0.80704448231E+02 0.  0.
         23    2    1    2    0    0  0.26638830430E+02 -0.43459989831E+02 -0.78380947567E+02  0.13267464454E+03  0.94130708907E+02 0.  0.
        -13    1    3    3    0    0  0.17765465045E+01  0.45664262292E+02  0.47256288202E+02  0.65738403866E+02  0.00000000000E+00 0.  1.
         14    1    3    3    0    0 -0.32788139863E+02 -0.22001049462E+02  0.10370048055E+02  0.40824578256E+02  0.00000000000E+00 0. -1.
        -11    1    4    4    0    0  0.52400997199E+02 -0.38262320649E+02 -0.83656450558E+02  0.10586912396E+03  0.00000000000E+00 0. -1.
         11    1    4    4    0    0 -0.25762166769E+02 -0.51976691823E+01  0.52755029904E+01  0.26805520576E+02  0.00000000000E+00 0.  1.
         21    1    1    2  502  501  0.43727629284E+01  0.19796777001E+02 -0.22287592646E+01  0.20396097743E+02  0.00000000000E+00 0.  1.
<scales pt_clust_5="13000.00000" pt_clust_6="13000.00000" pt_clust_7="13000.00000" pt_clust_8="13000.00000" pt_clust_9="20.27396"></scales>
<clustering>
<clus scale="   20.274">  2  9  1 -1</clus>
<clus scale="   80.704">  5  6 -1 -1</clus>
<clus scale="   90.414">  1  5  2 -1</clus>
<clus scale="   94.131">  7  8 -1 -1</clus>
<clus scale="   20.274">  2  5  1 -1</clus>
</clustering>
</event>
<event>
 9    2  0.3402837E-005  0.1264307E+03  0.7546771E-02  0.1240290E+00
         -1   -1    0    0    0  501 -0.00000000000E+00  0.00000000000E+00  0.28538770529E+03  0.28538770529E+03  0.00000000000E+00 0.  1.
          2   -1    0    0  502    0  0.00000000000E+00 -0.00000000000E+00 -0.64460314235E+02  0.64460314235E+02  0.00000000000E+00 0. -1.
         24    2    1    2    0    0  0.47266985303E+02 -0.41349929457E+02  0.80760644230E+02  0.12880415755E+03  0.78257554133E+02 0.  0.
         23    2    1    2    0    0 -0.80090202697E+02  0.46830058493E+02  0.11565326395E+03  0.17971220031E+03  0.10155443136E+03 0.  0.
        -13    1    3    3    0    0  0.80414079649E+00 -0.52074871485E+02  0.49016976272E+02  0.71519947186E+02  0.00000000000E+00 0.  1.
         14    1    3    3    0    0  0.46462844507E+02  0.10724942028E+02  0.31743667958E+02  0.57284210360E+02  0.00000000000E+00 0. -1.
        -13    1    4    4    0    0 -0.49572386135E+02  0.76386919926E+02  0.97793701949E+02  0.13362631157E+03  0.00000000000E+00 0.  1.
         13    1    4    4    0    0 -0.30517816562E+02 -0.29556861433E+02  0.17859562005E+02  0.46085888735E+02  0.00000000000E+00 0. -1.
         21    1    1    2  502  501  0.32823217394E+02 -0.54801290356E+01  0.24513482873E+02  0.41331661676E+02  0.00000000000E+00 0.  1.
<scales pt_clust_5="13000.00000" pt_clust_6="13000.00000" pt_clust_7="13000.00000" pt_clust_8="13000.00000" pt_clust_9="33.27755"></scales>
<clustering>
<clus scale="   33.278">  2  9  1 -1</clus>
<clus scale="   78.258">  5  6 -1 -1</clus>
<clus scale="  101.554">  7  8 -1 -1</clus>
<clus scale="  108.608">  1  5  2 -1</clus>
<clus scale="   33.278">  2  5  1 -1</clus>
</clustering>
</event>
<event>
 9    2  0.3402837E-005  0.1134853E+03  0.7546771E-02  0.1254801E+00
          2   -1    0    0  502    0  0.00000000000E+00  0.00000000000E+00  0.41865250934E+03  0.41865250934E+03  0.00000000000E+00 0. -1.
         -1   -1    0    0    0  501 -0.00000000000E+00 -0.00000000000E+00 -0.76154088638E+02  0.76154088638E+02  0.00000000000E+00 0.  1.
         24    2    1    2    0    0 -0.57847841163E+02 -0.29039507337E+02  0.19928864080E+02  0.11321805849E+03  0.90727633230E+02 0.  0.
         23    2    1    2    0    0  0.67787383442E+02 -0.93627328549E+01  0.32204689378E+03  0.34191739470E+03  0.92252441072E+02 0.  0.
        -13    1    3    3    0    0 -0.11921689226E+02  0.29525850129E+02  0.22102513361E+02  0.38761109333E+02  0.00000000000E+00 0.  1.
         14    1    3    3    0    0 -0.45926151937E+02 -0.58565357466E+02 -0.21736492811E+01  0.74456949159E+02  0.00000000000E+00 0. -1.
        -13    1    4    4    0    0  0.75834075948E+01 -0.44441245249E+02  0.13355967759E+03  0.14096354077E+03  0.00000000000E+00 0. -1.
         13    1    4    4    0    0  0.60203975848E+02  0.35078512394E+02  0.18848721619E+03  0.20095385393E+03  0.00000000000E+00 0.  1.
         21    1    1    2  502  501 -0.99395422790E+01  0.38402240192E+02  0.52266284310E+00  0.39671144789E+02  0.00000000000E+00 0.  1.
<scales pt_clust_5="13000.00000" pt_clust_6="13000.00000" pt_clust_7="13000.00000" pt_clust_8="13000.00000" pt_clust_9="39.66770"></scales>
<clustering>
<clus scale="   39.668">  2  9  1 -1</clus>
<clus scale="   90.728">  5  6 -1 -1</clus>
<clus scale="   92.252">  7  8 -1 -1</clus>
<clus scale="  112.249">  2  5  1 -1</clus>
<clus scale="  113.485">  1  5  2 -1</clus>
</clustering>
</event>
<event>
 9    2  0.3402837E-005  0.1023143E+03  0.7546771E-02  0.1280138E+00
         -3   -1    0    0    0  501 -0.00000000000E+00  0.00000000000E+00  0.61971067351E+02  0.61971067351E+02  0.00000000000E+00 0.  1.
          4   -1    0    0  502    0  0.00000000000E+00 -0.00000000000E+00 -0.23367389675E+03  0.23367389675E+03  0.00000000000E+00 0. -1.
         23    2    1    2    0    0 -0.54681736048E+02  0.23086047469E+02 -0.77179636027E+02  0.13173212935E+03  0.88733307390E+02 0.  0.
         24    2    1    2    0    0  0.21778844138E+02 -0.45488495190E+02 -0.73915253956E+02  0.11908921233E+03  0.78582787424E+02 0.  0.
        -13    1    4    4    0    0 -0.33814356297E+01 -0.52402677444E+02 -0.14933935687E+02  0.54593929565E+02  0.00000000000E+00 0.  1.
         14    1    4    4    0    0  0.25160279767E+02  0.69141822538E+01 -0.58981318269E+02  0.64495282765E+02  0.00000000000E+00 0. -1.
        -13    1    3    3    0    0 -0.38530546348E+02 -0.54016683998E+01 -0.88827390704E+02  0.96974668665E+02  0.00000000000E+00 0. -1.
         13    1    3    3    0    0 -0.16151189700E+02  0.28487715869E+02  0.11647754677E+02  0.34757460683E+02  0.00000000000E+00 0.  1.
         21    1    1    2  502  501  0.32902891910E+02  0.22402447721E+02 -0.20607939413E+02  0.44823622420E+02  0.00000000000E+00 0. -1.
<scales pt_clust_5="13000.00000" pt_clust_6="13000.00000" pt_clust_7="13000.00000" pt_clust_8="13000.00000" pt_clust_9="39.80540"></scales>
<clustering>
<clus scale="   39.805">  1  9  2 -1</clus>
<clus scale="   78.583">  5  6 -1 -1</clus>
<clus scale="   88.733">  7  8 -1 -1</clus>
<clus scale="   93.648">  2  5  1 -1</clus>
<clus scale="   93.648">  2  5  1 -1</clus>
</clustering>
</event>
<event>
 9    2  0.3402837E-005  0.3303832E+03  0.7546771E-02  0.1070967E+00
          2   -1    0    0  502    0  0.00000000000E+00  0.00000000000E+00  0.96380399990E+03  0.96380399990E+03  0.00000000000E+00 0. -1.
         -1   -1    0    0    0  501 -0.00000000000E+00 -0.00000000000E+00 -0.10849510942E+03  0.10849510942E+03  0.00000000000E+00 0.  1.
         24    2    1    2    0    0 -0.14965081201E+03  0.25553418074E+02  0.85910548227E+02  0.19106514045E+03  0.77954620689E+02 0.  0.
         23    2    1    2    0    0 -0.11196389930E+03 -0.44638794464E+02  0.16962589384E+03  0.22660926826E+03  0.89723351946E+02 0.  0.
        -11    1    3    3    0    0 -0.98220019463E+02 -0.10917489661E+02  0.21909934101E+02  0.10122454750E+03  0.00000000000E+00 0.  1.
         12    1    3    3    0    0 -0.51430792549E+02  0.36470907735E+02  0.64000614126E+02  0.89840592951E+02  0.00000000000E+00 0. -1.
        -13    1    4    4    0    0 -0.11973024854E+03 -0.16664454992E+02  0.13045867273E+03  0.17785528321E+03  0.00000000000E+00 0.  1.
         13    1    4    4    0    0  0.77663492359E+01 -0.27974339472E+02  0.39167221104E+02  0.48753985051E+02  0.00000000000E+00 0. -1.
         21    1    1    2  502  501  0.26161471131E+03  0.19085376390E+02  0.59977244841E+03  0.65462470061E+03  0.00000000000E+00 0. -1.
<scales pt_clust_5="13000.00000" pt_clust_6="13000.00000" pt_clust_7="13000.00000" pt_clust_8="13000.00000" pt_clust_9="262.30995"></scales>
<clustering>
<clus scale="   77.955">  5  6 -1 -1</clus>
<clus scale="   89.723">  7  8 -1 -1</clus>
<clus scale="  127.884">  5  7 -1 -1</clus>
<clus scale="  262.310">  1  9  2 -1</clus>
<clus scale="  262.310">  1  5  2 -1</clus>
</clustering>
</event>
<event>
 9    2  0.3402837E-005  0.9241452E+02  0.7546771E-02  0.1303534E+00
          2   -1    0    0  502    0  0.00000000000E+00  0.00000000000E+00  0.16834856962E+03  0.16834856962E+03  0.00000000000E+00 0. -1.
         -1   -1    0    0    0  501 -0.00000000000E+00 -0.00000000000E+00 -0.57399919483E+03  0.57399919483E+03  0.00000000000E+00 0.  1.
         24    2    1    2    0    0 -0.40046208090E+01  0.63579343623E+02 -0.19156293783E+03  0.21741031818E+03  0.80700169626E+02 0.  0.
         23    2    1    2    0    0 -0.86198710415E+01 -0.94518257834E+01  0.13942516845E+03  0.16708202124E+03  0.91177766133E+02 0.  0.
        -11    1    3    3    0    0  0.15141336353E+02  0.76705494020E+02 -0.16148007810E+03  0.17941239785E+03  0.00000000000E+00 0.  1.
         12    1    3    3    0    0 -0.19145957162E+02 -0.13126150397E+02 -0.30082859735E+02  0.37997920334E+02  0.00000000000E+00 0. -1.
        -11    1    4    4    0    0 -0.31341728854E+02  0.99470488027E+01  0.10170308400E+02  0.34419223123E+02  0.00000000000E+00 0.  1.
         11    1    4    4    0    0  0.22721857813E+02 -0.19398874586E+02  0.12925486005E+03  0.13266279812E+03  0.00000000000E+00 0. -1.
         21    1    1    2  502  501  0.12624491851E+02 -0.54127517840E+02 -0.35351285583E+03  0.35785542503E+03  0.00000000000E+00 0.  1.
<scales pt_clust_5="13000.00000" pt_clust_6="13000.00000" pt_clust_7="13000.00000" pt_clust_8="13000.00000" pt_clust_9="55.58027"></scales>
<clustering>
<clus scale="   55.580">  2  9  1 -1</clus>
<clus scale="   80.700">  5  6 -1 -1</clus>
<clus scale="   82.095">  2  5  1 -1</clus>
<clus scale="   91.178">  7  8 -1 -1</clus>
<clus scale="   92.415">  1  5  2 -1</clus>
</clustering>
</event>
<event>
 9    2  0.3402837E-005  0.9732401E+02  0.7546771E-02  0.1291599E+00
          2   -1    0    0  502    0  0.00000000000E+00  0.00000000000E+00  0.13003756906E+04  0.13003756906E+04  0.00000000000E+00 0. -1.
         -1   -1    0    0    0  501 -0.00000000000E+00 -0.00000000000E+00 -0.65026051848E+02  0.65026051848E+02  0.00000000000E+00 0.  1.
         23    2    1    2    0    0  0.42447664382E+01  0.70484604158E+01  0.96202860783E+02  0.13458620734E+03  0.93759041944E+02 0.  0.
         24    2    1    2    0    0 -0.27964846129E+02 -0.18233814504E+00  0.11798838524E+04  0.11831784168E+04  0.83685093198E+02 0.  0.
        -13    1    4    4    0    0  0.12493308079E+02  0.21814437452E+02  0.13758520062E+03  0.13986293239E+03  0.00000000000E+00 0.  1.
         14    1    4    4    0    0 -0.40458154208E+02 -0.21996775597E+02  0.10422986518E+04  0.10433154844E+04  0.00000000000E+00 0. -1.
        -13    1    3    3    0    0 -0.37632339519E+02  0.25666848515E+02  0.64076845672E+02  0.78618205536E+02  0.00000000000E+00 0. -1.
         13    1    3    3    0    0  0.41877105957E+02 -0.18618388099E+02  0.32126015111E+02  0.55968001802E+02  0.00000000000E+00 0.  1.
         21    1    1    2  502  501  0.23720079691E+02 -0.68661222707E+01 -0.40737074418E+02  0.47637118381E+02  0.00000000000E+00 0.  1.
<scales pt_clust_5="13000.00000" pt_clust_6="13000.00000" pt_clust_7="13000.00000" pt_clust_8="13000.00000" pt_clust_9="24.69384"></scales>
<clustering>
<clus scale="   24.694">  2  9  1 -1</clus>
<clus scale="   83.685">  5  6 -1 -1</clus>
<clus scale="   87.661">  1  5  2 -1</clus>
<clus scale="   93.759">  7  8 -1 -1</clus>
<clus scale="   87.661">  1  5  2 -1</clus>
</clustering>
</event>
<event>
 9    2  0.3402837E-005  0.1018411E+03  0.7546771E-02  0.1279673E+00
          2   -1    0    0  502    0  0.00000000000E+00  0.00000000000E+00  0.51499321026E+03  0.51499321026E+03  0.00000000000E+00 0. -1.
         -1   -1    0    0    0  501 -0.00000000000E+00 -0.00000000000E+00 -0.45274479328E+02  0.45274479328E+02  0.00000000000E+00 0.  1.
         24    2    1    2    0    0 -0.44523589582E+02  0.18910463549E+02  0.32970367868E+02  0.10025772250E+03  0.81391707828E+02 0.  0.
         23    2    1    2    0    0  0.44804340976E+02 -0.50948846997E+02  0.35954378742E+03  0.37642119191E+03  0.88419255050E+02 0.  0.
        -11    1    3    3    0    0 -0.68177870984E+02  0.86400119955E+01  0.21267204546E+02  0.71938625845E+02  0.00000000000E+00 0.  1.
         12    1    3    3    0    0  0.23654281402E+02  0.10270451553E+02  0.11703163321E+02  0.28319096658E+02  0.00000000000E+00 0. -1.
        -11    1    4    4    0    0  0.36176979499E+02 -0.74316814068E+02  0.31180644111E+03  0.32257560264E+03  0.00000000000E+00 0. -1.
         11    1    4    4    0    0  0.86273614766E+01  0.23367967071E+02  0.47737346309E+02  0.53845589269E+02  0.00000000000E+00 0.  1.
         21    1    1    2  502  501 -0.28075139360E+00  0.32038383449E+02  0.77204575637E+02  0.83588775171E+02  0.00000000000E+00 0.  1.
<scales pt_clust_5="13000.00000" pt_clust_6="13000.00000" pt_clust_7="13000.00000" pt_clust_8="13000.00000" pt_clust_9="32.03961"></scales>
<clustering>
<clus scale="   32.040">  1  9  2 -1</clus>
<clus scale="   81.392">  5  6 -1 -1</clus>
<clus scale="   88.419">  7  8 -1 -1</clus>
<clus scale="   95.803">  2  5  1 -1</clus>
<clus scale="   32.040">  1  5  2 -1</clus>
</clustering>
</event>
<event>
 9    2  0.3402837E-005  0.1429422E+03  0.7546771E-02  0.1216013E+00
         -1   -1    0    0    0  501 -0.00000000000E+00  0.00000000000E+00  0.95053375274E+02  0.95053375274E+02  0.00000000000E+00 0.  1.
          2   -1    0    0  502    0  0.00000000000E+00 -0.00000000000E+00 -0.27768564347E+03  0.27768564347E+03  0.00000000000E+00 0. -1.
         23    2    1    2    0    0  0.66146582826E+02 -0.25118206396E+02 -0.48257141922E+02  0.13744823272E+03  0.10750334981E+03 0.  0.
         24    2    1    2    0    0 -0.96978454279E+02  0.49232700690E+02 -0.14094524208E+03  0.19560099446E+03  0.81027824585E+02 0.  0.
        -11    1    4    4    0    0 -0.43834793096E+02  0.44954221834E+02 -0.12511286599E+03  0.13998428620E+03  0.00000000000E+00 0.  1.
         12    1    4    4    0    0 -0.53143661183E+02  0.42784788568E+01 -0.15832376094E+02  0.55616708263E+02  0.00000000000E+00 0. -1.
        -11    1    3    3    0    0  0.39476414686E+02 -0.67747783219E+02 -0.29877080679E+02  0.83909411853E+02  0.00000000000E+00 0.  1.
         11    1    3    3    0    0  0.26670168140E+02  0.42629576823E+02 -0.18380061243E+02  0.53538820869E+02  0.00000000000E+00 0. -1.
         21    1    1    2  502  501  0.30831871454E+02 -0.24114494294E+02  0.65701158088E+01  0.39689791561E+02  0.00000000000E+00 0. -1.
<scales pt_clust_5="13000.00000" pt_clust_6="13000.00000" pt_clust_7="13000.00000" pt_clust_8="13000.00000" pt_clust_9="39.14222"></scales>
<clustering>
<clus scale="   39.142">  1  9  2 -1</clus>
<clus scale="   81.028">  5  6 -1 -1</clus>
<clus scale="  107.503">  7  8 -1 -1</clus>
<clus scale="  124.262">  2  5  1 -1</clus>
<clus scale="  124.262">  2  5  1 -1</clus>
</clustering>
</event>
<event>
 9    2  0.3402837E-005  0.9579794E+02  0.7546771E-02  0.1298502E+00
         -1   -1    0    0    0  501 -0.00000000000E+00  0.00000000000E+00  0.63798712005E+02  0.63798712005E+02  0.00000000000E+00 0.  1.
          2   -1    0    0  502    0  0.00000000000E+00 -0.00000000000E+00 -0.37769581105E+03  0.37769581105E+03  0.00000000000E+00 0. -1.
         23    2    1    2    0    0  0.25738908133E+02  0.79569900295E+01  0.10719209270E+02  0.97120550383E+02  0.92691395378E+02 0.  0.
         24    2    1    2    0    0 -0.15103415380E+01 -0.10836661128E+02 -0.29904715911E+03  0.30903140152E+03  0.77145896812E+02 0.  0.
        -13    1    4    4    0    0  0.67799525259E+01 -0.41700990177E+02 -0.12162504583E+03  0.12875399843E+03  0.00000000000E+00 0.  1.
         14    1    4    4    0    0 -0.82902940639E+01  0.30864329049E+02 -0.17742211328E+03  0.18027740309E+03  0.00000000000E+00 0. -1.
        -13    1    3    3    0    0  0.58581801808E+02  0.15038737807E+02  0.17251695922E+02  0.62893657471E+02  0.00000000000E+00 0.  1.
         13    1    3    3    0    0 -0.32842893675E+02 -0.70817477777E+01 -0.65324866513E+01  0.34226892912E+02  0.00000000000E+00 0. -1.
         21    1    1    2  502  501 -0.24228566595E+02  0.28796710987E+01 -0.25569149208E+02  0.35342571159E+02  0.00000000000E+00 0. -1.
<scales pt_clust_5="13000.00000" pt_clust_6="13000.00000" pt_clust_7="13000.00000" pt_clust_8="13000.00000" pt_clust_9="24.39910"></scales>
<clustering>
<clus scale="   24.399">  2  9  1 -1</clus>
<clus scale="   77.146">  5  6 -1 -1</clus>
<clus scale="   80.852">  2  5  1 -1</clus>
<clus scale="   92.691">  7  8 -1 -1</clus>
<clus scale="   24.399">  2  5  1 -1</clus>
</clustering>
</event>
<event>
 9    2  0.3402837E-005  0.1325306E+03  0.7546771E-02  0.1226897E+00
          4   -1    0    0  502    0  0.00000000000E+00  0.00000000000E+00  0.14985716634E+03  0.14985716634E+03  0.00000000000E+00 0. -1.
         -3   -1    0    0    0  501 -0.00000000000E+00 -0.00000000000E+00 -0.45492754722E+03  0.45492754722E+03  0.00000000000E+00 0.  1.
         23    2    1    2    0    0  0.11153787819E+03 -0.87350764551E+01 -0.38300319692E+03  0.41042156458E+03  0.96111456074E+02 0.  0.
         24    2    1    2    0    0 -0.88241044264E+02  0.16622290347E+02  0.10208775958E+03  0.15988979825E+03  0.84143059719E+02 0.  0.
        -11    1    4    4    0    0 -0.56088865783E+02 -0.32110051832E+02  0.51519980469E+02  0.82651828056E+02  0.00000000000E+00 0.  1.
         12    1    4    4    0    0 -0.32152178480E+02  0.48732342179E+02  0.50567779106E+02  0.77237970189E+02  0.00000000000E+00 0. -1.
        -11    1    3    3    0    0 -0.10677288957E+02 -0.18668846590E+02 -0.94969801416E+02  0.97374501352E+02  0.00000000000E+00 0.  1.
         11    1    3    3    0    0  0.12221516714E+03  0.99337701353E+01 -0.28803339551E+03  0.31304706323E+03  0.00000000000E+00 0. -1.
         21    1    1    2  502  501 -0.23296833923E+02 -0.78872138922E+01 -0.24154943530E+02  0.34473350733E+02  0.00000000000E+00 0.  1.
<scales pt_clust_5="13000.00000" pt_clust_6="13000.00000" pt_clust_7="13000.00000" pt_clust_8="13000.00000" pt_clust_9="24.59574"></scales>
<clustering>
<clus scale="   24.596">  2  9  1 -1</clus>
<clus scale="   84.143">  5  6 -1 -1</clus>
<clus scale="   96.111">  7  8 -1 -1</clus>
<clus scale="  124.125">  1  5  2 -1</clus>
<clus scale="  124.125">  1  5  2 -1</clus>
</clustering>
</event>
<event>
 9    2  0.3402837E-005  0.8423148E+02  0.7546771E-02  0.1329059E+00
          2   -1    0    0  502    0  0.00000000000E+00  0.00000000000E+00  0.20613421696E+03  0.20613421696E+03  0.00000000000E+00 0. -1.
         -1   -1    0    0    0  501 -0.00000000000E+00 -0.00000000000E+00 -0.21759794713E+03  0.21759794713E+03  0.00000000000E+00 0.  1.
         23    2    1    2    0    0 -0.35918505550E+02 -0.19265854211E+02  0.22685873129E+02  0.79652871180E+02  0.64564842354E+02 0.  0.
         24    2    1    2    0    0 -0.25931689641E+00  0.21168020634E+02  0.14166364514E+03  0.16457232535E+03  0.81038938629E+02 0.  0.
        -11    1    4    4    0    0 -0.22268466542E+02 -0.16931315453E+02  0.17877157048E+02  0.33198596194E+02  0.00000000000E+00 0.  1.
         12    1    4    4    0    0  0.22009149645E+02  0.38099336087E+02  0.12378648809E+03  0.13137372916E+03  0.00000000000E+00 0. -1.
        -11    1    3    3    0    0 -0.21507957696E+02  0.22938348273E+01 -0.20161425722E+02  0.29569190209E+02  0.00000000000E+00 0. -1.
         11    1    3    3    0    0 -0.14410547854E+02 -0.21559689038E+02  0.42847298851E+02  0.50083680972E+02  0.00000000000E+00 0.  1.
         21    1    1    2  502  501  0.36177822446E+02 -0.19021664232E+01 -0.17581324844E+03  0.17950696756E+03  0.00000000000E+00 0.  1.
<scales pt_clust_5="13000.00000" pt_clust_6="13000.00000" pt_clust_7="13000.00000" pt_clust_8="13000.00000" pt_clust_9="36.22779"></scales>
<clustering>
<clus scale="   36.228">  2  9  1 -1</clus>
<clus scale="   64.565">  7  8 -1 -1</clus>
<clus scale="   68.529">  2  7  1 -1</clus>
<clus scale="   81.039">  5  6 -1 -1</clus>
<clus scale="   84.231">  1  5  2 -1</clus>
</clustering>
</event>
<event>
 9    2  0.3402837E-005  0.1840570E+03  0.7546771E-02  0.1165065E+00
          2   -1    0    0  502    0  0.00000000000E+00  0.00000000000E+00  0.40503520021E+03  0.40503520021E+03  0.00000000000E+00 0. -1.
         -1   -1    0    0    0  501 -0.00000000000E+00 -0.00000000000E+00 -0.19402926453E+03  0.19402926453E+03  0.00000000000E+00 0.  1.
         24    2    1    2    0    0 -0.19214342922E+03  0.25325337232E+02 -0.27319079700E+00  0.21005457014E+03  0.81008503926E+02 0.  0.
         23    2    1    2    0    0  0.14837658761E+03 -0.30433142635E+02  0.26562801877E+03  0.31904255797E+03  0.91039120849E+02 0.  0.
        -13    1    3    3    0    0 -0.10910100650E+03  0.52370165822E+02 -0.13319865704E+02  0.12175008300E+03  0.00000000000E+00 0.  1.
         14    1    3    3    0    0 -0.83042422717E+02 -0.27044828590E+02  0.13046674907E+02  0.88304487147E+02  0.00000000000E+00 0. -1.
        -11    1    4    4    0    0  0.88192130674E+02 -0.65279947826E+01  0.22705048994E+03  0.24366450626E+03  0.00000000000E+00 0. -1.
         11    1    4    4    0    0  0.60184456932E+02 -0.23905147852E+02  0.38577528827E+02  0.75378051715E+02  0.00000000000E+00 0.  1.
         21    1    1    2  502  501  0.43766841610E+02  0.51078054035E+01 -0.54348892294E+02  0.69967336623E+02  0.00000000000E+00 0.  1.
<scales pt_clust_5="13000.00000" pt_clust_6="13000.00000" pt_clust_7="13000.00000" pt_clust_8="13000.00000" pt_clust_9="44.06389"></scales>
<clustering>
<clus scale="   44.064">  2  9  1 -1</clus>
<clus scale="   81.009">  5  6 -1 -1</clus>
<clus scale="   91.039">  7  8 -1 -1</clus>
<clus scale="  179.308">  2  5  1 -1</clus>
<clus scale="  184.057">  1  5  2 -1</clus>
</clustering>
</event>
<event>
 9    2  0.3402837E-005  0.1234965E+03  0.7546771E-02  0.1240501E+00
          2   -1    0    0  502    0  0.00000000000E+00  0.00000000000E+00  0.45739612088E+03  0.45739612088E+03  0.00000000000E+00 0. -1.
         -1   -1    0    0    0  501 -0.00000000000E+00 -0.00000000000E+00 -0.13582020289E+03  0.13582020289E+03  0.00000000000E+00 0.  1.
         23    2    1    2    0    0  0.15804084269E+02 -0.91595617148E+02  0.64539297837E+02  0.14469635276E+03  0.90178641463E+02 0.  0.
         24    2    1    2    0    0  0.68824397566E+02  0.61077796879E+02  0.31756622023E+03  0.34008957963E+03  0.79657535540E+02 0.  0.
        -13    1    4    4    0    0  0.60026143521E+02  0.23112808169E+01  0.12732108385E+03  0.14078046142E+03  0.00000000000E+00 0.  1.
         14    1    4    4    0    0  0.87982540446E+01  0.58766516062E+02  0.19024513638E+03  0.19930911820E+03  0.00000000000E+00 0. -1.
        -13    1    3    3    0    0 -0.20501088247E+02 -0.25086568470E+02 -0.14241293799E+02  0.35389899491E+02  0.00000000000E+00 0.  1.
         13    1    3    3    0    0  0.36305172516E+02 -0.66509048679E+02  0.78780591636E+02  0.10930645327E+03  0.00000000000E+00 0. -1.
         21    1    1    2  502  501 -0.84628481835E+02  0.30517820269E+02 -0.60529600078E+02  0.10843039139E+03  0.00000000000E+00 0.  1.
<scales pt_clust_5="13000.00000" pt_clust_6="13000.00000" pt_clust_7="13000.00000" pt_clust_8="13000.00000" pt_clust_9="89.96287"></scales>
<clustering>
<clus scale="   79.658">  5  6 -1 -1</clus>
<clus scale="   89.963">  2  9  1 -1</clus>
<clus scale="   90.179">  7  8 -1 -1</clus>
<clus scale="  116.037">  1  5  2 -1</clus>
<clus scale="  116.037">  1  5  2 -1</clus>
</clustering>
</event>
<event>
 9    2  0.3402837E-005  0.1110607E+03  0.7546771E-02  0.1260355E+00
          2   -1    0    0  502    0  0.00000000000E+00  0.00000000000E+00  0.46048912709E+02  0.46048912709E+02  0.00000000000E+00 0. -1.
         -1   -1    0    0    0  501 -0.00000000000E+00 -0.00000000000E+00 -0.39876044756E+03  0.39876044756E+03  0.00000000000E+00 0.  1.
         23    2    1    2    0    0 -0.42335711059E+02 -0.40295605695E+02 -0.25484749773E+03  0.27702965557E+03  0.91553998793E+02 0.  0.
         24    2    1    2    0    0  0.59385976578E+02  0.27044212209E+02 -0.60024890609E+02  0.12421237758E+03  0.86992204385E+02 0.  0.
        -11    1    4    4    0    0 -0.61246761275E+01 -0.23469654791E+02 -0.23537727056E+02  0.33798830581E+02  0.00000000000E+00 0.  1.
         12    1    4    4    0    0  0.65510652706E+02  0.50513866999E+02 -0.36487163553E+02  0.90413547001E+02  0.00000000000E+00 0. -1.
        -11    1    3    3    0    0 -0.67229896518E+02 -0.47122133096E+02 -0.20651544175E+03  0.22223632038E+03  0.00000000000E+00 0.  1.
         11    1    3    3    0    0  0.24894185459E+02  0.68265274008E+01 -0.48332055982E+02  0.54793335192E+02  0.00000000000E+00 0. -1.
         21    1    1    2  502  501 -0.17050265519E+02  0.13251393487E+02 -0.37839146510E+02  0.43567327118E+02  0.00000000000E+00 0. -1.
<scales pt_clust_5="13000.00000" pt_clust_6="13000.00000" pt_clust_7="13000.00000" pt_clust_8="13000.00000" pt_clust_9="21.59423"></scales>
<clustering>
<clus scale="   21.594">  2  9  1 -1</clus>
<clus scale="   86.992">  5  6 -1 -1</clus>
<clus scale="   91.554">  7  8 -1 -1</clus>
<clus scale="  107.331">  1  5  2 -1</clus>
<clus scale="  107.331">  1  5  2 -1</clus>
</clustering>
</event>
<event>
 9    2  0.3402837E-005  0.1423698E+03  0.7546771E-02  0.1212556E+00
         -1   -1    0    0    0  501 -0.00000000000E+00  0.00000000000E+00  0.27897570581E+03  0.27897570581E+03  0.00000000000E+00 0.  1.
          2   -1    0    0  502    0  0.00000000000E+00 -0.00000000000E+00 -0.38193046821E+03  0.38193046821E+03  0.00000000000E+00 0. -1.
         23    2    1    2    0    0 -0.13242956239E+03  0.81200731637E+01  0.75482904132E+02  0.17815713466E+03  0.91862784788E+02 0.  0.
         24    2    1    2    0    0  0.10567120985E+03 -0.10929670541E+02 -0.31579751521E+03  0.34277893079E+03  0.80519950910E+02 0.  0.
        -11    1    4    4    0    0  0.38336911078E+02 -0.35703555163E+02 -0.74747277474E+02  0.91277697671E+02  0.00000000000E+00 0.  1.
         12    1    4    4    0    0  0.67334298772E+02  0.24773884622E+02 -0.24105023773E+03  0.25150123312E+03  0.00000000000E+00 0. -1.
        -13    1    3    3    0    0 -0.10665242942E+03  0.42958218384E+02  0.69647991096E+02  0.13442838946E+03  0.00000000000E+00 0.  1.
         13    1    3    3    0    0 -0.25777132972E+02 -0.34838145220E+02  0.58349130359E+01  0.43728745200E+02  0.00000000000E+00 0. -1.
         21    1    1    2  502  501  0.26758352543E+02  0.28095973768E+01  0.13735984867E+03  0.13997010858E+03  0.00000000000E+00 0. -1.
<scales pt_clust_5="13000.00000" pt_clust_6="13000.00000" pt_clust_7="13000.00000" pt_clust_8="13000.00000" pt_clust_9="26.90545"></scales>
<clustering>
<clus scale="   26.905">  1  9  2 -1</clus>
<clus scale="   80.520">  5  6 -1 -1</clus>
<clus scale="   91.863">  7  8 -1 -1</clus>
<clus scale="  135.329">  2  5  1 -1</clus>
<clus scale="  135.329">  2  5  1 -1</clus>
</clustering>
</event>
<event>
 9    2  0.3402837E-005  0.1848807E+03  0.7546771E-02  0.1164223E+00
         -1   -1    0    0    0  501 -0.00000000000E+00  0.00000000000E+00  0.55210539620E+02  0.55210539620E+02  0.00000000000E+00 0.  1.
          2   -1    0    0  502    0  0.00000000000E+00 -0.00000000000E+00 -0.76365564822E+03  0.76365564822E+03  0.00000000000E+00 0. -1.
         24    2    1    2    0    0 -0.14387689648E+03 -0.40467987509E+02 -0.29350590860E+03  0.33889438134E+03  0.79783857814E+02 0.  0.
         23    2    1    2    0    0  0.17192646344E+03  0.29957743472E+02 -0.40211631686E+03  0.44738853213E+03  0.89458320867E+02 0.  0.
        -11    1    3    3    0    0 -0.44544023464E+02 -0.46222033174E+02 -0.74468073905E+02  0.98316531714E+02  0.00000000000E+00 0.  1.
         12    1    3    3    0    0 -0.99332873011E+02  0.57540456654E+01 -0.21903783470E+03  0.24057784963E+03  0.00000000000E+00 0. -1.
        -13    1    4    4    0    0  0.50904240297E+02  0.29223668704E+02 -0.57618109799E+02  0.82250295255E+02  0.00000000000E+00 0.  1.
         13    1    4    4    0    0  0.12102222314E+03  0.73407476781E+00 -0.34449820706E+03  0.36513823688E+03  0.00000000000E+00 0. -1.
         21    1    1    2  502  501 -0.28049566960E+02  0.10510244037E+02 -0.12822883128E+02  0.32583274361E+02  0.00000000000E+00 0. -1.
<scales pt_clust_5="13000.00000" pt_clust_6="13000.00000" pt_clust_7="13000.00000" pt_clust_8="13000.00000" pt_clust_9="29.95402"></scales>
<clustering>
<clus scale="   29.954">  1  9  2 -1</clus>
<clus scale="   79.784">  5  6 -1 -1</clus>
<clus scale="   89.458">  7  8 -1 -1</clus>
<clus scale="  180.398">  1  5  2 -1</clus>
<clus scale="  184.881">  2  5  1 -1</clus>
</clustering>
</event>
<event>
 9    2  0.3402837E-005  0.1659514E+03  0.7546771E-02  0.1183655E+00
          2   -1    0    0  502    0  0.00000000000E+00  0.00000000000E+00  0.11460423273E+03  0.11460423273E+03  0.00000000000E+00 0. -1.
         -1   -1    0    0    0  501 -0.00000000000E+00 -0.00000000000E+00 -0.41281931389E+03  0.41281931389E+03  0.00000000000E+00 0.  1.
         24    2    1    2    0    0  0.71809900528E+02 -0.11067463150E+03 -0.21886846903E+03  0.26761620605E+03  0.79432305337E+02 0.  0.
         23    2    1    2    0    0 -0.12285385191E+03  0.78259913849E+02 -0.15663393613E+02  0.17199076346E+03  0.90098822257E+02 0.  0.
        -13    1    3    3    0    0  0.59814052159E+02 -0.41662795754E+02 -0.61534535236E+02  0.95393964235E+02  0.00000000000E+00 0.  1.
         14    1    3    3    0    0  0.11995848368E+02 -0.69011835747E+02 -0.15733393380E+03  0.17222224181E+03  0.00000000000E+00 0. -1.
        -11    1    4    4    0    0 -0.76211349479E+02  0.60803330867E+02 -0.51854927675E+02  0.11042711786E+03  0.00000000000E+00 0.  1.
         11    1    4    4    0    0 -0.46642502434E+02  0.17456582982E+02  0.36191534062E+02  0.61563645608E+02  0.00000000000E+00 0. -1.
         21    1    1    2  502  501  0.51043951386E+02  0.32414717653E+02 -0.63683218522E+02  0.87816577108E+02  0.00000000000E+00 0.  1.
<scales pt_clust_5="13000.00000" pt_clust_6="13000.00000" pt_clust_7="13000.00000" pt_clust_8="13000.00000" pt_clust_9="60.46651"></scales>
<clustering>
<clus scale="   60.467">  2  9  1 -1</clus>
<clus scale="   79.432">  5  6 -1 -1</clus>
<clus scale="   90.099">  7  8 -1 -1</clus>
<clus scale="  160.411">  2  5  1 -1</clus>
<clus scale="  165.951">  1  5  2 -1</clus>
</clustering>
</event>
<event>
 9    2  0.3402837E-005  0.1350627E+03  0.7546771E-02  0.1222195E+00
         -1   -1    0    0    0  501 -0.00000000000E+00  0.00000000000E+00  0.57469720349E+02  0.57469720349E+02  0.00000000000E+00 0.  1.
          2   -1    0    0  502    0  0.00000000000E+00 -0.00000000000E+00 -0.16012653129E+04  0.16012653129E+04  0.00000000000E+00 0. -1.
         23    2    1    2    0    0 -0.39420881345E+02 -0.14251435219E+03 -0.12418064596E+03  0.21384182507E+03  0.91886597782E+02 0.  0.
         24    2    1    2    0    0  0.78932823200E+01  0.95562701029E+02 -0.13464180277E+04  0.13523932840E+04  0.83255963332E+02 0.  0.
        -13    1    4    4    0    0 -0.16692933967E+02  0.23696112952E+02 -0.11366826395E+03  0.11730572894E+03  0.00000000000E+00 0.  1.
         14    1    4    4    0    0  0.24586216287E+02  0.71866588078E+02 -0.12327497638E+04  0.12350875550E+04  0.00000000000E+00 0. -1.
        -11    1    3    3    0    0  0.22622665455E+02 -0.62945674980E+01 -0.24899675907E+02  0.34225727641E+02  0.00000000000E+00 0. -1.
         11    1    3    3    0    0 -0.62043546800E+02 -0.13621978469E+03 -0.99280970057E+02  0.17961609743E+03  0.00000000000E+00 0.  1.
         21    1    1    2  502  501  0.31527599025E+02  0.46951651160E+02 -0.73196918886E+02  0.92499924224E+02  0.00000000000E+00 0. -1.
<scales pt_clust_5="13000.00000" pt_clust_6="13000.00000" pt_clust_7="13000.00000" pt_clust_8="13000.00000" pt_clust_9="56.55481"></scales>
<clustering>
<clus scale="   56.555">  1  9  2 -1</clus>
<clus scale="   83.256">  5  6 -1 -1</clus>
<clus scale="   91.887">  7  8 -1 -1</clus>
<clus scale="  129.346">  2  5  1 -1</clus>
<clus scale="  129.346">  2  5  1 -1</clus>
</clustering>
</event>
<event>
 9    2  0.3402837E-005  0.1298742E+03  0.7546771E-02  0.1251015E+00
         -1   -1    0    0    0  501 -0.00000000000E+00  0.00000000000E+00  0.36109430731E+03  0.36109430731E+03  0.00000000000E+00 0.  1.
          2   -1    0    0  502    0  0.00000000000E+00 -0.00000000000E+00 -0.30610407596E+03  0.30610407596E+03  0.00000000000E+00 0. -1.
         23    2    1    2    0    0  0.14444705799E+02 -0.92158974356E+02  0.30329326704E+03  0.32982053322E+03  0.89960281372E+02 0.  0.
         24    2    1    2    0    0  0.13462872205E+02 -0.54892681109E+01 -0.13919888101E+02  0.81938087994E+02  0.79427362961E+02 0.  0.
        -11    1    4    4    0    0  0.33834973869E+02  0.26071330482E+02 -0.11797430877E+02  0.44313644683E+02  0.00000000000E+00 0.  1.
         12    1    4    4    0    0 -0.20372101665E+02 -0.31560598593E+02 -0.21224572238E+01  0.37624443311E+02  0.00000000000E+00 0. -1.
        -11    1    3    3    0    0  0.22161928740E+02  0.11813590569E+02  0.51551220594E+02  0.57343180521E+02  0.00000000000E+00 0. -1.
         11    1    3    3    0    0 -0.77172229406E+01 -0.10397256493E+03  0.25174204645E+03  0.27247735270E+03  0.00000000000E+00 0.  1.
         21    1    1    2  502  501 -0.27907578004E+02  0.97648242467E+02 -0.23438314758E+03  0.25543976205E+03  0.00000000000E+00 0. -1.
<scales pt_clust_5="13000.00000" pt_clust_6="13000.00000" pt_clust_7="13000.00000" pt_clust_8="13000.00000" pt_clust_9="93.67201"></scales>
<clustering>
<clus scale="   79.427">  5  6 -1 -1</clus>
<clus scale="   80.747">  2  5  1 -1</clus>
<clus scale="   89.960">  7  8 -1 -1</clus>
<clus scale="   93.672">  2  9  1 -1</clus>
<clus scale="   80.747">  2  5  1 -1</clus>
</clustering>
</event>
<event>
 9    2  0.3402837E-005  0.2210105E+03  0.7546771E-02  0.1149638E+00
         -1   -1    0    0    0  501 -0.00000000000E+00  0.00000000000E+00  0.24628583242E+03  0.24628583242E+03  0.00000000000E+00 0.  1.
          2   -1    0    0  502    0  0.00000000000E+00 -0.00000000000E+00 -0.41898450707E+03  0.41898450707E+03  0.00000000000E+00 0. -1.
         23    2    1    2    0    0  0.11741893449E+03  0.12499215807E+02  0.25873504485E+02  0.15080324708E+03  0.90159550376E+02 0.  0.
         24    2    1    2    0    0  0.12114075443E+03  0.12402683147E+03 -0.12679655754E+03  0.23038642320E+03  0.83323464180E+02 0.  0.
        -13    1    4    4    0    0  0.56676956150E+02  0.96135293239E+01 -0.19184329391E+02  0.60603100570E+02  0.00000000000E+00 0.  1.
         14    1    4    4    0    0  0.64463798284E+02  0.11441330214E+03 -0.10761222815E+03  0.16978332263E+03  0.00000000000E+00 0. -1.
        -11    1    3    3    0    0  0.11923082119E+03  0.36290686609E+02  0.19943817548E+02  0.12621710864E+03  0.00000000000E+00 0.  1.
         11    1    3    3    0    0 -0.18118866976E+01 -0.23791470801E+02  0.59296869371E+01  0.24586138442E+02  0.00000000000E+00 0. -1.
         21    1    1    2  502  501 -0.23855968892E+03 -0.13652604728E+03 -0.71775621588E+02  0.28408066921E+03  0.00000000000E+00 0.  1.
<scales pt_clust_5="13000.00000" pt_clust_6="13000.00000" pt_clust_7="13000.00000" pt_clust_8="13000.00000" pt_clust_9="204.70179"></scales>
<clustering>
<clus scale="   83.323">  5  6 -1 -1</clus>
<clus scale="   90.160">  7  8 -1 -1</clus>
<clus scale="  148.567">  1  7  2 -1</clus>
<clus scale="  204.702">  1  9  2 -1</clus>
<clus scale="  221.010">  2  5  1 -1</clus>
</clustering>
</event>
<event>
 9    2  0.3402837E-005  0.1149050E+03  0.7546771E-02  0.1258598E+00
          2   -1    0    0  502    0  0.00000000000E+00  0.00000000000E+00  0.41211383317E+03  0.41211383317E+03  0.00000000000E+00 0. -1.
         -1   -1    0    0    0  501 -0.00000000000E+00 -0.00000000000E+00 -0.88377030116E+02  0.88377030116E+02  0.00000000000E+00 0.  1.
         23    2    1    2    0    0  0.11079255655E+02  0.26227825092E+02 -0.19198759704E+02  0.10313271098E+03  0.97247699123E+02 0.  0.
         24    2    1    2    0    0  0.49272892890E+02 -0.47416894722E+02  0.30606619259E+03  0.32352923546E+03  0.79488817275E+02 0.  0.
        -11    1    4    4    0    0 -0.13609029316E+01 -0.33145382709E+02  0.38410338589E+02  0.50752562124E+02  0.00000000000E+00 0.  1.
         12    1    4    4    0    0  0.50633795822E+02 -0.14271512013E+02  0.26765585401E+03  0.27277667334E+03  0.00000000000E+00 0. -1.
        -11    1    3    3    0    0 -0.10083528031E+02  0.29752043817E+02  0.33686571302E+02  0.46061336660E+02  0.00000000000E+00 0. -1.
         11    1    3    3    0    0  0.21162783686E+02 -0.35242187249E+01 -0.52885331006E+02  0.57071374318E+02  0.00000000000E+00 0.  1.
         21    1    1    2  502  501 -0.60352148545E+02  0.21189069629E+02  0.36869370160E+02  0.73828916840E+02  0.00000000000E+00 0.  1.
<scales pt_clust_5="13000.00000" pt_clust_6="13000.00000" pt_clust_7="13000.00000" pt_clust_8="13000.00000" pt_clust_9="63.96373"></scales>
<clustering>
<clus scale="   63.964">  2  9  1 -1</clus>
<clus scale="   79.489">  5  6 -1 -1</clus>
<clus scale="   97.248">  7  8 -1 -1</clus>
<clus scale="  100.322">  1  5  2 -1</clus>
<clus scale="  100.322">  1  5  2 -1</clus>
</clustering>
</event>
<event>
 9    2  0.3402837E-005  0.1163051E+03  0.7546771E-02  0.1253580E+00
         -1   -1    0    0    0  501 -0.00000000000E+00  0.00000000000E+00  0.10431979777E+03  0.10431979777E+03  0.00000000000E+00 0.  1.
          2   -1    0    0  502    0  0.00000000000E+00 -0.00000000000E+00 -0.36419587460E+03  0.36419587460E+03  0.00000000000E+00 0. -1.
         24    2    1    2    0    0 -0.73878384942E+02  0.53253476880E+01 -0.37174482678E+02  0.11447400918E+03  0.78968231112E+02 0.  0.
         23    2    1    2    0    0  0.54577156772E+02  0.56326291442E+02 -0.25486194165E+03  0.28187692133E+03  0.91371069412E+02 0.  0.
        -11    1    3    3    0    0 -0.50764437245E+02 -0.33642777778E+02 -0.10211945636E+02  0.61750695698E+02  0.00000000000E+00 0.  1.
         12    1    3    3    0    0 -0.23113947697E+02  0.38968125466E+02 -0.26962537043E+02  0.52723313480E+02  0.00000000000E+00 0. -1.
        -11    1    4    4    0    0  0.85843192323E+01 -0.25235143064E+02 -0.51284254511E+02  0.57797731296E+02  0.00000000000E+00 0.  1.
         11    1    4    4    0    0  0.45992837539E+02  0.81561434506E+02 -0.20357768714E+03  0.22407919003E+03  0.00000000000E+00 0. -1.
         21    1    1    2  502  501  0.19301228171E+02 -0.61651639130E+02  0.32160347499E+02  0.72164741859E+02  0.00000000000E+00 0.  1.
<scales pt_clust_5="13000.00000" pt_clust_6="13000.00000" pt_clust_7="13000.00000" pt_clust_8="13000.00000" pt_clust_9="64.60234"></scales>
<clustering>
<clus scale="   64.602">  1  9  2 -1</clus>
<clus scale="   78.968">  5  6 -1 -1</clus>
<clus scale="   91.371">  7  8 -1 -1</clus>
<clus scale="  106.837">  1  5  2 -1</clus>
<clus scale="  116.305">  2  5  1 -1</clus>
</clustering>
</event>
<event>
 9    2  0.3402837E-005  0.1276397E+03  0.7546771E-02  0.1234734E+00
          2   -1    0    0  502    0  0.00000000000E+00  0.00000000000E+00  0.77194137507E+03  0.77194137507E+03  0.00000000000E+00 0. -1.
         -1   -1    0    0    0  501 -0.00000000000E+00 -0.00000000000E+00 -0.34456346718E+02  0.34456346718E+02  0.00000000000E+00 0.  1.
         24    2    1    2    0    0  0.24403132537E+02  0.71856059531E+02  0.21104824043E+03  0.23816165179E+03  0.80129934647E+02 0.  0.
         23    2    1    2    0    0  0.22591310871E+02 -0.97616448421E+02  0.47341398319E+03  0.49284712407E+03  0.93478071714E+02 0.  0.
        -11    1    3    3    0    0  0.31830296141E+01  0.41217427906E+02  0.24772796489E+02  0.48194392688E+02  0.00000000000E+00 0.  1.
         12    1    3    3    0    0  0.21220102923E+02  0.30638631625E+02  0.18627544394E+03  0.18996725910E+03  0.00000000000E+00 0. -1.
        -13    1    4    4    0    0 -0.31495067847E+02 -0.32475214056E+02  0.97035892229E+02  0.10706326731E+03  0.00000000000E+00 0.  1.
         13    1    4    4    0    0  0.54086378718E+02 -0.65141234365E+02  0.37637809096E+03  0.38578385676E+03  0.00000000000E+00 0. -1.
         21    1    1    2  502  501 -0.46994443408E+02  0.25760388889E+02  0.53022804736E+02  0.75388945934E+02  0.00000000000E+00 0. -1.
<scales pt_clust_5="13000.00000" pt_clust_6="13000.00000" pt_clust_7="13000.00000" pt_clust_8="13000.00000" pt_clust_9="53.59175"></scales>
<clustering>
<clus scale="   53.592">  2  9  1 -1</clus>
<clus scale="   80.130">  5  6 -1 -1</clus>
<clus scale="   93.478">  7  8 -1 -1</clus>
<clus scale="  118.214">  2  5  1 -1</clus>
<clus scale="  127.640">  1  5  2 -1</clus>
</clustering>
</event>
<event>
 9    2  0.3402837E-005  0.1468626E+03  0.7546771E-02  0.1205842E+00
          2   -1    0    0  502    0  0.00000000000E+00  0.00000000000E+00  0.41724352425E+03  0.41724352425E+03  0.00000000000E+00 0. -1.
         -1   -1    0    0    0  501 -0.00000000000E+00 -0.00000000000E+00 -0.12249726577E+03  0.12249726577E+03  0.00000000000E+00 0.  1.
         23    2    1    2    0    0 -0.72007561895E+02  0.90818576763E+02 -0.32920488483E+02  0.15045081769E+03  0.90103202641E+02 0.  0.
         24    2    1    2    0    0  0.10952009349E+03 -0.59588331017E+02  0.29451285243E+03  0.33028404890E+03  0.82488257610E+02 0.  0.
        -11    1    4    4    0    0  0.64402927863E+02 -0.85528533900E+00  0.76328990250E+02  0.99872836061E+02  0.00000000000E+00 0.  1.
         12    1    4    4    0    0  0.45117165630E+02 -0.58733045678E+02  0.21818386218E+03  0.23041121284E+03  0.00000000000E+00 0. -1.
        -11    1    3    3    0    0 -0.56096914685E+02  0.45448658417E+01  0.12702393320E+01  0.56295054407E+02  0.00000000000E+00 0. -1.
         11    1    3    3    0    0 -0.15910647209E+02  0.86273710921E+02 -0.34190727815E+02  0.94155763282E+02  0.00000000000E+00 0.  1.
         21    1    1    2  502  501 -0.37512531598E+02 -0.31230245745E+02  0.33153894531E+02  0.59005923421E+02  0.00000000000E+00 0. -1.
<scales pt_clust_5="13000.00000" pt_clust_6="13000.00000" pt_clust_7="13000.00000" pt_clust_8="13000.00000" pt_clust_9="48.81105"></scales>
<clustering>
<clus scale="   48.811">  1  9  2 -1</clus>
<clus scale="   82.488">  5  6 -1 -1</clus>
<clus scale="   90.103">  7  8 -1 -1</clus>
<clus scale="  142.318">  1  5  2 -1</clus>
<clus scale="   48.811">  1  5  2 -1</clus>
</clustering>
</event>
<event>
 9    2  0.3402837E-005  0.9767911E+02  0.7546771E-02  0.1291565E+00
          2   -1    0    0  502    0  0.00000000000E+00  0.00000000000E+00  0.34720743065E+03  0.34720743065E+03  0.00000000000E+00 0. -1.
         -1   -1    0    0    0  501 -0.00000000000E+00 -0.00000000000E+00 -0.96036550744E+02  0.96036550744E+02  0.00000000000E+00 0.  1.
         23    2    1    2    0    0  0.48003623781E+02 -0.36622100472E+02  0.52778721602E+02  0.12149996606E+03  0.91274981022E+02 0.  0.
         24    2    1    2    0    0 -0.25824489443E+02  0.14524646250E+02  0.24854478877E+03  0.26262128006E+03  0.79483049196E+02 0.  0.
        -11    1    4    4    0    0 -0.37438650696E+02 -0.13111912889E+02  0.61459618722E+02  0.73149569780E+02  0.00000000000E+00 0.  1.
         12    1    4    4    0    0  0.11614161254E+02  0.27636559139E+02  0.18708517005E+03  0.18947171028E+03  0.00000000000E+00 0. -1.
        -11    1    3    3    0    0  0.34332225661E+02 -0.54922270338E+02  0.68109206205E+02  0.93989475304E+02  0.00000000000E+00 0.  1.
         11    1    3    3    0    0  0.13671398120E+02  0.18300169866E+02 -0.15330484604E+02  0.27510490760E+02  0.00000000000E+00 0. -1.
         21    1    1    2  502  501 -0.22179134338E+02  0.22097454222E+02 -0.50152630469E+02  0.59122735272E+02  0.00000000000E+00 0.  1.
<scales pt_clust_5="13000.00000" pt_clust_6="13000.00000" pt_clust_7="13000.00000" pt_clust_8="13000.00000" pt_clust_9="31.30833"></scales>
<clustering>
<clus scale="   31.308">  2  9  1 -1</clus>
<clus scale="   79.483">  5  6 -1 -1</clus>
<clus scale="   86.762">  1  5  2 -1</clus>
<clus scale="   91.275">  7  8 -1 -1</clus>
<clus scale="   86.762">  1  5  2 -1</clus>
</clustering>
</event>
<event>
 9    2  0.3402837E-005  0.1081304E+03  0.7546771E-02  0.1268199E+00
         -1   -1    0    0    0  501 -0.00000000000E+00  0.00000000000E+00  0.24382632106E+03  0.24382632106E+03  0.00000000000E+00 0.  1.
          2   -1    0    0  502    0  0.00000000000E+00 -0.00000000000E+00 -0.66871088201E+02  0.66871088201E+02  0.00000000000E+00 0. -1.
         23    2    1    2    0    0 -0.24631602383E+02 -0.29100332862E+02  0.11450722584E+03  0.15060185645E+03  0.90085898945E+02 0.  0.
         24    2    1    2    0    0  0.46583613257E+02  0.53086398312E+02  0.23183072009E+02  0.10911558382E+03  0.79878389405E+02 0.  0.
        -13    1    4    4    0    0  0.41295867758E+02  0.48351006942E+02  0.50305916696E+02  0.81079305749E+02  0.00000000000E+00 0.  1.
         14    1    4    4    0    0  0.52877454991E+01  0.47353913705E+01 -0.27122844687E+02  0.28036278067E+02  0.00000000000E+00 0. -1.
        -13    1    3    3    0    0  0.22407516598E+00 -0.50593441907E+02  0.10474299320E+03  0.11632214406E+03  0.00000000000E+00 0.  1.
         13    1    3    3    0    0 -0.24855677548E+02  0.21493109044E+02  0.97642326387E+01  0.34279712394E+02  0.00000000000E+00 0. -1.
         21    1    1    2  502  501 -0.21952010874E+02 -0.23986065450E+02  0.39264935015E+02  0.50979968997E+02  0.00000000000E+00 0.  1.
<scales pt_clust_5="13000.00000" pt_clust_6="13000.00000" pt_clust_7="13000.00000" pt_clust_8="13000.00000" pt_clust_9="32.51495"></scales>
<clustering>
<clus scale="   32.515">  1  9  2 -1</clus>
<clus scale="   79.878">  5  6 -1 -1</clus>
<clus scale="   90.086">  7  8 -1 -1</clus>
<clus scale="   99.786">  2  5  1 -1</clus>
<clus scale="   99.786">  2  5  1 -1</clus>
</clustering>
</event>
<event>
 9    2  0.3402837E-005  0.1092353E+03  0.7546771E-02  0.1269323E+00
          2   -1    0    0  502    0  0.00000000000E+00  0.00000000000E+00  0.73968351773E+03  0.73968351773E+03  0.00000000000E+00 0. -1.
         -1   -1    0    0    0  501 -0.00000000000E+00 -0.00000000000E+00 -0.10914657588E+03  0.10914657588E+03  0.00000000000E+00 0.  1.
         23    2    1    2    0    0  0.21837841330E+02 -0.17605277005E+02 -0.55027024848E+02  0.11476522458E+03  0.96727691056E+02 0.  0.
         24    2    1    2    0    0 -0.49692368207E+02 -0.15731849352E+02  0.68396614727E+03  0.69059313467E+03  0.79952263938E+02 0.  0.
        -11    1    4    4    0    0 -0.30004576895E+02  0.28009407623E+02  0.19460450958E+03  0.19888619032E+03  0.00000000000E+00 0.  1.
         12    1    4    4    0    0 -0.19687791311E+02 -0.43741256975E+02  0.48936163769E+03  0.49170694436E+03  0.00000000000E+00 0. -1.
        -11    1    3    3    0    0  0.14524028611E+01 -0.56616391892E+02 -0.28968246465E+02  0.63613556796E+02  0.00000000000E+00 0. -1.
         11    1    3    3    0    0  0.20385438469E+02  0.39011114887E+02 -0.26058778383E+02  0.51151667784E+02  0.00000000000E+00 0.  1.
         21    1    1    2  502  501  0.27854526877E+02  0.33337126357E+02  0.15978194280E+01  0.43471734359E+02  0.00000000000E+00 0. -1.
<scales pt_clust_5="13000.00000" pt_clust_6="13000.00000" pt_clust_7="13000.00000" pt_clust_8="13000.00000" pt_clust_9="43.44236"></scales>
<clustering>
<clus scale="   43.442">  2  9  1 -1</clus>
<clus scale="   79.952">  5  6 -1 -1</clus>
<clus scale="   94.702">  1  5  2 -1</clus>
<clus scale="   96.728">  7  8 -1 -1</clus>
<clus scale="   94.702">  1  5  2 -1</clus>
</clustering>
</event>
<event>
 9    2  0.3402837E-005  0.1160209E+03  0.7546771E-02  0.1254421E+00
          2   -1    0    0  502    0  0.00000000000E+00  0.00000000000E+00  0.14708402026E+03  0.14708402026E+03  0.00000000000E+00 0. -1.
         -1   -1    0    0    0  501 -0.00000000000E+00 -0.00000000000E+00 -0.20303979246E+03  0.20303979246E+03  0.00000000000E+00 0.  1.
         24    2    1    2    0    0 -0.53549415512E+02  0.11141037485E+02 -0.82829100713E+02  0.12638827164E+03  0.78241118767E+02 0.  0.
         23    2    1    2    0    0  0.72833209076E+02 -0.21192728270E+02  0.95027716852E+02  0.15219588892E+03  0.91539682974E+02 0.  0.
        -13    1    3    3    0    0 -0.25392712208E+02 -0.25746471947E+02 -0.69106706560E+02  0.77996202103E+02  0.00000000000E+00 0.  1.
         14    1    3    3    0    0 -0.28156703304E+02  0.36887509432E+02 -0.13722394154E+02  0.48392069540E+02  0.00000000000E+00 0. -1.
        -11    1    4    4    0    0  0.21823648132E+02  0.19403621715E+02 -0.79969030740E+01  0.30277427438E+02  0.00000000000E+00 0.  1.
         11    1    4    4    0    0  0.51009560943E+02 -0.40596349986E+02  0.10302461993E+03  0.12191846148E+03  0.00000000000E+00 0. -1.
         21    1    1    2  502  501 -0.19283793564E+02  0.10051690785E+02 -0.68154388337E+02  0.71539652161E+02  0.00000000000E+00 0.  1.
<scales pt_clust_5="13000.00000" pt_clust_6="13000.00000" pt_clust_7="13000.00000" pt_clust_8="13000.00000" pt_clust_9="21.74629"></scales>
<clustering>
<clus scale="   21.746">  2  9  1 -1</clus>
<clus scale="   78.241">  5  6 -1 -1</clus>
<clus scale="   91.540">  7  8 -1 -1</clus>
<clus scale="  105.844">  2  5  1 -1</clus>
<clus scale="  116.021">  1  5  2 -1</clus>
</clustering>
</event>
<event>
 9    2  0.3402837E-005  0.1384543E+03  0.7546771E-02  0.1232781E+00
          2   -1    0    0  502    0  0.00000000000E+00  0.00000000000E+00  0.26063350061E+03  0.26063350061E+03  0.00000000000E+00 0. -1.
         -1   -1    0    0    0  501 -0.00000000000E+00 -0.00000000000E+00 -0.21682422451E+03  0.21682422451E+03  0.00000000000E+00 0.  1.
         24    2    1    2    0    0 -0.54342541065E+02 -0.96926245303E+02 -0.76266005668E+02  0.15736513003E+03  0.81237132714E+02 0.  0.
         23    2    1    2    0    0  0.23657567791E+02 -0.13489984429E+02  0.16972826559E+03  0.19519771859E+03  0.92481376551E+02 0.  0.
        -13    1    3    3    0    0 -0.22662908787E+02 -0.53935720827E+02  0.65030011850E+01  0.58863897596E+02  0.00000000000E+00 0.  1.
         14    1    3    3    0    0 -0.31679632277E+02 -0.42990524476E+02 -0.82769006853E+02  0.98501232436E+02  0.00000000000E+00 0. -1.
        -11    1    4    4    0    0  0.47325304982E+02 -0.30221783345E+00  0.15927462312E+03  0.16615709855E+03  0.00000000000E+00 0. -1.
         11    1    4    4    0    0 -0.23667737191E+02 -0.13187766596E+02  0.10453642466E+02  0.29040620040E+02  0.00000000000E+00 0.  1.
         21    1    1    2  502  501  0.30684973273E+02  0.11041622973E+03 -0.49652983821E+02  0.12489487650E+03  0.00000000000E+00 0.  1.
<scales pt_clust_5="13000.00000" pt_clust_6="13000.00000" pt_clust_7="13000.00000" pt_clust_8="13000.00000" pt_clust_9="112.11654"></scales>
<clustering>
<clus scale="   81.237">  5  6 -1 -1</clus>
<clus scale="   92.481">  7  8 -1 -1</clus>
<clus scale="   96.408">  1  7  2 -1</clus>
<clus scale="  112.117">  1  9  2 -1</clus>
<clus scale="   96.408">  1  5  2 -1</clus>
</clustering>
</event>
<event>
 9    2  0.3402837E-005  0.1050582E+03  0.7546771E-02  0.1274598E+00
         -1   -1    0    0    0  501 -0.00000000000E+00  0.00000000000E+00  0.63370720231E+03  0.63370720231E+03  0.00000000000E+00 0.  1.
          2   -1    0    0  502    0  0.00000000000E+00 -0.00000000000E+00 -0.16781217851E+03  0.16781217851E+03  0.00000000000E+00 0. -1.
         23    2    1    2    0    0 -0.40260219533E+02 -0.12605012502E+02  0.18729239041E+03  0.21249903192E+03  0.91091313768E+02 0.  0.
         24    2    1    2    0    0 -0.48742049150E+02  0.32891042007E+02 -0.13363170631E+03  0.16679993532E+03  0.80667078108E+02 0.  0.
        -11    1    4    4    0    0  0.21282671699E+02  0.10717522336E+02 -0.18216741119E+02  0.29994450431E+02  0.00000000000E+00 0.  1.
         12    1    4    4    0    0 -0.70024720849E+02  0.22173519671E+02 -0.11541496519E+03  0.13680548488E+03  0.00000000000E+00 0. -1.
        -11    1    3    3    0    0  0.13417273415E+02 -0.24541463846E+02  0.13043794385E+03  0.13340301297E+03  0.00000000000E+00 0.  1.
         11    1    3    3    0    0 -0.53677492948E+02  0.11936451344E+02  0.56854446558E+02  0.79096018947E+02  0.00000000000E+00 0. -1.
         21    1    1    2  502  501  0.89002268683E+02 -0.20286029505E+02  0.41223433970E+03  0.42222041359E+03  0.00000000000E+00 0.  1.
<scales pt_clust_5="13000.00000" pt_clust_6="13000.00000" pt_clust_7="13000.00000" pt_clust_8="13000.00000" pt_clust_9="91.28487"></scales>
<clustering>
<clus scale="   80.667">  5  6 -1 -1</clus>
<clus scale="   91.091">  7  8 -1 -1</clus>
<clus scale="   91.285">  1  9  2 -1</clus>
<clus scale="   96.160">  2  5  1 -1</clus>
<clus scale="   96.160">  2  5  1 -1</clus>
</clustering>
</event>
<event>
 9    2  0.3402837E-005  0.2149041E+03  0.7546771E-02  0.1138503E+00
          2   -1    0    0  502    0  0.00000000000E+00  0.00000000000E+00  0.74997287953E+03  0.74997287953E+03  0.00000000000E+00 0. -1.
         -1   -1    0    0    0  501 -0.00000000000E+00 -0.00000000000E+00 -0.18280320046E+03  0.18280320046E+03  0.00000000000E+00 0.  1.
         23    2    1    2    0    0  0.10419796315E+03  0.15167002465E+03 -0.76864676138E+02  0.21958140143E+03  0.91906482455E+02 0.  0.
         24    2    1    2    0    0 -0.62823632683E+02 -0.18591762447E+03  0.61779534355E+03  0.65341826976E+03  0.82293236902E+02 0.  0.
        -11    1    4    4    0    0  0.40487464147E+01 -0.43960651147E+02  0.24496127996E+03  0.24890753278E+03  0.00000000000E+00 0.  1.
         12    1    4    4    0    0 -0.66872379098E+02 -0.14195697332E+03  0.37283406359E+03  0.40451073698E+03  0.00000000000E+00 0. -1.
        -13    1    3    3    0    0  0.23983073067E+02  0.13401653456E+02 -0.50612513442E+02  0.57588354952E+02  0.00000000000E+00 0. -1.
         13    1    3    3    0    0  0.80214890079E+02  0.13826837119E+03 -0.26252162695E+02  0.16199304648E+03  0.00000000000E+00 0.  1.
         21    1    1    2  502  501 -0.41374330463E+02  0.34247599820E+02  0.26239011658E+02  0.59776408787E+02  0.00000000000E+00 0.  1.
<scales pt_clust_5="13000.00000" pt_clust_6="13000.00000" pt_clust_7="13000.00000" pt_clust_8="13000.00000" pt_clust_9="53.70971"></scales>
<clustering>
<clus scale="   53.710">  2  9  1 -1</clus>
<clus scale="   82.293">  5  6 -1 -1</clus>
<clus scale="   91.906">  7  8 -1 -1</clus>
<clus scale="  210.972">  1  5  2 -1</clus>
<clus scale="  210.972">  1  5  2 -1</clus>
</clustering>
</event>
<event>
 9    2  0.3402837E-005  0.1719629E+03  0.7546771E-02  0.1177415E+00
         -1   -1    0    0    0  501 -0.00000000000E+00  0.00000000000E+00  0.79308303660E+02  0.79308303660E+02  0.00000000000E+00 0.  1.
          2   -1    0    0  502    0  0.00000000000E+00 -0.00000000000E+00 -0.88530165745E+03  0.88530165745E+03  0.00000000000E+00 0. -1.
         24    2    1    2    0    0 -0.22622957363E+02 -0.97623910893E+02 -0.15075947424E+03  0.19781654417E+03  0.79754246899E+02 0.  0.
         23    2    1    2    0    0 -0.96039353157E+00  0.17443287561E+03 -0.65750483384E+03  0.68641338998E+03  0.91776821526E+02 0.  0.
        -13    1    3    3    0    0 -0.63458198313E+01 -0.42910756199E+02 -0.80554532144E+01  0.44119074711E+02  0.00000000000E+00 0.  1.
         14    1    3    3    0    0 -0.16277137532E+02 -0.54713154694E+02 -0.14270402102E+03  0.15369746946E+03  0.00000000000E+00 0. -1.
        -11    1    4    4    0    0  0.36500969404E+02  0.38039623864E+02 -0.13022205129E+03  0.14048884793E+03  0.00000000000E+00 0.  1.
         11    1    4    4    0    0 -0.37461362935E+02  0.13639325175E+03 -0.52728278255E+03  0.54592454205E+03  0.00000000000E+00 0. -1.
         21    1    1    2  502  501  0.23583350895E+02 -0.76808964717E+02  0.22709542874E+01  0.80380026958E+02  0.00000000000E+00 0.  1.
<scales pt_clust_5="13000.00000" pt_clust_6="13000.00000" pt_clust_7="13000.00000" pt_clust_8="13000.00000" pt_clust_9="80.34794"></scales>
<clustering>
<clus scale="   79.754">  5  6 -1 -1</clus>
<clus scale="   80.348">  1  9  2 -1</clus>
<clus scale="   91.777">  7  8 -1 -1</clus>
<clus scale="  165.858">  1  5  2 -1</clus>
<clus scale="  171.963">  2  5  1 -1</clus>
</clustering>
</event>
<event>
 9    2  0.3402837E-005  0.9714523E+02  0.7546771E-02  0.1291807E+00
          2   -1    0    0  502    0  0.00000000000E+00  0.00000000000E+00  0.76005384232E+03  0.76005384232E+03  0.00000000000E+00 0. -1.
         -1   -1    0    0    0  501 -0.00000000000E+00 -0.00000000000E+00 -0.66382167620E+02  0.66382167620E+02  0.00000000000E+00 0.  1.
         23    2    1    2    0    0  0.28643119668E+02  0.68568805697E+02  0.51201942025E+02  0.12752085808E+03  0.90098950932E+02 0.  0.
         24    2    1    2    0    0 -0.20529610208E+02 -0.26622854177E+02  0.64980551878E+03  0.65556649971E+03  0.79937363277E+02 0.  0.
        -13    1    4    4    0    0  0.26702209057E+02  0.75216724145E+00  0.11901437212E+03  0.12197538479E+03  0.00000000000E+00 0.  1.
         14    1    4    4    0    0 -0.47231819264E+02 -0.27375021419E+02  0.53079114666E+03  0.53359111492E+03  0.00000000000E+00 0. -1.
        -11    1    3    3    0    0 -0.12460182811E+02 -0.17449369514E+02  0.10182051691E+02  0.23736276641E+02  0.00000000000E+00 0. -1.
         11    1    3    3    0    0  0.41103302479E+02  0.86018175211E+02  0.41019890334E+02  0.10378458144E+03  0.00000000000E+00 0.  1.
         21    1    1    2  502  501 -0.81135094599E+01 -0.41945951520E+02 -0.73357861120E+01  0.43348652142E+02  0.00000000000E+00 0.  1.
<scales pt_clust_5="13000.00000" pt_clust_6="13000.00000" pt_clust_7="13000.00000" pt_clust_8="13000.00000" pt_clust_9="42.72343"></scales>
<clustering>
<clus scale="   42.723">  2  9  1 -1</clus>
<clus scale="   79.937">  5  6 -1 -1</clus>
<clus scale="   87.803">  1  5  2 -1</clus>
<clus scale="   90.099">  7  8 -1 -1</clus>
<clus scale="   87.803">  1  5  2 -1</clus>
</clustering>
</event>
<event>
 9    2  0.3402837E-005  0.1184872E+03  0.7546771E-02  0.1249433E+00
          2   -1    0    0  502    0  0.00000000000E+00  0.00000000000E+00  0.71068146109E+03  0.71068146109E+03  0.00000000000E+00 0. -1.
         -1   -1    0    0    0  501 -0.00000000000E+00 -0.00000000000E+00 -0.42475757425E+02  0.42475757425E+02  0.00000000000E+00 0.  1.
         23    2    1    2    0    0 -0.36823564981E+02 -0.39875952021E+02  0.61441821891E+02  0.12394101050E+03  0.92952730563E+02 0.  0.
         24    2    1    2    0    0  0.74883618645E+02  0.23169745827E+02  0.52989544336E+03  0.54182958528E+03  0.81521316958E+02 0.  0.
        -11    1    4    4    0    0  0.63334670999E+02 -0.14685103883E+02  0.21965153248E+03  0.22907144857E+03  0.00000000000E+00 0.  1.
         12    1    4    4    0    0  0.11548947646E+02  0.37854849710E+02  0.31024391088E+03  0.31275813671E+03  0.00000000000E+00 0. -1.
        -13    1    3    3    0    0 -0.34970637543E+02 -0.36877738533E+01 -0.15853979447E+02  0.38573226861E+02  0.00000000000E+00 0.  1.
         13    1    3    3    0    0 -0.18529274383E+01 -0.36188178168E+02  0.77295801338E+02  0.85367783640E+02  0.00000000000E+00 0. -1.
         21    1    1    2  502  501 -0.38060053664E+02  0.16706206194E+02  0.76868438413E+02  0.87386622743E+02  0.00000000000E+00 0.  1.
<scales pt_clust_5="13000.00000" pt_clust_6="13000.00000" pt_clust_7="13000.00000" pt_clust_8="13000.00000" pt_clust_9="41.56519"></scales>
<clustering>
<clus scale="   41.565">  2  9  1 -1</clus>
<clus scale="   81.521">  5  6 -1 -1</clus>
<clus scale="   92.953">  7  8 -1 -1</clus>
<clus scale="  109.748">  1  5  2 -1</clus>
<clus scale="  109.748">  1  5  2 -1</clus>
</clustering>
</event>
<event>
 9    2  0.3402837E-005  0.9870144E+02  0.7546771E-02  0.1287459E+00
          2   -1    0    0  502    0  0.00000000000E+00  0.00000000000E+00  0.82178831196E+02  0.82178831196E+02  0.00000000000E+00 0. -1.
         -1   -1    0    0    0  501 -0.00000000000E+00 -0.00000000000E+00 -0.35405087859E+03  0.35405087859E+03  0.00000000000E+00 0.  1.
         24    2    1    2    0    0  0.35680188761E+02  0.35623152800E+01 -0.25920659650E+03  0.27433337099E+03  0.82370946409E+02 0.  0.
         23    2    1    2    0    0 -0.98550343775E+01 -0.40674828553E+02  0.24803147203E+02  0.10317519197E+03  0.90985497452E+02 0.  0.
        -13    1    3    3    0    0  0.20920812965E+02  0.42868740995E+02 -0.12992943773E+03  0.13840906097E+03  0.00000000000E+00 0.  1.
         14    1    3    3    0    0  0.14759375796E+02 -0.39306425715E+02 -0.12927715877E+03  0.13592431002E+03  0.00000000000E+00 0. -1.
        -11    1    4    4    0    0  0.95867799195E+01 -0.56219482530E+02  0.43761109328E+02  0.71885820958E+02  0.00000000000E+00 0. -1.
         11    1    4    4    0    0 -0.19441814297E+02  0.15544653977E+02 -0.18957962125E+02  0.31289371013E+02  0.00000000000E+00 0.  1.
         21    1    1    2  502  501 -0.25825154384E+02  0.37112513273E+02 -0.37468598094E+02  0.58721146817E+02  0.00000000000E+00 0. -1.
<scales pt_clust_5="13000.00000" pt_clust_6="13000.00000" pt_clust_7="13000.00000" pt_clust_8="13000.00000" pt_clust_9="45.21368"></scales>
<clustering>
<clus scale="   45.214">  2  9  1 -1</clus>
<clus scale="   82.371">  5  6 -1 -1</clus>
<clus scale="   90.822">  2  5  1 -1</clus>
<clus scale="   90.985">  7  8 -1 -1</clus>
<clus scale="   98.701">  1  5  2 -1</clus>
</clustering>
</event>
<event>
 9    2  0.3402837E-005  0.9569967E+02  0.7546771E-02  0.1295788E+00
         -1   -1    0    0    0  501 -0.00000000000E+00  0.00000000000E+00  0.43123354242E+02  0.43123354242E+02  0.00000000000E+00 0.  1.
          2   -1    0    0  502    0  0.00000000000E+00 -0.00000000000E+00 -0.10599844931E+04  0.10599844931E+04  0.00000000000E+00 0. -1.
         23    2    1    2    0    0 -0.21026118341E+02  0.37302235489E+02 -0.11670383553E+03  0.15363640301E+03  0.90281807009E+02 0.  0.
         24    2    1    2    0    0  0.29922215889E+02 -0.10139645823E+02 -0.91382415657E+03  0.91778975083E+03  0.79153560668E+02 0.  0.
        -11    1    4    4    0    0 -0.34662026536E+01 -0.31262117494E+02 -0.16795007699E+03  0.17087001759E+03  0.00000000000E+00 0.  1.
         12    1    4    4    0    0  0.33388418542E+02  0.21122471671E+02 -0.74587407958E+03  0.74691973323E+03  0.00000000000E+00 0. -1.
        -13    1    3    3    0    0 -0.47771297378E+02  0.25636757397E+02 -0.29588182293E+02  0.61764073007E+02  0.00000000000E+00 0.  1.
         13    1    3    3    0    0  0.26745179037E+02  0.11665478092E+02 -0.87115653237E+02  0.91872330001E+02  0.00000000000E+00 0. -1.
         21    1    1    2  502  501 -0.88960975476E+01 -0.27162589667E+02  0.13666853210E+02  0.31681693541E+02  0.00000000000E+00 0.  1.
<scales pt_clust_5="13000.00000" pt_clust_6="13000.00000" pt_clust_7="13000.00000" pt_clust_8="13000.00000" pt_clust_9="28.58228"></scales>
<clustering>
<clus scale="   28.582">  1  9  2 -1</clus>
<clus scale="   79.154">  5  6 -1 -1</clus>
<clus scale="   85.281">  2  5  1 -1</clus>
<clus scale="   90.282">  7  8 -1 -1</clus>
<clus scale="   85.281">  2  5  1 -1</clus>
</clustering>
</event>
<event>
 9    2  0.3402837E-005  0.1903757E+03  0.7546771E-02  0.1159082E+00
          2   -1    0    0  502    0  0.00000000000E+00  0.00000000000E+00  0.57799555527E+03  0.57799555527E+03  0.00000000000E+00 0. -1.
         -1   -1    0    0    0  501 -0.00000000000E+00 -0.00000000000E+00 -0.15781967744E+03  0.15781967744E+03  0.00000000000E+00 0.  1.
         23    2    1    2    0    0 -0.17076547086E+03 -0.16671628016E+03  0.68297431396E+02  0.26413839542E+03  0.90273964650E+02 0.  0.
         24    2    1    2    0    0  0.13829579330E+03  0.66720866595E+02  0.31606884720E+03  0.36061068542E+03  0.81013269174E+02 0.  0.
        -11    1    4    4    0    0  0.24807546192E+02  0.36761296352E+02  0.36626160620E+02  0.57517674669E+02  0.00000000000E+00 0.  1.
         12    1    4    4    0    0  0.11348824711E+03  0.29959570243E+02  0.27944268658E+03  0.30309301075E+03  0.00000000000E+00 0. -1.
        -13    1    3    3    0    0 -0.14181829980E+03 -0.16769404607E+03  0.39218470310E+02  0.22309596961E+03  0.00000000000E+00 0. -1.
         13    1    3    3    0    0 -0.28947171057E+02  0.97776590692E+00  0.29078961087E+02  0.41042425808E+02  0.00000000000E+00 0.  1.
         21    1    1    2  502  501  0.32469677557E+02  0.99995413565E+02  0.35809599229E+02  0.11106615187E+03  0.00000000000E+00 0.  1.
<scales pt_clust_5="13000.00000" pt_clust_6="13000.00000" pt_clust_7="13000.00000" pt_clust_8="13000.00000" pt_clust_9="105.13497"></scales>
<clustering>
<clus scale="   81.013">  5  6 -1 -1</clus>
<clus scale="   90.274">  7  8 -1 -1</clus>
<clus scale="  105.135">  2  9  1 -1</clus>
<clus scale="  186.163">  1  5  2 -1</clus>
<clus scale="  186.163">  1  5  2 -1</clus>
</clustering>
</event>
<event>
 9    2  0.3402837E-005  0.1057147E+03  0.7546771E-02  0.1270997E+00
         -1   -1    0    0    0  501 -0.00000000000E+00  0.00000000000E+00  0.59144302558E+02  0.59144302558E+02  0.00000000000E+00 0.  1.
          2   -1    0    0  502    0  0.00000000000E+00 -0.00000000000E+00 -0.55219118248E+03  0.55219118248E+03  0.00000000000E+00 0. -1.
         23    2    1    2    0    0  0.22436032295E+02  0.10609209668E+02 -0.16354776747E+01  0.89520222247E+02  0.85995723899E+02 0.  0.
         24    2    1    2    0    0 -0.29885347234E+02 -0.60528788226E+02 -0.42850345254E+03  0.44116250863E+03  0.80326097901E+02 0.  0.
        -11    1    4    4    0    0  0.21029396268E+01 -0.28513286360E+02 -0.35592520927E+02  0.45653667980E+02  0.00000000000E+00 0.  1.
         12    1    4    4    0    0 -0.31988286860E+02 -0.32015501866E+02 -0.39291093161E+03  0.39550884065E+03  0.00000000000E+00 0. -1.
        -13    1    3    3    0    0 -0.39986224258E+01  0.40521746473E+02  0.18599341400E+02  0.44765348419E+02  0.00000000000E+00 0.  1.
         13    1    3    3    0    0  0.26434654721E+02 -0.29912536805E+02 -0.20234819075E+02  0.44754873828E+02  0.00000000000E+00 0. -1.
         21    1    1    2  502  501  0.74493149381E+01  0.49919578558E+02 -0.62907949706E+02  0.80652754154E+02  0.00000000000E+00 0.  1.
<scales pt_clust_5="13000.00000" pt_clust_6="13000.00000" pt_clust_7="13000.00000" pt_clust_8="13000.00000" pt_clust_9="50.47234"></scales>
<clustering>
<clus scale="   50.472">  1  9  2 -1</clus>
<clus scale="   80.326">  5  6 -1 -1</clus>
<clus scale="   85.996">  7  8 -1 -1</clus>
<clus scale="  101.156">  2  5  1 -1</clus>
<clus scale="  101.156">  2  5  1 -1</clus>
</clustering>
</event>
<event>
 9    2  0.3402837E-005  0.1131970E+03  0.7546771E-02  0.1258871E+00
          2   -1    0    0  502    0  0.00000000000E+00  0.00000000000E+00  0.29098825618E+03  0.29098825618E+03  0.00000000000E+00 0. -1.
         -1   -1    0    0    0  501 -0.00000000000E+00 -0.00000000000E+00 -0.57219018493E+02  0.57219018493E+02  0.00000000000E+00 0.  1.
         23    2    1    2    0    0  0.59884056161E+02 -0.34075512088E+02  0.13013595972E+03  0.17451922065E+03  0.93671498636E+02 0.  0.
         24    2    1    2    0    0 -0.41116210595E+02  0.43868871504E+02  0.11129037292E+03  0.15117643439E+03  0.82787357423E+02 0.  0.
        -11    1    4    4    0    0 -0.10650976930E+02  0.50531746977E+02  0.21169860636E+02  0.55812756261E+02  0.00000000000E+00 0.  1.
         12    1    4    4    0    0 -0.30465233665E+02 -0.66628754726E+01  0.90120512281E+02  0.95363678126E+02  0.00000000000E+00 0. -1.
        -13    1    3    3    0    0  0.33416831187E+02 -0.71874665050E+01  0.13238180072E+03  0.13672339026E+03  0.00000000000E+00 0. -1.
         13    1    3    3    0    0  0.26467224973E+02 -0.26888045583E+02 -0.22458410014E+01  0.37795830390E+02  0.00000000000E+00 0.  1.
         21    1    1    2  502  501 -0.18767845566E+02 -0.97933594166E+01 -0.76570949475E+01  0.22511619641E+02  0.00000000000E+00 0. -1.
<scales pt_clust_5="13000.00000" pt_clust_6="13000.00000" pt_clust_7="13000.00000" pt_clust_8="13000.00000" pt_clust_9="21.16936"></scales>
<clustering>
<clus scale="   21.169">  2  9  1 -1</clus>
<clus scale="   82.787">  5  6 -1 -1</clus>
<clus scale="   93.671">  7  8 -1 -1</clus>
<clus scale="  104.369">  1  5  2 -1</clus>
<clus scale="  104.369">  1  5  2 -1</clus>
</clustering>
</event>
<event>
 9    2  0.3402837E-005  0.1405369E+03  0.7546771E-02  0.1225728E+00
         -1   -1    0    0    0  501 -0.00000000000E+00  0.00000000000E+00  0.12597930550E+03  0.12597930550E+03  0.00000000000E+00 0.  1.
          2   -1    0    0  502    0  0.00000000000E+00 -0.00000000000E+00 -0.71623285720E+03  0.71623285720E+03  0.00000000000E+00 0. -1.
         23    2    1    2    0    0  0.38970555459E+02 -0.82350463667E+02  0.47302957846E+01  0.15170244705E+03  0.12120624440E+03 0.  0.
         24    2    1    2    0    0  0.92773268085E+01  0.70155624241E+02 -0.62392936027E+03  0.63293875977E+03  0.79471671731E+02 0.  0.
        -11    1    4    4    0    0  0.20717236674E+02  0.61954477613E+02 -0.23943355724E+03  0.24818539346E+03  0.00000000000E+00 0.  1.
         12    1    4    4    0    0 -0.11439909866E+02  0.82011466281E+01 -0.38449580303E+03  0.38475336631E+03  0.00000000000E+00 0. -1.
        -11    1    3    3    0    0  0.33719836928E+02  0.25672073635E+02  0.95580697030E+01  0.43444671291E+02  0.00000000000E+00 0. -1.
         11    1    3    3    0    0  0.52507185302E+01 -0.10802253730E+03 -0.48277739185E+01  0.10825777575E+03  0.00000000000E+00 0.  1.
         21    1    1    2  502  501 -0.48247882267E+02  0.12194839425E+02  0.28945512785E+02  0.57570955892E+02  0.00000000000E+00 0. -1.
<scales pt_clust_5="13000.00000" pt_clust_6="13000.00000" pt_clust_7="13000.00000" pt_clust_8="13000.00000" pt_clust_9="49.76517"></scales>
<clustering>
<clus scale="   49.765">  1  9  2 -1</clus>
<clus scale="   79.472">  5  6 -1 -1</clus>
<clus scale="  106.656">  2  5  1 -1</clus>
<clus scale="  121.206">  7  8 -1 -1</clus>
<clus scale="  106.656">  2  5  1 -1</clus>
</clustering>
</event>
<event>
 9    2  0.3402837E-005  0.9250357E+02  0.7546771E-02  0.1301235E+00
          2   -1    0    0  502    0  0.00000000000E+00  0.00000000000E+00  0.14876108405E+04  0.14876108405E+04  0.00000000000E+00 0. -1.
         -1   -1    0    0    0  501 -0.00000000000E+00 -0.00000000000E+00 -0.29454331144E+02  0.29454331144E+02  0.00000000000E+00 0.  1.
         23    2    1    2    0    0 -0.89656206557E+01  0.29057520129E+01  0.24953422863E+03  0.26521894985E+03  0.89358459882E+02 0.  0.
         24    2    1    2    0    0 -0.30534600090E+02  0.12764369365E+01  0.12089626986E+04  0.12121237592E+04  0.81970787442E+02 0.  0.
        -13    1    4    4    0    0  0.13405832760E+02  0.16105398822E+02  0.99033442687E+02  0.10122609838E+03  0.00000000000E+00 0.  1.
         14    1    4    4    0    0 -0.43940432851E+02 -0.14828961885E+02  0.11099292559E+04  0.11108976609E+04  0.00000000000E+00 0. -1.
        -11    1    3    3    0    0  0.19504533199E+02  0.35849437616E+02  0.75543498785E+02  0.85862851114E+02  0.00000000000E+00 0.  1.
         11    1    3    3    0    0 -0.28470153855E+02 -0.32943685603E+02  0.17399072984E+03  0.17935609873E+03  0.00000000000E+00 0. -1.
         21    1    1    2  502  501  0.39500220746E+02 -0.41821889495E+01 -0.34041792881E+00  0.39722462509E+02  0.00000000000E+00 0.  1.
<scales pt_clust_5="13000.00000" pt_clust_6="13000.00000" pt_clust_7="13000.00000" pt_clust_8="13000.00000" pt_clust_9="39.72100"></scales>
<clustering>
<clus scale="   39.721">  2  9  1 -1</clus>
<clus scale="   81.971">  5  6 -1 -1</clus>
<clus scale="   85.388">  1  5  2 -1</clus>
<clus scale="   89.358">  7  8 -1 -1</clus>
<clus scale="   85.388">  1  5  2 -1</clus>
</clustering>
</event>
<event>
 9    2  0.3402837E-005  0.2412423E+03  0.7546771E-02  0.1119427E+00
         -1   -1    0    0    0  501 -0.00000000000E+00  0.00000000000E+00  0.35424151009E+03  0.35424151009E+03  0.00000000000E+00 0.  1.
          2   -1    0    0  502    0  0.00000000000E+00 -0.00000000000E+00 -0.18504281634E+03  0.18504281634E+03  0.00000000000E+00 0. -1.
         24    2    1    2    0    0  0.27877838425E+02 -0.23030980253E+03  0.11986770270E+03  0.27492432725E+03  0.85996165893E+02 0.  0.
         23    2    1    2    0    0 -0.13888882657E+02  0.21562215133E+03  0.31741151564E+02  0.23751189990E+03  0.93373383184E+02 0.  0.
        -11    1    3    3    0    0 -0.26919766182E+01 -0.20372002130E+03  0.11543355838E+03  0.23416660782E+03  0.00000000000E+00 0.  1.
         12    1    3    3    0    0  0.30569815043E+02 -0.26589781233E+02  0.44341443148E+01  0.40757719436E+02  0.00000000000E+00 0. -1.
        -13    1    4    4    0    0 -0.42615838611E+01  0.15797439508E+03  0.64295912431E+02  0.17061077034E+03  0.00000000000E+00 0.  1.
         13    1    4    4    0    0 -0.96272987962E+01  0.57647756247E+02 -0.32554760867E+02  0.66901129568E+02  0.00000000000E+00 0. -1.
         21    1    1    2  502  501 -0.13988955768E+02  0.14687651198E+02  0.17589839491E+02  0.26848099272E+02  0.00000000000E+00 0. -1.
<scales pt_clust_5="13000.00000" pt_clust_6="13000.00000" pt_clust_7="13000.00000" pt_clust_8="13000.00000" pt_clust_9="20.28344"></scales>
<clustering>
<clus scale="   20.283">  1  9  2 -1</clus>
<clus scale="   85.996">  5  6 -1 -1</clus>
<clus scale="   93.373">  7  8 -1 -1</clus>
<clus scale="  238.484">  1  5  2 -1</clus>
<clus scale="  241.242">  2  5  1 -1</clus>
</clustering>
</event>
<event>
 9    2  0.3402837E-005  0.1122820E+03  0.7546771E-02  0.1257893E+00
          2   -1    0    0  502    0  0.00000000000E+00  0.00000000000E+00  0.45947494338E+03  0.45947494338E+03  0.00000000000E+00 0. -1.
         -1   -1    0    0    0  501 -0.00000000000E+00 -0.00000000000E+00 -0.49179602112E+02  0.49179602112E+02  0.00000000000E+00 0.  1.
         23    2    1    2    0    0 -0.65627969867E+02 -0.31438603273E+02  0.10204879543E+03  0.15368904297E+03  0.88943516206E+02 0.  0.
         24    2    1    2    0    0  0.45791555237E+02  0.38920127778E+02  0.31405966842E+03  0.33298257851E+03  0.92910060755E+02 0.  0.
        -11    1    4    4    0    0  0.15113968622E+02  0.38341303373E+02  0.40754549856E+02  0.57960511780E+02  0.00000000000E+00 0.  1.
         12    1    4    4    0    0  0.30677586615E+02  0.57882440514E+00  0.27330511856E+03  0.27502206673E+03  0.00000000000E+00 0. -1.
        -13    1    3    3    0    0 -0.10288944567E+02  0.21411652152E+02  0.63925460961E+02  0.68196669913E+02  0.00000000000E+00 0. -1.
         13    1    3    3    0    0 -0.55339025299E+02 -0.52850255424E+02  0.38123334469E+02  0.85492373055E+02  0.00000000000E+00 0.  1.
         21    1    1    2  502  501  0.19836414629E+02 -0.74815245055E+01 -0.58131225737E+01  0.21982924017E+02  0.00000000000E+00 0.  1.
<scales pt_clust_5="13000.00000" pt_clust_6="13000.00000" pt_clust_7="13000.00000" pt_clust_8="13000.00000" pt_clust_9="21.20039"></scales>
<clustering>
<clus scale="   21.200">  2  9  1 -1</clus>
<clus scale="   88.944">  7  8 -1 -1</clus>
<clus scale="   92.910">  5  6 -1 -1</clus>
<clus scale="  109.023">  2  7  1 -1</clus>
<clus scale="  112.282">  1  5  2 -1</clus>
</clustering>
</event>
<event>
 9    2  0.3402837E-005  0.2381107E+03  0.7546771E-02  0.1121232E+00
         -1   -1    0    0    0  501 -0.00000000000E+00  0.00000000000E+00  0.19645310972E+03  0.19645310972E+03  0.00000000000E+00 0.  1.
          2   -1    0    0  502    0  0.00000000000E+00 -0.00000000000E+00 -0.57216101230E+03  0.57216101230E+03  0.00000000000E+00 0. -1.
         23    2    1    2    0    0  0.19404447551E+03  0.67761957075E+02 -0.26892072693E+01  0.22337470808E+03  0.87430469908E+02 0.  0.
         24    2    1    2    0    0 -0.21615313555E+03 -0.61608483128E+02 -0.42458316033E+03  0.48879871815E+03  0.90197248448E+02 0.  0.
        -13    1    4    4    0    0 -0.20937781292E+03 -0.57408342406E+02 -0.33716265323E+03  0.40101551224E+03  0.00000000000E+00 0.  1.
         14    1    4    4    0    0 -0.67753226276E+01 -0.42001407211E+01 -0.87420507095E+02  0.87783205908E+02  0.00000000000E+00 0. -1.
        -11    1    3    3    0    0  0.21921293057E+02 -0.14743405879E+02 -0.17873084557E+02  0.31896053953E+02  0.00000000000E+00 0. -1.
         11    1    3    3    0    0  0.17212318246E+03  0.82505362955E+02  0.15183877287E+02  0.19147865412E+03  0.00000000000E+00 0.  1.
         21    1    1    2  502  501  0.22108660033E+02 -0.61534739479E+01  0.51564465013E+02  0.56440695798E+02  0.00000000000E+00 0. -1.
<scales pt_clust_5="13000.00000" pt_clust_6="13000.00000" pt_clust_7="13000.00000" pt_clust_8="13000.00000" pt_clust_9="22.94903"></scales>
<clustering>
<clus scale="   22.949">  1  9  2 -1</clus>
<clus scale="   87.430">  7  8 -1 -1</clus>
<clus scale="   90.197">  5  6 -1 -1</clus>
<clus scale="  237.076">  1  7  2 -1</clus>
<clus scale="  238.111">  2  5  1 -1</clus>
</clustering>
</event>
<event>
 9    2  0.3402837E-005  0.9737679E+02  0.7546771E-02  0.1292647E+00
         -1   -1    0    0    0  501 -0.00000000000E+00  0.00000000000E+00  0.35774934842E+02  0.35774934842E+02  0.00000000000E+00 0.  1.
          2   -1    0    0  502    0  0.00000000000E+00 -0.00000000000E+00 -0.35404523520E+03  0.35404523520E+03  0.00000000000E+00 0. -1.
         23    2    1    2    0    0 -0.37930269555E+02  0.21306715776E+02 -0.82070786432E+02  0.12998686780E+03  0.90930139832E+02 0.  0.
         24    2    1    2    0    0  0.18512573116E+02 -0.27257185425E+02 -0.21075751771E+03  0.22727949761E+03  0.78431940202E+02 0.  0.
        -13    1    4    4    0    0  0.43139900288E+02 -0.38663949449E+02 -0.14393137675E+03  0.15515216143E+03  0.00000000000E+00 0.  1.
         14    1    4    4    0    0 -0.24627327172E+02  0.11406764024E+02 -0.66826140957E+02  0.72127336179E+02  0.00000000000E+00 0. -1.
        -13    1    3    3    0    0 -0.60010003482E+02 -0.11542851423E+02 -0.52771667497E+02  0.80742100712E+02  0.00000000000E+00 0. -1.
         13    1    3    3    0    0  0.22079733927E+02  0.32849567199E+02 -0.29299118935E+02  0.49244767091E+02  0.00000000000E+00 0.  1.
         21    1    1    2  502  501  0.19417696439E+02  0.59504696486E+01 -0.25441996214E+02  0.32553804622E+02  0.00000000000E+00 0. -1.
<scales pt_clust_5="13000.00000" pt_clust_6="13000.00000" pt_clust_7="13000.00000" pt_clust_8="13000.00000" pt_clust_9="20.30899"></scales>
<clustering>
<clus scale="   20.309">  1  9  2 -1</clus>
<clus scale="   78.432">  5  6 -1 -1</clus>
<clus scale="   85.823">  2  5  1 -1</clus>
<clus scale="   90.930">  7  8 -1 -1</clus>
<clus scale="   85.823">  2  5  1 -1</clus>
</clustering>
</event>
<event>
 9    2  0.3402837E-005  0.1664798E+03  0.7546771E-02  0.1182837E+00
          2   -1    0    0  502    0  0.00000000000E+00  0.00000000000E+00  0.10330107903E+03  0.10330107903E+03  0.00000000000E+00 0. -1.
         -1   -1    0    0    0  501 -0.00000000000E+00 -0.00000000000E+00 -0.41687296721E+03  0.41687296721E+03  0.00000000000E+00 0.  1.
         23    2    1    2    0    0  0.11797925298E+03  0.48417287048E+02 -0.27299836175E+03  0.31462094878E+03  0.90525676340E+02 0.  0.
         24    2    1    2    0    0 -0.12667880188E+03 -0.67212417716E+02 -0.58482163116E+01  0.16512060742E+03  0.81643036564E+02 0.  0.
        -13    1    4    4    0    0 -0.42366957506E+02 -0.38851676851E+02  0.34930712644E+02  0.67264898485E+02  0.00000000000E+00 0.  1.
         14    1    4    4    0    0 -0.84311844372E+02 -0.28360740866E+02 -0.40778928956E+02  0.97855708932E+02  0.00000000000E+00 0. -1.
        -11    1    3    3    0    0  0.14764546708E+02  0.45024032546E+02 -0.12894198074E+03  0.13737244900E+03  0.00000000000E+00 0. -1.
         11    1    3    3    0    0  0.10321470627E+03  0.33932545020E+01 -0.14405638101E+03  0.17724849978E+03  0.00000000000E+00 0.  1.
         21    1    1    2  502  501  0.86995488952E+01  0.18795130668E+02 -0.34725310119E+02  0.40432490037E+02  0.00000000000E+00 0.  1.
<scales pt_clust_5="13000.00000" pt_clust_6="13000.00000" pt_clust_7="13000.00000" pt_clust_8="13000.00000" pt_clust_9="20.71084"></scales>
<clustering>
<clus scale="   20.711">  2  9  1 -1</clus>
<clus scale="   81.643">  5  6 -1 -1</clus>
<clus scale="   90.526">  7  8 -1 -1</clus>
<clus scale="  161.822">  1  5  2 -1</clus>
<clus scale="  161.822">  1  5  2 -1</clus>
</clustering>
</event>
<event>
 9    2  0.3402837E-005  0.1146777E+03  0.7546771E-02  0.1252772E+00
          2   -1    0    0  502    0  0.00000000000E+00  0.00000000000E+00  0.54216280891E+03  0.54216280891E+03  0.00000000000E+00 0. -1.
         -1   -1    0    0    0  501 -0.00000000000E+00 -0.00000000000E+00 -0.44188738495E+02  0.44188738495E+02  0.00000000000E+00 0.  1.
         23    2    1    2    0    0  0.62184099251E+02  0.62630808216E+02  0.86703984103E+02  0.14603859564E+03  0.77590013663E+02 0.  0.
         24    2    1    2    0    0 -0.70874766713E+02 -0.40467570631E+02  0.39584849056E+03  0.41194814229E+03  0.79651664293E+02 0.  0.
        -11    1    4    4    0    0 -0.86214873559E+02 -0.24651314862E+02  0.27950329793E+03  0.29353498139E+03  0.00000000000E+00 0.  1.
         12    1    4    4    0    0  0.15340106846E+02 -0.15816255769E+02  0.11634519264E+03  0.11841316090E+03  0.00000000000E+00 0. -1.
        -13    1    3    3    0    0  0.32978831339E+02  0.56380153517E+02  0.13116444334E+02  0.66621063779E+02  0.00000000000E+00 0.  1.
         13    1    3    3    0    0  0.29205267912E+02  0.62506546995E+01  0.73587539769E+02  0.79417531863E+02  0.00000000000E+00 0. -1.
         21    1    1    2  502  501  0.86906674615E+01 -0.22163237585E+02  0.15421595754E+02  0.28364809480E+02  0.00000000000E+00 0. -1.
<scales pt_clust_5="13000.00000" pt_clust_6="13000.00000" pt_clust_7="13000.00000" pt_clust_8="13000.00000" pt_clust_9="23.80623"></scales>
<clustering>
<clus scale="   23.806">  2  9  1 -1</clus>
<clus scale="   77.590">  7  8 -1 -1</clus>
<clus scale="   79.652">  5  6 -1 -1</clus>
<clus scale="  113.255">  2  7  1 -1</clus>
<clus scale="  114.678">  1  5  2 -1</clus>
</clustering>
</event>
<event>
 9    2  0.3402837E-005  0.1024096E+03  0.7546771E-02  0.1281552E+00
          2   -1    0    0  502    0  0.00000000000E+00  0.00000000000E+00  0.34421612010E+03  0.34421612010E+03  0.00000000000E+00 0. -1.
         -1   -1    0    0    0  501 -0.00000000000E+00 -0.00000000000E+00 -0.17345980060E+03  0.17345980060E+03  0.00000000000E+00 0.  1.
         24    2    1    2    0    0 -0.42527622953E+02  0.11825495331E+02 -0.21629361884E+02  0.92055334904E+02  0.77832604575E+02 0.  0.
         23    2    1    2    0    0  0.43252072077E+02  0.23224478302E+02  0.29742512215E+03  0.31488527258E+03  0.90999524581E+02 0.  0.
        -11    1    3    3    0    0 -0.33886266037E+02 -0.58862467077E+01 -0.48052139956E+02  0.59092597511E+02  0.00000000000E+00 0.  1.
         12    1    3    3    0    0 -0.86413569155E+01  0.17711742039E+02  0.26422778072E+02  0.32962737393E+02  0.00000000000E+00 0. -1.
        -11    1    4    4    0    0  0.21823598829E+02 -0.31312480838E+02  0.17561118814E+03  0.17971096327E+03  0.00000000000E+00 0.  1.
         11    1    4    4    0    0  0.21428473248E+02  0.54536959141E+02  0.12181393401E+03  0.13517430931E+03  0.00000000000E+00 0. -1.
         21    1    1    2  502  501 -0.72444912395E+00 -0.35049973633E+02 -0.10503944075E+03  0.11073531321E+03  0.00000000000E+00 0. -1.
<scales pt_clust_5="13000.00000" pt_clust_6="13000.00000" pt_clust_7="13000.00000" pt_clust_8="13000.00000" pt_clust_9="35.05746"></scales>
<clustering>
<clus scale="   35.057">  2  9  1 -1</clus>
<clus scale="   77.833">  5  6 -1 -1</clus>
<clus scale="   90.911">  2  5  1 -1</clus>
<clus scale="   91.000">  7  8 -1 -1</clus>
<clus scale="  102.410">  1  5  2 -1</clus>
</clustering>
</event>
<event>
 9    2  0.3402837E-005  0.1428781E+03  0.7546771E-02  0.1212387E+00
         -1   -1    0    0    0  501 -0.00000000000E+00  0.00000000000E+00  0.16844783690E+03  0.16844783690E+03  0.00000000000E+00 0.  1.
          2   -1    0    0  502    0  0.00000000000E+00 -0.00000000000E+00 -0.11472049987E+04  0.11472049987E+04  0.00000000000E+00 0. -1.
         23    2    1    2    0    0 -0.22249207360E+01  0.92581746165E+02  0.32875026500E+02  0.13374674020E+03  0.90725372148E+02 0.  0.
         24    2    1    2    0    0  0.13437441556E+02 -0.11047225582E+03 -0.10912258939E+04  0.10995595781E+04  0.76633087698E+02 0.  0.
        -13    1    4    4    0    0 -0.74592879217E+01 -0.63410745562E+02 -0.30301976450E+03  0.30967328155E+03  0.00000000000E+00 0.  1.
         14    1    4    4    0    0  0.20896729478E+02 -0.47061510259E+02 -0.78820612939E+03  0.78988629654E+03  0.00000000000E+00 0. -1.
        -13    1    3    3    0    0  0.20305304458E+02 -0.96518122815E+01  0.16268219667E+02  0.27750997110E+02  0.00000000000E+00 0. -1.
         13    1    3    3    0    0 -0.22530225194E+02  0.10223355845E+03  0.16606806833E+02  0.10599574309E+03  0.00000000000E+00 0.  1.
         21    1    1    2  502  501 -0.11212520820E+02  0.17890509656E+02  0.79593705538E+02  0.82346517353E+02  0.00000000000E+00 0.  1.
<scales pt_clust_5="13000.00000" pt_clust_6="13000.00000" pt_clust_7="13000.00000" pt_clust_8="13000.00000" pt_clust_9="21.11376"></scales>
<clustering>
<clus scale="   21.114">  1  9  2 -1</clus>
<clus scale="   76.633">  5  6 -1 -1</clus>
<clus scale="   90.725">  7  8 -1 -1</clus>
<clus scale="  134.371">  2  5  1 -1</clus>
<clus scale="  134.371">  2  5  1 -1</clus>
</clustering>
</event>
<event>
 9    2  0.3402837E-005  0.1191969E+03  0.7546771E-02  0.1247048E+00
          2   -1    0    0  502    0  0.00000000000E+00  0.00000000000E+00  0.55694667039E+03  0.55694667039E+03  0.00000000000E+00 0. -1.
         -1   -1    0    0    0  501 -0.00000000000E+00 -0.00000000000E+00 -0.80654090098E+02  0.80654090098E+02  0.00000000000E+00 0.  1.
         23    2    1    2    0    0  0.75886846027E+02 -0.70907707374E+02  0.32152682700E+02  0.14028377982E+03  0.88651156288E+02 0.  0.
         24    2    1    2    0    0 -0.42932949850E+02  0.63846898701E+02  0.44963304715E+03  0.46317039981E+03  0.80232646149E+02 0.  0.
        -13    1    4    4    0    0  0.20337020232E+02  0.13822242112E+02  0.53096142107E+02  0.58513665716E+02  0.00000000000E+00 0.  1.
         14    1    4    4    0    0 -0.63269970082E+02  0.50024656590E+02  0.39653690505E+03  0.40465673409E+03  0.00000000000E+00 0. -1.
        -13    1    3    3    0    0  0.51719020156E+02 -0.89637418611E+02  0.13239829285E+02  0.10433128457E+03  0.00000000000E+00 0.  1.
         13    1    3    3    0    0  0.24167825871E+02  0.18729711236E+02  0.18912853415E+02  0.35952495249E+02  0.00000000000E+00 0. -1.
         21    1    1    2  502  501 -0.32953896176E+02  0.70608086729E+01 -0.54931495614E+01  0.34146580860E+02  0.00000000000E+00 0.  1.
<scales pt_clust_5="13000.00000" pt_clust_6="13000.00000" pt_clust_7="13000.00000" pt_clust_8="13000.00000" pt_clust_9="33.70184"></scales>
<clustering>
<clus scale="   33.702">  2  9  1 -1</clus>
<clus scale="   80.233">  5  6 -1 -1</clus>
<clus scale="   88.651">  7  8 -1 -1</clus>
<clus scale="  113.076">  1  5  2 -1</clus>
<clus scale="  113.076">  1  5  2 -1</clus>
</clustering>
</event>
<event>
 9    2  0.3402837E-005  0.9848675E+02  0.7546771E-02  0.1289907E+00
         -1   -1    0    0    0  501 -0.00000000000E+00  0.00000000000E+00  0.60747237424E+02  0.60747237424E+02  0.00000000000E+00 0.  1.
          2   -1    0    0  502    0  0.00000000000E+00 -0.00000000000E+00 -0.54684589908E+03  0.54684589908E+03  0.00000000000E+00 0. -1.
         24    2    1    2    0    0  0.33919732108E+02 -0.87907995670E+01  0.93671706175E+01  0.88679663969E+02  0.80922880158E+02 0.  0.
         23    2    1    2    0    0  0.16530213043E+01  0.34373217532E+02 -0.42118009359E+03  0.43266817199E+03  0.92869937299E+02 0.  0.
        -13    1    3    3    0    0 -0.11683295897E+02 -0.33853823358E+02  0.76147084430E+01  0.36613720701E+02  0.00000000000E+00 0.  1.
         14    1    3    3    0    0  0.45603028005E+02  0.25063023790E+02  0.17524621746E+01  0.52065943268E+02  0.00000000000E+00 0. -1.
        -11    1    4    4    0    0  0.38499514831E+02  0.38317542832E+02 -0.32662676091E+03  0.33111250002E+03  0.00000000000E+00 0. -1.
         11    1    4    4    0    0 -0.36846493526E+02 -0.39443253001E+01 -0.94553332685E+02  0.10155567197E+03  0.00000000000E+00 0.  1.
         21    1    1    2  502  501 -0.35572753412E+02 -0.25582417965E+02 -0.74285738680E+02  0.86245300541E+02  0.00000000000E+00 0. -1.
<scales pt_clust_5="13000.00000" pt_clust_6="13000.00000" pt_clust_7="13000.00000" pt_clust_8="13000.00000" pt_clust_9="43.81645"></scales>
<clustering>
<clus scale="   43.816">  2  9  1 -1</clus>
<clus scale="   80.923">  5  6 -1 -1</clus>
<clus scale="   87.312">  1  5  2 -1</clus>
<clus scale="   92.870">  7  8 -1 -1</clus>
<clus scale="   43.816">  2  5  1 -1</clus>
</clustering>
</event>
<event>
 9    2  0.3402837E-005  0.1238834E+03  0.7546771E-02  0.1238585E+00
          2   -1    0    0  502    0  0.00000000000E+00  0.00000000000E+00  0.82092873194E+03  0.82092873194E+03  0.00000000000E+00 0. -1.
         -1   -1    0    0    0  501 -0.00000000000E+00 -0.00000000000E+00 -0.17294780471E+03  0.17294780471E+03  0.00000000000E+00 0.  1.
         23    2    1    2    0    0 -0.67929424033E+02  0.35960210842E+01  0.18323145765E+03  0.21470838257E+03  0.88873980748E+02 0.  0.
         24    2    1    2    0    0  0.93255191067E+02  0.11486085883E+02  0.61420838688E+03  0.62683026520E+03  0.82678764081E+02 0.  0.
        -11    1    4    4    0    0 -0.35693723002E+01 -0.21940039259E+02  0.89676521446E+02  0.92390390409E+02  0.00000000000E+00 0.  1.
         12    1    4    4    0    0  0.96824563367E+02  0.33426125142E+02  0.52453186544E+03  0.53443987480E+03  0.00000000000E+00 0. -1.
        -11    1    3    3    0    0 -0.50590736997E+02 -0.39016375507E+02  0.85915717336E+02  0.10706638461E+03  0.00000000000E+00 0. -1.
         11    1    3    3    0    0 -0.17338687036E+02  0.42612396591E+02  0.97315740315E+02  0.10764199796E+03  0.00000000000E+00 0.  1.
         21    1    1    2  502  501 -0.25325767034E+02 -0.15082106967E+02 -0.14945891730E+03  0.15233788888E+03  0.00000000000E+00 0.  1.
<scales pt_clust_5="13000.00000" pt_clust_6="13000.00000" pt_clust_7="13000.00000" pt_clust_8="13000.00000" pt_clust_9="29.47651"></scales>
<clustering>
<clus scale="   29.477">  2  9  1 -1</clus>
<clus scale="   82.679">  5  6 -1 -1</clus>
<clus scale="   88.874">  7  8 -1 -1</clus>
<clus scale="  119.517">  1  5  2 -1</clus>
<clus scale="  119.517">  1  5  2 -1</clus>
</clustering>
</event>
<event>
 9    2  0.6217182E-005  0.9703092E+02  0.7546771E-02  0.1291205E+00
          2   -1    0    0  502    0  0.00000000000E+00  0.00000000000E+00  0.65934023424E+03  0.65934023424E+03  0.00000000000E+00 0. -1.
         -1   -1    0    0    0  501 -0.00000000000E+00 -0.00000000000E+00 -0.12203814673E+03  0.12203814673E+03  0.00000000000E+00 0.  1.
         23    2    1    2    0    0  0.98564957098E+00  0.21319380184E+02 -0.78638868131E+02  0.12137652855E+03  0.89959449893E+02 0.  0.
         24    2    1    2    0    0 -0.22727086242E+02 -0.29147463441E+02  0.62773178868E+03  0.63405974959E+03  0.81353994742E+02 0.  0.
        -13    1    4    4    0    0 -0.24139424985E+02  0.23789933229E+02  0.17591383970E+03  0.17914896528E+03  0.00000000000E+00 0.  1.
         14    1    4    4    0    0  0.14123387431E+01 -0.52937396670E+02  0.45181794898E+03  0.45491078431E+03  0.00000000000E+00 0. -1.
        -13    1    3    3    0    0  0.44022988197E+02  0.11391979170E+02 -0.24995597210E+02  0.51890081510E+02  0.00000000000E+00 0.  1.
         13    1    3    3    0    0 -0.43037338626E+02  0.99274010142E+01 -0.53643270921E+02  0.69486447038E+02  0.00000000000E+00 0. -1.
         21    1    1    2  502  501  0.21741436671E+02  0.78280832570E+01 -0.11790833035E+02  0.25942102838E+02  0.00000000000E+00 0.  1.
<scales pt_clust_5="13000.00000" pt_clust_6="13000.00000" pt_clust_7="13000.00000" pt_clust_8="13000.00000" pt_clust_9="23.10777"></scales>
<clustering>
<clus scale="   23.108">  2  9  1 -1</clus>
<clus scale="   81.354">  5  6 -1 -1</clus>
<clus scale="   89.111">  1  5  2 -1</clus>
<clus scale="   89.959">  7  8 -1 -1</clus>
<clus scale="   89.111">  1  5  2 -1</clus>
</clustering>
</event>
<event>
 9    2  0.3402837E-005  0.1148492E+03  0.7546771E-02  0.1255827E+00
          2   -1    0    0  502    0  0.00000000000E+00  0.00000000000E+00  0.25019893546E+03  0.25019893546E+03  0.00000000000E+00 0. -1.
         -1   -1    0    0    0  501 -0.00000000000E+00 -0.00000000000E+00 -0.15655469104E+03  0.15655469104E+03  0.00000000000E+00 0.  1.
         24    2    1    2    0    0 -0.68394697218E+02 -0.26309161497E+02 -0.33586367756E+02  0.11348834747E+03  0.79884631356E+02 0.  0.
         23    2    1    2    0    0  0.36704659460E+02  0.61993239889E+02  0.18491941969E+03  0.21839465423E+03  0.91162708381E+02 0.  0.
        -13    1    3    3    0    0  0.69311644796E+01  0.19164554937E+02 -0.51578628581E+01  0.21022006475E+02  0.00000000000E+00 0.  1.
         14    1    3    3    0    0 -0.75325861697E+02 -0.45473716434E+02 -0.28428504898E+02  0.92466340998E+02  0.00000000000E+00 0. -1.
        -13    1    4    4    0    0 -0.54923838738E+01  0.25030697252E+02  0.49874216168E+00  0.25631052052E+02  0.00000000000E+00 0.  1.
         13    1    4    4    0    0  0.42197043334E+02  0.36962542637E+02  0.18442067753E+03  0.19276360218E+03  0.00000000000E+00 0. -1.
         21    1    1    2  502  501  0.31690037757E+02 -0.35684078392E+02 -0.57688807519E+02  0.74870624792E+02  0.00000000000E+00 0. -1.
<scales pt_clust_5="13000.00000" pt_clust_6="13000.00000" pt_clust_7="13000.00000" pt_clust_8="13000.00000" pt_clust_9="47.72433"></scales>
<clustering>
<clus scale="   47.724">  2  9  1 -1</clus>
<clus scale="   79.885">  5  6 -1 -1</clus>
<clus scale="   91.163">  7  8 -1 -1</clus>
<clus scale="  106.119">  2  5  1 -1</clus>
<clus scale="  114.849">  1  5  2 -1</clus>
</clustering>
</event>
<event>
 9    2  0.3402837E-005  0.1757212E+03  0.7546771E-02  0.1192214E+00
         -1   -1    0    0    0  501 -0.00000000000E+00  0.00000000000E+00  0.14593914969E+03  0.14593914969E+03  0.00000000000E+00 0.  1.
          2   -1    0    0  502    0  0.00000000000E+00 -0.00000000000E+00 -0.56723807676E+03  0.56723807676E+03  0.00000000000E+00 0. -1.
         23    2    1    2    0    0  0.20361683908E+03  0.15431370987E+02 -0.85617895253E+02  0.24012823824E+03  0.92915028090E+02 0.  0.
         24    2    1    2    0    0 -0.78221875986E+02  0.10613945911E+01 -0.32780055143E+03  0.34632878439E+03  0.79816269877E+02 0.  0.
        -13    1    4    4    0    0 -0.37231796570E+01 -0.21461635074E+02 -0.22710017445E+02  0.31467582353E+02  0.00000000000E+00 0.  1.
         14    1    4    4    0    0 -0.74498696329E+02  0.22523029665E+02 -0.30509053398E+03  0.31486120204E+03  0.00000000000E+00 0. -1.
        -11    1    3    3    0    0  0.67531012282E+02  0.48255435903E+02 -0.44755553954E+02  0.94297848988E+02  0.00000000000E+00 0. -1.
         11    1    3    3    0    0  0.13608582680E+03 -0.32824064916E+02 -0.40862341300E+02  0.14583038925E+03  0.00000000000E+00 0.  1.
         21    1    1    2  502  501 -0.12539496309E+03 -0.16492765578E+02 -0.78804803828E+01  0.12672020382E+03  0.00000000000E+00 0. -1.
<scales pt_clust_5="13000.00000" pt_clust_6="13000.00000" pt_clust_7="13000.00000" pt_clust_8="13000.00000" pt_clust_9="149.14673"></scales>
<clustering>
<clus scale="   79.816">  5  6 -1 -1</clus>
<clus scale="   92.915">  7  8 -1 -1</clus>
<clus scale="  111.761">  2  5  1 -1</clus>
<clus scale="  149.147">  1  9  2 -1</clus>
<clus scale="  111.761">  2  5  1 -1</clus>
</clustering>
</event>
<event>
 9    2  0.3402837E-005  0.1153424E+03  0.7546771E-02  0.1254983E+00
         -1   -1    0    0    0  501 -0.00000000000E+00  0.00000000000E+00  0.10246879128E+03  0.10246879128E+03  0.00000000000E+00 0.  1.
          2   -1    0    0  502    0  0.00000000000E+00 -0.00000000000E+00 -0.35976180863E+03  0.35976180863E+03  0.00000000000E+00 0. -1.
         24    2    1    2    0    0  0.72631209906E+02 -0.45075468995E+02  0.55559923254E+01  0.11751740216E+03  0.80451104421E+02 0.  0.
         23    2    1    2    0    0 -0.52625855535E+02  0.41742977735E+02 -0.28960217010E+03  0.31114161312E+03  0.91802666752E+02 0.  0.
        -11    1    3    3    0    0  0.44816320143E+02 -0.63506959368E+02  0.21341251362E+02  0.80604500179E+02  0.00000000000E+00 0.  1.
         12    1    3    3    0    0  0.27814889763E+02  0.18431490374E+02 -0.15785259037E+02  0.36912901983E+02  0.00000000000E+00 0. -1.
        -13    1    4    4    0    0 -0.74440601769E+02  0.35684404000E+02 -0.16499424373E+03  0.18449357806E+03  0.00000000000E+00 0. -1.
         13    1    4    4    0    0  0.21814746234E+02  0.60585737354E+01 -0.12460792637E+03  0.12664803506E+03  0.00000000000E+00 0.  1.
         21    1    1    2  502  501 -0.20005354371E+02  0.33324912597E+01  0.26753160427E+02  0.33571584627E+02  0.00000000000E+00 0.  1.
<scales pt_clust_5="13000.00000" pt_clust_6="13000.00000" pt_clust_7="13000.00000" pt_clust_8="13000.00000" pt_clust_9="20.28102"></scales>
<clustering>
<clus scale="   20.281">  1  9  2 -1</clus>
<clus scale="   80.451">  5  6 -1 -1</clus>
<clus scale="   91.803">  7  8 -1 -1</clus>
<clus scale="  106.529">  1  5  2 -1</clus>
<clus scale="  115.342">  2  5  1 -1</clus>
</clustering>
</event>
<event>
 9    2  0.3402837E-005  0.2396700E+03  0.7546771E-02  0.1121223E+00
         -1   -1    0    0    0  501 -0.00000000000E+00  0.00000000000E+00  0.12274826572E+03  0.12274826572E+03  0.00000000000E+00 0.  1.
          2   -1    0    0  502    0  0.00000000000E+00 -0.00000000000E+00 -0.16285183521E+04  0.16285183521E+04  0.00000000000E+00 0. -1.
         24    2    1    2    0    0  0.29551878158E+02  0.26188705258E+03 -0.14965634308E+03  0.31199286852E+03  0.74056648389E+02 0.  0.
         23    2    1    2    0    0 -0.14818071447E+03 -0.16312962545E+03 -0.11843242242E+04  0.12083246876E+04  0.94105705704E+02 0.  0.
        -13    1    3    3    0    0  0.97695285974E+01  0.22877983660E+03 -0.10198000231E+03  0.25067025790E+03  0.00000000000E+00 0.  1.
         14    1    3    3    0    0  0.19782349560E+02  0.33107215983E+02 -0.47676340771E+02  0.61322610623E+02  0.00000000000E+00 0. -1.
        -13    1    4    4    0    0 -0.12446174864E+03 -0.85998972031E+02 -0.90579410261E+03  0.91834062656E+03  0.00000000000E+00 0. -1.
         13    1    4    4    0    0 -0.23718965831E+02 -0.77130653423E+02 -0.27853012160E+03  0.28998406107E+03  0.00000000000E+00 0.  1.
         21    1    1    2  502  501  0.11862883631E+03 -0.98757427129E+02 -0.17178951907E+03  0.23094906166E+03  0.00000000000E+00 0. -1.
<scales pt_clust_5="13000.00000" pt_clust_6="13000.00000" pt_clust_7="13000.00000" pt_clust_8="13000.00000" pt_clust_9="154.35618"></scales>
<clustering>
<clus scale="   74.057">  5  6 -1 -1</clus>
<clus scale="   94.106">  7  8 -1 -1</clus>
<clus scale="  154.356">  1  9  2 -1</clus>
<clus scale="  232.530">  1  5  2 -1</clus>
<clus scale="  239.670">  2  5  1 -1</clus>
</clustering>
</event>
<event>
 9    2  0.3402837E-005  0.1903031E+03  0.7546771E-02  0.1191455E+00
          2   -1    0    0  502    0  0.00000000000E+00  0.00000000000E+00  0.86312274411E+02  0.86312274411E+02  0.00000000000E+00 0. -1.
         -1   -1    0    0    0  501 -0.00000000000E+00 -0.00000000000E+00 -0.61193929436E+03  0.61193929436E+03  0.00000000000E+00 0.  1.
         23    2    1    2    0    0 -0.15883615303E+03 -0.10499673315E+03 -0.28010438751E+03  0.35118541412E+03  0.92841206951E+02 0.  0.
         24    2    1    2    0    0  0.32632410134E+02  0.26270017793E+02 -0.53772171198E+02  0.10438628359E+03  0.79057332233E+02 0.  0.
        -11    1    4    4    0    0 -0.25747570235E+01  0.48018478514E+02 -0.28704431767E+02  0.56003107553E+02  0.00000000000E+00 0.  1.
         12    1    4    4    0    0  0.35207167158E+02 -0.21748460721E+02 -0.25067739430E+02  0.48383176034E+02  0.00000000000E+00 0. -1.
        -11    1    3    3    0    0 -0.99830452655E+02 -0.11399162162E+03 -0.21267407859E+03  0.26113305571E+03  0.00000000000E+00 0. -1.
         11    1    3    3    0    0 -0.59005700376E+02  0.89948884742E+01 -0.67430308921E+02  0.90052358418E+02  0.00000000000E+00 0.  1.
         21    1    1    2  502  501  0.12620374290E+03  0.78726715354E+02 -0.19175046123E+03  0.24267987105E+03  0.00000000000E+00 0.  1.
<scales pt_clust_5="13000.00000" pt_clust_6="13000.00000" pt_clust_7="13000.00000" pt_clust_8="13000.00000" pt_clust_9="166.11975"></scales>
<clustering>
<clus scale="   79.057">  5  6 -1 -1</clus>
<clus scale="   89.471">  1  5  2 -1</clus>
<clus scale="   92.841">  7  8 -1 -1</clus>
<clus scale="  166.120">  2  9  1 -1</clus>
<clus scale="   89.471">  1  5  2 -1</clus>
</clustering>
</event>
<event>
 9    2  0.3402837E-005  0.9616838E+02  0.7546771E-02  0.1298883E+00
         -1   -1    0    0    0  501 -0.00000000000E+00  0.00000000000E+00  0.91251694529E+02  0.91251694529E+02  0.00000000000E+00 0.  1.
          2   -1    0    0  502    0  0.00000000000E+00 -0.00000000000E+00 -0.32529630036E+03  0.32529630036E+03  0.00000000000E+00 0. -1.
         24    2    1    2    0    0 -0.18091917452E+02 -0.36301222754E+02  0.29489699726E+02  0.91054697026E+02  0.76001442157E+02 0.  0.
         23    2    1    2    0    0  0.11353725752E+02  0.17140681330E+02 -0.28216208087E+03  0.29793384235E+03  0.93415333273E+02 0.  0.
        -13    1    3    3    0    0 -0.47188765263E+02 -0.16171475714E+02  0.10792577841E+02  0.51037005499E+02  0.00000000000E+00 0.  1.
         14    1    3    3    0    0  0.29096847810E+02 -0.20129747040E+02  0.18697121885E+02  0.40017691527E+02  0.00000000000E+00 0. -1.
        -13    1    4    4    0    0  0.50849918967E+02 -0.29613598848E+01 -0.13726786362E+03  0.14641362742E+03  0.00000000000E+00 0. -1.
         13    1    4    4    0    0 -0.39496193215E+02  0.20102041215E+02 -0.14489421726E+03  0.15152021494E+03  0.00000000000E+00 0.  1.
         21    1    1    2  502  501  0.67381917004E+01  0.19160541424E+02  0.18627775315E+02  0.27559455514E+02  0.00000000000E+00 0.  1.
<scales pt_clust_5="13000.00000" pt_clust_6="13000.00000" pt_clust_7="13000.00000" pt_clust_8="13000.00000" pt_clust_9="20.31082"></scales>
<clustering>
<clus scale="   20.311">  1  9  2 -1</clus>
<clus scale="   76.001">  5  6 -1 -1</clus>
<clus scale="   79.361">  1  5  2 -1</clus>
<clus scale="   93.415">  7  8 -1 -1</clus>
<clus scale="   96.168">  2  5  1 -1</clus>
</clustering>
</event>
<event>
 9    2  0.3402837E-005  0.4245017E+03  0.7546771E-02  0.1077291E+00
          2   -1    0    0  502    0  0.00000000000E+00  0.00000000000E+00  0.84683929539E+03  0.84683929539E+03  0.00000000000E+00 0. -1.
         -1   -1    0    0    0  501 -0.00000000000E+00 -0.00000000000E+00 -0.10394531133E+04  0.10394531133E+04  0.00000000000E+00 0.  1.
         23    2    1    2    0    0 -0.48607973826E+02  0.36719577890E+03  0.24483045724E+03  0.45311646489E+03  0.90427334389E+02 0.  0.
         24    2    1    2    0    0 -0.98495099686E+02  0.28351716594E+02  0.44021628087E+03  0.45932524322E+03  0.81756960649E+02 0.  0.
        -11    1    4    4    0    0 -0.80720395875E+02 -0.16908815077E+02  0.27419199613E+03  0.28632663355E+03  0.00000000000E+00 0.  1.
         12    1    4    4    0    0 -0.17774703811E+02  0.45260531671E+02  0.16602428474E+03  0.17299860966E+03  0.00000000000E+00 0. -1.
        -11    1    3    3    0    0 -0.10697765741E+02  0.13406225304E+03  0.39555423375E+02  0.14018474026E+03  0.00000000000E+00 0.  1.
         11    1    3    3    0    0 -0.37910208085E+02  0.23313352585E+03  0.20527503387E+03  0.31293172463E+03  0.00000000000E+00 0. -1.
         21    1    1    2  502  501  0.14710307351E+03 -0.39554749549E+03 -0.87766055604E+03  0.97385070060E+03  0.00000000000E+00 0.  1.
<scales pt_clust_5="13000.00000" pt_clust_6="13000.00000" pt_clust_7="13000.00000" pt_clust_8="13000.00000" pt_clust_9="414.75848"></scales>
<clustering>
<clus scale="   81.757">  5  6 -1 -1</clus>
<clus scale="   90.427">  7  8 -1 -1</clus>
<clus scale="  131.108">  1  5  2 -1</clus>
<clus scale="  414.758">  2  9  1 -1</clus>
<clus scale="  131.108">  1  5  2 -1</clus>
</clustering>
</event>
<event>
 9    2  0.3402837E-005  0.1157267E+03  0.7546771E-02  0.1255079E+00
          2   -1    0    0  502    0  0.00000000000E+00  0.00000000000E+00  0.36678376186E+03  0.36678376186E+03  0.00000000000E+00 0. -1.
         -1   -1    0    0    0  501 -0.00000000000E+00 -0.00000000000E+00 -0.89840245610E+02  0.89840245610E+02  0.00000000000E+00 0.  1.
         24    2    1    2    0    0  0.21421354790E+02  0.41449724058E+02 -0.12033650159E+02  0.92549077715E+02  0.79016257722E+02 0.  0.
         23    2    1    2    0    0 -0.37898425111E+02 -0.64031889001E+02  0.30811972222E+03  0.33019447133E+03  0.92489200644E+02 0.  0.
        -11    1    3    3    0    0  0.27849703198E+02  0.34876947612E+02 -0.41949929758E+02  0.61251971802E+02  0.00000000000E+00 0.  1.
         12    1    3    3    0    0 -0.64283484082E+01  0.65727764458E+01  0.29916279599E+02  0.31297105913E+02  0.00000000000E+00 0. -1.
        -13    1    4    4    0    0 -0.43055950901E+02 -0.67166610210E+01  0.52751876054E+02  0.68422868037E+02  0.00000000000E+00 0.  1.
         13    1    4    4    0    0  0.51575257898E+01 -0.57315227980E+02  0.25536784617E+03  0.26177160329E+03  0.00000000000E+00 0. -1.
         21    1    1    2  502  501  0.16477070321E+02  0.22582164943E+02 -0.19142555818E+02  0.33880458426E+02  0.00000000000E+00 0. -1.
<scales pt_clust_5="13000.00000" pt_clust_6="13000.00000" pt_clust_7="13000.00000" pt_clust_8="13000.00000" pt_clust_9="27.95439"></scales>
<clustering>
<clus scale="   27.954">  2  9  1 -1</clus>
<clus scale="   79.016">  5  6 -1 -1</clus>
<clus scale="   92.489">  7  8 -1 -1</clus>
<clus scale="  105.271">  2  5  1 -1</clus>
<clus scale="  115.727">  1  5  2 -1</clus>
</clustering>
</event>
<event>
 9    2  0.3402837E-005  0.9163014E+02  0.7546771E-02  0.1304095E+00
         -1   -1    0    0    0  501 -0.00000000000E+00  0.00000000000E+00  0.30235877378E+03  0.30235877378E+03  0.00000000000E+00 0.  1.
          2   -1    0    0  502    0  0.00000000000E+00 -0.00000000000E+00 -0.19097734098E+03  0.19097734098E+03  0.00000000000E+00 0. -1.
         24    2    1    2    0    0  0.59732378524E+02  0.23401157985E+02  0.18412385593E+03  0.21062603550E+03  0.79662797263E+02 0.  0.
         23    2    1    2    0    0 -0.20880194751E+02 -0.73907746692E+01 -0.16100753063E+03  0.18495245163E+03  0.88280113054E+02 0.  0.
        -11    1    3    3    0    0  0.90505816789E+00  0.32938090224E+02  0.11365913769E+03  0.11833907426E+03  0.00000000000E+00 0.  1.
         12    1    3    3    0    0  0.58827320356E+02 -0.95369322384E+01  0.70464718246E+02  0.92286961237E+02  0.00000000000E+00 0. -1.
        -11    1    4    4    0    0 -0.23636896546E+02  0.31490624519E+02 -0.12785817391E+03  0.13378368715E+03  0.00000000000E+00 0. -1.
         11    1    4    4    0    0  0.27567017954E+01 -0.38881399188E+02 -0.33149356719E+02  0.51168764481E+02  0.00000000000E+00 0.  1.
         21    1    1    2  502  501 -0.38852183774E+02 -0.16010383316E+02  0.88265107496E+02  0.97757627626E+02  0.00000000000E+00 0. -1.
<scales pt_clust_5="13000.00000" pt_clust_6="13000.00000" pt_clust_7="13000.00000" pt_clust_8="13000.00000" pt_clust_9="42.02172"></scales>
<clustering>
<clus scale="   42.022">  1  9  2 -1</clus>
<clus scale="   79.663">  5  6 -1 -1</clus>
<clus scale="   83.360">  1  5  2 -1</clus>
<clus scale="   88.280">  7  8 -1 -1</clus>
<clus scale="   91.630">  2  5  1 -1</clus>
</clustering>
</event>
<event>
 9    2  0.3402837E-005  0.1248192E+03  0.7546771E-02  0.1239171E+00
         -1   -1    0    0    0  501 -0.00000000000E+00  0.00000000000E+00  0.16577216297E+03  0.16577216297E+03  0.00000000000E+00 0.  1.
          2   -1    0    0  502    0  0.00000000000E+00 -0.00000000000E+00 -0.12806310710E+04  0.12806310710E+04  0.00000000000E+00 0. -1.
         23    2    1    2    0    0 -0.10743193022E+03  0.24552740317E+02  0.19363532447E+02  0.14468490655E+03  0.91729597763E+02 0.  0.
         24    2    1    2    0    0  0.68761128934E+02 -0.48354080964E+02 -0.12088774400E+04  0.12143381028E+04  0.78524856374E+02 0.  0.
        -11    1    4    4    0    0  0.51097517740E+02 -0.33816196400E+02 -0.36181059784E+03  0.36696239612E+03  0.00000000000E+00 0.  1.
         12    1    4    4    0    0  0.17663611194E+02 -0.14537884564E+02 -0.84706684217E+03  0.84737570673E+03  0.00000000000E+00 0. -1.
        -11    1    3    3    0    0 -0.69045646310E+02 -0.50984079357E+01 -0.30022578180E+02  0.75462906374E+02  0.00000000000E+00 0. -1.
         11    1    3    3    0    0 -0.38386283913E+02  0.29651148253E+02  0.49386110627E+02  0.69222000175E+02  0.00000000000E+00 0.  1.
         21    1    1    2  502  501  0.38670801289E+02  0.23801340647E+02  0.74654999538E+02  0.87380224564E+02  0.00000000000E+00 0.  1.
<scales pt_clust_5="13000.00000" pt_clust_6="13000.00000" pt_clust_7="13000.00000" pt_clust_8="13000.00000" pt_clust_9="45.40853"></scales>
<clustering>
<clus scale="   45.409">  1  9  2 -1</clus>
<clus scale="   78.525">  5  6 -1 -1</clus>
<clus scale="   91.730">  7  8 -1 -1</clus>
<clus scale="  115.463">  2  5  1 -1</clus>
<clus scale="  115.463">  2  5  1 -1</clus>
</clustering>
</event>
<event>
 9    2  0.3402837E-005  0.1483631E+03  0.7546771E-02  0.1204947E+00
         -1   -1    0    0    0  501 -0.00000000000E+00  0.00000000000E+00  0.61809969880E+02  0.61809969880E+02  0.00000000000E+00 0.  1.
          2   -1    0    0  502    0  0.00000000000E+00 -0.00000000000E+00 -0.10230013341E+04  0.10230013341E+04  0.00000000000E+00 0. -1.
         23    2    1    2    0    0  0.18160137002E+02 -0.11050280990E+03 -0.68767757239E+02  0.16028905311E+03  0.91776437817E+02 0.  0.
         24    2    1    2    0    0  0.24665185474E+02  0.11543056565E+03 -0.85714488519E+03  0.86881875697E+03  0.78842193080E+02 0.  0.
        -13    1    4    4    0    0  0.27200981593E+02  0.20823739619E+02 -0.98364558247E+02  0.10415905074E+03  0.00000000000E+00 0.  1.
         14    1    4    4    0    0 -0.25357961186E+01  0.94606826030E+02 -0.75878032694E+03  0.76465970624E+03  0.00000000000E+00 0. -1.
        -11    1    3    3    0    0  0.48482487558E+02 -0.10244407309E+03 -0.55975327144E+02  0.12640639604E+03  0.00000000000E+00 0.  1.
         11    1    3    3    0    0 -0.30322350555E+02 -0.80587368125E+01 -0.12792430094E+02  0.33882657067E+02  0.00000000000E+00 0. -1.
         21    1    1    2  502  501 -0.42825322476E+02 -0.49277557444E+01 -0.35278721823E+02  0.55703493924E+02  0.00000000000E+00 0. -1.
<scales pt_clust_5="13000.00000" pt_clust_6="13000.00000" pt_clust_7="13000.00000" pt_clust_8="13000.00000" pt_clust_9="43.10790"></scales>
<clustering>
<clus scale="   43.108">  1  9  2 -1</clus>
<clus scale="   78.842">  5  6 -1 -1</clus>
<clus scale="   91.776">  7  8 -1 -1</clus>
<clus scale="  140.729">  2  5  1 -1</clus>
<clus scale="  140.729">  2  5  1 -1</clus>
</clustering>
</event>
<event>
 9    2  0.3402837E-005  0.2923366E+03  0.7546771E-02  0.1106879E+00
          2   -1    0    0  502    0  0.00000000000E+00  0.00000000000E+00  0.10923931475E+04  0.10923931475E+04  0.00000000000E+00 0. -1.
         -1   -1    0    0    0  501 -0.00000000000E+00 -0.00000000000E+00 -0.16675800222E+03  0.16675800222E+03  0.00000000000E+00 0.  1.
         24    2    1    2    0    0 -0.16420183195E+03  0.23017444626E+02  0.13359779815E+03  0.22751225741E+03  0.80133708438E+02 0.  0.
         23    2    1    2    0    0  0.10642036491E+03 -0.27726440198E+03  0.68017541425E+03  0.74792547124E+03  0.92482829230E+02 0.  0.
        -13    1    3    3    0    0 -0.59352682778E+02 -0.21271949971E+02  0.18656191394E+02  0.65751732189E+02  0.00000000000E+00 0.  1.
         14    1    3    3    0    0 -0.10484914917E+03  0.44289394597E+02  0.11494160675E+03  0.16176052522E+03  0.00000000000E+00 0. -1.
        -13    1    4    4    0    0  0.86502306108E+02 -0.27514477137E+03  0.65546915891E+03  0.71611948197E+03  0.00000000000E+00 0. -1.
         13    1    4    4    0    0  0.19918058802E+02 -0.21196306087E+01  0.24706255344E+02  0.31805989270E+02  0.00000000000E+00 0.  1.
         21    1    1    2  502  501  0.57781467042E+02  0.25424695735E+03  0.11186193286E+03  0.28371342104E+03  0.00000000000E+00 0.  1.
<scales pt_clust_5="13000.00000" pt_clust_6="13000.00000" pt_clust_7="13000.00000" pt_clust_8="13000.00000" pt_clust_9="277.32227"></scales>
<clustering>
<clus scale="   80.134">  5  6 -1 -1</clus>
<clus scale="   92.483">  7  8 -1 -1</clus>
<clus scale="  184.156">  2  5  1 -1</clus>
<clus scale="  277.322">  2  9  1 -1</clus>
<clus scale="  292.337">  1  5  2 -1</clus>
</clustering>
</event>
<event>
 9    2  0.3402837E-005  0.1083570E+03  0.7546771E-02  0.1268507E+00
          4   -1    0    0  502    0  0.00000000000E+00  0.00000000000E+00  0.63556038187E+03  0.63556038187E+03  0.00000000000E+00 0. -1.
         -3   -1    0    0    0  501 -0.00000000000E+00 -0.00000000000E+00 -0.45724816647E+02  0.45724816647E+02  0.00000000000E+00 0.  1.
         23    2    1    2    0    0  0.10910080434E+02 -0.50086164938E+01  0.63880974595E+02  0.11288338438E+03  0.92291730175E+02 0.  0.
         24    2    1    2    0    0 -0.66861503344E+02 -0.81659498193E+01  0.48880600270E+03  0.49996097467E+03  0.80576203333E+02 0.  0.
        -11    1    4    4    0    0 -0.62355077838E+02  0.28143288258E+02  0.31352534734E+03  0.32090238988E+03  0.00000000000E+00 0.  1.
         12    1    4    4    0    0 -0.45064255059E+01 -0.36309238078E+02  0.17528065536E+03  0.17905858478E+03  0.00000000000E+00 0. -1.
        -11    1    3    3    0    0 -0.90701218335E+00  0.43153349909E+02  0.34376865918E+02  0.55179735319E+02  0.00000000000E+00 0.  1.
         11    1    3    3    0    0  0.11817092618E+02 -0.48161966403E+02  0.29504108677E+02  0.57703649058E+02  0.00000000000E+00 0. -1.
         21    1    1    2  502  501  0.55951422910E+02  0.13174566313E+02  0.37148587924E+02  0.68440839474E+02  0.00000000000E+00 0.  1.
<scales pt_clust_5="13000.00000" pt_clust_6="13000.00000" pt_clust_7="13000.00000" pt_clust_8="13000.00000" pt_clust_9="57.48157"></scales>
<clustering>
<clus scale="   57.482">  2  9  1 -1</clus>
<clus scale="   80.576">  5  6 -1 -1</clus>
<clus scale="   92.292">  7  8 -1 -1</clus>
<clus scale="   98.570">  1  5  2 -1</clus>
<clus scale="   98.570">  1  5  2 -1</clus>
</clustering>
</event>
<event>
 9    2  0.3402837E-005  0.1002034E+03  0.7546771E-02  0.1285309E+00
         -1   -1    0    0    0  501 -0.00000000000E+00  0.00000000000E+00  0.18465475633E+03  0.18465475633E+03  0.00000000000E+00 0.  1.
          2   -1    0    0  502    0  0.00000000000E+00 -0.00000000000E+00 -0.17746057530E+03  0.17746057530E+03  0.00000000000E+00 0. -1.
         23    2    1    2    0    0  0.34719013345E+01 -0.42119387381E+01  0.10357618459E+03  0.13838026770E+03  0.91603918849E+02 0.  0.
         24    2    1    2    0    0 -0.38869128889E+02 -0.23291846358E+02 -0.13558413318E+03  0.16418484243E+03  0.80748288071E+02 0.  0.
        -11    1    4    4    0    0  0.13962900638E+02 -0.35531774648E+02 -0.61177795377E+02  0.72112358518E+02  0.00000000000E+00 0.  1.
         12    1    4    4    0    0 -0.52832029527E+02  0.12239928290E+02 -0.74406337802E+02  0.92072483911E+02  0.00000000000E+00 0. -1.
        -11    1    3    3    0    0  0.37587218238E+02 -0.27821532158E+02  0.35717423590E+02  0.58843614559E+02  0.00000000000E+00 0.  1.
         11    1    3    3    0    0 -0.34115316903E+02  0.23609593420E+02  0.67858761000E+02  0.79536653143E+02  0.00000000000E+00 0. -1.
         21    1    1    2  502  501  0.35397227554E+02  0.27503785096E+02  0.39202129626E+02  0.59550221497E+02  0.00000000000E+00 0.  1.
<scales pt_clust_5="13000.00000" pt_clust_6="13000.00000" pt_clust_7="13000.00000" pt_clust_8="13000.00000" pt_clust_9="44.82658"></scales>
<clustering>
<clus scale="   44.827">  1  9  2 -1</clus>
<clus scale="   80.748">  5  6 -1 -1</clus>
<clus scale="   90.387">  2  5  1 -1</clus>
<clus scale="   91.604">  7  8 -1 -1</clus>
<clus scale="   90.387">  2  5  1 -1</clus>
</clustering>
</event>
<event>
 9    2  0.3402837E-005  0.1341183E+03  0.7546771E-02  0.1223916E+00
         -1   -1    0    0    0  501 -0.00000000000E+00  0.00000000000E+00  0.60570706682E+03  0.60570706682E+03  0.00000000000E+00 0.  1.
          2   -1    0    0  502    0  0.00000000000E+00 -0.00000000000E+00 -0.58791742459E+02  0.58791742459E+02  0.00000000000E+00 0. -1.
         24    2    1    2    0    0  0.61812584110E+02  0.81774488099E+02  0.40101625732E+03  0.42161338790E+03  0.80224358915E+02 0.  0.
         23    2    1    2    0    0 -0.88127766859E+01 -0.97295571013E+02  0.74344380099E+02  0.15249760790E+03  0.90467344338E+02 0.  0.
        -13    1    3    3    0    0  0.34820441849E+02  0.72165023228E+02  0.37311250814E+03  0.38161917860E+03  0.00000000000E+00 0.  1.
         14    1    3    3    0    0  0.26992142261E+02  0.96094648704E+01  0.27903749183E+02  0.39994209298E+02  0.00000000000E+00 0. -1.
        -11    1    4    4    0    0 -0.89835215026E+01 -0.76378587455E+02  0.95587860484E+02  0.12268427508E+03  0.00000000000E+00 0.  1.
         11    1    4    4    0    0  0.17074481672E+00 -0.20916983557E+02 -0.21243480385E+02  0.29813332820E+02  0.00000000000E+00 0. -1.
         21    1    1    2  502  501 -0.52999807424E+02  0.15521082914E+02  0.71554686940E+02  0.90387813476E+02  0.00000000000E+00 0.  1.
<scales pt_clust_5="13000.00000" pt_clust_6="13000.00000" pt_clust_7="13000.00000" pt_clust_8="13000.00000" pt_clust_9="55.22575"></scales>
<clustering>
<clus scale="   55.226">  2  9  1 -1</clus>
<clus scale="   80.224">  5  6 -1 -1</clus>
<clus scale="   90.467">  7  8 -1 -1</clus>
<clus scale="  127.434">  1  5  2 -1</clus>
<clus scale="   55.226">  2  5  1 -1</clus>
</clustering>
</event>
<event>
 9    2  0.3402837E-005  0.1449475E+03  0.7546771E-02  0.1228198E+00
          2   -1    0    0  502    0  0.00000000000E+00  0.00000000000E+00  0.67518432853E+03  0.67518432853E+03  0.00000000000E+00 0. -1.
         -1   -1    0    0    0  501 -0.00000000000E+00 -0.00000000000E+00 -0.20281797812E+03  0.20281797812E+03  0.00000000000E+00 0.  1.
         24    2    1    2    0    0  0.39648702584E+02  0.10111415904E+02  0.29011292273E+02  0.96803739340E+02  0.82795220409E+02 0.  0.
         23    2    1    2    0    0 -0.86587397854E+02  0.73376572483E+02  0.58904433205E+03  0.60684590787E+03  0.91690958738E+02 0.  0.
        -13    1    3    3    0    0  0.52150443815E+02  0.27367860038E+02  0.41552274702E+02  0.72078152627E+02  0.00000000000E+00 0.  1.
         14    1    3    3    0    0 -0.12501741231E+02 -0.17256444135E+02 -0.12540982429E+02  0.24725586713E+02  0.00000000000E+00 0. -1.
        -13    1    4    4    0    0  0.15466233757E+02  0.13450944467E+02  0.37389004562E+02  0.42638831549E+02  0.00000000000E+00 0.  1.
         13    1    4    4    0    0 -0.10205363161E+03  0.59925628016E+02  0.55165532749E+03  0.56420707632E+03  0.00000000000E+00 0. -1.
         21    1    1    2  502  501  0.46938695270E+02 -0.83487988386E+02 -0.14568927392E+03  0.17435265944E+03  0.00000000000E+00 0.  1.
<scales pt_clust_5="13000.00000" pt_clust_6="13000.00000" pt_clust_7="13000.00000" pt_clust_8="13000.00000" pt_clust_9="112.26106"></scales>
<clustering>
<clus scale="   82.795">  5  6 -1 -1</clus>
<clus scale="   91.691">  7  8 -1 -1</clus>
<clus scale="   92.354">  2  5  1 -1</clus>
<clus scale="  112.261">  2  9  1 -1</clus>
<clus scale="  144.947">  1  5  2 -1</clus>
</clustering>
</event>
<event>
 9    2  0.3402837E-005  0.9879651E+02  0.7546771E-02  0.1288922E+00
         -1   -1    0    0    0  501 -0.00000000000E+00  0.00000000000E+00  0.62883791949E+02  0.62883791949E+02  0.00000000000E+00 0.  1.
          2   -1    0    0  502    0  0.00000000000E+00 -0.00000000000E+00 -0.11788742384E+04  0.11788742384E+04  0.00000000000E+00 0. -1.
         23    2    1    2    0    0  0.24322272500E+02 -0.31243898843E+02  0.17238401850E+02  0.10099757828E+03  0.91299475164E+02 0.  0.
         24    2    1    2    0    0 -0.98714155466E+01 -0.97897040521E+01 -0.89089208055E+03  0.89454978448E+03  0.79607377609E+02 0.  0.
        -13    1    4    4    0    0 -0.16033863937E+02 -0.14898423628E+02 -0.64376683166E+02  0.67995625997E+02  0.00000000000E+00 0.  1.
         14    1    4    4    0    0  0.61624483905E+01  0.51087195756E+01 -0.82651539739E+03  0.82655415848E+03  0.00000000000E+00 0. -1.
        -13    1    3    3    0    0  0.18414053439E+01 -0.33740896942E+02  0.50506733321E+02  0.60768157870E+02  0.00000000000E+00 0.  1.
         13    1    3    3    0    0  0.22480867156E+02  0.24969980995E+01 -0.33268331471E+02  0.40229420409E+02  0.00000000000E+00 0. -1.
         21    1    1    2  502  501 -0.14450856953E+02  0.41033602895E+02 -0.24233676774E+03  0.24621066758E+03  0.00000000000E+00 0.  1.
<scales pt_clust_5="13000.00000" pt_clust_6="13000.00000" pt_clust_7="13000.00000" pt_clust_8="13000.00000" pt_clust_9="43.50384"></scales>
<clustering>
<clus scale="   43.504">  2  9  1 -1</clus>
<clus scale="   79.607">  5  6 -1 -1</clus>
<clus scale="   88.105">  2  5  1 -1</clus>
<clus scale="   91.299">  7  8 -1 -1</clus>
<clus scale="   43.504">  2  5  1 -1</clus>
</clustering>
</event>
<event>
 9    2  0.3402837E-005  0.9843625E+02  0.7546771E-02  0.1296576E+00
         -1   -1    0    0    0  501 -0.00000000000E+00  0.00000000000E+00  0.48676590687E+03  0.48676590687E+03  0.00000000000E+00 0.  1.
          2   -1    0    0  502    0  0.00000000000E+00 -0.00000000000E+00 -0.20620981744E+03  0.20620981744E+03  0.00000000000E+00 0. -1.
         23    2    1    2    0    0  0.40008579310E+02  0.21456233192E+02  0.29837880032E+03  0.31418531950E+03  0.87300917219E+02 0.  0.
         24    2    1    2    0    0 -0.45612550715E+02  0.74065977724E+00 -0.18998490790E+03  0.20511274755E+03  0.62417310242E+02 0.  0.
        -11    1    4    4    0    0 -0.33846255291E+02  0.25474542356E+02 -0.68197853763E+02  0.80283675572E+02  0.00000000000E+00 0.  1.
         12    1    4    4    0    0 -0.11766295424E+02 -0.24733882579E+02 -0.12178705414E+03  0.12482907198E+03  0.00000000000E+00 0. -1.
        -13    1    3    3    0    0 -0.16704659021E+02  0.33661056474E+02  0.82632229881E+02  0.90775535091E+02  0.00000000000E+00 0. -1.
         13    1    3    3    0    0  0.56713238330E+02 -0.12204823282E+02  0.21574657043E+03  0.22340978440E+03  0.00000000000E+00 0.  1.
         21    1    1    2  502  501  0.56039714049E+01 -0.22196892969E+02  0.17216219701E+03  0.17367765726E+03  0.00000000000E+00 0.  1.
<scales pt_clust_5="13000.00000" pt_clust_6="13000.00000" pt_clust_7="13000.00000" pt_clust_8="13000.00000" pt_clust_9="22.89337"></scales>
<clustering>
<clus scale="   22.893">  1  9  2 -1</clus>
<clus scale="   62.417">  5  6 -1 -1</clus>
<clus scale="   77.228">  2  5  1 -1</clus>
<clus scale="   87.301">  7  8 -1 -1</clus>
<clus scale="   77.228">  2  5  1 -1</clus>
</clustering>
</event>
<event>
 9    2  0.3402837E-005  0.1263439E+03  0.7546771E-02  0.1234822E+00
         -1   -1    0    0    0  501 -0.00000000000E+00  0.00000000000E+00  0.30073902399E+03  0.30073902399E+03  0.00000000000E+00 0.  1.
          2   -1    0    0  502    0  0.00000000000E+00 -0.00000000000E+00 -0.17059357172E+03  0.17059357172E+03  0.00000000000E+00 0. -1.
         24    2    1    2    0    0  0.26545057228E+02  0.56792103545E+02  0.18152874595E+03  0.20894628827E+03  0.82315749932E+02 0.  0.
         23    2    1    2    0    0 -0.58058347535E+02 -0.73382307874E+02 -0.12552611888E+03  0.18013376417E+03  0.89082162326E+02 0.  0.
        -13    1    3    3    0    0  0.14912609342E+02  0.48933291162E+02  0.18700658599E+03  0.19387706442E+03  0.00000000000E+00 0.  1.
         14    1    3    3    0    0  0.11632447886E+02  0.78588123826E+01 -0.54778400467E+01  0.15069223851E+02  0.00000000000E+00 0. -1.
        -13    1    4    4    0    0 -0.55941102331E+02 -0.31512851450E+00 -0.50063969808E+02  0.75072680177E+02  0.00000000000E+00 0.  1.
         13    1    4    4    0    0 -0.21172452044E+01 -0.73067179359E+02 -0.75462149076E+02  0.10506108399E+03  0.00000000000E+00 0. -1.
         21    1    1    2  502  501  0.31513290307E+02  0.16590204329E+02  0.74142825206E+02  0.82252543275E+02  0.00000000000E+00 0.  1.
<scales pt_clust_5="13000.00000" pt_clust_6="13000.00000" pt_clust_7="13000.00000" pt_clust_8="13000.00000" pt_clust_9="35.61351"></scales>
<clustering>
<clus scale="   35.614">  1  9  2 -1</clus>
<clus scale="   82.316">  5  6 -1 -1</clus>
<clus scale="   89.082">  7  8 -1 -1</clus>
<clus scale="  121.668">  1  5  2 -1</clus>
<clus scale="  126.344">  2  5  1 -1</clus>
</clustering>
</event>
<event>
 9    2  0.3402837E-005  0.1086350E+03  0.7546771E-02  0.1266610E+00
          2   -1    0    0  502    0  0.00000000000E+00  0.00000000000E+00  0.11717622891E+04  0.11717622891E+04  0.00000000000E+00 0. -1.
         -1   -1    0    0    0  501 -0.00000000000E+00 -0.00000000000E+00 -0.30634156710E+02  0.30634156710E+02  0.00000000000E+00 0.  1.
         23    2    1    2    0    0 -0.50932603694E+02  0.99216590998E+01  0.10564216246E+03  0.14819098095E+03  0.90042939250E+02 0.  0.
         24    2    1    2    0    0  0.53454134312E+02 -0.31750648324E+02  0.10245738883E+04  0.10296710724E+04  0.81273713824E+02 0.  0.
        -13    1    4    4    0    0  0.54413112000E+02 -0.71875393740E+01  0.32031470414E+03  0.32498301059E+03  0.00000000000E+00 0.  1.
         14    1    4    4    0    0 -0.95897768795E+00 -0.24563108950E+02  0.70425918419E+03  0.70468806182E+03  0.00000000000E+00 0. -1.
        -13    1    3    3    0    0 -0.69360496307E+02  0.30871069957E+02  0.80130314908E+02  0.11038464012E+03  0.00000000000E+00 0.  1.
         13    1    3    3    0    0  0.18427892614E+02 -0.20949410857E+02  0.25511847548E+02  0.37806340827E+02  0.00000000000E+00 0. -1.
         21    1    1    2  502  501 -0.25215306180E+01  0.21828989224E+02  0.10912081574E+02  0.24534392421E+02  0.00000000000E+00 0. -1.
<scales pt_clust_5="13000.00000" pt_clust_6="13000.00000" pt_clust_7="13000.00000" pt_clust_8="13000.00000" pt_clust_9="21.97414"></scales>
<clustering>
<clus scale="   21.974">  2  9  1 -1</clus>
<clus scale="   81.274">  5  6 -1 -1</clus>
<clus scale="   90.043">  7  8 -1 -1</clus>
<clus scale="  101.485">  1  5  2 -1</clus>
<clus scale="  101.485">  1  5  2 -1</clus>
</clustering>
</event>
<event>
 9    2  0.3402837E-005  0.9796175E+02  0.7546771E-02  0.1290967E+00
         -3   -1    0    0    0  501 -0.00000000000E+00  0.00000000000E+00  0.47011032505E+02  0.47011032505E+02  0.00000000000E+00 0.  1.
          4   -1    0    0  502    0  0.00000000000E+00 -0.00000000000E+00 -0.33848784554E+03  0.33848784554E+03  0.00000000000E+00 0. -1.
         23    2    1    2    0    0  0.46982586809E+02  0.50528474093E+02 -0.12563634278E+03  0.16998309641E+03  0.91374352434E+02 0.  0.
         24    2    1    2    0    0 -0.64383144816E+01 -0.16160003085E+02 -0.12185343528E+03  0.14652383236E+03  0.79488214011E+02 0.  0.
        -13    1    4    4    0    0 -0.28918192613E+02 -0.15913975445E+02 -0.13167700734E+02  0.35537372175E+02  0.00000000000E+00 0.  1.
         14    1    4    4    0    0  0.22479878131E+02 -0.24602763937E+00 -0.10868573455E+03  0.11098646019E+03  0.00000000000E+00 0. -1.
        -11    1    3    3    0    0  0.46993818421E+02  0.75742421820E+02 -0.94267761600E+02  0.12973721251E+03  0.00000000000E+00 0.  1.
         11    1    3    3    0    0 -0.11231611345E-01 -0.25213947727E+02 -0.31368581175E+02  0.40245883902E+02  0.00000000000E+00 0. -1.
         21    1    1    2  502  501 -0.40544272328E+02 -0.34368471008E+02 -0.43987034974E+02  0.68991949268E+02  0.00000000000E+00 0.  1.
<scales pt_clust_5="13000.00000" pt_clust_6="13000.00000" pt_clust_7="13000.00000" pt_clust_8="13000.00000" pt_clust_9="53.15101"></scales>
<clustering>
<clus scale="   53.151">  1  9  2 -1</clus>
<clus scale="   79.488">  5  6 -1 -1</clus>
<clus scale="   86.981">  2  5  1 -1</clus>
<clus scale="   91.374">  7  8 -1 -1</clus>
<clus scale="   86.981">  2  5  1 -1</clus>
</clustering>
</event>
<event>
 9    2  0.3402837E-005  0.1131825E+03  0.7546771E-02  0.1258690E+00
          2   -1    0    0  502    0  0.00000000000E+00  0.00000000000E+00  0.49573627149E+03  0.49573627149E+03  0.00000000000E+00 0. -1.
         -1   -1    0    0    0  501 -0.00000000000E+00 -0.00000000000E+00 -0.96124594517E+02  0.96124594517E+02  0.00000000000E+00 0.  1.
         23    2    1    2    0    0 -0.56276774903E+02 -0.21364723405E+02 -0.18522955768E+02  0.11066204599E+03  0.90991547586E+02 0.  0.
         24    2    1    2    0    0  0.68384487843E+02 -0.24714134960E+01  0.43630099659E+03  0.44887584195E+03  0.80302028601E+02 0.  0.
        -11    1    4    4    0    0 -0.11381066404E+02  0.18978101614E+02  0.11628670331E+03  0.11837353750E+03  0.00000000000E+00 0.  1.
         12    1    4    4    0    0  0.79765554247E+02 -0.21449515110E+02  0.32001429329E+03  0.33050230446E+03  0.00000000000E+00 0. -1.
        -13    1    3    3    0    0 -0.77446085616E+02 -0.30616560191E+02 -0.24483629400E+02  0.86802753664E+02  0.00000000000E+00 0.  1.
         13    1    3    3    0    0  0.21169310713E+02  0.92518367859E+01  0.59606736327E+01  0.23859292323E+02  0.00000000000E+00 0. -1.
         21    1    1    2  502  501 -0.12107712941E+02  0.23836136901E+02 -0.18166363858E+02  0.32322978062E+02  0.00000000000E+00 0. -1.
<scales pt_clust_5="13000.00000" pt_clust_6="13000.00000" pt_clust_7="13000.00000" pt_clust_8="13000.00000" pt_clust_9="26.73496"></scales>
<clustering>
<clus scale="   26.735">  2  9  1 -1</clus>
<clus scale="   80.302">  5  6 -1 -1</clus>
<clus scale="   90.992">  7  8 -1 -1</clus>
<clus scale="  104.782">  1  5  2 -1</clus>
<clus scale="  104.782">  1  5  2 -1</clus>
</clustering>
</event>
<event>
 9    2  0.3402837E-005  0.1204078E+03  0.7546771E-02  0.1246350E+00
          2   -1    0    0  502    0  0.00000000000E+00  0.00000000000E+00  0.13173851656E+03  0.13173851656E+03  0.00000000000E+00 0. -1.
         -1   -1    0    0    0  501 -0.00000000000E+00 -0.00000000000E+00 -0.20136713113E+03  0.20136713113E+03  0.00000000000E+00 0.  1.
         23    2    1    2    0    0 -0.68252558139E+02  0.15532710699E+02 -0.12593438976E+03  0.17171007877E+03  0.93408799544E+02 0.  0.
         24    2    1    2    0    0  0.66206441330E+02 -0.41081332033E+02  0.69766285567E+02  0.13244554326E+03  0.81262036730E+02 0.  0.
        -13    1    4    4    0    0  0.70173044898E+02 -0.24300990611E+02  0.15978032584E+02  0.75961120977E+02  0.00000000000E+00 0.  1.
         14    1    4    4    0    0 -0.39666035676E+01 -0.16780341422E+02  0.53788252983E+02  0.56484422286E+02  0.00000000000E+00 0. -1.
        -11    1    3    3    0    0 -0.66222430661E+01  0.46639786880E+02 -0.59609306427E+02  0.75976267585E+02  0.00000000000E+00 0.  1.
         11    1    3    3    0    0 -0.61630315073E+02 -0.31107076182E+02 -0.66325083333E+02  0.95733811184E+02  0.00000000000E+00 0. -1.
         21    1    1    2  502  501  0.20461168091E+01  0.25548621334E+02 -0.13460510373E+02  0.28950025657E+02  0.00000000000E+00 0.  1.
<scales pt_clust_5="13000.00000" pt_clust_6="13000.00000" pt_clust_7="13000.00000" pt_clust_8="13000.00000" pt_clust_9="25.63042"></scales>
<clustering>
<clus scale="   25.630">  2  9  1 -1</clus>
<clus scale="   81.262">  5  6 -1 -1</clus>
<clus scale="   93.409">  7  8 -1 -1</clus>
<clus scale="  111.249">  1  5  2 -1</clus>
<clus scale="  111.249">  1  5  2 -1</clus>
</clustering>
</event>
<event>
 9    2  0.3402837E-005  0.2436951E+03  0.7546771E-02  0.1130772E+00
          2   -1    0    0  502    0  0.00000000000E+00  0.00000000000E+00  0.12844416046E+04  0.12844416046E+04  0.00000000000E+00 0. -1.
         -1   -1    0    0    0  501 -0.00000000000E+00 -0.00000000000E+00 -0.12963664824E+03  0.12963664824E+03  0.00000000000E+00 0.  1.
         23    2    1    2    0    0  0.14536723449E+03  0.38058073083E+02  0.55349210467E+02  0.18322211595E+03  0.89032347409E+02 0.  0.
         24    2    1    2    0    0 -0.20730432232E+03  0.14771857259E+03  0.94315905453E+03  0.98030111166E+03  0.81519375946E+02 0.  0.
        -13    1    4    4    0    0 -0.13185199523E+03  0.11031858839E+03  0.48748677456E+03  0.51691246354E+03  0.00000000000E+00 0.  1.
         14    1    4    4    0    0 -0.75452327089E+02  0.37399984196E+02  0.45567227997E+03  0.46338864813E+03  0.00000000000E+00 0. -1.
        -13    1    3    3    0    0  0.10040099454E+03  0.49080547985E+02  0.91108881918E+00  0.11175907112E+03  0.00000000000E+00 0.  1.
         13    1    3    3    0    0  0.44966239950E+02 -0.11022474901E+02  0.54438121648E+02  0.71463044832E+02  0.00000000000E+00 0. -1.
         21    1    1    2  502  501  0.61937087836E+02 -0.18577664567E+03  0.15629669133E+03  0.25055502519E+03  0.00000000000E+00 0.  1.
<scales pt_clust_5="13000.00000" pt_clust_6="13000.00000" pt_clust_7="13000.00000" pt_clust_8="13000.00000" pt_clust_9="229.65608"></scales>
<clustering>
<clus scale="   81.519">  5  6 -1 -1</clus>
<clus scale="   89.032">  7  8 -1 -1</clus>
<clus scale="  174.662">  2  7  1 -1</clus>
<clus scale="  229.656">  2  9  1 -1</clus>
<clus scale="  243.695">  1  5  2 -1</clus>
</clustering>
</event>
<event>
 9    2  0.3402837E-005  0.1333582E+03  0.7546771E-02  0.1236451E+00
          2   -1    0    0  502    0  0.00000000000E+00  0.00000000000E+00  0.47942504815E+02  0.47942504815E+02  0.00000000000E+00 0. -1.
         -1   -1    0    0    0  501 -0.00000000000E+00 -0.00000000000E+00 -0.68912372995E+03  0.68912372995E+03  0.00000000000E+00 0.  1.
         24    2    1    2    0    0  0.75202465436E+02 -0.90892976849E+01 -0.39466734482E+03  0.40991116150E+03  0.80788743721E+02 0.  0.
         23    2    1    2    0    0  0.40661131495E+01  0.45245280638E+02 -0.14314807469E+03  0.19196908129E+03  0.11957043191E+03 0.  0.
        -13    1    3    3    0    0  0.86555804385E+02 -0.21696419571E+02 -0.36486250725E+03  0.37561588237E+03  0.00000000000E+00 0.  1.
         14    1    3    3    0    0 -0.11353338949E+02  0.12607121886E+02 -0.29804837576E+02  0.34295279128E+02  0.00000000000E+00 0. -1.
        -11    1    4    4    0    0  0.34939835241E+02 -0.23142273514E+02 -0.92186622275E+02  0.10126564193E+03  0.00000000000E+00 0. -1.
         11    1    4    4    0    0 -0.30873722092E+02  0.68387554151E+02 -0.50961452414E+02  0.90703439355E+02  0.00000000000E+00 0.  1.
         21    1    1    2  502  501 -0.79268578585E+02 -0.36155982953E+02 -0.10336580562E+03  0.13518599197E+03  0.00000000000E+00 0. -1.
<scales pt_clust_5="13000.00000" pt_clust_6="13000.00000" pt_clust_7="13000.00000" pt_clust_8="13000.00000" pt_clust_9="87.12498"></scales>
<clustering>
<clus scale="   80.789">  5  6 -1 -1</clus>
<clus scale="   87.125">  1  9  2 -1</clus>
<clus scale="  100.071">  2  5  1 -1</clus>
<clus scale="  119.570">  7  8 -1 -1</clus>
<clus scale="   87.125">  1  5  2 -1</clus>
</clustering>
</event>
<event>
 9    2  0.3402837E-005  0.9382597E+02  0.7546771E-02  0.1299221E+00
         -1   -1    0    0    0  501 -0.00000000000E+00  0.00000000000E+00  0.74392563201E+03  0.74392563201E+03  0.00000000000E+00 0.  1.
          2   -1    0    0  502    0  0.00000000000E+00 -0.00000000000E+00 -0.34125761173E+02  0.34125761173E+02  0.00000000000E+00 0. -1.
         23    2    1    2    0    0 -0.18784219127E+01  0.37585551644E+01  0.48924471339E+03  0.49757107526E+03  0.90547943912E+02 0.  0.
         24    2    1    2    0    0 -0.19304853219E+02 -0.19676733358E+02  0.34433030515E+02  0.92481473045E+02  0.81285534216E+02 0.  0.
        -11    1    4    4    0    0 -0.47285946000E+02  0.59933048061E+01  0.16054308860E+02  0.50295339989E+02  0.00000000000E+00 0.  1.
         12    1    4    4    0    0  0.27981092782E+02 -0.25670038164E+02  0.18378721655E+02  0.42186133056E+02  0.00000000000E+00 0. -1.
        -13    1    3    3    0    0 -0.33126185925E+02  0.33775661763E+02  0.25230334287E+03  0.25670044088E+03  0.00000000000E+00 0.  1.
         13    1    3    3    0    0  0.31247764012E+02 -0.30017106599E+02  0.23694137052E+03  0.24087063438E+03  0.00000000000E+00 0. -1.
         21    1    1    2  502  501  0.21183275132E+02  0.15918178193E+02  0.18612212693E+03  0.18799884488E+03  0.00000000000E+00 0. -1.
<scales pt_clust_5="13000.00000" pt_clust_6="13000.00000" pt_clust_7="13000.00000" pt_clust_8="13000.00000" pt_clust_9="26.49754"></scales>
<clustering>
<clus scale="   26.498">  1  9  2 -1</clus>
<clus scale="   81.286">  5  6 -1 -1</clus>
<clus scale="   84.922">  2  5  1 -1</clus>
<clus scale="   90.548">  7  8 -1 -1</clus>
<clus scale="   84.922">  2  5  1 -1</clus>
</clustering>
</event>
<event>
 9    2  0.3402837E-005  0.4148937E+03  0.7546771E-02  0.1038997E+00
         -1   -1    0    0    0  501 -0.00000000000E+00  0.00000000000E+00  0.18266871090E+03  0.18266871090E+03  0.00000000000E+00 0.  1.
          2   -1    0    0  502    0  0.00000000000E+00 -0.00000000000E+00 -0.12182762300E+04  0.12182762300E+04  0.00000000000E+00 0. -1.
         23    2    1    2    0    0 -0.27131696821E+02  0.39300873390E+03 -0.23822837489E+03  0.46931929076E+03  0.91191250569E+02 0.  0.
         24    2    1    2    0    0  0.73310453013E+02 -0.40384845727E+03 -0.77250719360E+03  0.87806642074E+03  0.75929415246E+02 0.  0.
        -13    1    4    4    0    0  0.53760206425E+02 -0.12390237544E+03 -0.21477430586E+03  0.25371235857E+03  0.00000000000E+00 0.  1.
         14    1    4    4    0    0  0.19550246588E+02 -0.27994608183E+03 -0.55773288775E+03  0.62435406217E+03  0.00000000000E+00 0. -1.
        -11    1    3    3    0    0  0.27978373604E+02  0.11928955597E+03 -0.97855295348E+02  0.15680703549E+03  0.00000000000E+00 0. -1.
         11    1    3    3    0    0 -0.55110070425E+02  0.27371917793E+03 -0.14037307954E+03  0.31251225527E+03  0.00000000000E+00 0.  1.
         21    1    1    2  502  501 -0.46178756193E+02  0.10839723367E+02 -0.24871950570E+02  0.53559229376E+02  0.00000000000E+00 0. -1.
<scales pt_clust_5="13000.00000" pt_clust_6="13000.00000" pt_clust_7="13000.00000" pt_clust_8="13000.00000" pt_clust_9="47.43392"></scales>
<clustering>
<clus scale="   47.434">  1  9  2 -1</clus>
<clus scale="   75.929">  5  6 -1 -1</clus>
<clus scale="   91.191">  7  8 -1 -1</clus>
<clus scale="  411.808">  2  5  1 -1</clus>
<clus scale="  411.808">  2  5  1 -1</clus>
</clustering>
</event>
<event>
 9    2  0.3402837E-005  0.3061263E+03  0.7546771E-02  0.1082575E+00
         -1   -1    0    0    0  501 -0.00000000000E+00  0.00000000000E+00  0.63917219436E+03  0.63917219436E+03  0.00000000000E+00 0.  1.
          2   -1    0    0  502    0  0.00000000000E+00 -0.00000000000E+00 -0.79904572333E+03  0.79904572333E+03  0.00000000000E+00 0. -1.
         24    2    1    2    0    0  0.30134958203E+03 -0.50571623043E+02  0.44625195567E+03  0.54674501233E+03  0.80126405903E+02 0.  0.
         23    2    1    2    0    0 -0.28487114875E+03  0.62379258603E+02 -0.71670815354E+03  0.77904743814E+03  0.90562631536E+02 0.  0.
        -11    1    3    3    0    0  0.24844456347E+03 -0.66794135673E+02  0.39453782218E+03  0.47100557408E+03  0.00000000000E+00 0.  1.
         12    1    3    3    0    0  0.52905018557E+02  0.16222512630E+02  0.51714133483E+02  0.75739438250E+02  0.00000000000E+00 0. -1.
        -13    1    4    4    0    0 -0.15084437673E+03  0.98240925693E+01 -0.46648780346E+03  0.49036864660E+03  0.00000000000E+00 0. -1.
         13    1    4    4    0    0 -0.13402677202E+03  0.52555166034E+02 -0.25022035007E+03  0.28867879154E+03  0.00000000000E+00 0.  1.
         21    1    1    2  502  501 -0.16478433283E+02 -0.11807635560E+02  0.11058266890E+03  0.11242546723E+03  0.00000000000E+00 0.  1.
<scales pt_clust_5="13000.00000" pt_clust_6="13000.00000" pt_clust_7="13000.00000" pt_clust_8="13000.00000" pt_clust_9="20.27212"></scales>
<clustering>
<clus scale="   20.272">  1  9  2 -1</clus>
<clus scale="   80.126">  5  6 -1 -1</clus>
<clus scale="   90.563">  7  8 -1 -1</clus>
<clus scale="  303.203">  1  5  2 -1</clus>
<clus scale="  306.126">  2  5  1 -1</clus>
</clustering>
</event>
<event>
 9    2  0.3402837E-005  0.1071681E+03  0.7546771E-02  0.1272224E+00
         -1   -1    0    0    0  501 -0.00000000000E+00  0.00000000000E+00  0.85896003896E+02  0.85896003896E+02  0.00000000000E+00 0.  1.
          2   -1    0    0  502    0  0.00000000000E+00 -0.00000000000E+00 -0.17678744055E+03  0.17678744055E+03  0.00000000000E+00 0. -1.
         24    2    1    2    0    0 -0.69636597230E+01 -0.41363659269E+02 -0.33696255165E+02  0.95604561518E+02  0.79027524991E+02 0.  0.
         23    2    1    2    0    0  0.21894785352E+02  0.58938924819E+02 -0.77182357042E+02  0.13656141812E+03  0.93481154223E+02 0.  0.
        -11    1    3    3    0    0  0.19512559091E+02 -0.40794804323E+02  0.82797508882E+01  0.45972930044E+02  0.00000000000E+00 0.  1.
         12    1    3    3    0    0 -0.26476218814E+02 -0.56885494552E+00 -0.41976006053E+02  0.49631631474E+02  0.00000000000E+00 0. -1.
        -11    1    4    4    0    0 -0.84797450534E+01  0.52428875011E+02 -0.88738134673E+02  0.10341735617E+03  0.00000000000E+00 0. -1.
         11    1    4    4    0    0  0.30374530406E+02  0.65100498086E+01  0.11555777632E+02  0.33144061950E+02  0.00000000000E+00 0.  1.
         21    1    1    2  502  501 -0.14931125629E+02 -0.17575265551E+02  0.19987175554E+02  0.30517464809E+02  0.00000000000E+00 0.  1.
<scales pt_clust_5="13000.00000" pt_clust_6="13000.00000" pt_clust_7="13000.00000" pt_clust_8="13000.00000" pt_clust_9="23.06141"></scales>
<clustering>
<clus scale="   23.061">  1  9  2 -1</clus>
<clus scale="   79.028">  5  6 -1 -1</clus>
<clus scale="   93.481">  7  8 -1 -1</clus>
<clus scale="   94.824">  1  5  2 -1</clus>
<clus scale="  107.168">  2  5  1 -1</clus>
</clustering>
</event>
<event>
 9    2  0.3402837E-005  0.1144201E+03  0.7546771E-02  0.1256107E+00
          2   -1    0    0  502    0  0.00000000000E+00  0.00000000000E+00  0.23686185626E+03  0.23686185626E+03  0.00000000000E+00 0. -1.
         -1   -1    0    0    0  501 -0.00000000000E+00 -0.00000000000E+00 -0.85092625671E+02  0.85092625671E+02  0.00000000000E+00 0.  1.
         23    2    1    2    0    0 -0.63312849996E+02  0.15436270776E+02  0.53372627895E+01  0.11087205817E+03  0.89539552589E+02 0.  0.
         24    2    1    2    0    0  0.73505703827E+02  0.15997027562E+02  0.13953434942E+03  0.17732559256E+03  0.79470357509E+02 0.  0.
        -11    1    4    4    0    0  0.39068511668E+02 -0.28477392434E+02  0.38958173224E+02  0.62089046898E+02  0.00000000000E+00 0.  1.
         12    1    4    4    0    0  0.34437192159E+02  0.44474419996E+02  0.10057617619E+03  0.11523654566E+03  0.00000000000E+00 0. -1.
        -13    1    3    3    0    0 -0.19134194534E+02 -0.37304854643E+02  0.29959093520E+01  0.42032666501E+02  0.00000000000E+00 0. -1.
         13    1    3    3    0    0 -0.44178655462E+02  0.52741125418E+02  0.23413534375E+01  0.68839391665E+02  0.00000000000E+00 0.  1.
         21    1    1    2  502  501 -0.10192853831E+02 -0.31433298337E+02  0.68976183781E+01  0.33756831203E+02  0.00000000000E+00 0. -1.
<scales pt_clust_5="13000.00000" pt_clust_6="13000.00000" pt_clust_7="13000.00000" pt_clust_8="13000.00000" pt_clust_9="33.04461"></scales>
<clustering>
<clus scale="   33.045">  2  9  1 -1</clus>
<clus scale="   79.470">  5  6 -1 -1</clus>
<clus scale="   89.540">  7  8 -1 -1</clus>
<clus scale="  106.725">  1  5  2 -1</clus>
<clus scale="  106.725">  1  5  2 -1</clus>
</clustering>
</event>
<event>
 9    2  0.3402837E-005  0.1442520E+03  0.7546771E-02  0.1210070E+00
         -1   -1    0    0    0  501 -0.00000000000E+00  0.00000000000E+00  0.10353735866E+03  0.10353735866E+03  0.00000000000E+00 0.  1.
          2   -1    0    0  502    0  0.00000000000E+00 -0.00000000000E+00 -0.45256943111E+03  0.45256943111E+03  0.00000000000E+00 0. -1.
         23    2    1    2    0    0 -0.11068630255E+03 -0.44267491233E+02 -0.14356758622E+03  0.20847647975E+03  0.92950107297E+02 0.  0.
         24    2    1    2    0    0  0.77772465581E+02  0.75869719923E+02 -0.24958537081E+03  0.28415847392E+03  0.81537783716E+02 0.  0.
        -11    1    4    4    0    0  0.89017234097E+02  0.67038925773E+02 -0.24498422491E+03  0.26913854423E+03  0.00000000000E+00 0.  1.
         12    1    4    4    0    0 -0.11244768516E+02  0.88307941505E+01 -0.46011459021E+01  0.15019929691E+02  0.00000000000E+00 0. -1.
        -13    1    3    3    0    0 -0.59109561609E+02  0.68586327883E+01 -0.11678731675E+03  0.13107348501E+03  0.00000000000E+00 0.  1.
         13    1    3    3    0    0 -0.51576740937E+02 -0.51126124022E+02 -0.26780269466E+02  0.77402994747E+02  0.00000000000E+00 0. -1.
         21    1    1    2  502  501  0.32913836965E+02 -0.31602228690E+02  0.44120884575E+02  0.63471836098E+02  0.00000000000E+00 0.  1.
<scales pt_clust_5="13000.00000" pt_clust_6="13000.00000" pt_clust_7="13000.00000" pt_clust_8="13000.00000" pt_clust_9="45.62917"></scales>
<clustering>
<clus scale="   45.629">  1  9  2 -1</clus>
<clus scale="   81.538">  5  6 -1 -1</clus>
<clus scale="   92.950">  7  8 -1 -1</clus>
<clus scale="  137.176">  2  5  1 -1</clus>
<clus scale="  137.176">  2  5  1 -1</clus>
</clustering>
</event>
<event>
 9    2  0.3402837E-005  0.1750305E+03  0.7546771E-02  0.1174099E+00
         -3   -1    0    0    0  501 -0.00000000000E+00  0.00000000000E+00  0.58861612931E+02  0.58861612931E+02  0.00000000000E+00 0.  1.
          4   -1    0    0  502    0  0.00000000000E+00 -0.00000000000E+00 -0.73749009968E+03  0.73749009968E+03  0.00000000000E+00 0. -1.
         24    2    1    2    0    0 -0.11462180307E+03  0.56295689287E+02 -0.18577591087E+03  0.23941339273E+03  0.80614646251E+02 0.  0.
         23    2    1    2    0    0  0.16575457163E+03 -0.27383012198E+02 -0.43139150843E+03  0.47192087620E+03  0.91576593480E+02 0.  0.
        -11    1    3    3    0    0 -0.73343256646E+02  0.74588626357E+02 -0.14333433020E+03  0.17744696867E+03  0.00000000000E+00 0.  1.
         12    1    3    3    0    0 -0.41278546420E+02 -0.18292937070E+02 -0.42441580676E+02  0.61966424066E+02  0.00000000000E+00 0. -1.
        -13    1    4    4    0    0  0.12012025355E+03 -0.31576414578E+01 -0.38196628700E+03  0.40042114132E+03  0.00000000000E+00 0.  1.
         13    1    4    4    0    0  0.45634318083E+02 -0.24225370740E+02 -0.49425221433E+02  0.71499734882E+02  0.00000000000E+00 0. -1.
         21    1    1    2  502  501 -0.51132768567E+02 -0.28912677089E+02 -0.61461067450E+02  0.85017443680E+02  0.00000000000E+00 0.  1.
<scales pt_clust_5="13000.00000" pt_clust_6="13000.00000" pt_clust_7="13000.00000" pt_clust_8="13000.00000" pt_clust_9="58.74098"></scales>
<clustering>
<clus scale="   58.741">  1  9  2 -1</clus>
<clus scale="   80.615">  5  6 -1 -1</clus>
<clus scale="   91.577">  7  8 -1 -1</clus>
<clus scale="  169.553">  1  5  2 -1</clus>
<clus scale="  175.031">  2  5  1 -1</clus>
</clustering>
</event>
<event>
 9    2  0.3402837E-005  0.2027399E+03  0.7546771E-02  0.1148733E+00
         -1   -1    0    0    0  501 -0.00000000000E+00  0.00000000000E+00  0.52471693276E+03  0.52471693276E+03  0.00000000000E+00 0.  1.
          2   -1    0    0  502    0  0.00000000000E+00 -0.00000000000E+00 -0.12507299090E+03  0.12507299090E+03  0.00000000000E+00 0. -1.
         24    2    1    2    0    0  0.16263883239E+03 -0.56845030688E+02  0.34099660958E+03  0.39047406905E+03  0.80675668835E+02 0.  0.
         23    2    1    2    0    0 -0.15934871907E+03  0.87974865143E+02  0.15097544977E+02  0.20568307160E+03  0.94583290856E+02 0.  0.
        -13    1    3    3    0    0  0.12942827474E+03 -0.88043610202E+01  0.26059667999E+03  0.29110105582E+03  0.00000000000E+00 0.  1.
         14    1    3    3    0    0  0.33210557650E+02 -0.48040669668E+02  0.80399929586E+02  0.99373013233E+02  0.00000000000E+00 0. -1.
        -13    1    4    4    0    0 -0.60389394243E+02 -0.10693275175E+02 -0.14083099423E+02  0.62925024913E+02  0.00000000000E+00 0.  1.
         13    1    4    4    0    0 -0.98959324831E+02  0.98668140318E+02  0.29180644400E+02  0.14275804668E+03  0.00000000000E+00 0. -1.
         21    1    1    2  502  501 -0.32901133116E+01 -0.31129834454E+02  0.43549787304E+02  0.53632783006E+02  0.00000000000E+00 0. -1.
<scales pt_clust_5="13000.00000" pt_clust_6="13000.00000" pt_clust_7="13000.00000" pt_clust_8="13000.00000" pt_clust_9="31.30322"></scales>
<clustering>
<clus scale="   31.303">  1  9  2 -1</clus>
<clus scale="   80.676">  5  6 -1 -1</clus>
<clus scale="   94.583">  7  8 -1 -1</clus>
<clus scale="  196.637">  1  5  2 -1</clus>
<clus scale="  202.740">  2  5  1 -1</clus>
</clustering>
</event>
<event>
 9    2  0.3402837E-005  0.1848080E+03  0.7546771E-02  0.1164963E+00
         -1   -1    0    0    0  501 -0.00000000000E+00  0.00000000000E+00  0.39974617600E+02  0.39974617600E+02  0.00000000000E+00 0.  1.
          2   -1    0    0  502    0  0.00000000000E+00 -0.00000000000E+00 -0.11608177145E+04  0.11608177145E+04  0.00000000000E+00 0. -1.
         23    2    1    2    0    0 -0.16012432281E+03 -0.63910533416E+02 -0.45494499950E+03  0.49503258225E+03  0.91421823854E+02 0.  0.
         24    2    1    2    0    0  0.15076652485E+03  0.34626207276E+02 -0.64732626772E+03  0.66984244205E+03  0.75684087193E+02 0.  0.
        -13    1    4    4    0    0  0.65477468667E+02  0.53244415185E+02 -0.34429427933E+03  0.35448669571E+03  0.00000000000E+00 0.  1.
         14    1    4    4    0    0  0.85289056179E+02 -0.18618207909E+02 -0.30303198839E+03  0.31535574635E+03  0.00000000000E+00 0. -1.
        -11    1    3    3    0    0 -0.60375165822E+02  0.14919247879E+01 -0.25637089583E+03  0.26338834962E+03  0.00000000000E+00 0.  1.
         11    1    3    3    0    0 -0.99749156991E+02 -0.65402458204E+02 -0.19857410367E+03  0.23164423262E+03  0.00000000000E+00 0. -1.
         21    1    1    2  502  501  0.93577979680E+01  0.29284326140E+02 -0.18571829637E+02  0.35917307755E+02  0.00000000000E+00 0.  1.
<scales pt_clust_5="13000.00000" pt_clust_6="13000.00000" pt_clust_7="13000.00000" pt_clust_8="13000.00000" pt_clust_9="30.74313"></scales>
<clustering>
<clus scale="   30.743">  1  9  2 -1</clus>
<clus scale="   75.684">  5  6 -1 -1</clus>
<clus scale="   91.422">  7  8 -1 -1</clus>
<clus scale="  177.550">  2  5  1 -1</clus>
<clus scale="  177.550">  2  5  1 -1</clus>
</clustering>
</event>
<event>
 9    2  0.3402837E-005  0.1526462E+03  0.7546771E-02  0.1200075E+00
          2   -1    0    0  502    0  0.00000000000E+00  0.00000000000E+00  0.99639520245E+02  0.99639520245E+02  0.00000000000E+00 0. -1.
         -1   -1    0    0    0  501 -0.00000000000E+00 -0.00000000000E+00 -0.12058456119E+04  0.12058456119E+04  0.00000000000E+00 0.  1.
         23    2    1    2    0    0 -0.22263356208E+02  0.10948445226E+03 -0.25097702227E+03  0.28913972076E+03  0.90165459580E+02 0.  0.
         24    2    1    2    0    0  0.38894836463E+02  0.11596271266E+03 -0.15033931940E+02  0.14627018515E+03  0.78795868702E+02 0.  0.
        -13    1    4    4    0    0  0.32006687636E+02  0.12050954244E+03  0.48079409591E+01  0.12478018340E+03  0.00000000000E+00 0.  1.
         14    1    4    4    0    0  0.68881488268E+01 -0.45468297812E+01 -0.19841872899E+02  0.21490001756E+02  0.00000000000E+00 0. -1.
        -13    1    3    3    0    0 -0.39742737334E+02  0.81687966582E+02 -0.10200629360E+03  0.13659316596E+03  0.00000000000E+00 0.  1.
         13    1    3    3    0    0  0.17479381126E+02  0.27796485680E+02 -0.14897072867E+03  0.15254655480E+03  0.00000000000E+00 0. -1.
         21    1    1    2  502  501 -0.16631480255E+02 -0.22544716492E+03 -0.84019513749E+03  0.87007522627E+03  0.00000000000E+00 0. -1.
<scales pt_clust_5="13000.00000" pt_clust_6="13000.00000" pt_clust_7="13000.00000" pt_clust_8="13000.00000" pt_clust_9="130.73668"></scales>
<clustering>
<clus scale="   78.796">  5  6 -1 -1</clus>
<clus scale="   90.165">  7  8 -1 -1</clus>
<clus scale="  143.570">  2  7  1 -1</clus>
<clus scale="  130.737">  2  9  1 -1</clus>
<clus scale="  152.646">  1  5  2 -1</clus>
</clustering>
</event>
<event>
 9    2  0.3402837E-005  0.2465008E+03  0.7546771E-02  0.1116280E+00
         -1   -1    0    0    0  501 -0.00000000000E+00  0.00000000000E+00  0.33915512497E+03  0.33915512497E+03  0.00000000000E+00 0.  1.
          2   -1    0    0  502    0  0.00000000000E+00 -0.00000000000E+00 -0.50405756714E+03  0.50405756714E+03  0.00000000000E+00 0. -1.
         23    2    1    2    0    0 -0.39065648292E+02  0.20541969655E+03 -0.81699092559E+01  0.22990081577E+03  0.95206412956E+02 0.  0.
         24    2    1    2    0    0  0.65105718520E+02 -0.22502234965E+03 -0.34339737091E+03  0.42382279748E+03  0.82645005244E+02 0.  0.
        -13    1    4    4    0    0  0.59286308167E+02 -0.82251972459E+02 -0.18139753580E+03  0.20781077764E+03  0.00000000000E+00 0.  1.
         14    1    4    4    0    0  0.58194103527E+01 -0.14277037719E+03 -0.16199983510E+03  0.21601201984E+03  0.00000000000E+00 0. -1.
        -13    1    3    3    0    0 -0.66193464224E+02  0.17387750466E+03 -0.18692128434E+02  0.18698758514E+03  0.00000000000E+00 0.  1.
         13    1    3    3    0    0  0.27127815932E+02  0.31542191896E+02  0.10522219178E+02  0.42913230632E+02  0.00000000000E+00 0. -1.
         21    1    1    2  502  501 -0.26040070228E+02  0.19602653095E+02  0.18666483799E+03  0.18948907886E+03  0.00000000000E+00 0.  1.
<scales pt_clust_5="13000.00000" pt_clust_6="13000.00000" pt_clust_7="13000.00000" pt_clust_8="13000.00000" pt_clust_9="32.59370"></scales>
<clustering>
<clus scale="   32.594">  1  9  2 -1</clus>
<clus scale="   82.645">  5  6 -1 -1</clus>
<clus scale="   95.206">  7  8 -1 -1</clus>
<clus scale="  241.927">  2  5  1 -1</clus>
<clus scale="  241.927">  2  5  1 -1</clus>
</clustering>
</event>
<event>
 9    2  0.3402837E-005  0.1695719E+03  0.7546771E-02  0.1179398E+00
         -1   -1    0    0    0  501 -0.00000000000E+00  0.00000000000E+00  0.37892369465E+02  0.37892369465E+02  0.00000000000E+00 0.  1.
          2   -1    0    0  502    0  0.00000000000E+00 -0.00000000000E+00 -0.11922553933E+04  0.11922553933E+04  0.00000000000E+00 0. -1.
         23    2    1    2    0    0  0.11795532875E+02  0.12446121995E+03 -0.21464583288E+03  0.26385691722E+03  0.88982634956E+02 0.  0.
         24    2    1    2    0    0 -0.18070483521E+02 -0.14949131327E+03 -0.91408649017E+03  0.92992034376E+03  0.80768428880E+02 0.  0.
        -13    1    4    4    0    0 -0.28154861979E+02 -0.27573203784E+02 -0.11597221736E+03  0.12248482771E+03  0.00000000000E+00 0.  1.
         14    1    4    4    0    0  0.10084378457E+02 -0.12191810949E+03 -0.79811427281E+03  0.80743551605E+03  0.00000000000E+00 0. -1.
        -11    1    3    3    0    0 -0.31280364989E+02  0.77324276274E+02 -0.83670855724E+02  0.11814532167E+03  0.00000000000E+00 0.  1.
         11    1    3    3    0    0  0.43075897864E+02  0.47136943680E+02 -0.13097497716E+03  0.14571159555E+03  0.00000000000E+00 0. -1.
         21    1    1    2  502  501  0.62749506467E+01  0.25030093315E+02 -0.25630700753E+02  0.36370501757E+02  0.00000000000E+00 0. -1.
<scales pt_clust_5="13000.00000" pt_clust_6="13000.00000" pt_clust_7="13000.00000" pt_clust_8="13000.00000" pt_clust_9="25.80466"></scales>
<clustering>
<clus scale="   25.805">  1  9  2 -1</clus>
<clus scale="   80.768">  5  6 -1 -1</clus>
<clus scale="   88.983">  7  8 -1 -1</clus>
<clus scale="  165.409">  2  5  1 -1</clus>
<clus scale="  165.409">  2  5  1 -1</clus>
</clustering>
</event>
<event>
 9    2  0.3402837E-005  0.3743499E+03  0.7546771E-02  0.1110244E+00
         -1   -1    0    0    0  501 -0.00000000000E+00  0.00000000000E+00  0.53702972828E+03  0.53702972828E+03  0.00000000000E+00 0.  1.
          2   -1    0    0  502    0  0.00000000000E+00 -0.00000000000E+00 -0.54148555261E+03  0.54148555261E+03  0.00000000000E+00 0. -1.
         23    2    1    2    0    0  0.22312456833E+03  0.28647420026E+03  0.18001777519E+03  0.41531844615E+03  0.90724704016E+02 0.  0.
         24    2    1    2    0    0 -0.18165528430E+01  0.16207824850E+01 -0.27688431442E+03  0.28834260037E+03  0.80440069727E+02 0.  0.
        -13    1    4    4    0    0 -0.25831022164E+02 -0.28141018903E+02 -0.93288759387E+02  0.10080650415E+03  0.00000000000E+00 0.  1.
         14    1    4    4    0    0  0.24014469321E+02  0.29761801388E+02 -0.18359555503E+03  0.18753609622E+03  0.00000000000E+00 0. -1.
        -11    1    3    3    0    0  0.37585436715E+02  0.10809479500E+03  0.77804822988E+02  0.13838619960E+03  0.00000000000E+00 0. -1.
         11    1    3    3    0    0  0.18553913161E+03  0.17837940527E+03  0.10221295220E+03  0.27693224655E+03  0.00000000000E+00 0.  1.
         21    1    1    2  502  501 -0.22130801548E+03 -0.28809498275E+03  0.92410714886E+02  0.37485423437E+03  0.00000000000E+00 0.  1.
<scales pt_clust_5="13000.00000" pt_clust_6="13000.00000" pt_clust_7="13000.00000" pt_clust_8="13000.00000" pt_clust_9="363.18988"></scales>
<clustering>
<clus scale="   80.440">  5  6 -1 -1</clus>
<clus scale="   80.477">  2  5  1 -1</clus>
<clus scale="   90.725">  7  8 -1 -1</clus>
<clus scale="  363.190">  2  9  1 -1</clus>
<clus scale="   80.477">  2  5  1 -1</clus>
</clustering>
</event>
<event>
 9    2  0.3402837E-005  0.1590249E+03  0.7546771E-02  0.1191215E+00
         -1   -1    0    0    0  501 -0.00000000000E+00  0.00000000000E+00  0.23784686885E+03  0.23784686885E+03  0.00000000000E+00 0.  1.
          2   -1    0    0  502    0  0.00000000000E+00 -0.00000000000E+00 -0.30630183474E+03  0.30630183474E+03  0.00000000000E+00 0. -1.
         24    2    1    2    0    0  0.10449264490E+03  0.37191974869E+02  0.63164671641E+02  0.15093507311E+03  0.80558455297E+02 0.  0.
         23    2    1    2    0    0 -0.12676540801E+03 -0.50113819265E+02 -0.23534851477E+03  0.28633645793E+03  0.89547641989E+02 0.  0.
        -11    1    3    3    0    0  0.11169721130E+03  0.49431048596E+02  0.61126279639E+02  0.13658739927E+03  0.00000000000E+00 0.  1.
         12    1    3    3    0    0 -0.72045664007E+01 -0.12239073727E+02  0.20383920017E+01  0.14347673842E+02  0.00000000000E+00 0. -1.
        -13    1    4    4    0    0 -0.72710635066E+02  0.19185199205E+02 -0.10719646169E+03  0.13094269632E+03  0.00000000000E+00 0.  1.
         13    1    4    4    0    0 -0.54054772939E+02 -0.69299018469E+02 -0.12815205308E+03  0.15539376161E+03  0.00000000000E+00 0. -1.
         21    1    1    2  502  501  0.22272763107E+02  0.12921844395E+02  0.10372887724E+03  0.10687717255E+03  0.00000000000E+00 0.  1.
<scales pt_clust_5="13000.00000" pt_clust_6="13000.00000" pt_clust_7="13000.00000" pt_clust_8="13000.00000" pt_clust_9="25.74976"></scales>
<clustering>
<clus scale="   25.750">  1  9  2 -1</clus>
<clus scale="   80.558">  5  6 -1 -1</clus>
<clus scale="   89.548">  7  8 -1 -1</clus>
<clus scale="  154.142">  1  5  2 -1</clus>
<clus scale="  159.025">  2  5  1 -1</clus>
</clustering>
</event>
<event>
 9    2  0.3402837E-005  0.1594039E+03  0.7546771E-02  0.1197862E+00
         -1   -1    0    0    0  501 -0.00000000000E+00  0.00000000000E+00  0.78854710741E+03  0.78854710741E+03  0.00000000000E+00 0.  1.
          2   -1    0    0  502    0  0.00000000000E+00 -0.00000000000E+00 -0.13025308620E+03  0.13025308620E+03  0.00000000000E+00 0. -1.
         24    2    1    2    0    0 -0.11893491239E+03 -0.36565712486E+02  0.28065373029E+03  0.31694636863E+03  0.78777658950E+02 0.  0.
         23    2    1    2    0    0 -0.34652838224E+02  0.88782481489E+02 -0.52355313258E+02  0.14227574922E+03  0.91750540995E+02 0.  0.
        -13    1    3    3    0    0 -0.10438278995E+02 -0.36938696334E+02  0.83800677407E+02  0.92173632288E+02  0.00000000000E+00 0.  1.
         14    1    3    3    0    0 -0.10849663340E+03  0.37298384876E+00  0.19685305288E+03  0.22477273635E+03  0.00000000000E+00 0. -1.
        -11    1    4    4    0    0 -0.59859113432E+01  0.46914752583E+02  0.22076304567E+02  0.52193757940E+02  0.00000000000E+00 0.  1.
         11    1    4    4    0    0 -0.28666926880E+02  0.41867728906E+02 -0.74431617826E+02  0.90081991278E+02  0.00000000000E+00 0. -1.
         21    1    1    2  502  501  0.15358775061E+03 -0.52216769004E+02  0.42999560418E+03  0.45957807576E+03  0.00000000000E+00 0.  1.
<scales pt_clust_5="13000.00000" pt_clust_6="13000.00000" pt_clust_7="13000.00000" pt_clust_8="13000.00000" pt_clust_9="138.57741"></scales>
<clustering>
<clus scale="   78.778">  5  6 -1 -1</clus>
<clus scale="   91.751">  7  8 -1 -1</clus>
<clus scale="  132.293">  2  7  1 -1</clus>
<clus scale="  138.577">  1  9  2 -1</clus>
<clus scale="  132.293">  2  5  1 -1</clus>
</clustering>
</event>
<event>
 9    2  0.3402837E-005  0.1237438E+03  0.7546771E-02  0.1240570E+00
          2   -1    0    0  502    0  0.00000000000E+00  0.00000000000E+00  0.66906055003E+03  0.66906055003E+03  0.00000000000E+00 0. -1.
         -1   -1    0    0    0  501 -0.00000000000E+00 -0.00000000000E+00 -0.46881051475E+02  0.46881051475E+02  0.00000000000E+00 0.  1.
         23    2    1    2    0    0  0.96454934684E+02  0.11162903776E+02  0.25404834757E+03  0.28754365648E+03  0.93341451858E+02 0.  0.
         24    2    1    2    0    0 -0.71779742014E+02 -0.18551631901E+02  0.38306432627E+03  0.39862449779E+03  0.81649971026E+02 0.  0.
        -11    1    4    4    0    0 -0.29514152188E+02 -0.34896012066E+02  0.79536889288E+02  0.91732947162E+02  0.00000000000E+00 0.  1.
         12    1    4    4    0    0 -0.42265589825E+02  0.16344380165E+02  0.30352743698E+03  0.30689155062E+03  0.00000000000E+00 0. -1.
        -11    1    3    3    0    0  0.27730476532E+02  0.48669499042E+02  0.11671067471E+03  0.12945686949E+03  0.00000000000E+00 0. -1.
         11    1    3    3    0    0  0.68724458152E+02 -0.37506595265E+02  0.13733767286E+03  0.15808678700E+03  0.00000000000E+00 0.  1.
         21    1    1    2  502  501 -0.24675192670E+02  0.73887281250E+01 -0.14933175278E+02  0.29773447239E+02  0.00000000000E+00 0.  1.
<scales pt_clust_5="13000.00000" pt_clust_6="13000.00000" pt_clust_7="13000.00000" pt_clust_8="13000.00000" pt_clust_9="25.75769"></scales>
<clustering>
<clus scale="   25.758">  2  9  1 -1</clus>
<clus scale="   81.650">  5  6 -1 -1</clus>
<clus scale="   93.341">  7  8 -1 -1</clus>
<clus scale="  115.181">  1  5  2 -1</clus>
<clus scale="  115.181">  1  5  2 -1</clus>
</clustering>
</event>
<event>
 9    2  0.3402837E-005  0.1476963E+03  0.7546771E-02  0.1205526E+00
          4   -1    0    0  502    0  0.00000000000E+00  0.00000000000E+00  0.81108950230E+02  0.81108950230E+02  0.00000000000E+00 0. -1.
         -3   -1    0    0    0  501 -0.00000000000E+00 -0.00000000000E+00 -0.60132622355E+03  0.60132622355E+03  0.00000000000E+00 0.  1.
         23    2    1    2    0    0 -0.11828438869E+03  0.90359095539E+01 -0.43934164357E+03  0.46436234144E+03  0.92403788334E+02 0.  0.
         24    2    1    2    0    0  0.93375016312E+02 -0.59251084156E+02 -0.25859456432E+02  0.13953099687E+03  0.81059255836E+02 0.  0.
        -13    1    4    4    0    0  0.42441162663E+02  0.21899852576E+01 -0.40138079302E+02  0.58456083804E+02  0.00000000000E+00 0.  1.
         14    1    4    4    0    0  0.50933853649E+02 -0.61441069414E+02  0.14278622870E+02  0.81074913070E+02  0.00000000000E+00 0. -1.
        -13    1    3    3    0    0 -0.12499367967E+03  0.29840504437E+02 -0.37418919501E+03  0.39564053044E+03  0.00000000000E+00 0.  1.
         13    1    3    3    0    0  0.67092909734E+01 -0.20804594883E+02 -0.65152448562E+02  0.68721811001E+02  0.00000000000E+00 0. -1.
         21    1    1    2  502  501  0.24909372381E+02  0.50215174602E+02 -0.55016173318E+02  0.78541835472E+02  0.00000000000E+00 0. -1.
<scales pt_clust_5="13000.00000" pt_clust_6="13000.00000" pt_clust_7="13000.00000" pt_clust_8="13000.00000" pt_clust_9="56.05391"></scales>
<clustering>
<clus scale="   56.054">  1  9  2 -1</clus>
<clus scale="   81.059">  5  6 -1 -1</clus>
<clus scale="   92.404">  7  8 -1 -1</clus>
<clus scale="  140.877">  1  5  2 -1</clus>
<clus scale="   56.054">  1  5  2 -1</clus>
</clustering>
</event>
<event>
 9    2  0.3402837E-005  0.1475202E+03  0.7546771E-02  0.1204759E+00
         -1   -1    0    0    0  501 -0.00000000000E+00  0.00000000000E+00  0.48257040426E+02  0.48257040426E+02  0.00000000000E+00 0.  1.
          2   -1    0    0  502    0  0.00000000000E+00 -0.00000000000E+00 -0.81448917929E+03  0.81448917929E+03  0.00000000000E+00 0. -1.
         23    2    1    2    0    0 -0.63489765235E+02 -0.11296088212E+03 -0.13492640225E+03  0.20694113733E+03  0.88478184423E+02 0.  0.
         24    2    1    2    0    0  0.43101701803E+02  0.10729312728E+03 -0.60807859639E+03  0.62438380586E+03  0.82012107475E+02 0.  0.
        -11    1    4    4    0    0  0.53355739199E+02  0.30509562469E+02 -0.20872158996E+03  0.21758301961E+03  0.00000000000E+00 0.  1.
         12    1    4    4    0    0 -0.10254037397E+02  0.76783564807E+02 -0.39935700643E+03  0.40680078625E+03  0.00000000000E+00 0. -1.
        -11    1    3    3    0    0  0.25318937835E+01 -0.65603867435E+02 -0.25010709340E+02  0.70255344923E+02  0.00000000000E+00 0.  1.
         11    1    3    3    0    0 -0.66021659018E+02 -0.47357014681E+02 -0.10991569291E+03  0.13668579241E+03  0.00000000000E+00 0. -1.
         21    1    1    2  502  501  0.20388063432E+02  0.56677548400E+01 -0.23227140227E+02  0.31421276527E+02  0.00000000000E+00 0. -1.
<scales pt_clust_5="13000.00000" pt_clust_6="13000.00000" pt_clust_7="13000.00000" pt_clust_8="13000.00000" pt_clust_9="21.16120"></scales>
<clustering>
<clus scale="   21.161">  1  9  2 -1</clus>
<clus scale="   82.012">  5  6 -1 -1</clus>
<clus scale="   88.478">  7  8 -1 -1</clus>
<clus scale="  143.735">  2  5  1 -1</clus>
<clus scale="  143.735">  2  5  1 -1</clus>
</clustering>
</event>
<event>
 9    2  0.3402837E-005  0.1673113E+03  0.7546771E-02  0.1181624E+00
          2   -1    0    0  502    0  0.00000000000E+00  0.00000000000E+00  0.91343679234E+03  0.91343679234E+03  0.00000000000E+00 0. -1.
         -1   -1    0    0    0  501 -0.00000000000E+00 -0.00000000000E+00 -0.17425121977E+03  0.17425121977E+03  0.00000000000E+00 0.  1.
         23    2    1    2    0    0 -0.65871339483E+02 -0.13014507975E+03  0.11273555516E+03  0.20646437487E+03  0.92959440338E+02 0.  0.
         24    2    1    2    0    0  0.32997517810E+02  0.13443769153E+03  0.74265500507E+03  0.76038194813E+03  0.86498100533E+02 0.  0.
        -11    1    4    4    0    0  0.35711700242E+02  0.69276607693E+02  0.21460308298E+03  0.22831788614E+03  0.00000000000E+00 0.  1.
         12    1    4    4    0    0 -0.27141824319E+01  0.65161083838E+02  0.52805192209E+03  0.53206406199E+03  0.00000000000E+00 0. -1.
        -11    1    3    3    0    0  0.80435352469E+01 -0.68581966603E+02  0.78040282228E+02  0.10420398386E+03  0.00000000000E+00 0.  1.
         11    1    3    3    0    0 -0.73914874730E+02 -0.61563113142E+02  0.34695272927E+02  0.10226039101E+03  0.00000000000E+00 0. -1.
         21    1    1    2  502  501  0.32873821672E+02 -0.42926117858E+01 -0.11620498767E+03  0.12084168911E+03  0.00000000000E+00 0.  1.
<scales pt_clust_5="13000.00000" pt_clust_6="13000.00000" pt_clust_7="13000.00000" pt_clust_8="13000.00000" pt_clust_9="33.15290"></scales>
<clustering>
<clus scale="   33.153">  2  9  1 -1</clus>
<clus scale="   86.498">  5  6 -1 -1</clus>
<clus scale="   92.959">  7  8 -1 -1</clus>
<clus scale="  163.809">  1  5  2 -1</clus>
<clus scale="  163.809">  1  5  2 -1</clus>
</clustering>
</event>
<event>
 9    2  0.3402837E-005  0.9133345E+02  0.7546771E-02  0.1309923E+00
         -1   -1    0    0    0  501 -0.00000000000E+00  0.00000000000E+00  0.27779316903E+02  0.27779316903E+02  0.00000000000E+00 0.  1.
          2   -1    0    0  502    0  0.00000000000E+00 -0.00000000000E+00 -0.77767850094E+03  0.77767850094E+03  0.00000000000E+00 0. -1.
         23    2    1    2    0    0  0.51470234926E+01  0.37134756618E+01 -0.11150079228E+03  0.14372082629E+03  0.90459756122E+02 0.  0.
         24    2    1    2    0    0  0.14978788355E+02  0.24309982131E+01 -0.63601618592E+03  0.64055969790E+03  0.74631521293E+02 0.  0.
        -13    1    4    4    0    0  0.25750798973E+01 -0.33613683379E+02 -0.19440734734E+03  0.19730871103E+03  0.00000000000E+00 0.  1.
         14    1    4    4    0    0  0.12403708458E+02  0.36044681592E+02 -0.44160883858E+03  0.44325098688E+03  0.00000000000E+00 0. -1.
        -11    1    3    3    0    0  0.34861735232E+02 -0.29592465093E+02 -0.62446347556E+02  0.77398972195E+02  0.00000000000E+00 0. -1.
         11    1    3    3    0    0 -0.29714711740E+02  0.33305940754E+02 -0.49054444720E+02  0.66321854091E+02  0.00000000000E+00 0.  1.
         21    1    1    2  502  501 -0.20125811848E+02 -0.61444738749E+01 -0.23822058353E+01  0.21177293651E+02  0.00000000000E+00 0.  1.
<scales pt_clust_5="13000.00000" pt_clust_6="13000.00000" pt_clust_7="13000.00000" pt_clust_8="13000.00000" pt_clust_9="21.04288"></scales>
<clustering>
<clus scale="   21.043">  1  9  2 -1</clus>
<clus scale="   74.632">  5  6 -1 -1</clus>
<clus scale="   75.688">  2  5  1 -1</clus>
<clus scale="   90.460">  7  8 -1 -1</clus>
<clus scale="   75.688">  2  5  1 -1</clus>
</clustering>
</event>
<event>
 9    2  0.3402837E-005  0.1004333E+03  0.7546771E-02  0.1290006E+00
         -1   -1    0    0    0  501 -0.00000000000E+00  0.00000000000E+00  0.12315954308E+03  0.12315954308E+03  0.00000000000E+00 0.  1.
          2   -1    0    0  502    0  0.00000000000E+00 -0.00000000000E+00 -0.44420591674E+03  0.44420591674E+03  0.00000000000E+00 0. -1.
         23    2    1    2    0    0 -0.25068411105E+02 -0.12579038215E+02  0.31302367701E+02  0.10566717512E+03  0.96948729933E+02 0.  0.
         24    2    1    2    0    0  0.23046427056E+01  0.26797276617E+02 -0.39924827487E+03  0.40766205891E+03  0.77883014029E+02 0.  0.
        -13    1    4    4    0    0  0.17329440226E+02 -0.23877963728E+02 -0.14893514409E+03  0.15182932455E+03  0.00000000000E+00 0.  1.
         14    1    4    4    0    0 -0.15024797521E+02  0.50675240345E+02 -0.25031313078E+03  0.25583273435E+03  0.00000000000E+00 0. -1.
        -13    1    3    3    0    0  0.30955721557E+02 -0.17073369014E+02  0.34467870747E+02  0.49373988500E+02  0.00000000000E+00 0.  1.
         13    1    3    3    0    0 -0.56024132662E+02  0.44943307992E+01 -0.31655030460E+01  0.56293186616E+02  0.00000000000E+00 0. -1.
         21    1    1    2  502  501  0.22763768400E+02 -0.14218238402E+02  0.46899533505E+02  0.54036225793E+02  0.00000000000E+00 0. -1.
<scales pt_clust_5="13000.00000" pt_clust_6="13000.00000" pt_clust_7="13000.00000" pt_clust_8="13000.00000" pt_clust_9="26.83929"></scales>
<clustering>
<clus scale="   26.839">  1  9  2 -1</clus>
<clus scale="   77.883">  5  6 -1 -1</clus>
<clus scale="   82.180">  2  5  1 -1</clus>
<clus scale="   96.949">  7  8 -1 -1</clus>
<clus scale="   82.180">  2  5  1 -1</clus>
</clustering>
</event>
<event>
 9    2  0.3402837E-005  0.1339321E+03  0.7546771E-02  0.1223677E+00
          4   -1    0    0  502    0  0.00000000000E+00  0.00000000000E+00  0.35029014099E+03  0.35029014099E+03  0.00000000000E+00 0. -1.
         -3   -1    0    0    0  501 -0.00000000000E+00 -0.00000000000E+00 -0.14316512592E+03  0.14316512592E+03  0.00000000000E+00 0.  1.
         24    2    1    2    0    0 -0.11297683192E+03  0.36936125769E+02  0.41761206354E+02  0.15143754358E+03  0.84031478096E+02 0.  0.
         23    2    1    2    0    0  0.88789148058E+02 -0.19632019364E+02  0.23391551291E+03  0.26729281252E+03  0.91978537965E+02 0.  0.
        -11    1    3    3    0    0 -0.47052936851E+02  0.57293784486E+02  0.35378313133E+02  0.82147316737E+02  0.00000000000E+00 0.  1.
         12    1    3    3    0    0 -0.65923895073E+02 -0.20357658717E+02  0.63828932215E+01  0.69290226843E+02  0.00000000000E+00 0. -1.
        -13    1    4    4    0    0  0.95907952527E+02  0.62918976275E+01  0.21140860661E+03  0.23223161344E+03  0.00000000000E+00 0. -1.
         13    1    4    4    0    0 -0.71188044694E+01 -0.25923916991E+02  0.22506906298E+02  0.35061199072E+02  0.00000000000E+00 0.  1.
         21    1    1    2  502  501  0.24187683866E+02 -0.17304106405E+02 -0.68551704193E+02  0.74724910820E+02  0.00000000000E+00 0.  1.
<scales pt_clust_5="13000.00000" pt_clust_6="13000.00000" pt_clust_7="13000.00000" pt_clust_8="13000.00000" pt_clust_9="29.74014"></scales>
<clustering>
<clus scale="   29.740">  2  9  1 -1</clus>
<clus scale="   84.031">  5  6 -1 -1</clus>
<clus scale="   91.979">  7  8 -1 -1</clus>
<clus scale="  128.604">  2  5  1 -1</clus>
<clus scale="  133.932">  1  5  2 -1</clus>
</clustering>
</event>
<event>
 9    2  0.3402837E-005  0.9618836E+02  0.7546771E-02  0.1294885E+00
          2   -1    0    0  502    0  0.00000000000E+00  0.00000000000E+00  0.62519389041E+02  0.62519389041E+02  0.00000000000E+00 0. -1.
         -1   -1    0    0    0  501 -0.00000000000E+00 -0.00000000000E+00 -0.34506534208E+03  0.34506534208E+03  0.00000000000E+00 0.  1.
         23    2    1    2    0    0  0.44346445646E+02  0.16284963324E+02 -0.16150077155E+03  0.19188566747E+03  0.92226909829E+02 0.  0.
         24    2    1    2    0    0 -0.20669753372E+02  0.16964213002E+02  0.28296530639E+01  0.85272578157E+02  0.80922076233E+02 0.  0.
        -13    1    4    4    0    0 -0.15525757468E+02 -0.19883639889E+02 -0.27465699809E+02  0.37293068340E+02  0.00000000000E+00 0.  1.
         14    1    4    4    0    0 -0.51439959033E+01  0.36847852892E+02  0.30295352873E+02  0.47979509817E+02  0.00000000000E+00 0. -1.
        -13    1    3    3    0    0  0.72927484948E+02  0.66955957045E+01 -0.12020148352E+03  0.14075384792E+03  0.00000000000E+00 0.  1.
         13    1    3    3    0    0 -0.28581039302E+02  0.95893676198E+01 -0.41299288030E+02  0.51131819552E+02  0.00000000000E+00 0. -1.
         21    1    1    2  502  501 -0.23676692274E+02 -0.33249176327E+02 -0.12387483455E+03  0.13042648549E+03  0.00000000000E+00 0. -1.
<scales pt_clust_5="13000.00000" pt_clust_6="13000.00000" pt_clust_7="13000.00000" pt_clust_8="13000.00000" pt_clust_9="40.81781"></scales>
<clustering>
<clus scale="   40.818">  2  9  1 -1</clus>
<clus scale="   80.922">  5  6 -1 -1</clus>
<clus scale="   85.409">  1  5  2 -1</clus>
<clus scale="   92.227">  7  8 -1 -1</clus>
<clus scale="   85.409">  1  5  2 -1</clus>
</clustering>
</event>
<event>
 9    2  0.3402837E-005  0.1091583E+03  0.7546771E-02  0.1266545E+00
         -1   -1    0    0    0  501 -0.00000000000E+00  0.00000000000E+00  0.46286614545E+02  0.46286614545E+02  0.00000000000E+00 0.  1.
          2   -1    0    0  502    0  0.00000000000E+00 -0.00000000000E+00 -0.53573377483E+03  0.53573377483E+03  0.00000000000E+00 0. -1.
         23    2    1    2    0    0 -0.22200376762E+02 -0.48272986707E+02 -0.46901721041E+02  0.11623045491E+03  0.92122794339E+02 0.  0.
         24    2    1    2    0    0  0.28439722901E+02  0.77160455543E+02 -0.34385906826E+03  0.36277335758E+03  0.81258208243E+02 0.  0.
        -13    1    4    4    0    0  0.46442252290E+02  0.30915000757E+02 -0.10592738894E+03  0.11972147592E+03  0.00000000000E+00 0.  1.
         14    1    4    4    0    0 -0.18002529389E+02  0.46245454786E+02 -0.23793167932E+03  0.24305188166E+03  0.00000000000E+00 0. -1.
        -13    1    3    3    0    0  0.28608233550E+02 -0.36577020993E+02 -0.50603741903E+00  0.46438836822E+02  0.00000000000E+00 0.  1.
         13    1    3    3    0    0 -0.50808610312E+02 -0.11695965714E+02 -0.46395683622E+02  0.69791618083E+02  0.00000000000E+00 0. -1.
         21    1    1    2  502  501 -0.62393461388E+01 -0.28887468836E+02 -0.98686370980E+02  0.10301657689E+03  0.00000000000E+00 0. -1.
<scales pt_clust_5="13000.00000" pt_clust_6="13000.00000" pt_clust_7="13000.00000" pt_clust_8="13000.00000" pt_clust_9="29.55360"></scales>
<clustering>
<clus scale="   29.554">  2  9  1 -1</clus>
<clus scale="   81.258">  5  6 -1 -1</clus>
<clus scale="   92.123">  7  8 -1 -1</clus>
<clus scale="  100.159">  2  5  1 -1</clus>
<clus scale="   29.554">  2  5  1 -1</clus>
</clustering>
</event>
<event>
 9    2  0.4372094E-005  0.1349237E+03  0.7546771E-02  0.1223160E+00
         -3   -1    0    0    0  501 -0.00000000000E+00  0.00000000000E+00  0.27857485103E+03  0.27857485103E+03  0.00000000000E+00 0.  1.
          4   -1    0    0  502    0  0.00000000000E+00 -0.00000000000E+00 -0.36320422339E+03  0.36320422339E+03  0.00000000000E+00 0. -1.
         23    2    1    2    0    0 -0.59908507463E+02 -0.77502115103E+02  0.23657035845E+03  0.27202970400E+03  0.91864129262E+02 0.  0.
         24    2    1    2    0    0  0.81985324070E+02  0.81871193111E+02 -0.31698539033E+03  0.34685318428E+03  0.80018173798E+02 0.  0.
        -11    1    4    4    0    0  0.15330102558E+02  0.50156315312E+02 -0.61044918288E+02  0.80480743404E+02  0.00000000000E+00 0.  1.
         12    1    4    4    0    0  0.66655221512E+02  0.31714877799E+02 -0.25594047205E+03  0.26637244088E+03  0.00000000000E+00 0. -1.
        -13    1    3    3    0    0 -0.93391994016E+01 -0.63802078949E+02  0.19427274377E+03  0.20469446719E+03  0.00000000000E+00 0.  1.
         13    1    3    3    0    0 -0.50569308062E+02 -0.13700036155E+02  0.42297614681E+02  0.67335236810E+02  0.00000000000E+00 0. -1.
         21    1    1    2  502  501 -0.22076816607E+02 -0.43690780078E+01 -0.42143404882E+01  0.22896186142E+02  0.00000000000E+00 0. -1.
<scales pt_clust_5="13000.00000" pt_clust_6="13000.00000" pt_clust_7="13000.00000" pt_clust_8="13000.00000" pt_clust_9="22.50499"></scales>
<clustering>
<clus scale="   22.505">  2  9  1 -1</clus>
<clus scale="   80.018">  5  6 -1 -1</clus>
<clus scale="   91.864">  7  8 -1 -1</clus>
<clus scale="  127.155">  2  5  1 -1</clus>
<clus scale="   22.505">  2  5  1 -1</clus>
</clustering>
</event>
<event>
 9    2  0.3402837E-005  0.1057646E+03  0.7546771E-02  0.1273688E+00
         -1   -1    0    0    0  501 -0.00000000000E+00  0.00000000000E+00  0.34797620391E+03  0.34797620391E+03  0.00000000000E+00 0.  1.
          2   -1    0    0  502    0  0.00000000000E+00 -0.00000000000E+00 -0.18815473929E+03  0.18815473929E+03  0.00000000000E+00 0. -1.
         24    2    1    2    0    0 -0.15568473594E+02  0.61981172308E+02  0.12854620050E+03  0.16367021935E+03  0.78611525562E+02 0.  0.
         23    2    1    2    0    0  0.38540747673E+02 -0.38989072707E+02 -0.15265625312E+03  0.18567966201E+03  0.90374046305E+02 0.  0.
        -11    1    3    3    0    0 -0.24210968426E+02  0.29467253785E+02  0.12398676088E+03  0.12971972445E+03  0.00000000000E+00 0.  1.
         12    1    3    3    0    0  0.86424948319E+01  0.32513918524E+02  0.45594396145E+01  0.33950494905E+02  0.00000000000E+00 0. -1.
        -11    1    4    4    0    0  0.68324647388E+02 -0.24532700369E+02 -0.10484327922E+03  0.12752342540E+03  0.00000000000E+00 0. -1.
         11    1    4    4    0    0 -0.29783899715E+02 -0.14456372338E+02 -0.47812973899E+02  0.58156236609E+02  0.00000000000E+00 0.  1.
         21    1    1    2  502  501 -0.22972274078E+02 -0.22992099601E+02  0.18393151725E+03  0.18678106183E+03  0.00000000000E+00 0.  1.
<scales pt_clust_5="13000.00000" pt_clust_6="13000.00000" pt_clust_7="13000.00000" pt_clust_8="13000.00000" pt_clust_9="32.50172"></scales>
<clustering>
<clus scale="   32.502">  1  9  2 -1</clus>
<clus scale="   78.612">  5  6 -1 -1</clus>
<clus scale="   90.374">  7  8 -1 -1</clus>
<clus scale="   95.909">  1  5  2 -1</clus>
<clus scale="  105.765">  2  5  1 -1</clus>
</clustering>
</event>
<event>
 9    2  0.3402837E-005  0.2485363E+03  0.7546771E-02  0.1114931E+00
          2   -1    0    0  502    0  0.00000000000E+00  0.00000000000E+00  0.95638169194E+03  0.95638169194E+03  0.00000000000E+00 0. -1.
         -1   -1    0    0    0  501 -0.00000000000E+00 -0.00000000000E+00 -0.23321523559E+03  0.23321523559E+03  0.00000000000E+00 0.  1.
         23    2    1    2    0    0 -0.14132490507E+03 -0.35020600752E+02  0.73293704661E+02  0.18726788430E+03  0.92185259546E+02 0.  0.
         24    2    1    2    0    0  0.25084739523E+03  0.92868082910E+02  0.77653243341E+03  0.82517323041E+03  0.79745492314E+02 0.  0.
        -11    1    4    4    0    0  0.54264728935E+02  0.42471774069E+02  0.12461420294E+03  0.14239807574E+03  0.00000000000E+00 0.  1.
         12    1    4    4    0    0  0.19658266629E+03  0.50396308841E+02  0.65191823047E+03  0.68277515468E+03  0.00000000000E+00 0. -1.
        -13    1    3    3    0    0 -0.30049745976E+02  0.28613095958E+02  0.32633537642E+02  0.52788675609E+02  0.00000000000E+00 0. -1.
         13    1    3    3    0    0 -0.11127515910E+03 -0.63633696710E+02  0.40660167019E+02  0.13447920869E+03  0.00000000000E+00 0.  1.
         21    1    1    2  502  501 -0.10952249016E+03 -0.57847482157E+02 -0.12665968171E+03  0.17715581281E+03  0.00000000000E+00 0.  1.
<scales pt_clust_5="13000.00000" pt_clust_6="13000.00000" pt_clust_7="13000.00000" pt_clust_8="13000.00000" pt_clust_9="123.86084"></scales>
<clustering>
<clus scale="   79.745">  5  6 -1 -1</clus>
<clus scale="   92.185">  7  8 -1 -1</clus>
<clus scale="  123.861">  2  9  1 -1</clus>
<clus scale="  244.196">  1  5  2 -1</clus>
<clus scale="  244.196">  1  5  2 -1</clus>
</clustering>
</event>
<event>
 9    2  0.3402837E-005  0.1142524E+03  0.7546771E-02  0.1256459E+00
          2   -1    0    0  502    0  0.00000000000E+00  0.00000000000E+00  0.10322263055E+04  0.10322263055E+04  0.00000000000E+00 0. -1.
         -1   -1    0    0    0  501 -0.00000000000E+00 -0.00000000000E+00 -0.58611115062E+02  0.58611115062E+02  0.00000000000E+00 0.  1.
         23    2    1    2    0    0 -0.22285308278E+02  0.51825988202E+02  0.29023434952E+02  0.10862356566E+03  0.88171147335E+02 0.  0.
         24    2    1    2    0    0 -0.30424782987E+02 -0.68933645184E+02  0.91099056869E+03  0.91740594332E+03  0.77796746300E+02 0.  0.
        -13    1    4    4    0    0  0.13695263421E+02 -0.25973672598E+02  0.10389796554E+03  0.10796749118E+03  0.00000000000E+00 0.  1.
         14    1    4    4    0    0 -0.44120046409E+02 -0.42959972586E+02  0.80709260316E+03  0.80943845214E+03  0.00000000000E+00 0. -1.
        -13    1    3    3    0    0 -0.35668919723E+02 -0.11225493441E+02 -0.12444468459E+01  0.37414331280E+02  0.00000000000E+00 0. -1.
         13    1    3    3    0    0  0.13383611445E+02  0.63051481643E+02  0.30267881798E+02  0.71209234381E+02  0.00000000000E+00 0.  1.
         21    1    1    2  502  501  0.52710091266E+02  0.17107656982E+02  0.33601186779E+02  0.64807911566E+02  0.00000000000E+00 0.  1.
<scales pt_clust_5="13000.00000" pt_clust_6="13000.00000" pt_clust_7="13000.00000" pt_clust_8="13000.00000" pt_clust_9="55.41684"></scales>
<clustering>
<clus scale="   55.417">  2  9  1 -1</clus>
<clus scale="   77.797">  5  6 -1 -1</clus>
<clus scale="   88.171">  7  8 -1 -1</clus>
<clus scale="  106.451">  1  5  2 -1</clus>
<clus scale="  106.451">  1  5  2 -1</clus>
</clustering>
</event>
<event>
 9    2  0.3402837E-005  0.1350141E+03  0.7546771E-02  0.1224093E+00
         -1   -1    0    0    0  501 -0.00000000000E+00  0.00000000000E+00  0.18068016472E+03  0.18068016472E+03  0.00000000000E+00 0.  1.
          2   -1    0    0  502    0  0.00000000000E+00 -0.00000000000E+00 -0.18293488227E+03  0.18293488227E+03  0.00000000000E+00 0. -1.
         23    2    1    2    0    0 -0.31958751992E+02  0.10271947893E+03  0.12231379198E+02  0.14420463513E+03  0.95250810894E+02 0.  0.
         24    2    1    2    0    0  0.67228831620E+02 -0.65960622134E+02 -0.71837669215E+02  0.14270060196E+03  0.79575697354E+02 0.  0.
        -11    1    4    4    0    0  0.51743109006E+01 -0.51405308269E+02 -0.76249970747E+01  0.52224704805E+02  0.00000000000E+00 0.  1.
         12    1    4    4    0    0  0.62054520719E+02 -0.14555313865E+02 -0.64212672140E+02  0.90475897159E+02  0.00000000000E+00 0. -1.
        -11    1    3    3    0    0  0.31358052390E+01  0.98214272177E+02  0.32411714928E+02  0.10347171497E+03  0.00000000000E+00 0.  1.
         11    1    3    3    0    0 -0.35094557232E+02  0.45052067566E+01 -0.20180335730E+02  0.40732920167E+02  0.00000000000E+00 0. -1.
         21    1    1    2  502  501 -0.35270079627E+02 -0.36758856800E+02  0.57351572466E+02  0.76709809897E+02  0.00000000000E+00 0.  1.
<scales pt_clust_5="13000.00000" pt_clust_6="13000.00000" pt_clust_7="13000.00000" pt_clust_8="13000.00000" pt_clust_9="50.94303"></scales>
<clustering>
<clus scale="   50.943">  1  9  2 -1</clus>
<clus scale="   79.576">  5  6 -1 -1</clus>
<clus scale="   95.251">  7  8 -1 -1</clus>
<clus scale="  124.452">  2  5  1 -1</clus>
<clus scale="  124.452">  2  5  1 -1</clus>
</clustering>
</event>
<event>
 9    2  0.3402837E-005  0.2061542E+03  0.7546771E-02  0.1145394E+00
         -1   -1    0    0    0  501 -0.00000000000E+00  0.00000000000E+00  0.99315419742E+02  0.99315419742E+02  0.00000000000E+00 0.  1.
          2   -1    0    0  502    0  0.00000000000E+00 -0.00000000000E+00 -0.15461051136E+04  0.15461051136E+04  0.00000000000E+00 0. -1.
         23    2    1    2    0    0 -0.48246401151E+01  0.20260405789E+03 -0.64115263725E+03  0.67843914625E+03  0.90173662866E+02 0.  0.
         24    2    1    2    0    0  0.16009679677E+02 -0.17497395390E+03 -0.87251833586E+03  0.89375821270E+03  0.81506453564E+02 0.  0.
        -11    1    4    4    0    0  0.47136039950E+02 -0.78589537783E+02 -0.37506643323E+03  0.38609966466E+03  0.00000000000E+00 0.  1.
         12    1    4    4    0    0 -0.31126360273E+02 -0.96384416113E+02 -0.49745190263E+03  0.50765854804E+03  0.00000000000E+00 0. -1.
        -13    1    3    3    0    0 -0.18931613243E+02  0.14031124480E+03 -0.30483129147E+03  0.33610678014E+03  0.00000000000E+00 0.  1.
         13    1    3    3    0    0  0.14106973128E+02  0.62292813094E+02 -0.33632134579E+03  0.34233236611E+03  0.00000000000E+00 0. -1.
         21    1    1    2  502  501 -0.11185039562E+02 -0.27630103993E+02  0.66881279246E+02  0.73223174407E+02  0.00000000000E+00 0.  1.
<scales pt_clust_5="13000.00000" pt_clust_6="13000.00000" pt_clust_7="13000.00000" pt_clust_8="13000.00000" pt_clust_9="29.80818"></scales>
<clustering>
<clus scale="   29.808">  1  9  2 -1</clus>
<clus scale="   81.506">  5  6 -1 -1</clus>
<clus scale="   90.174">  7  8 -1 -1</clus>
<clus scale="  202.513">  2  5  1 -1</clus>
<clus scale="  202.513">  2  5  1 -1</clus>
</clustering>
</event>
<event>
 9    2  0.3402837E-005  0.2924949E+03  0.7546771E-02  0.1089223E+00
          2   -1    0    0  502    0  0.00000000000E+00  0.00000000000E+00  0.37749723456E+03  0.37749723456E+03  0.00000000000E+00 0. -1.
         -1   -1    0    0    0  501 -0.00000000000E+00 -0.00000000000E+00 -0.34669809591E+03  0.34669809591E+03  0.00000000000E+00 0.  1.
         23    2    1    2    0    0 -0.11611504783E+02 -0.28215974520E+03 -0.74082402093E+02  0.30598781570E+03  0.91604542498E+02 0.  0.
         24    2    1    2    0    0  0.72527895729E+02  0.26823296131E+03  0.16222188180E+03  0.33339786492E+03  0.87344033590E+02 0.  0.
        -11    1    4    4    0    0  0.72382956101E+02  0.11155059791E+03  0.57097110394E+02  0.14471664812E+03  0.00000000000E+00 0.  1.
         12    1    4    4    0    0  0.14493962809E+00  0.15668236340E+03  0.10512477141E+03  0.18868121679E+03  0.00000000000E+00 0. -1.
        -11    1    3    3    0    0 -0.63992442889E+01 -0.51217389868E+02  0.21602025098E+02  0.55953720526E+02  0.00000000000E+00 0. -1.
         11    1    3    3    0    0 -0.52122604943E+01 -0.23094235533E+03 -0.95684427191E+02  0.25003409518E+03  0.00000000000E+00 0.  1.
         21    1    1    2  502  501 -0.60916390946E+02  0.13926783888E+02 -0.57340341060E+02  0.84809649854E+02  0.00000000000E+00 0.  1.
<scales pt_clust_5="13000.00000" pt_clust_6="13000.00000" pt_clust_7="13000.00000" pt_clust_8="13000.00000" pt_clust_9="62.48809"></scales>
<clustering>
<clus scale="   62.488">  2  9  1 -1</clus>
<clus scale="   87.344">  5  6 -1 -1</clus>
<clus scale="   91.605">  7  8 -1 -1</clus>
<clus scale="  291.189">  1  5  2 -1</clus>
<clus scale="  291.189">  1  5  2 -1</clus>
</clustering>
</event>
<event>
 9    2  0.3402837E-005  0.1080609E+03  0.7546771E-02  0.1268815E+00
          2   -1    0    0  502    0  0.00000000000E+00  0.00000000000E+00  0.26964480231E+03  0.26964480231E+03  0.00000000000E+00 0. -1.
         -1   -1    0    0    0  501 -0.00000000000E+00 -0.00000000000E+00 -0.15949792371E+03  0.15949792371E+03  0.00000000000E+00 0.  1.
         24    2    1    2    0    0 -0.36001042142E+02 -0.62164190642E+02 -0.98745903205E+02  0.14635426018E+03  0.80674372885E+02 0.  0.
         23    2    1    2    0    0  0.36869151047E+02  0.41753807221E+02  0.22974522615E+03  0.25359665535E+03  0.91791502599E+02 0.  0.
        -11    1    3    3    0    0 -0.32751819215E+01 -0.52145188316E+02 -0.12725603705E+02  0.53775351889E+02  0.00000000000E+00 0.  1.
         12    1    3    3    0    0 -0.32725860220E+02 -0.10019002326E+02 -0.86020299500E+02  0.92578908294E+02  0.00000000000E+00 0. -1.
        -13    1    4    4    0    0  0.34653969333E+02 -0.17933859518E+02  0.14334527441E+03  0.14856106019E+03  0.00000000000E+00 0. -1.
         13    1    4    4    0    0  0.22151817144E+01  0.59687666739E+02  0.86399951740E+02  0.10503559516E+03  0.00000000000E+00 0.  1.
         21    1    1    2  502  501 -0.86810890550E+00  0.20410383421E+02 -0.20852444340E+02  0.29191810485E+02  0.00000000000E+00 0. -1.
<scales pt_clust_5="13000.00000" pt_clust_6="13000.00000" pt_clust_7="13000.00000" pt_clust_8="13000.00000" pt_clust_9="20.42884"></scales>
<clustering>
<clus scale="   20.429">  2  9  1 -1</clus>
<clus scale="   80.674">  5  6 -1 -1</clus>
<clus scale="   91.792">  7  8 -1 -1</clus>
<clus scale="   98.792">  2  5  1 -1</clus>
<clus scale="  108.061">  1  5  2 -1</clus>
</clustering>
</event>
<event>
 9    2  0.3402837E-005  0.9510107E+02  0.7546771E-02  0.1302908E+00
         -1   -1    0    0    0  501 -0.00000000000E+00  0.00000000000E+00  0.90827082410E+02  0.90827082410E+02  0.00000000000E+00 0.  1.
          2   -1    0    0  502    0  0.00000000000E+00 -0.00000000000E+00 -0.42592874020E+03  0.42592874020E+03  0.00000000000E+00 0. -1.
         24    2    1    2    0    0  0.12566631993E+02  0.11591772292E+02  0.47608973665E+02  0.90454643621E+02  0.74987590672E+02 0.  0.
         23    2    1    2    0    0 -0.92733379457E+01  0.11401713746E+02 -0.39038197011E+03  0.40183905270E+03  0.94130482917E+02 0.  0.
        -13    1    3    3    0    0 -0.12126694723E+02  0.35102788998E+02  0.41717552390E+02  0.55853528964E+02  0.00000000000E+00 0.  1.
         14    1    3    3    0    0  0.24693326716E+02 -0.23511016706E+02  0.58914212743E+01  0.34601114657E+02  0.00000000000E+00 0. -1.
        -11    1    4    4    0    0  0.39106215454E+02  0.21644664762E+02 -0.15485271782E+03  0.16117429018E+03  0.00000000000E+00 0.  1.
         11    1    4    4    0    0 -0.48379553400E+02 -0.10242951016E+02 -0.23552925230E+03  0.24066476252E+03  0.00000000000E+00 0. -1.
         21    1    1    2  502  501 -0.32932940478E+01 -0.22993486038E+02  0.76713386544E+01  0.24462126290E+02  0.00000000000E+00 0. -1.
<scales pt_clust_5="13000.00000" pt_clust_6="13000.00000" pt_clust_7="13000.00000" pt_clust_8="13000.00000" pt_clust_9="23.22813"></scales>
<clustering>
<clus scale="   23.228">  1  9  2 -1</clus>
<clus scale="   74.988">  5  6 -1 -1</clus>
<clus scale="   76.202">  1  5  2 -1</clus>
<clus scale="   94.130">  7  8 -1 -1</clus>
<clus scale="   95.101">  2  5  1 -1</clus>
</clustering>
</event>
<event>
 9    2  0.3402837E-005  0.1541154E+03  0.7546771E-02  0.1197997E+00
          2   -1    0    0  502    0  0.00000000000E+00  0.00000000000E+00  0.65403578158E+02  0.65403578158E+02  0.00000000000E+00 0. -1.
         -1   -1    0    0    0  501 -0.00000000000E+00 -0.00000000000E+00 -0.46614672281E+03  0.46614672281E+03  0.00000000000E+00 0.  1.
         23    2    1    2    0    0 -0.28626793149E+02  0.11299232800E+03 -0.19528844401E+03  0.24657579184E+03  0.95264291776E+02 0.  0.
         24    2    1    2    0    0 -0.29141055439E+01 -0.12795138995E+03 -0.19775869522E+03  0.24922775648E+03  0.81399771889E+02 0.  0.
        -13    1    4    4    0    0 -0.29593000809E+02 -0.75295408132E+02 -0.64453580610E+02  0.10343794389E+03  0.00000000000E+00 0.  1.
         14    1    4    4    0    0  0.26678895265E+02 -0.52655981819E+02 -0.13330511461E+03  0.14578981259E+03  0.00000000000E+00 0. -1.
        -11    1    3    3    0    0 -0.60435989359E+02  0.48041658146E+02 -0.11506268286E+03  0.13856381459E+03  0.00000000000E+00 0.  1.
         11    1    3    3    0    0  0.31809196211E+02  0.64950669856E+02 -0.80225761147E+02  0.10801197725E+03  0.00000000000E+00 0. -1.
         21    1    1    2  502  501  0.31540898692E+02  0.14959061948E+02 -0.76960054186E+01  0.35746752637E+02  0.00000000000E+00 0. -1.
<scales pt_clust_5="13000.00000" pt_clust_6="13000.00000" pt_clust_7="13000.00000" pt_clust_8="13000.00000" pt_clust_9="34.90848"></scales>
<clustering>
<clus scale="   34.908">  1  9  2 -1</clus>
<clus scale="   81.400">  5  6 -1 -1</clus>
<clus scale="   95.264">  7  8 -1 -1</clus>
<clus scale="  145.953">  1  5  2 -1</clus>
<clus scale="   34.908">  1  5  2 -1</clus>
</clustering>
</event>
<event>
 9    2  0.3402837E-005  0.1551335E+03  0.7546771E-02  0.1196036E+00
          2   -1    0    0  502    0  0.00000000000E+00  0.00000000000E+00  0.46575392904E+03  0.46575392904E+03  0.00000000000E+00 0. -1.
         -1   -1    0    0    0  501 -0.00000000000E+00 -0.00000000000E+00 -0.97150769994E+02  0.97150769994E+02  0.00000000000E+00 0.  1.
         24    2    1    2    0    0  0.12383065067E+03 -0.53013139989E+02  0.18641703006E+02  0.15801797591E+03  0.80484436767E+02 0.  0.
         23    2    1    2    0    0 -0.11967650159E+03  0.32501808071E+02  0.35177924673E+03  0.38388015143E+03  0.90755163330E+02 0.  0.
        -13    1    3    3    0    0  0.13529441341E+03 -0.53242715551E+02  0.16187174329E+02  0.14629213810E+03  0.00000000000E+00 0.  1.
         14    1    3    3    0    0 -0.11463762740E+02  0.22957556159E+00  0.24545286776E+01  0.11725837800E+02  0.00000000000E+00 0. -1.
        -13    1    4    4    0    0 -0.94154743437E+02  0.85169783085E+01  0.32848232416E+03  0.34181616684E+03  0.00000000000E+00 0. -1.
         13    1    4    4    0    0 -0.25521758153E+02  0.23984829762E+02  0.23296922571E+02  0.42063984585E+02  0.00000000000E+00 0.  1.
         21    1    1    2  502  501 -0.41541490785E+01  0.20511331918E+02 -0.18177906883E+01  0.21006571701E+02  0.00000000000E+00 0. -1.
<scales pt_clust_5="13000.00000" pt_clust_6="13000.00000" pt_clust_7="13000.00000" pt_clust_8="13000.00000" pt_clust_9="20.92777"></scales>
<clustering>
<clus scale="   20.928">  2  9  1 -1</clus>
<clus scale="   80.484">  5  6 -1 -1</clus>
<clus scale="   90.755">  7  8 -1 -1</clus>
<clus scale="  149.357">  2  5  1 -1</clus>
<clus scale="  155.134">  1  5  2 -1</clus>
</clustering>
</event>
<event>
 9    2  0.3402837E-005  0.9850961E+02  0.7546771E-02  0.1289296E+00
          2   -1    0    0  502    0  0.00000000000E+00  0.00000000000E+00  0.31477778641E+03  0.31477778641E+03  0.00000000000E+00 0. -1.
         -1   -1    0    0    0  501 -0.00000000000E+00 -0.00000000000E+00 -0.62021610776E+02  0.62021610776E+02  0.00000000000E+00 0.  1.
         24    2    1    2    0    0 -0.98237123403E+01  0.45369668920E+02  0.10210722421E+02  0.92315912163E+02  0.79139475637E+02 0.  0.
         23    2    1    2    0    0  0.38769562910E+02 -0.15128198225E+02  0.20649404348E+03  0.22923755342E+03  0.90432983556E+02 0.  0.
        -11    1    3    3    0    0 -0.13516474690E+02 -0.20936797013E+02  0.67397211655E+01  0.25816049245E+02  0.00000000000E+00 0.  1.
         12    1    3    3    0    0  0.36927623502E+01  0.66306465934E+02  0.34710012555E+01  0.66499862918E+02  0.00000000000E+00 0. -1.
        -13    1    4    4    0    0 -0.22870660897E+02 -0.95089090221E+00  0.11954671420E+03  0.12171847928E+03  0.00000000000E+00 0. -1.
         13    1    4    4    0    0  0.61640223806E+02 -0.14177307323E+02  0.86947329284E+02  0.10751907414E+03  0.00000000000E+00 0.  1.
         21    1    1    2  502  501 -0.28945850570E+02 -0.30241470696E+02  0.36051409732E+02  0.55245931603E+02  0.00000000000E+00 0. -1.
<scales pt_clust_5="13000.00000" pt_clust_6="13000.00000" pt_clust_7="13000.00000" pt_clust_8="13000.00000" pt_clust_9="41.86178"></scales>
<clustering>
<clus scale="   41.862">  2  9  1 -1</clus>
<clus scale="   79.139">  5  6 -1 -1</clus>
<clus scale="   88.256">  2  5  1 -1</clus>
<clus scale="   90.433">  7  8 -1 -1</clus>
<clus scale="   98.510">  1  5  2 -1</clus>
</clustering>
</event>
<event>
 9    2  0.3402837E-005  0.1093205E+03  0.7546771E-02  0.1264787E+00
         -1   -1    0    0    0  501 -0.00000000000E+00  0.00000000000E+00  0.15503981317E+03  0.15503981317E+03  0.00000000000E+00 0.  1.
          2   -1    0    0  502    0  0.00000000000E+00 -0.00000000000E+00 -0.15011148279E+03  0.15011148279E+03  0.00000000000E+00 0. -1.
         24    2    1    2    0    0 -0.81939878487E+02 -0.42889740607E+01  0.77153555281E+02  0.13890416358E+03  0.81296719374E+02 0.  0.
         23    2    1    2    0    0  0.58940621491E+02 -0.71911987240E+01 -0.85859611577E+02  0.13714976671E+03  0.88952096136E+02 0.  0.
        -13    1    3    3    0    0  0.43326059657E+01 -0.22834191342E+02  0.26063654058E+01  0.23387280930E+02  0.00000000000E+00 0.  1.
         14    1    3    3    0    0 -0.86272484453E+02  0.18545217281E+02  0.74547189875E+02  0.11551688264E+03  0.00000000000E+00 0. -1.
        -13    1    4    4    0    0  0.76896888937E+02  0.13493659984E+02 -0.73022392740E+02  0.10689939303E+03  0.00000000000E+00 0.  1.
         13    1    4    4    0    0 -0.17956267446E+02 -0.20684858708E+02 -0.12837218837E+02  0.30250373681E+02  0.00000000000E+00 0. -1.
         21    1    1    2  502  501  0.22999256997E+02  0.11480172785E+02  0.13634386667E+02  0.29097365677E+02  0.00000000000E+00 0.  1.
<scales pt_clust_5="13000.00000" pt_clust_6="13000.00000" pt_clust_7="13000.00000" pt_clust_8="13000.00000" pt_clust_9="25.70526"></scales>
<clustering>
<clus scale="   25.705">  1  9  2 -1</clus>
<clus scale="   81.297">  5  6 -1 -1</clus>
<clus scale="   88.952">  7  8 -1 -1</clus>
<clus scale="  103.187">  1  5  2 -1</clus>
<clus scale="  109.320">  2  5  1 -1</clus>
</clustering>
</event>
<event>
 9    2  0.3402837E-005  0.1038934E+03  0.7546771E-02  0.1278354E+00
         -1   -1    0    0    0  501 -0.00000000000E+00  0.00000000000E+00  0.24728684581E+03  0.24728684581E+03  0.00000000000E+00 0.  1.
          2   -1    0    0  502    0  0.00000000000E+00 -0.00000000000E+00 -0.16097639953E+03  0.16097639953E+03  0.00000000000E+00 0. -1.
         23    2    1    2    0    0 -0.10755270134E+02 -0.20356322133E+02  0.11435700798E+03  0.14831266250E+03  0.91591838594E+02 0.  0.
         24    2    1    2    0    0 -0.53288263481E+02  0.17152054607E+02 -0.11617791797E+03  0.15095986081E+03  0.78471261942E+02 0.  0.
        -11    1    4    4    0    0 -0.12397411079E+02 -0.27856780702E+02 -0.17804114142E+02  0.35308391537E+02  0.00000000000E+00 0.  1.
         12    1    4    4    0    0 -0.40890852401E+02  0.45008835309E+02 -0.98373803828E+02  0.11565146928E+03  0.00000000000E+00 0. -1.
        -11    1    3    3    0    0 -0.47789790672E+02 -0.25283559178E+02  0.48676720411E+02  0.72749883623E+02  0.00000000000E+00 0.  1.
         11    1    3    3    0    0  0.37034520539E+02  0.49272370448E+01  0.65680287564E+02  0.75562778872E+02  0.00000000000E+00 0. -1.
         21    1    1    2  502  501  0.64043533614E+02  0.32042675264E+01  0.88131356278E+02  0.10899072203E+03  0.00000000000E+00 0.  1.
<scales pt_clust_5="13000.00000" pt_clust_6="13000.00000" pt_clust_7="13000.00000" pt_clust_8="13000.00000" pt_clust_9="64.12364"></scales>
<clustering>
<clus scale="   64.124">  1  9  2 -1</clus>
<clus scale="   78.471">  5  6 -1 -1</clus>
<clus scale="   91.592">  7  8 -1 -1</clus>
<clus scale="   92.534">  2  5  1 -1</clus>
<clus scale="   92.534">  2  5  1 -1</clus>
</clustering>
</event>
<event>
 9    2  0.3402837E-005  0.3169260E+03  0.7546771E-02  0.1077334E+00
         -1   -1    0    0    0  501 -0.00000000000E+00  0.00000000000E+00  0.13197913228E+03  0.13197913228E+03  0.00000000000E+00 0.  1.
          2   -1    0    0  502    0  0.00000000000E+00 -0.00000000000E+00 -0.14602480686E+04  0.14602480686E+04  0.00000000000E+00 0. -1.
         24    2    1    2    0    0  0.13450554214E+03 -0.25677973968E+03 -0.31570355853E+03  0.43647869290E+03  0.82567166047E+02 0.  0.
         23    2    1    2    0    0 -0.12029648779E+03  0.28511891177E+03 -0.10547685870E+04  0.11029648290E+04  0.90722670705E+02 0.  0.
        -11    1    3    3    0    0  0.65808774246E+02 -0.19613257940E+03 -0.24548290963E+03  0.32103059416E+03  0.00000000000E+00 0.  1.
         12    1    3    3    0    0  0.68696767897E+02 -0.60647160280E+02 -0.70220648910E+02  0.11544809874E+03  0.00000000000E+00 0. -1.
        -13    1    4    4    0    0 -0.11897586774E+03  0.21754979191E+03 -0.91036242404E+03  0.94352684761E+03  0.00000000000E+00 0. -1.
         13    1    4    4    0    0 -0.13206200491E+01  0.67569119858E+02 -0.14440616300E+03  0.15943798139E+03  0.00000000000E+00 0.  1.
         21    1    1    2  502  501 -0.14209054350E+02 -0.28339172089E+02  0.42203209228E+02  0.52783679005E+02  0.00000000000E+00 0.  1.
<scales pt_clust_5="13000.00000" pt_clust_6="13000.00000" pt_clust_7="13000.00000" pt_clust_8="13000.00000" pt_clust_9="31.70183"></scales>
<clustering>
<clus scale="   31.702">  1  9  2 -1</clus>
<clus scale="   82.567">  5  6 -1 -1</clus>
<clus scale="   90.723">  7  8 -1 -1</clus>
<clus scale="  314.688">  1  5  2 -1</clus>
<clus scale="  316.926">  2  5  1 -1</clus>
</clustering>
</event>
<event>
 9    2  0.3402837E-005  0.9655374E+02  0.7546771E-02  0.1293058E+00
         -3   -1    0    0    0  501 -0.00000000000E+00  0.00000000000E+00  0.11860763745E+03  0.11860763745E+03  0.00000000000E+00 0.  1.
          4   -1    0    0  502    0  0.00000000000E+00 -0.00000000000E+00 -0.11831156157E+03  0.11831156157E+03  0.00000000000E+00 0. -1.
         23    2    1    2    0    0  0.19296319764E+02  0.56992007654E+01  0.40089856667E+02  0.10370982134E+03  0.93507762186E+02 0.  0.
         24    2    1    2    0    0 -0.16301540079E+02  0.25336122351E+02 -0.47514412915E+02  0.10108822972E+03  0.83985424022E+02 0.  0.
        -11    1    4    4    0    0  0.29295702627E+02 -0.10603009485E+02 -0.17391443238E+02  0.35680867428E+02  0.00000000000E+00 0.  1.
         12    1    4    4    0    0 -0.45597242706E+02  0.35939131835E+02 -0.30122969677E+02  0.65407362289E+02  0.00000000000E+00 0. -1.
        -13    1    3    3    0    0  0.52805164996E+02  0.20245153184E+02  0.12464544322E+02  0.57910418258E+02  0.00000000000E+00 0. -1.
         13    1    3    3    0    0 -0.33508845232E+02 -0.14545952418E+02  0.27625312345E+02  0.45799403082E+02  0.00000000000E+00 0.  1.
         21    1    1    2  502  501 -0.29947796847E+01 -0.31035323116E+02  0.77206321309E+01  0.32121147968E+02  0.00000000000E+00 0.  1.
<scales pt_clust_5="13000.00000" pt_clust_6="13000.00000" pt_clust_7="13000.00000" pt_clust_8="13000.00000" pt_clust_9="31.17948"></scales>
<clustering>
<clus scale="   31.179">  1  9  2 -1</clus>
<clus scale="   83.985">  5  6 -1 -1</clus>
<clus scale="   87.364">  2  5  1 -1</clus>
<clus scale="   93.508">  7  8 -1 -1</clus>
<clus scale="   87.364">  2  5  1 -1</clus>
</clustering>
</event>
<event>
 9    2  0.3402837E-005  0.9755806E+02  0.7546771E-02  0.1291094E+00
          2   -1    0    0  502    0  0.00000000000E+00  0.00000000000E+00  0.10735018785E+04  0.10735018785E+04  0.00000000000E+00 0. -1.
         -1   -1    0    0    0  501 -0.00000000000E+00 -0.00000000000E+00 -0.74115683660E+02  0.74115683660E+02  0.00000000000E+00 0.  1.
         23    2    1    2    0    0  0.51395946584E+02 -0.23626291696E+02  0.16187560532E+02  0.10803291378E+03  0.90605343984E+02 0.  0.
         24    2    1    2    0    0 -0.17933842991E+02 -0.32942007762E+02  0.96812503667E+03  0.97215395636E+03  0.80065158617E+02 0.  0.
        -11    1    4    4    0    0 -0.23532505342E+02 -0.39833384855E+02  0.26741417857E+03  0.27138684614E+03  0.00000000000E+00 0.  1.
         12    1    4    4    0    0  0.55986623510E+01  0.68913770933E+01  0.70071085810E+03  0.70076711022E+03  0.00000000000E+00 0. -1.
        -13    1    3    3    0    0  0.27044454296E+02 -0.84516806559E-01  0.52079381879E+02  0.58682805558E+02  0.00000000000E+00 0. -1.
         13    1    3    3    0    0  0.24351492289E+02 -0.23541774889E+02 -0.35891821346E+02  0.49350108219E+02  0.00000000000E+00 0.  1.
         21    1    1    2  502  501 -0.33462103593E+02  0.56568299458E+02  0.15073597621E+02  0.67430692015E+02  0.00000000000E+00 0.  1.
<scales pt_clust_5="13000.00000" pt_clust_6="13000.00000" pt_clust_7="13000.00000" pt_clust_8="13000.00000" pt_clust_9="65.72431"></scales>
<clustering>
<clus scale="   65.724">  2  9  1 -1</clus>
<clus scale="   80.065">  5  6 -1 -1</clus>
<clus scale="   87.856">  1  5  2 -1</clus>
<clus scale="   90.605">  7  8 -1 -1</clus>
<clus scale="   87.856">  1  5  2 -1</clus>
</clustering>
</event>
<event>
 9    2  0.3402837E-005  0.1045765E+03  0.7546771E-02  0.1275385E+00
         -1   -1    0    0    0  501 -0.00000000000E+00  0.00000000000E+00  0.81320698371E+02  0.81320698371E+02  0.00000000000E+00 0.  1.
          2   -1    0    0  502    0  0.00000000000E+00 -0.00000000000E+00 -0.25262788230E+03  0.25262788230E+03  0.00000000000E+00 0. -1.
         23    2    1    2    0    0 -0.30546948350E+02  0.64716169272E+02  0.86917859895E+00  0.11479494182E+03  0.89754245452E+02 0.  0.
         24    2    1    2    0    0  0.15400963909E+02 -0.47622104366E+02 -0.17231375107E+03  0.19631448880E+03  0.79638528317E+02 0.  0.
        -11    1    4    4    0    0  0.38633455555E+02 -0.46644031557E+02 -0.75726365644E+02  0.96967479196E+02  0.00000000000E+00 0.  1.
         12    1    4    4    0    0 -0.23232491645E+02 -0.97807280886E+00 -0.96587385422E+02  0.99347009604E+02  0.00000000000E+00 0. -1.
        -13    1    3    3    0    0 -0.28455591917E+02  0.87449302909E+02  0.72516576178E+00  0.91965358457E+02  0.00000000000E+00 0.  1.
         13    1    3    3    0    0 -0.20913564329E+01 -0.22733133638E+02  0.14401283717E+00  0.22829583360E+02  0.00000000000E+00 0. -1.
         21    1    1    2  502  501  0.15145984441E+02 -0.17094064906E+02  0.13738853563E+00  0.22839150057E+02  0.00000000000E+00 0. -1.
<scales pt_clust_5="13000.00000" pt_clust_6="13000.00000" pt_clust_7="13000.00000" pt_clust_8="13000.00000" pt_clust_9="22.83874"></scales>
<clustering>
<clus scale="   22.839">  1  9  2 -1</clus>
<clus scale="   79.639">  5  6 -1 -1</clus>
<clus scale="   89.754">  7  8 -1 -1</clus>
<clus scale="   96.035">  2  5  1 -1</clus>
<clus scale="   96.035">  2  5  1 -1</clus>
</clustering>
</event>
<event>
 9    2  0.3402837E-005  0.1781239E+03  0.7546771E-02  0.1171164E+00
          2   -1    0    0  502    0  0.00000000000E+00  0.00000000000E+00  0.63027454571E+03  0.63027454571E+03  0.00000000000E+00 0. -1.
         -1   -1    0    0    0  501 -0.00000000000E+00 -0.00000000000E+00 -0.12063619672E+03  0.12063619672E+03  0.00000000000E+00 0.  1.
         23    2    1    2    0    0 -0.22551556883E+02  0.13097029397E+03 -0.70545187018E+01  0.16309141080E+03  0.94272219779E+02 0.  0.
         24    2    1    2    0    0 -0.20327508253E+01 -0.15449014845E+03  0.52450016289E+03  0.55291194561E+03  0.82096654570E+02 0.  0.
        -13    1    4    4    0    0 -0.15189019497E+02 -0.75392467839E+02  0.13614772902E+03  0.15636794632E+03  0.00000000000E+00 0.  1.
         14    1    4    4    0    0  0.13156268672E+02 -0.79097680607E+02  0.38835243387E+03  0.39654399929E+03  0.00000000000E+00 0. -1.
        -13    1    3    3    0    0  0.25725328034E+02  0.94940861680E+02  0.13835594186E+02  0.99332690417E+02  0.00000000000E+00 0.  1.
         13    1    3    3    0    0 -0.48276884917E+02  0.36029432291E+02 -0.20890112888E+02  0.63758720384E+02  0.00000000000E+00 0. -1.
         21    1    1    2  502  501  0.24584307708E+02  0.23519854475E+02 -0.78072951946E+01  0.34907386013E+02  0.00000000000E+00 0.  1.
<scales pt_clust_5="13000.00000" pt_clust_6="13000.00000" pt_clust_7="13000.00000" pt_clust_8="13000.00000" pt_clust_9="34.02311"></scales>
<clustering>
<clus scale="   34.023">  2  9  1 -1</clus>
<clus scale="   82.097">  5  6 -1 -1</clus>
<clus scale="   94.272">  7  8 -1 -1</clus>
<clus scale="  171.991">  1  5  2 -1</clus>
<clus scale="  171.991">  1  5  2 -1</clus>
</clustering>
</event>
<event>
 9    2  0.3402837E-005  0.2107264E+03  0.7546771E-02  0.1144237E+00
         -1   -1    0    0    0  501 -0.00000000000E+00  0.00000000000E+00  0.79676529158E+02  0.79676529158E+02  0.00000000000E+00 0.  1.
          2   -1    0    0  502    0  0.00000000000E+00 -0.00000000000E+00 -0.97340459840E+03  0.97340459840E+03  0.00000000000E+00 0. -1.
         24    2    1    2    0    0  0.52954199233E+01 -0.19679111753E+03 -0.50581995150E+03  0.54854301869E+03  0.79314781731E+02 0.  0.
         23    2    1    2    0    0 -0.40353039078E+02  0.15537236100E+03 -0.40302043700E+03  0.44820932185E+03  0.11268178745E+03 0.  0.
        -11    1    3    3    0    0 -0.34986000210E+02 -0.87264272184E+02 -0.19345434135E+03  0.21508987795E+03  0.00000000000E+00 0.  1.
         12    1    3    3    0    0  0.40281420133E+02 -0.10952684535E+03 -0.31236561016E+03  0.33345314074E+03  0.00000000000E+00 0. -1.
        -13    1    4    4    0    0 -0.63658914548E+02  0.59142976388E+02 -0.26098257302E+03  0.27506772344E+03  0.00000000000E+00 0. -1.
         13    1    4    4    0    0  0.23305875471E+02  0.96229384616E+02 -0.14203786399E+03  0.17314159841E+03  0.00000000000E+00 0.  1.
         21    1    1    2  502  501  0.35057619155E+02  0.41418756528E+02  0.15112319270E+02  0.56328787017E+02  0.00000000000E+00 0.  1.
<scales pt_clust_5="13000.00000" pt_clust_6="13000.00000" pt_clust_7="13000.00000" pt_clust_8="13000.00000" pt_clust_9="54.26371"></scales>
<clustering>
<clus scale="   54.264">  1  9  2 -1</clus>
<clus scale="   79.315">  5  6 -1 -1</clus>
<clus scale="  112.682">  7  8 -1 -1</clus>
<clus scale="  194.934">  1  5  2 -1</clus>
<clus scale="  210.726">  2  5  1 -1</clus>
</clustering>
</event>
<event>
 9    2  0.3402837E-005  0.1043293E+03  0.7546771E-02  0.1276046E+00
         -1   -1    0    0    0  501 -0.00000000000E+00  0.00000000000E+00  0.29651059066E+02  0.29651059066E+02  0.00000000000E+00 0.  1.
          2   -1    0    0  502    0  0.00000000000E+00 -0.00000000000E+00 -0.58024871749E+03  0.58024871749E+03  0.00000000000E+00 0. -1.
         24    2    1    2    0    0 -0.51819878373E+02  0.23435120955E+01 -0.10284097698E+03  0.14108612734E+03  0.81475376258E+02 0.  0.
         23    2    1    2    0    0  0.46821384304E+02  0.18242620635E+02 -0.42523245400E+03  0.43789254598E+03  0.91663551389E+02 0.  0.
        -13    1    3    3    0    0  0.12161503695E+02  0.18475187006E+02 -0.55877212412E+02  0.60095736737E+02  0.00000000000E+00 0.  1.
         14    1    3    3    0    0 -0.63981382068E+02 -0.16131674910E+02 -0.46963764571E+02  0.80990390599E+02  0.00000000000E+00 0. -1.
        -11    1    4    4    0    0  0.67057748974E+02 -0.87396805304E+01 -0.33016809418E+03  0.33702239411E+03  0.00000000000E+00 0.  1.
         11    1    4    4    0    0 -0.20236364670E+02  0.26982301166E+02 -0.95064359820E+02  0.10087015187E+03  0.00000000000E+00 0. -1.
         21    1    1    2  502  501  0.49984940689E+01 -0.20586132731E+02 -0.22524227436E+02  0.30921103236E+02  0.00000000000E+00 0.  1.
<scales pt_clust_5="13000.00000" pt_clust_6="13000.00000" pt_clust_7="13000.00000" pt_clust_8="13000.00000" pt_clust_9="21.18428"></scales>
<clustering>
<clus scale="   21.184">  1  9  2 -1</clus>
<clus scale="   81.475">  5  6 -1 -1</clus>
<clus scale="   91.664">  7  8 -1 -1</clus>
<clus scale="   95.502">  1  5  2 -1</clus>
<clus scale="  104.329">  2  5  1 -1</clus>
</clustering>
</event>
<event>
 9    2  0.3402837E-005  0.1534458E+03  0.7546771E-02  0.1198222E+00
          2   -1    0    0  502    0  0.00000000000E+00  0.00000000000E+00  0.15436147226E+03  0.15436147226E+03  0.00000000000E+00 0. -1.
         -1   -1    0    0    0  501 -0.00000000000E+00 -0.00000000000E+00 -0.33161693782E+03  0.33161693782E+03  0.00000000000E+00 0.  1.
         23    2    1    2    0    0  0.10609673184E+03  0.86398681613E+02 -0.19703901301E+03  0.25694404634E+03  0.92057708048E+02 0.  0.
         24    2    1    2    0    0 -0.10324977994E+03 -0.61760666945E+02  0.78723294924E+02  0.16508883431E+03  0.81129951369E+02 0.  0.
        -11    1    4    4    0    0  0.28811403721E+01 -0.35420701485E+02  0.23298453757E+02  0.42494058538E+02  0.00000000000E+00 0.  1.
         12    1    4    4    0    0 -0.10613092031E+03 -0.26339965460E+02  0.55424841167E+02  0.12259477577E+03  0.00000000000E+00 0. -1.
        -13    1    3    3    0    0  0.18232456945E+02  0.72308831321E+02 -0.10633788101E+03  0.12987969245E+03  0.00000000000E+00 0.  1.
         13    1    3    3    0    0  0.87864274891E+02  0.14089850292E+02 -0.90701131999E+02  0.12706435389E+03  0.00000000000E+00 0. -1.
         21    1    1    2  502  501 -0.28469518942E+01 -0.24638014668E+02 -0.58939747475E+02  0.63945529431E+02  0.00000000000E+00 0.  1.
<scales pt_clust_5="13000.00000" pt_clust_6="13000.00000" pt_clust_7="13000.00000" pt_clust_8="13000.00000" pt_clust_9="24.80195"></scales>
<clustering>
<clus scale="   24.802">  2  9  1 -1</clus>
<clus scale="   81.130">  5  6 -1 -1</clus>
<clus scale="   92.058">  7  8 -1 -1</clus>
<clus scale="  147.150">  1  5  2 -1</clus>
<clus scale="  147.150">  1  5  2 -1</clus>
</clustering>
</event>
<event>
 9    2  0.3402837E-005  0.9461529E+02  0.7546771E-02  0.1296027E+00
         -3   -1    0    0    0  501 -0.00000000000E+00  0.00000000000E+00  0.32877125999E+03  0.32877125999E+03  0.00000000000E+00 0.  1.
          4   -1    0    0  502    0  0.00000000000E+00 -0.00000000000E+00 -0.82306377839E+02  0.82306377839E+02  0.00000000000E+00 0. -1.
         23    2    1    2    0    0 -0.97442766838E+00  0.32973574555E+02  0.11519971554E+03  0.14920205115E+03  0.88893596386E+02 0.  0.
         24    2    1    2    0    0  0.39789625327E+02  0.19826092101E+02 -0.21687851584E+02  0.95475315817E+02  0.81663240276E+02 0.  0.
        -11    1    4    4    0    0  0.62432277086E+02  0.63906772638E+01 -0.23400364908E+01  0.62802115799E+02  0.00000000000E+00 0.  1.
         12    1    4    4    0    0 -0.22642651759E+02  0.13435414837E+02 -0.19347815093E+02  0.32673200018E+02  0.00000000000E+00 0. -1.
        -13    1    3    3    0    0  0.10862923689E+01  0.62615251254E+02  0.61176200391E+02  0.87546428910E+02  0.00000000000E+00 0. -1.
         13    1    3    3    0    0 -0.20607200372E+01 -0.29641676699E+02  0.54023515146E+02  0.61655622236E+02  0.00000000000E+00 0.  1.
         21    1    1    2  502  501 -0.38815197658E+02 -0.52799666656E+02  0.15295301820E+03  0.16640027087E+03  0.00000000000E+00 0.  1.
<scales pt_clust_5="13000.00000" pt_clust_6="13000.00000" pt_clust_7="13000.00000" pt_clust_8="13000.00000" pt_clust_9="65.53186"></scales>
<clustering>
<clus scale="   65.532">  1  9  2 -1</clus>
<clus scale="   81.663">  5  6 -1 -1</clus>
<clus scale="   87.857">  2  5  1 -1</clus>
<clus scale="   88.894">  7  8 -1 -1</clus>
<clus scale="   87.857">  2  5  1 -1</clus>
</clustering>
</event>
<event>
 9    2  0.3402837E-005  0.8654082E+02  0.7546771E-02  0.1313096E+00
          2   -1    0    0  502    0  0.00000000000E+00  0.00000000000E+00  0.32102142558E+03  0.32102142558E+03  0.00000000000E+00 0. -1.
         -1   -1    0    0    0  501 -0.00000000000E+00 -0.00000000000E+00 -0.25141885836E+03  0.25141885836E+03  0.00000000000E+00 0.  1.
         23    2    1    2    0    0  0.37788550869E+02 -0.30389616775E+02 -0.37943610091E+02  0.10400584323E+03  0.83821205525E+02 0.  0.
         24    2    1    2    0    0  0.52138134523E+01 -0.87130850905E+01  0.27645335444E+03  0.28980672976E+03  0.86361922921E+02 0.  0.
        -13    1    4    4    0    0 -0.29988932664E+02 -0.17225156274E+02  0.52000833445E+02  0.62451010961E+02  0.00000000000E+00 0.  1.
         14    1    4    4    0    0  0.35202746117E+02  0.85120711838E+01  0.22445252099E+03  0.22735571880E+03  0.00000000000E+00 0. -1.
        -13    1    3    3    0    0 -0.10106813426E+02  0.22376852345E+02 -0.16518597708E+02  0.29592824616E+02  0.00000000000E+00 0.  1.
         13    1    3    3    0    0  0.47895364295E+02 -0.52766469120E+02 -0.21425012383E+02  0.74413018619E+02  0.00000000000E+00 0. -1.
         21    1    1    2  502  501 -0.43002364321E+02  0.39102701865E+02 -0.16890717713E+03  0.17862771094E+03  0.00000000000E+00 0.  1.
<scales pt_clust_5="13000.00000" pt_clust_6="13000.00000" pt_clust_7="13000.00000" pt_clust_8="13000.00000" pt_clust_9="58.12250"></scales>
<clustering>
<clus scale="   58.122">  2  9  1 -1</clus>
<clus scale="   83.821">  7  8 -1 -1</clus>
<clus scale="   84.006">  2  7  1 -1</clus>
<clus scale="   86.362">  5  6 -1 -1</clus>
<clus scale="   86.541">  1  5  2 -1</clus>
</clustering>
</event>
<event>
 9    2  0.3402837E-005  0.1356493E+03  0.7546771E-02  0.1222362E+00
          2   -1    0    0  502    0  0.00000000000E+00  0.00000000000E+00  0.55885674334E+03  0.55885674334E+03  0.00000000000E+00 0. -1.
         -1   -1    0    0    0  501 -0.00000000000E+00 -0.00000000000E+00 -0.13191432099E+03  0.13191432099E+03  0.00000000000E+00 0.  1.
         24    2    1    2    0    0 -0.16015602865E+02 -0.97136728306E+02  0.95742311182E+02  0.15922878893E+03  0.80592639576E+02 0.  0.
         23    2    1    2    0    0  0.81809522448E+02 -0.25117191203E+02  0.36481663344E+03  0.38869644501E+03  0.10329607482E+03 0.  0.
        -11    1    3    3    0    0 -0.46111985978E+02 -0.54900160399E+02  0.36365641715E+02  0.80391559010E+02  0.00000000000E+00 0.  1.
         12    1    3    3    0    0  0.30096383114E+02 -0.42236567907E+02  0.59376669467E+02  0.78837229924E+02  0.00000000000E+00 0. -1.
        -11    1    4    4    0    0 -0.24364379455E+02  0.22767976091E+01  0.64046377224E+02  0.68561980930E+02  0.00000000000E+00 0.  1.
         11    1    4    4    0    0  0.10617390190E+03 -0.27393988812E+02  0.30077025621E+03  0.32013446408E+03  0.00000000000E+00 0. -1.
         21    1    1    2  502  501 -0.65793919583E+02  0.12225391951E+03 -0.33616522276E+02  0.14284583039E+03  0.00000000000E+00 0.  1.
<scales pt_clust_5="13000.00000" pt_clust_6="13000.00000" pt_clust_7="13000.00000" pt_clust_8="13000.00000" pt_clust_9="87.92411"></scales>
<clustering>
<clus scale="   80.593">  5  6 -1 -1</clus>
<clus scale="  103.296">  7  8 -1 -1</clus>
<clus scale="  127.229">  2  5  1 -1</clus>
<clus scale="   87.924">  2  9  1 -1</clus>
<clus scale="  135.649">  1  5  2 -1</clus>
</clustering>
</event>
<event>
 9    2  0.3839917E-005  0.1134806E+03  0.7546771E-02  0.1259120E+00
          2   -1    0    0  502    0  0.00000000000E+00  0.00000000000E+00  0.42931658104E+03  0.42931658104E+03  0.00000000000E+00 0. -1.
         -1   -1    0    0    0  501 -0.00000000000E+00 -0.00000000000E+00 -0.18396519127E+03  0.18396519127E+03  0.00000000000E+00 0.  1.
         23    2    1    2    0    0  0.51693847080E+02  0.45115910650E+02 -0.13364814770E+03  0.17662758559E+03  0.92885829857E+02 0.  0.
         24    2    1    2    0    0  0.24103368794E+02 -0.41993202747E+02  0.33750575277E+03  0.35018625389E+03  0.79849093888E+02 0.  0.
        -11    1    4    4    0    0  0.24455276357E+02  0.58577836949E+01  0.30762472797E+02  0.39732907068E+02  0.00000000000E+00 0.  1.
         12    1    4    4    0    0 -0.35190756298E+00 -0.47850986442E+02  0.30674327997E+03  0.31045334682E+03  0.00000000000E+00 0. -1.
        -13    1    3    3    0    0  0.72753522643E+02  0.48570729563E+02 -0.78654078739E+02  0.11763781250E+03  0.00000000000E+00 0.  1.
         13    1    3    3    0    0 -0.21059675563E+02 -0.34548189129E+01 -0.54994068960E+02  0.58989773091E+02  0.00000000000E+00 0. -1.
         21    1    1    2  502  501 -0.75797215874E+02 -0.31227079030E+01  0.41493784701E+02  0.86467932829E+02  0.00000000000E+00 0.  1.
<scales pt_clust_5="13000.00000" pt_clust_6="13000.00000" pt_clust_7="13000.00000" pt_clust_8="13000.00000" pt_clust_9="75.86151"></scales>
<clustering>
<clus scale="   75.862">  1  9  2 -1</clus>
<clus scale="   79.849">  5  6 -1 -1</clus>
<clus scale="   92.886">  7  8 -1 -1</clus>
<clus scale="  103.082">  1  5  2 -1</clus>
<clus scale="   75.862">  1  5  2 -1</clus>
</clustering>
</event>
<event>
 9    2  0.3402837E-005  0.1685711E+03  0.7546771E-02  0.1191423E+00
          2   -1    0    0  502    0  0.00000000000E+00  0.00000000000E+00  0.14829636580E+04  0.14829636580E+04  0.00000000000E+00 0. -1.
         -1   -1    0    0    0  501 -0.00000000000E+00 -0.00000000000E+00 -0.39271092223E+02  0.39271092223E+02  0.00000000000E+00 0.  1.
         23    2    1    2    0    0  0.72304540356E+02  0.56382994973E+02  0.25512141232E+03  0.28579876359E+03  0.90482095272E+02 0.  0.
         24    2    1    2    0    0  0.11837975173E+03 -0.41282657367E+02  0.56432189239E+03  0.58353809310E+03  0.79620879462E+02 0.  0.
        -13    1    4    4    0    0  0.52895849663E+02 -0.48361185678E+02  0.18235497298E+03  0.19593394642E+03  0.00000000000E+00 0.  1.
         14    1    4    4    0    0  0.65483902071E+02  0.70785283107E+01  0.38196691941E+03  0.38760414667E+03  0.00000000000E+00 0. -1.
        -11    1    3    3    0    0  0.36780367896E+02  0.65049650414E+02  0.91482125700E+02  0.11812379864E+03  0.00000000000E+00 0. -1.
         11    1    3    3    0    0  0.35524172460E+02 -0.86666554403E+01  0.16363928662E+03  0.16767496495E+03  0.00000000000E+00 0.  1.
         21    1    1    2  502  501 -0.19068429209E+03 -0.15100337606E+02  0.62424926109E+03  0.65289789356E+03  0.00000000000E+00 0.  1.
<scales pt_clust_5="13000.00000" pt_clust_6="13000.00000" pt_clust_7="13000.00000" pt_clust_8="13000.00000" pt_clust_9="148.58241"></scales>
<clustering>
<clus scale="   79.621">  5  6 -1 -1</clus>
<clus scale="   90.482">  7  8 -1 -1</clus>
<clus scale="  128.818">  2  7  1 -1</clus>
<clus scale="  148.582">  2  9  1 -1</clus>
<clus scale="  168.571">  1  5  2 -1</clus>
</clustering>
</event>
<event>
 9    2  0.3402837E-005  0.1320715E+03  0.7546771E-02  0.1228040E+00
         -1   -1    0    0    0  501 -0.00000000000E+00  0.00000000000E+00  0.54289805017E+03  0.54289805017E+03  0.00000000000E+00 0.  1.
          2   -1    0    0  502    0  0.00000000000E+00 -0.00000000000E+00 -0.19041042130E+03  0.19041042130E+03  0.00000000000E+00 0. -1.
         23    2    1    2    0    0  0.73982240955E+02  0.28106278025E+02  0.26124521049E+03  0.28886853059E+03  0.94512608248E+02 0.  0.
         24    2    1    2    0    0 -0.67400885296E+02  0.70307562173E+02 -0.14265202872E+03  0.19059902502E+03  0.80575147545E+02 0.  0.
        -13    1    4    4    0    0 -0.15765423093E+02  0.49486107636E+02 -0.19553957414E+02  0.55495771594E+02  0.00000000000E+00 0.  1.
         14    1    4    4    0    0 -0.51635462203E+02  0.20821454537E+02 -0.12309807131E+03  0.13510325342E+03  0.00000000000E+00 0. -1.
        -11    1    3    3    0    0  0.44203567686E+02  0.83621978919E+01  0.24590298370E+03  0.24998431779E+03  0.00000000000E+00 0.  1.
         11    1    3    3    0    0  0.29778673269E+02  0.19744080133E+02  0.15342226796E+02  0.38884212799E+02  0.00000000000E+00 0. -1.
         21    1    1    2  502  501 -0.65813556589E+01 -0.98413840198E+02  0.23389444710E+03  0.25384091587E+03  0.00000000000E+00 0.  1.
<scales pt_clust_5="13000.00000" pt_clust_6="13000.00000" pt_clust_7="13000.00000" pt_clust_8="13000.00000" pt_clust_9="98.63366"></scales>
<clustering>
<clus scale="   80.575">  5  6 -1 -1</clus>
<clus scale="   94.513">  7  8 -1 -1</clus>
<clus scale="   98.634">  1  9  2 -1</clus>
<clus scale="  122.485">  2  5  1 -1</clus>
<clus scale="  122.485">  2  5  1 -1</clus>
</clustering>
</event>
<event>
 9    2  0.3402837E-005  0.1066866E+03  0.7546771E-02  0.1270859E+00
         -1   -1    0    0    0  501 -0.00000000000E+00  0.00000000000E+00  0.20981328180E+03  0.20981328180E+03  0.00000000000E+00 0.  1.
          2   -1    0    0  502    0  0.00000000000E+00 -0.00000000000E+00 -0.32156008724E+03  0.32156008724E+03  0.00000000000E+00 0. -1.
         23    2    1    2    0    0  0.18466139413E+02  0.35004747356E+02  0.60529535011E+02  0.11517724141E+03  0.89641740773E+02 0.  0.
         24    2    1    2    0    0 -0.38993829876E+02 -0.45213715522E+02 -0.28458575923E+03  0.30157058661E+03  0.79943514523E+02 0.  0.
        -13    1    4    4    0    0 -0.44776192707E+02 -0.42144883383E+02 -0.28778739801E+03  0.29428334149E+03  0.00000000000E+00 0.  1.
         14    1    4    4    0    0  0.57823628304E+01 -0.30688321390E+01  0.32016387765E+01  0.72872451211E+01  0.00000000000E+00 0. -1.
        -13    1    3    3    0    0 -0.31523240360E+02  0.20026426196E+02  0.49212670719E+02  0.61779117737E+02  0.00000000000E+00 0.  1.
         13    1    3    3    0    0  0.49989379773E+02  0.14978321160E+02  0.11316864291E+02  0.53398123678E+02  0.00000000000E+00 0. -1.
         21    1    1    2  502  501  0.20527690463E+02  0.10208968166E+02  0.11230941878E+03  0.11462554102E+03  0.00000000000E+00 0. -1.
<scales pt_clust_5="13000.00000" pt_clust_6="13000.00000" pt_clust_7="13000.00000" pt_clust_8="13000.00000" pt_clust_9="22.92617"></scales>
<clustering>
<clus scale="   22.926">  1  9  2 -1</clus>
<clus scale="   79.944">  5  6 -1 -1</clus>
<clus scale="   89.642">  7  8 -1 -1</clus>
<clus scale="   98.678">  2  5  1 -1</clus>
<clus scale="   98.678">  2  5  1 -1</clus>
</clustering>
</event>
<event>
 9    2  0.3402837E-005  0.1305240E+03  0.7546771E-02  0.1242553E+00
         -1   -1    0    0    0  501 -0.00000000000E+00  0.00000000000E+00  0.33402567945E+03  0.33402567945E+03  0.00000000000E+00 0.  1.
          2   -1    0    0  502    0  0.00000000000E+00 -0.00000000000E+00 -0.20321136679E+03  0.20321136679E+03  0.00000000000E+00 0. -1.
         23    2    1    2    0    0  0.65833706161E+01 -0.29675211332E+01  0.18428254620E+03  0.20700063391E+03  0.94005630977E+02 0.  0.
         24    2    1    2    0    0  0.99123878147E+02  0.22217484475E+02 -0.14105346621E+03  0.19161550298E+03  0.80630396356E+02 0.  0.
        -11    1    4    4    0    0  0.48859519161E+02 -0.29870613478E+02 -0.64699971515E+02  0.86403660086E+02  0.00000000000E+00 0.  1.
         12    1    4    4    0    0  0.50264358987E+02  0.52088097953E+02 -0.76353494691E+02  0.10521184289E+03  0.00000000000E+00 0. -1.
        -11    1    3    3    0    0 -0.31551339525E+02 -0.23158083708E+02  0.13919352562E+03  0.14459122187E+03  0.00000000000E+00 0.  1.
         11    1    3    3    0    0  0.38134710141E+02  0.20190562575E+02  0.45089020577E+02  0.62409412040E+02  0.00000000000E+00 0. -1.
         21    1    1    2  502  501 -0.10570724876E+03 -0.19249963342E+02  0.87585232665E+02  0.13862090936E+03  0.00000000000E+00 0.  1.
<scales pt_clust_5="13000.00000" pt_clust_6="13000.00000" pt_clust_7="13000.00000" pt_clust_8="13000.00000" pt_clust_9="102.64133"></scales>
<clustering>
<clus scale="   80.630">  5  6 -1 -1</clus>
<clus scale="   94.006">  7  8 -1 -1</clus>
<clus scale="   94.283">  1  7  2 -1</clus>
<clus scale="  102.641">  1  9  2 -1</clus>
<clus scale="  130.524">  2  5  1 -1</clus>
</clustering>
</event>
<event>
 9    2  0.3402837E-005  0.1681951E+03  0.7546771E-02  0.1211757E+00
         -1   -1    0    0    0  501 -0.00000000000E+00  0.00000000000E+00  0.96403360370E+02  0.96403360370E+02  0.00000000000E+00 0.  1.
          2   -1    0    0  502    0  0.00000000000E+00 -0.00000000000E+00 -0.63467217084E+03  0.63467217084E+03  0.00000000000E+00 0. -1.
         23    2    1    2    0    0 -0.13240363786E+03 -0.64355720764E+02 -0.22084788177E+03  0.28117996715E+03  0.92822437631E+02 0.  0.
         24    2    1    2    0    0 -0.19068009584E+01  0.29544216402E+02 -0.29839052873E+03  0.30984810448E+03  0.78054106868E+02 0.  0.
        -13    1    4    4    0    0  0.16117818690E+02 -0.22014281521E+02 -0.72940261263E+02  0.77876147717E+02  0.00000000000E+00 0.  1.
         14    1    4    4    0    0 -0.18024619648E+02  0.51558497923E+02 -0.22545026747E+03  0.23197195676E+03  0.00000000000E+00 0. -1.
        -13    1    3    3    0    0 -0.42767836420E+02  0.72277615263E+01 -0.12293781012E+03  0.13036500115E+03  0.00000000000E+00 0.  1.
         13    1    3    3    0    0 -0.89635801445E+02 -0.71583482291E+02 -0.97910071657E+02  0.15081496600E+03  0.00000000000E+00 0. -1.
         21    1    1    2  502  501  0.13431043882E+03  0.34811504362E+02 -0.19030399965E+02  0.14004745958E+03  0.00000000000E+00 0.  1.
<scales pt_clust_5="13000.00000" pt_clust_6="13000.00000" pt_clust_7="13000.00000" pt_clust_8="13000.00000" pt_clust_9="140.26257"></scales>
<clustering>
<clus scale="   78.054">  5  6 -1 -1</clus>
<clus scale="   83.480">  2  5  1 -1</clus>
<clus scale="   92.822">  7  8 -1 -1</clus>
<clus scale="  140.263">  1  9  2 -1</clus>
<clus scale="   83.480">  2  5  1 -1</clus>
</clustering>
</event>
<event>
 9    2  0.3402837E-005  0.1284877E+03  0.7546771E-02  0.1232884E+00
          2   -1    0    0  502    0  0.00000000000E+00  0.00000000000E+00  0.47173186433E+02  0.47173186433E+02  0.00000000000E+00 0. -1.
         -1   -1    0    0    0  501 -0.00000000000E+00 -0.00000000000E+00 -0.48515430463E+03  0.48515430463E+03  0.00000000000E+00 0.  1.
         23    2    1    2    0    0  0.14118539636E+02 -0.11013969917E+03 -0.21013444531E+03  0.25522529788E+03  0.93023551188E+02 0.  0.
         24    2    1    2    0    0 -0.13710615629E+01  0.75058831975E+02 -0.12158083822E+03  0.16447185509E+03  0.81445582011E+02 0.  0.
        -11    1    4    4    0    0 -0.29754151417E+02  0.65894705052E+01 -0.63049584034E+02  0.70028427762E+02  0.00000000000E+00 0.  1.
         12    1    4    4    0    0  0.28383089854E+02  0.68469361470E+02 -0.58531254182E+02  0.94443427330E+02  0.00000000000E+00 0. -1.
        -11    1    3    3    0    0  0.59348162165E+00 -0.61529653814E+02 -0.19198337382E+03  0.20160323991E+03  0.00000000000E+00 0.  1.
         11    1    3    3    0    0  0.13525058014E+02 -0.48610045358E+02 -0.18151071483E+02  0.53622057961E+02  0.00000000000E+00 0. -1.
         21    1    1    2  502  501 -0.12747478073E+02  0.35080867197E+02 -0.10626583467E+03  0.11263033810E+03  0.00000000000E+00 0. -1.
<scales pt_clust_5="13000.00000" pt_clust_6="13000.00000" pt_clust_7="13000.00000" pt_clust_8="13000.00000" pt_clust_9="37.32513"></scales>
<clustering>
<clus scale="   37.325">  2  9  1 -1</clus>
<clus scale="   81.446">  5  6 -1 -1</clus>
<clus scale="   93.024">  7  8 -1 -1</clus>
<clus scale="  120.371">  1  5  2 -1</clus>
<clus scale="  120.371">  1  5  2 -1</clus>
</clustering>
</event>
<event>
 9    2  0.3402837E-005  0.9676534E+02  0.7546771E-02  0.1289052E+00
          2   -1    0    0  502    0  0.00000000000E+00  0.00000000000E+00  0.22669889142E+03  0.22669889142E+03  0.00000000000E+00 0. -1.
         -1   -1    0    0    0  501 -0.00000000000E+00 -0.00000000000E+00 -0.23568209376E+03  0.23568209376E+03  0.00000000000E+00 0.  1.
         23    2    1    2    0    0  0.31322797196E+02  0.55772626597E+02 -0.43868408694E+02  0.11607265777E+03  0.86352308016E+02 0.  0.
         24    2    1    2    0    0 -0.49562803530E+00 -0.41698621983E+02  0.17723160902E+03  0.19998372142E+03  0.82724995466E+02 0.  0.
        -13    1    4    4    0    0 -0.32025605583E+02  0.87037280966E+01  0.62823013706E+02  0.71050160780E+02  0.00000000000E+00 0.  1.
         14    1    4    4    0    0  0.31529977548E+02 -0.50402350079E+02  0.11440859532E+03  0.12893356064E+03  0.00000000000E+00 0. -1.
        -13    1    3    3    0    0 -0.78528045812E+01  0.25815766138E+02 -0.58674014101E+02  0.64581423426E+02  0.00000000000E+00 0.  1.
         13    1    3    3    0    0  0.39175601778E+02  0.29956860459E+02  0.14805605407E+02  0.51491234348E+02  0.00000000000E+00 0. -1.
         21    1    1    2  502  501 -0.30827169161E+02 -0.14074004614E+02 -0.14234640267E+03  0.14632460598E+03  0.00000000000E+00 0.  1.
<scales pt_clust_5="13000.00000" pt_clust_6="13000.00000" pt_clust_7="13000.00000" pt_clust_8="13000.00000" pt_clust_9="33.88793"></scales>
<clustering>
<clus scale="   33.888">  2  9  1 -1</clus>
<clus scale="   82.725">  5  6 -1 -1</clus>
<clus scale="   86.352">  7  8 -1 -1</clus>
<clus scale="   93.543">  1  5  2 -1</clus>
<clus scale="   93.543">  1  5  2 -1</clus>
</clustering>
</event>
<event>
 9    2  0.3402837E-005  0.1093511E+03  0.7546771E-02  0.1266231E+00
         -3   -1    0    0    0  501 -0.00000000000E+00  0.00000000000E+00  0.73343231896E+02  0.73343231896E+02  0.00000000000E+00 0.  1.
          4   -1    0    0  502    0  0.00000000000E+00 -0.00000000000E+00 -0.26396791238E+03  0.26396791238E+03  0.00000000000E+00 0. -1.
         23    2    1    2    0    0 -0.33294151118E+02  0.54268430538E+02 -0.51387134714E+02  0.12307030073E+03  0.91935293860E+02 0.  0.
         24    2    1    2    0    0  0.14757765464E+01 -0.59846521108E+02 -0.14961798925E+03  0.18031036076E+03  0.80885718671E+02 0.  0.
        -13    1    4    4    0    0  0.27779283809E+02 -0.22997667865E+01 -0.15210337025E+02  0.31754242057E+02  0.00000000000E+00 0.  1.
         14    1    4    4    0    0 -0.26303507262E+02 -0.57546754321E+02 -0.13440765223E+03  0.14855611871E+03  0.00000000000E+00 0. -1.
        -13    1    3    3    0    0 -0.62720624123E+02  0.22304873380E+02 -0.41719096144E+02  0.78561231215E+02  0.00000000000E+00 0. -1.
         13    1    3    3    0    0  0.29426473005E+02  0.31963557158E+02 -0.96680385695E+01  0.44509069520E+02  0.00000000000E+00 0.  1.
         21    1    1    2  502  501  0.31818374572E+02  0.55780905697E+01  0.10380443482E+02  0.33930482780E+02  0.00000000000E+00 0.  1.
<scales pt_clust_5="13000.00000" pt_clust_6="13000.00000" pt_clust_7="13000.00000" pt_clust_8="13000.00000" pt_clust_9="32.30362"></scales>
<clustering>
<clus scale="   32.304">  1  9  2 -1</clus>
<clus scale="   80.886">  5  6 -1 -1</clus>
<clus scale="   91.935">  7  8 -1 -1</clus>
<clus scale="  100.240">  2  5  1 -1</clus>
<clus scale="  100.240">  2  5  1 -1</clus>
</clustering>
</event>
<event>
 9    2  0.3402837E-005  0.1287837E+03  0.7546771E-02  0.1232093E+00
          2   -1    0    0  502    0  0.00000000000E+00  0.00000000000E+00  0.21627850285E+03  0.21627850285E+03  0.00000000000E+00 0. -1.
         -1   -1    0    0    0  501 -0.00000000000E+00 -0.00000000000E+00 -0.25642839172E+03  0.25642839172E+03  0.00000000000E+00 0.  1.
         23    2    1    2    0    0  0.28306729964E+02 -0.11305946026E+03 -0.15590463606E+03  0.21505825871E+03  0.91433509054E+02 0.  0.
         24    2    1    2    0    0  0.29933229902E+02  0.84493476197E+02  0.14312957841E+03  0.18724061249E+03  0.80856817766E+02 0.  0.
        -13    1    4    4    0    0  0.53090515010E+02  0.60298136836E+02  0.69025539895E+02  0.10591974909E+03  0.00000000000E+00 0.  1.
         14    1    4    4    0    0 -0.23157285108E+02  0.24195339361E+02  0.74104038512E+02  0.81320863400E+02  0.00000000000E+00 0. -1.
        -13    1    3    3    0    0  0.18612946508E+02 -0.93931944634E+02 -0.16578082938E+03  0.19144956357E+03  0.00000000000E+00 0.  1.
         13    1    3    3    0    0  0.96937834565E+01 -0.19127515626E+02  0.98761933198E+01  0.23608695140E+02  0.00000000000E+00 0. -1.
         21    1    1    2  502  501 -0.58239959866E+02  0.28565984064E+02 -0.27374831209E+02  0.70408023367E+02  0.00000000000E+00 0.  1.
<scales pt_clust_5="13000.00000" pt_clust_6="13000.00000" pt_clust_7="13000.00000" pt_clust_8="13000.00000" pt_clust_9="64.86839"></scales>
<clustering>
<clus scale="   64.868">  2  9  1 -1</clus>
<clus scale="   80.857">  5  6 -1 -1</clus>
<clus scale="   91.434">  7  8 -1 -1</clus>
<clus scale="  121.503">  1  5  2 -1</clus>
<clus scale="  121.503">  1  5  2 -1</clus>
</clustering>
</event>
<event>
 9    2  0.3402837E-005  0.9340121E+02  0.7546771E-02  0.1300719E+00
          2   -1    0    0  502    0  0.00000000000E+00  0.00000000000E+00  0.64553167298E+02  0.64553167298E+02  0.00000000000E+00 0. -1.
         -1   -1    0    0    0  501 -0.00000000000E+00 -0.00000000000E+00 -0.22197341045E+03  0.22197341045E+03  0.00000000000E+00 0.  1.
         23    2    1    2    0    0  0.30731895830E+02  0.15266009462E+02 -0.80068378955E+02  0.12552048506E+03  0.90371159095E+02 0.  0.
         24    2    1    2    0    0 -0.48559944231E+01 -0.21939516029E+02 -0.46626459119E+01  0.83560496176E+02  0.80347328573E+02 0.  0.
        -13    1    4    4    0    0 -0.41897415033E+02 -0.61930698856E+01 -0.82600254549E+01  0.43150614383E+02  0.00000000000E+00 0.  1.
         14    1    4    4    0    0  0.37041420610E+02 -0.15746446143E+02  0.35973795430E+01  0.40409881793E+02  0.00000000000E+00 0. -1.
        -11    1    3    3    0    0 -0.18204555988E+02 -0.21485427254E+02 -0.49878751883E+02  0.57279309811E+02  0.00000000000E+00 0.  1.
         11    1    3    3    0    0  0.48936451819E+02  0.36751436716E+02 -0.30189627072E+02  0.68241175254E+02  0.00000000000E+00 0. -1.
         21    1    1    2  502  501 -0.25875901407E+02  0.66735065668E+01 -0.72689218287E+02  0.77445596509E+02  0.00000000000E+00 0.  1.
<scales pt_clust_5="13000.00000" pt_clust_6="13000.00000" pt_clust_7="13000.00000" pt_clust_8="13000.00000" pt_clust_9="26.72261"></scales>
<clustering>
<clus scale="   26.723">  2  9  1 -1</clus>
<clus scale="   80.347">  5  6 -1 -1</clus>
<clus scale="   83.741">  1  5  2 -1</clus>
<clus scale="   90.371">  7  8 -1 -1</clus>
<clus scale="   83.741">  1  5  2 -1</clus>
</clustering>
</event>
<event>
 9    2  0.3402837E-005  0.9727560E+02  0.7546771E-02  0.1294170E+00
          2   -1    0    0  502    0  0.00000000000E+00  0.00000000000E+00  0.24534106879E+03  0.24534106879E+03  0.00000000000E+00 0. -1.
         -1   -1    0    0    0  501 -0.00000000000E+00 -0.00000000000E+00 -0.56766838823E+02  0.56766838823E+02  0.00000000000E+00 0.  1.
         23    2    1    2    0    0 -0.36008222283E+02  0.11567440677E+02  0.40142581273E+02  0.10763327849E+03  0.92428881051E+02 0.  0.
         24    2    1    2    0    0  0.27931793298E+02  0.10391348181E+02  0.14930012483E+03  0.17106156942E+03  0.77995949041E+02 0.  0.
        -11    1    4    4    0    0  0.63744108662E+01 -0.32954428231E+02  0.45632543243E+02  0.56647651820E+02  0.00000000000E+00 0.  1.
         12    1    4    4    0    0  0.21557382432E+02  0.43345776412E+02  0.10366758158E+03  0.11441391760E+03  0.00000000000E+00 0. -1.
        -13    1    3    3    0    0 -0.53599224584E+02 -0.23944344897E+02  0.14625487419E+02  0.60498871153E+02  0.00000000000E+00 0.  1.
         13    1    3    3    0    0  0.17591002301E+02  0.35511785574E+02  0.25517093855E+02  0.47134407341E+02  0.00000000000E+00 0. -1.
         21    1    1    2  502  501  0.80764289850E+01 -0.21958788859E+02 -0.86847613691E+00  0.23413059691E+02  0.00000000000E+00 0. -1.
<scales pt_clust_5="13000.00000" pt_clust_6="13000.00000" pt_clust_7="13000.00000" pt_clust_8="13000.00000" pt_clust_9="23.39695"></scales>
<clustering>
<clus scale="   23.397">  2  9  1 -1</clus>
<clus scale="   77.996">  5  6 -1 -1</clus>
<clus scale="   83.683">  1  5  2 -1</clus>
<clus scale="   92.429">  7  8 -1 -1</clus>
<clus scale="   83.683">  1  5  2 -1</clus>
</clustering>
</event>
<event>
 9    2  0.3402837E-005  0.1533908E+03  0.7546771E-02  0.1198613E+00
          2   -1    0    0  502    0  0.00000000000E+00  0.00000000000E+00  0.21905671386E+03  0.21905671386E+03  0.00000000000E+00 0. -1.
         -1   -1    0    0    0  501 -0.00000000000E+00 -0.00000000000E+00 -0.26932651154E+03  0.26932651154E+03  0.00000000000E+00 0.  1.
         24    2    1    2    0    0 -0.76481223783E+02 -0.83610221910E+02 -0.20005308438E+03  0.24339964822E+03  0.79888080360E+02 0.  0.
         23    2    1    2    0    0  0.97123768965E+02  0.76654341107E+02  0.15862980356E+03  0.22147273266E+03  0.92616641200E+02 0.  0.
        -11    1    3    3    0    0 -0.70719824563E+02 -0.99284637209E+02 -0.17797827669E+03  0.21571972498E+03  0.00000000000E+00 0.  1.
         12    1    3    3    0    0 -0.57613992204E+01  0.15674415299E+02 -0.22074807690E+02  0.27679923239E+02  0.00000000000E+00 0. -1.
        -13    1    4    4    0    0  0.17174050674E+02 -0.17399403645E+02  0.55402516989E+02  0.60556801042E+02  0.00000000000E+00 0.  1.
         13    1    4    4    0    0  0.79949718292E+02  0.94053744752E+02  0.10322728657E+03  0.16091593162E+03  0.00000000000E+00 0. -1.
         21    1    1    2  502  501 -0.20642545182E+02  0.69558808033E+01 -0.88465168540E+01  0.23510844514E+02  0.00000000000E+00 0.  1.
<scales pt_clust_5="13000.00000" pt_clust_6="13000.00000" pt_clust_7="13000.00000" pt_clust_8="13000.00000" pt_clust_9="21.78300"></scales>
<clustering>
<clus scale="   21.783">  2  9  1 -1</clus>
<clus scale="   79.888">  5  6 -1 -1</clus>
<clus scale="   92.617">  7  8 -1 -1</clus>
<clus scale="  146.058">  2  5  1 -1</clus>
<clus scale="  153.391">  1  5  2 -1</clus>
</clustering>
</event>
<event>
 9    2  0.3402837E-005  0.1067331E+03  0.7546771E-02  0.1268135E+00
         -1   -1    0    0    0  501 -0.00000000000E+00  0.00000000000E+00  0.10324892803E+03  0.10324892803E+03  0.00000000000E+00 0.  1.
          2   -1    0    0  502    0  0.00000000000E+00 -0.00000000000E+00 -0.79958443143E+03  0.79958443143E+03  0.00000000000E+00 0. -1.
         23    2    1    2    0    0 -0.45625872732E+02  0.29881462153E+02  0.55233516962E+02  0.12022441368E+03  0.91807114134E+02 0.  0.
         24    2    1    2    0    0  0.85550492570E+02  0.40485143130E+02 -0.55738290258E+03  0.57224335270E+03  0.88480625168E+02 0.  0.
        -11    1    4    4    0    0  0.43382039721E+02  0.14693607744E+02 -0.79032105116E+02  0.91345372723E+02  0.00000000000E+00 0.  1.
         12    1    4    4    0    0  0.42168452849E+02  0.25791535386E+02 -0.47835079747E+03  0.48089797998E+03  0.00000000000E+00 0. -1.
        -11    1    3    3    0    0 -0.26385639501E+02  0.50640763031E+02  0.68320135768E+02  0.89041169150E+02  0.00000000000E+00 0.  1.
         11    1    3    3    0    0 -0.19240233231E+02 -0.20759300877E+02 -0.13086618805E+02  0.31183244531E+02  0.00000000000E+00 0. -1.
         21    1    1    2  502  501 -0.39924619838E+02 -0.70366605283E+02 -0.19418611779E+03  0.21036559307E+03  0.00000000000E+00 0. -1.
<scales pt_clust_5="13000.00000" pt_clust_6="13000.00000" pt_clust_7="13000.00000" pt_clust_8="13000.00000" pt_clust_9="80.90386"></scales>
<clustering>
<clus scale="   80.904">  2  9  1 -1</clus>
<clus scale="   88.481">  5  6 -1 -1</clus>
<clus scale="   91.807">  7  8 -1 -1</clus>
<clus scale="  103.886">  2  5  1 -1</clus>
<clus scale="   80.904">  2  5  1 -1</clus>
</clustering>
</event>
<event>
 9    2  0.3402837E-005  0.1332742E+03  0.7546771E-02  0.1225456E+00
         -3   -1    0    0    0  501 -0.00000000000E+00  0.00000000000E+00  0.52227254852E+03  0.52227254852E+03  0.00000000000E+00 0.  1.
          4   -1    0    0  502    0  0.00000000000E+00 -0.00000000000E+00 -0.15798590019E+03  0.15798590019E+03  0.00000000000E+00 0. -1.
         24    2    1    2    0    0 -0.65785399186E+02  0.15513649109E+02  0.81462176621E+02  0.13234399025E+03  0.79438362781E+02 0.  0.
         23    2    1    2    0    0  0.10882490591E+03  0.17851054265E+01 -0.92793160220E+02  0.16944351973E+03  0.90854218660E+02 0.  0.
        -13    1    3    3    0    0 -0.27987889540E+02  0.45155096315E+02  0.26558359138E+02  0.59394032732E+02  0.00000000000E+00 0.  1.
         14    1    3    3    0    0 -0.37797509646E+02 -0.29641447206E+02  0.54903817483E+02  0.72949957520E+02  0.00000000000E+00 0. -1.
        -11    1    4    4    0    0  0.75995162037E+02  0.27675582199E+02 -0.16646023266E+02  0.82572953161E+02  0.00000000000E+00 0.  1.
         11    1    4    4    0    0  0.32829743870E+02 -0.25890476772E+02 -0.76147136954E+02  0.86870566571E+02  0.00000000000E+00 0. -1.
         21    1    1    2  502  501 -0.43039506722E+02 -0.17298754535E+02  0.37561763193E+03  0.37847093873E+03  0.00000000000E+00 0.  1.
<scales pt_clust_5="13000.00000" pt_clust_6="13000.00000" pt_clust_7="13000.00000" pt_clust_8="13000.00000" pt_clust_9="46.38584"></scales>
<clustering>
<clus scale="   46.386">  1  9  2 -1</clus>
<clus scale="   79.438">  5  6 -1 -1</clus>
<clus scale="   90.854">  7  8 -1 -1</clus>
<clus scale="  125.770">  1  5  2 -1</clus>
<clus scale="  133.274">  2  5  1 -1</clus>
</clustering>
</event>
<event>
 9    2  0.3402837E-005  0.1112537E+03  0.7546771E-02  0.1261609E+00
         -1   -1    0    0    0  501 -0.00000000000E+00  0.00000000000E+00  0.24816403168E+02  0.24816403168E+02  0.00000000000E+00 0.  1.
          2   -1    0    0  502    0  0.00000000000E+00 -0.00000000000E+00 -0.15815644155E+04  0.15815644155E+04  0.00000000000E+00 0. -1.
         23    2    1    2    0    0 -0.30932223080E+02  0.51705938260E+02 -0.13687158257E+03  0.17441432934E+03  0.89756457630E+02 0.  0.
         24    2    1    2    0    0  0.53009388767E+02 -0.40525778462E+02 -0.13862996395E+04  0.13902556027E+04  0.80818415977E+02 0.  0.
        -13    1    4    4    0    0  0.39684721559E+02 -0.20563899726E+02 -0.26823435367E+03  0.27193274828E+03  0.00000000000E+00 0.  1.
         14    1    4    4    0    0  0.13324667208E+02 -0.19961878736E+02 -0.11180652859E+04  0.11183228545E+04  0.00000000000E+00 0. -1.
        -13    1    3    3    0    0 -0.61246318189E+02  0.31815585010E+02 -0.10752377024E+03  0.12776816547E+03  0.00000000000E+00 0.  1.
         13    1    3    3    0    0  0.30314095109E+02  0.19890353250E+02 -0.29347812331E+02  0.46646163865E+02  0.00000000000E+00 0. -1.
         21    1    1    2  502  501 -0.22077165687E+02 -0.11180159798E+02 -0.33576790195E+02  0.41710886561E+02  0.00000000000E+00 0.  1.
<scales pt_clust_5="13000.00000" pt_clust_6="13000.00000" pt_clust_7="13000.00000" pt_clust_8="13000.00000" pt_clust_9="24.74666"></scales>
<clustering>
<clus scale="   24.747">  1  9  2 -1</clus>
<clus scale="   80.818">  5  6 -1 -1</clus>
<clus scale="   89.756">  7  8 -1 -1</clus>
<clus scale="  104.177">  2  5  1 -1</clus>
<clus scale="  104.177">  2  5  1 -1</clus>
</clustering>
</event>
<event>
 9    2  0.3402837E-005  0.1306071E+03  0.7546771E-02  0.1228336E+00
          2   -1    0    0  502    0  0.00000000000E+00  0.00000000000E+00  0.28201873651E+03  0.28201873651E+03  0.00000000000E+00 0. -1.
         -1   -1    0    0    0  501 -0.00000000000E+00 -0.00000000000E+00 -0.15753132770E+03  0.15753132770E+03  0.00000000000E+00 0.  1.
         24    2    1    2    0    0  0.41349150865E+02 -0.68460051075E+02 -0.70050964627E+02  0.13648581024E+03  0.85584507253E+02 0.  0.
         23    2    1    2    0    0 -0.61851212183E+02  0.71580960037E+02  0.22807203390E+03  0.26363607909E+03  0.92399801201E+02 0.  0.
        -11    1    3    3    0    0  0.23826063680E+02 -0.86067047342E+02 -0.41010455740E+02  0.98270419906E+02  0.00000000000E+00 0.  1.
         12    1    3    3    0    0  0.17523087185E+02  0.17606996267E+02 -0.29040508887E+02  0.38215390335E+02  0.00000000000E+00 0. -1.
        -13    1    4    4    0    0 -0.42871959336E+02  0.56670026080E+01  0.26512548015E+02  0.50725092589E+02  0.00000000000E+00 0.  1.
         13    1    4    4    0    0 -0.18979252847E+02  0.65913957429E+02  0.20155948588E+03  0.21291098650E+03  0.00000000000E+00 0. -1.
         21    1    1    2  502  501  0.20502061318E+02 -0.31209089623E+01 -0.33533660460E+02  0.39428174887E+02  0.00000000000E+00 0. -1.
<scales pt_clust_5="13000.00000" pt_clust_6="13000.00000" pt_clust_7="13000.00000" pt_clust_8="13000.00000" pt_clust_9="20.73824"></scales>
<clustering>
<clus scale="   20.738">  2  9  1 -1</clus>
<clus scale="   85.585">  5  6 -1 -1</clus>
<clus scale="   92.400">  7  8 -1 -1</clus>
<clus scale="  125.878">  2  5  1 -1</clus>
<clus scale="  130.607">  1  5  2 -1</clus>
</clustering>
</event>
<event>
 9    2  0.3402837E-005  0.1408113E+03  0.7546771E-02  0.1214389E+00
         -1   -1    0    0    0  501 -0.00000000000E+00  0.00000000000E+00  0.36174560953E+03  0.36174560953E+03  0.00000000000E+00 0.  1.
          2   -1    0    0  502    0  0.00000000000E+00 -0.00000000000E+00 -0.12354343561E+03  0.12354343561E+03  0.00000000000E+00 0. -1.
         23    2    1    2    0    0 -0.76926400602E+02 -0.49424850029E+02  0.22952035465E+03  0.26252218956E+03  0.88757083678E+02 0.  0.
         24    2    1    2    0    0  0.77934951853E+02  0.81920465928E+02 -0.57421087347E+02  0.14910155512E+03  0.78417300433E+02 0.  0.
        -11    1    4    4    0    0  0.22406620904E+02  0.30833703013E+02  0.18233297042E+02  0.42251946971E+02  0.00000000000E+00 0.  1.
         12    1    4    4    0    0  0.55528330949E+02  0.51086762916E+02 -0.75654384389E+02  0.10684960814E+03  0.00000000000E+00 0. -1.
        -11    1    3    3    0    0 -0.27787119624E+02  0.25309353706E+02  0.77721993173E+02  0.86333050593E+02  0.00000000000E+00 0. -1.
         11    1    3    3    0    0 -0.49139280978E+02 -0.74734203735E+02  0.15179836148E+03  0.17618913897E+03  0.00000000000E+00 0.  1.
         21    1    1    2  502  501 -0.10085512514E+01 -0.32495615899E+02  0.66102906617E+02  0.73665300457E+02  0.00000000000E+00 0.  1.
<scales pt_clust_5="13000.00000" pt_clust_6="13000.00000" pt_clust_7="13000.00000" pt_clust_8="13000.00000" pt_clust_9="32.51126"></scales>
<clustering>
<clus scale="   32.511">  1  9  2 -1</clus>
<clus scale="   78.417">  5  6 -1 -1</clus>
<clus scale="   88.757">  7  8 -1 -1</clus>
<clus scale="  134.533">  2  5  1 -1</clus>
<clus scale="  134.533">  2  5  1 -1</clus>
</clustering>
</event>
<event>
 9    2  0.3402837E-005  0.9878533E+02  0.7546771E-02  0.1285961E+00
         -1   -1    0    0    0  501 -0.00000000000E+00  0.00000000000E+00  0.75660041091E+02  0.75660041091E+02  0.00000000000E+00 0.  1.
          2   -1    0    0  502    0  0.00000000000E+00 -0.00000000000E+00 -0.33075925774E+03  0.33075925774E+03  0.00000000000E+00 0. -1.
         23    2    1    2    0    0 -0.54914895540E+02  0.53519470353E+01  0.15942510553E+02  0.10660594966E+03  0.89813004465E+02 0.  0.
         24    2    1    2    0    0  0.35955200183E+02 -0.16690233169E+02 -0.25815692316E+03  0.27423904653E+03  0.83610509871E+02 0.  0.
        -11    1    4    4    0    0  0.90311575791E+01 -0.48177592387E+02 -0.16827608558E+03  0.17526974409E+03  0.00000000000E+00 0.  1.
         12    1    4    4    0    0  0.26924042604E+02  0.31487359218E+02 -0.89880837584E+02  0.98969302440E+02  0.00000000000E+00 0. -1.
        -13    1    3    3    0    0  0.24382670922E+02  0.47109246878E+01 -0.31700017850E+01  0.25035102636E+02  0.00000000000E+00 0. -1.
         13    1    3    3    0    0 -0.79297566462E+02  0.64102234746E+00  0.19112512338E+02  0.81570847024E+02  0.00000000000E+00 0.  1.
         21    1    1    2  502  501  0.18959695357E+02  0.11338286134E+02 -0.12884804042E+02  0.25574302644E+02  0.00000000000E+00 0. -1.
<scales pt_clust_5="13000.00000" pt_clust_6="13000.00000" pt_clust_7="13000.00000" pt_clust_8="13000.00000" pt_clust_9="22.09133"></scales>
<clustering>
<clus scale="   22.091">  1  9  2 -1</clus>
<clus scale="   83.611">  5  6 -1 -1</clus>
<clus scale="   89.813">  7  8 -1 -1</clus>
<clus scale="   93.182">  2  5  1 -1</clus>
<clus scale="   93.182">  2  5  1 -1</clus>
</clustering>
</event>
<event>
 9    2  0.3402837E-005  0.9977238E+02  0.7546771E-02  0.1287960E+00
          2   -1    0    0  502    0  0.00000000000E+00  0.00000000000E+00  0.34995128942E+03  0.34995128942E+03  0.00000000000E+00 0. -1.
         -1   -1    0    0    0  501 -0.00000000000E+00 -0.00000000000E+00 -0.15146474223E+03  0.15146474223E+03  0.00000000000E+00 0.  1.
         23    2    1    2    0    0 -0.24546127176E+02 -0.25200374652E+02 -0.53184527293E+02  0.11030943043E+03  0.90011139619E+02 0.  0.
         24    2    1    2    0    0 -0.29351691093E+02  0.35431449505E+02  0.30317466860E+03  0.31585854534E+03  0.75728670916E+02 0.  0.
        -13    1    4    4    0    0 -0.52373862896E+02  0.87885220345E+01  0.19464974863E+03  0.20176417986E+03  0.00000000000E+00 0.  1.
         14    1    4    4    0    0  0.23022171803E+02  0.26642927471E+02  0.10852491997E+03  0.11409436547E+03  0.00000000000E+00 0. -1.
        -11    1    3    3    0    0 -0.28736151966E+02 -0.37727028624E+01 -0.74412419165E+02  0.79857421964E+02  0.00000000000E+00 0.  1.
         11    1    3    3    0    0  0.41900247901E+01 -0.21427671790E+02  0.21227891872E+02  0.30452008462E+02  0.00000000000E+00 0. -1.
         21    1    1    2  502  501  0.53897818269E+02 -0.10231074853E+02 -0.51503594115E+02  0.75248055878E+02  0.00000000000E+00 0. -1.
<scales pt_clust_5="13000.00000" pt_clust_6="13000.00000" pt_clust_7="13000.00000" pt_clust_8="13000.00000" pt_clust_9="54.86027"></scales>
<clustering>
<clus scale="   54.860">  2  9  1 -1</clus>
<clus scale="   75.729">  5  6 -1 -1</clus>
<clus scale="   87.105">  1  5  2 -1</clus>
<clus scale="   90.011">  7  8 -1 -1</clus>
<clus scale="   87.105">  1  5  2 -1</clus>
</clustering>
</event>
<event>
 9    2  0.3402837E-005  0.9939024E+02  0.7546771E-02  0.1290613E+00
          2   -1    0    0  502    0  0.00000000000E+00  0.00000000000E+00  0.46844246808E+03  0.46844246808E+03  0.00000000000E+00 0. -1.
         -1   -1    0    0    0  501 -0.00000000000E+00 -0.00000000000E+00 -0.57297857165E+02  0.57297857165E+02  0.00000000000E+00 0.  1.
         23    2    1    2    0    0 -0.14174684161E+02  0.22847883311E+02  0.65621414139E+02  0.11563630633E+03  0.91338041933E+02 0.  0.
         24    2    1    2    0    0 -0.52841821119E+02  0.84465717178E+01  0.31849973293E+03  0.33135871751E+03  0.74114217000E+02 0.  0.
        -13    1    4    4    0    0 -0.76703150357E+01  0.31449222627E+02  0.62469097004E+02  0.70358193674E+02  0.00000000000E+00 0.  1.
         14    1    4    4    0    0 -0.45171506083E+02 -0.23002650909E+02  0.25603063592E+03  0.26100052384E+03  0.00000000000E+00 0. -1.
        -11    1    3    3    0    0 -0.12785631795E+02 -0.31831605552E+02  0.46308194000E+02  0.57629613255E+02  0.00000000000E+00 0. -1.
         11    1    3    3    0    0 -0.13890523654E+01  0.54679488863E+02  0.19313220139E+02  0.58006693070E+02  0.00000000000E+00 0.  1.
         21    1    1    2  502  501  0.67016505280E+02 -0.31294455029E+02  0.27023463845E+02  0.78745301407E+02  0.00000000000E+00 0.  1.
<scales pt_clust_5="13000.00000" pt_clust_6="13000.00000" pt_clust_7="13000.00000" pt_clust_8="13000.00000" pt_clust_9="73.96320"></scales>
<clustering>
<clus scale="   73.963">  2  9  1 -1</clus>
<clus scale="   74.114">  5  6 -1 -1</clus>
<clus scale="   83.837">  1  5  2 -1</clus>
<clus scale="   91.338">  7  8 -1 -1</clus>
<clus scale="   83.837">  1  5  2 -1</clus>
</clustering>
</event>
<event>
 9    2  0.3402837E-005  0.9266960E+02  0.7546771E-02  0.1313800E+00
         -1   -1    0    0    0  501 -0.00000000000E+00  0.00000000000E+00  0.26921806138E+02  0.26921806138E+02  0.00000000000E+00 0.  1.
          2   -1    0    0  502    0  0.00000000000E+00 -0.00000000000E+00 -0.73299289470E+03  0.73299289470E+03  0.00000000000E+00 0. -1.
         23    2    1    2    0    0 -0.66371068626E+01  0.16355497284E+01 -0.98198074574E+02  0.13365193895E+03  0.90406043626E+02 0.  0.
         24    2    1    2    0    0 -0.17660272564E+02  0.15257768389E+02 -0.58463725115E+03  0.58863767028E+03  0.64412007546E+02 0.  0.
        -11    1    4    4    0    0 -0.22736602505E+02  0.90395686865E+01 -0.74055944099E+02  0.77993267350E+02  0.00000000000E+00 0.  1.
         12    1    4    4    0    0  0.50763299405E+01  0.62181997028E+01 -0.51058130705E+03  0.51064440293E+03  0.00000000000E+00 0. -1.
        -11    1    3    3    0    0 -0.24751785883E+02 -0.16901409383E+02 -0.10301784995E+03  0.10728926299E+03  0.00000000000E+00 0.  1.
         11    1    3    3    0    0  0.18114679020E+02  0.18536959111E+02  0.48197753789E+01  0.26362675961E+02  0.00000000000E+00 0. -1.
         21    1    1    2  502  501  0.24297379427E+02 -0.16893318118E+02 -0.23235762839E+02  0.37625091611E+02  0.00000000000E+00 0.  1.
<scales pt_clust_5="13000.00000" pt_clust_6="13000.00000" pt_clust_7="13000.00000" pt_clust_8="13000.00000" pt_clust_9="29.59302"></scales>
<clustering>
<clus scale="   29.593">  1  9  2 -1</clus>
<clus scale="   64.412">  5  6 -1 -1</clus>
<clus scale="   67.552">  2  5  1 -1</clus>
<clus scale="   90.406">  7  8 -1 -1</clus>
<clus scale="   67.552">  2  5  1 -1</clus>
</clustering>
</event>
<event>
 9    2  0.3402837E-005  0.1089373E+03  0.7546771E-02  0.1266746E+00
          2   -1    0    0  502    0  0.00000000000E+00  0.00000000000E+00  0.17303809130E+03  0.17303809130E+03  0.00000000000E+00 0. -1.
         -1   -1    0    0    0  501 -0.00000000000E+00 -0.00000000000E+00 -0.17015036708E+03  0.17015036708E+03  0.00000000000E+00 0.  1.
         24    2    1    2    0    0 -0.10843226789E+01  0.28615395072E+02 -0.63276299143E+02  0.10669107628E+03  0.80988141937E+02 0.  0.
         23    2    1    2    0    0 -0.56333019245E+02 -0.43734346177E+02  0.11223180782E+03  0.16134703545E+03  0.91382630018E+02 0.  0.
        -13    1    3    3    0    0  0.22991219450E+02  0.49037914311E+02 -0.36696820935E+02  0.65421478725E+02  0.00000000000E+00 0.  1.
         14    1    3    3    0    0 -0.24075542129E+02 -0.20422519239E+02 -0.26579478208E+02  0.41269597559E+02  0.00000000000E+00 0. -1.
        -11    1    4    4    0    0 -0.30360947886E+02 -0.20983198699E+01  0.10787023296E+03  0.11208111911E+03  0.00000000000E+00 0. -1.
         11    1    4    4    0    0 -0.25972071359E+02 -0.41636026307E+02  0.43615748621E+01  0.49265916338E+02  0.00000000000E+00 0.  1.
         21    1    1    2  502  501  0.57417341923E+02  0.15118951105E+02 -0.46067784458E+02  0.75150346645E+02  0.00000000000E+00 0.  1.
<scales pt_clust_5="13000.00000" pt_clust_6="13000.00000" pt_clust_7="13000.00000" pt_clust_8="13000.00000" pt_clust_9="59.37452"></scales>
<clustering>
<clus scale="   59.375">  2  9  1 -1</clus>
<clus scale="   80.988">  5  6 -1 -1</clus>
<clus scale="   91.383">  7  8 -1 -1</clus>
<clus scale="  100.377">  2  5  1 -1</clus>
<clus scale="  108.937">  1  5  2 -1</clus>
</clustering>
</event>
<event>
 9    2  0.3402837E-005  0.1262968E+03  0.7546771E-02  0.1246154E+00
          2   -1    0    0  502    0  0.00000000000E+00  0.00000000000E+00  0.67992082769E+03  0.67992082769E+03  0.00000000000E+00 0. -1.
         -1   -1    0    0    0  501 -0.00000000000E+00 -0.00000000000E+00 -0.13483278616E+03  0.13483278616E+03  0.00000000000E+00 0.  1.
         23    2    1    2    0    0  0.14925520204E+02  0.35524846443E+02 -0.11436274313E+02  0.12015326483E+03  0.11323088276E+03 0.  0.
         24    2    1    2    0    0  0.57874608553E+02 -0.14663812838E+02  0.59943670066E+03  0.60755717445E+03  0.78973821029E+02 0.  0.
        -13    1    4    4    0    0 -0.60677400858E+01  0.23131964823E+02  0.11511379018E+03  0.11757163755E+03  0.00000000000E+00 0.  1.
         14    1    4    4    0    0  0.63942348638E+02 -0.37795777661E+02  0.48432291048E+03  0.48998553690E+03  0.00000000000E+00 0. -1.
        -13    1    3    3    0    0 -0.20304061158E+02  0.65834156455E+02 -0.22325587568E+02  0.72421149646E+02  0.00000000000E+00 0.  1.
         13    1    3    3    0    0  0.35229581362E+02 -0.30309310012E+02  0.10889313255E+02  0.47732115180E+02  0.00000000000E+00 0. -1.
         21    1    1    2  502  501 -0.72800128757E+02 -0.20861033605E+02 -0.42912384819E+02  0.87043174580E+02  0.00000000000E+00 0.  1.
<scales pt_clust_5="13000.00000" pt_clust_6="13000.00000" pt_clust_7="13000.00000" pt_clust_8="13000.00000" pt_clust_9="75.73006"></scales>
<clustering>
<clus scale="   75.730">  2  9  1 -1</clus>
<clus scale="   78.974">  5  6 -1 -1</clus>
<clus scale="   96.781">  1  5  2 -1</clus>
<clus scale="  113.231">  7  8 -1 -1</clus>
<clus scale="   96.781">  1  5  2 -1</clus>
</clustering>
</event>
<event>
 9    2  0.3762260E-005  0.1376267E+03  0.7546771E-02  0.1219874E+00
          2   -1    0    0  502    0  0.00000000000E+00  0.00000000000E+00  0.89606019401E+03  0.89606019401E+03  0.00000000000E+00 0. -1.
         -1   -1    0    0    0  501 -0.00000000000E+00 -0.00000000000E+00 -0.15098858875E+03  0.15098858875E+03  0.00000000000E+00 0.  1.
         23    2    1    2    0    0 -0.64937959058E+02  0.24086326116E+02 -0.10300759852E+03  0.15574449774E+03  0.94067494866E+02 0.  0.
         24    2    1    2    0    0  0.10128794793E+03 -0.95760791801E+01  0.84178198403E+03  0.85166183385E+03  0.79875033095E+02 0.  0.
        -11    1    4    4    0    0  0.57627084611E+02 -0.42717782179E+02  0.38738390487E+03  0.39396951601E+03  0.00000000000E+00 0.  1.
         12    1    4    4    0    0  0.43660863324E+02  0.33141702999E+02  0.45439807916E+03  0.45769231784E+03  0.00000000000E+00 0. -1.
        -11    1    3    3    0    0 -0.28279051496E+01  0.26616548673E+02  0.84976803493E+01  0.28082882369E+02  0.00000000000E+00 0. -1.
         11    1    3    3    0    0 -0.62110053908E+02 -0.25302225577E+01 -0.11150527887E+03  0.12766161537E+03  0.00000000000E+00 0.  1.
         21    1    1    2  502  501 -0.36349988877E+02 -0.14510246936E+02  0.62972197556E+01  0.39642451162E+02  0.00000000000E+00 0.  1.
<scales pt_clust_5="13000.00000" pt_clust_6="13000.00000" pt_clust_7="13000.00000" pt_clust_8="13000.00000" pt_clust_9="39.13910"></scales>
<clustering>
<clus scale="   39.139">  2  9  1 -1</clus>
<clus scale="   79.875">  5  6 -1 -1</clus>
<clus scale="   94.067">  7  8 -1 -1</clus>
<clus scale="  128.345">  1  5  2 -1</clus>
<clus scale="  128.345">  1  5  2 -1</clus>
</clustering>
</event>
<event>
 9    2  0.3402837E-005  0.1693510E+03  0.7546771E-02  0.1179214E+00
         -1   -1    0    0    0  501 -0.00000000000E+00  0.00000000000E+00  0.28691432076E+03  0.28691432076E+03  0.00000000000E+00 0.  1.
          2   -1    0    0  502    0  0.00000000000E+00 -0.00000000000E+00 -0.29871128136E+03  0.29871128136E+03  0.00000000000E+00 0. -1.
         23    2    1    2    0    0  0.14954301051E+03 -0.49891951394E+02  0.19894457777E+03  0.26869772844E+03  0.88131750457E+02 0.  0.
         24    2    1    2    0    0 -0.14060844568E+03  0.27462523642E+02 -0.23181761988E+03  0.28487936529E+03  0.83017580532E+02 0.  0.
        -13    1    4    4    0    0 -0.33394123984E+02 -0.16189140137E+02 -0.16920264773E+02  0.40786653884E+02  0.00000000000E+00 0.  1.
         14    1    4    4    0    0 -0.10721432169E+03  0.43651663779E+02 -0.21489735511E+03  0.24409271140E+03  0.00000000000E+00 0. -1.
        -11    1    3    3    0    0  0.12071767639E+03 -0.35018074869E+00  0.15505286931E+03  0.19650514574E+03  0.00000000000E+00 0.  1.
         11    1    3    3    0    0  0.28825334115E+02 -0.49541770646E+02  0.43891708461E+02  0.72192582702E+02  0.00000000000E+00 0. -1.
         21    1    1    2  502  501 -0.89345648333E+01  0.22429427753E+02  0.21076081518E+02  0.32048508393E+02  0.00000000000E+00 0. -1.
<scales pt_clust_5="13000.00000" pt_clust_6="13000.00000" pt_clust_7="13000.00000" pt_clust_8="13000.00000" pt_clust_9="24.14344"></scales>
<clustering>
<clus scale="   24.143">  1  9  2 -1</clus>
<clus scale="   83.018">  5  6 -1 -1</clus>
<clus scale="   88.132">  7  8 -1 -1</clus>
<clus scale="  166.747">  2  5  1 -1</clus>
<clus scale="  166.747">  2  5  1 -1</clus>
</clustering>
</event>
<event>
 9    2  0.3402837E-005  0.1493346E+03  0.7546771E-02  0.1204173E+00
          2   -1    0    0  502    0  0.00000000000E+00  0.00000000000E+00  0.23789514917E+03  0.23789514917E+03  0.00000000000E+00 0. -1.
         -1   -1    0    0    0  501 -0.00000000000E+00 -0.00000000000E+00 -0.79763850338E+03  0.79763850338E+03  0.00000000000E+00 0.  1.
         23    2    1    2    0    0  0.36058322583E+02 -0.62778847859E+02 -0.35374551927E+03  0.37364918917E+03  0.96106387903E+02 0.  0.
         24    2    1    2    0    0 -0.92915015586E+02  0.71477179170E+02  0.20339608216E+03  0.24846975167E+03  0.81394496085E+02 0.  0.
        -11    1    4    4    0    0 -0.27451174080E+02 -0.89526348370E+01  0.91317571277E+02  0.95773772260E+02  0.00000000000E+00 0.  1.
         12    1    4    4    0    0 -0.65463841506E+02  0.80429814007E+02  0.11207851088E+03  0.15269597941E+03  0.00000000000E+00 0. -1.
        -11    1    3    3    0    0  0.68726518934E+02 -0.42205979652E+02 -0.21488302088E+03  0.22951991588E+03  0.00000000000E+00 0.  1.
         11    1    3    3    0    0 -0.32668196351E+02 -0.20572868207E+02 -0.13886249839E+03  0.14412927329E+03  0.00000000000E+00 0. -1.
         21    1    1    2  502  501  0.56856693003E+02 -0.86983313112E+01 -0.40939391710E+03  0.41341471171E+03  0.00000000000E+00 0.  1.
<scales pt_clust_5="13000.00000" pt_clust_6="13000.00000" pt_clust_7="13000.00000" pt_clust_8="13000.00000" pt_clust_9="57.51821"></scales>
<clustering>
<clus scale="   57.518">  2  9  1 -1</clus>
<clus scale="   81.394">  5  6 -1 -1</clus>
<clus scale="   96.106">  7  8 -1 -1</clus>
<clus scale="  140.319">  1  5  2 -1</clus>
<clus scale="  140.319">  1  5  2 -1</clus>
</clustering>
</event>
<event>
 9    2  0.3402837E-005  0.1417742E+03  0.7546771E-02  0.1212227E+00
         -1   -1    0    0    0  501 -0.00000000000E+00  0.00000000000E+00  0.25006238862E+03  0.25006238862E+03  0.00000000000E+00 0.  1.
          2   -1    0    0  502    0  0.00000000000E+00 -0.00000000000E+00 -0.17022506035E+03  0.17022506035E+03  0.00000000000E+00 0. -1.
         23    2    1    2    0    0  0.39075761784E+02  0.49743574847E+02  0.12587388999E+03  0.16671137482E+03  0.89146553016E+02 0.  0.
         24    2    1    2    0    0 -0.85911152194E+02 -0.80130545351E+02 -0.95762529994E+02  0.17881248881E+03  0.94877888014E+02 0.  0.
        -11    1    4    4    0    0  0.10362540070E+02 -0.28970120128E+02  0.40088047061E+01  0.31027739397E+02  0.00000000000E+00 0.  1.
         12    1    4    4    0    0 -0.96273692264E+02 -0.51160425223E+02 -0.99771334700E+02  0.14778474941E+03  0.00000000000E+00 0. -1.
        -13    1    3    3    0    0  0.18973421983E+02  0.22300148719E+02  0.12925096743E+03  0.13252584638E+03  0.00000000000E+00 0.  1.
         13    1    3    3    0    0  0.20102339800E+02  0.27443426127E+02 -0.33770774402E+01  0.34185528445E+02  0.00000000000E+00 0. -1.
         21    1    1    2  502  501  0.46835390411E+02  0.30386970505E+02  0.49725968273E+02  0.74763585335E+02  0.00000000000E+00 0.  1.
<scales pt_clust_5="13000.00000" pt_clust_6="13000.00000" pt_clust_7="13000.00000" pt_clust_8="13000.00000" pt_clust_9="55.82940"></scales>
<clustering>
<clus scale="   55.829">  1  9  2 -1</clus>
<clus scale="   89.147">  7  8 -1 -1</clus>
<clus scale="   94.878">  5  6 -1 -1</clus>
<clus scale="  138.004">  1  7  2 -1</clus>
<clus scale="  141.774">  2  5  1 -1</clus>
</clustering>
</event>
<event>
 9    2  0.3402837E-005  0.9497211E+02  0.7546771E-02  0.1299751E+00
         -1   -1    0    0    0  501 -0.00000000000E+00  0.00000000000E+00  0.31472485298E+03  0.31472485298E+03  0.00000000000E+00 0.  1.
          2   -1    0    0  502    0  0.00000000000E+00 -0.00000000000E+00 -0.60798501951E+02  0.60798501951E+02  0.00000000000E+00 0. -1.
         23    2    1    2    0    0  0.10989832090E+02 -0.64546481831E+00  0.18919881423E+03  0.21100242587E+03  0.92761195446E+02 0.  0.
         24    2    1    2    0    0 -0.76805433218E+01  0.21772989676E+02 -0.13946401959E+02  0.82992330780E+02  0.78486756944E+02 0.  0.
        -11    1    4    4    0    0 -0.10625476072E+02 -0.27615143247E+02 -0.15678826256E+02  0.33486153423E+02  0.00000000000E+00 0.  1.
         12    1    4    4    0    0  0.29449327505E+01  0.49388132923E+02  0.17324242971E+01  0.49506177357E+02  0.00000000000E+00 0. -1.
        -11    1    3    3    0    0  0.31090157943E+02  0.24514592659E+02  0.16763274651E+03  0.17224488636E+03  0.00000000000E+00 0.  1.
         11    1    3    3    0    0 -0.20100325852E+02 -0.25160057478E+02  0.21566067719E+02  0.38757539505E+02  0.00000000000E+00 0. -1.
         21    1    1    2  502  501 -0.33092887685E+01 -0.21127524858E+02  0.78673938756E+02  0.81528598284E+02  0.00000000000E+00 0.  1.
<scales pt_clust_5="13000.00000" pt_clust_6="13000.00000" pt_clust_7="13000.00000" pt_clust_8="13000.00000" pt_clust_9="21.38513"></scales>
<clustering>
<clus scale="   21.385">  1  9  2 -1</clus>
<clus scale="   78.487">  5  6 -1 -1</clus>
<clus scale="   81.088">  2  5  1 -1</clus>
<clus scale="   92.761">  7  8 -1 -1</clus>
<clus scale="   81.088">  2  5  1 -1</clus>
</clustering>
</event>
<event>
 9    2  0.3402837E-005  0.1029332E+03  0.7546771E-02  0.1282947E+00
         -1   -1    0    0    0  501 -0.00000000000E+00  0.00000000000E+00  0.70021595980E+02  0.70021595980E+02  0.00000000000E+00 0.  1.
          2   -1    0    0  502    0  0.00000000000E+00 -0.00000000000E+00 -0.34961863017E+03  0.34961863017E+03  0.00000000000E+00 0. -1.
         23    2    1    2    0    0  0.76141303182E+01  0.31265393541E+02  0.12832415506E+02  0.10372418482E+03  0.97767764706E+02 0.  0.
         24    2    1    2    0    0 -0.28341440854E+02 -0.25311964067E+02 -0.27147573195E+03  0.28584740298E+03  0.81029204361E+02 0.  0.
        -11    1    4    4    0    0 -0.39365667443E+02  0.19044726790E+02 -0.12750782944E+03  0.13479838263E+03  0.00000000000E+00 0.  1.
         12    1    4    4    0    0  0.11024226589E+02 -0.44356690857E+02 -0.14396790251E+03  0.15104902035E+03  0.00000000000E+00 0. -1.
        -11    1    3    3    0    0  0.20375466110E+02  0.53549821983E+02  0.37208800336E+02  0.68317185803E+02  0.00000000000E+00 0.  1.
         11    1    3    3    0    0 -0.12761335792E+02 -0.22284428442E+02 -0.24376384830E+02  0.35406999019E+02  0.00000000000E+00 0. -1.
         21    1    1    2  502  501  0.20727310536E+02 -0.59534294738E+01 -0.20953717748E+02  0.30068638347E+02  0.00000000000E+00 0. -1.
<scales pt_clust_5="13000.00000" pt_clust_6="13000.00000" pt_clust_7="13000.00000" pt_clust_8="13000.00000" pt_clust_9="21.56536"></scales>
<clustering>
<clus scale="   21.565">  2  9  1 -1</clus>
<clus scale="   81.029">  5  6 -1 -1</clus>
<clus scale="   87.192">  2  5  1 -1</clus>
<clus scale="   97.768">  7  8 -1 -1</clus>
<clus scale="   21.565">  2  5  1 -1</clus>
</clustering>
</event>
<event>
 9    2  0.3402837E-005  0.1562682E+03  0.7546771E-02  0.1201674E+00
          2   -1    0    0  502    0  0.00000000000E+00  0.00000000000E+00  0.11241700681E+04  0.11241700681E+04  0.00000000000E+00 0. -1.
         -1   -1    0    0    0  501 -0.00000000000E+00 -0.00000000000E+00 -0.18611334285E+03  0.18611334285E+03  0.00000000000E+00 0.  1.
         23    2    1    2    0    0  0.90977798800E+02 -0.39243396319E+02  0.51945169968E+00  0.14017742226E+03  0.99158639823E+02 0.  0.
         24    2    1    2    0    0  0.49621174373E+02  0.89035358776E+02  0.10000586606E+04  0.10083770963E+04  0.79482623881E+02 0.  0.
        -11    1    4    4    0    0  0.25218855384E+02  0.64266327843E+02  0.31683669679E+03  0.32427094226E+03  0.00000000000E+00 0.  1.
         12    1    4    4    0    0  0.24402318989E+02  0.24769030933E+02  0.68322196385E+03  0.68410615401E+03  0.00000000000E+00 0. -1.
        -13    1    3    3    0    0 -0.36569580474E+01 -0.41665761233E+02 -0.14622527310E+02  0.44308320959E+02  0.00000000000E+00 0.  1.
         13    1    3    3    0    0  0.94634756848E+02  0.24223649144E+01  0.15141979010E+02  0.95869101298E+02  0.00000000000E+00 0. -1.
         21    1    1    2  502  501 -0.14059897317E+03 -0.49791962457E+02 -0.62521387129E+02  0.16172889238E+03  0.00000000000E+00 0.  1.
<scales pt_clust_5="13000.00000" pt_clust_6="13000.00000" pt_clust_7="13000.00000" pt_clust_8="13000.00000" pt_clust_9="120.77793"></scales>
<clustering>
<clus scale="   79.483">  5  6 -1 -1</clus>
<clus scale="   99.159">  7  8 -1 -1</clus>
<clus scale="  129.256">  1  5  2 -1</clus>
<clus scale="  120.778">  2  9  1 -1</clus>
<clus scale="  129.256">  1  5  2 -1</clus>
</clustering>
</event>
<event>
 9    2  0.3402837E-005  0.1150147E+03  0.7546771E-02  0.1255001E+00
         -1   -1    0    0    0  501 -0.00000000000E+00  0.00000000000E+00  0.87667031136E+03  0.87667031136E+03  0.00000000000E+00 0.  1.
          2   -1    0    0  502    0  0.00000000000E+00 -0.00000000000E+00 -0.11459323859E+03  0.11459323859E+03  0.00000000000E+00 0. -1.
         24    2    1    2    0    0 -0.10444132584E+03  0.10726383428E+02  0.64833576505E+03  0.66162261282E+03  0.79888495466E+02 0.  0.
         23    2    1    2    0    0  0.70076943542E+02 -0.47801863020E+01 -0.75781595784E+02  0.13693598394E+03  0.89860921652E+02 0.  0.
        -11    1    3    3    0    0 -0.53690393937E+02  0.45205452426E+02  0.32054878764E+03  0.32814282956E+03  0.00000000000E+00 0.  1.
         12    1    3    3    0    0 -0.50750931901E+02 -0.34479068998E+02  0.32778697741E+03  0.33347978327E+03  0.00000000000E+00 0. -1.
        -11    1    4    4    0    0 -0.81770933217E+01 -0.24659806510E+02  0.32259246418E+00  0.25982205029E+02  0.00000000000E+00 0.  1.
         11    1    4    4    0    0  0.78254036863E+02  0.19879620208E+02 -0.76104188248E+02  0.11095377891E+03  0.00000000000E+00 0. -1.
         21    1    1    2  502  501  0.34364382296E+02 -0.59461971264E+01  0.18952290350E+03  0.19270495319E+03  0.00000000000E+00 0.  1.
<scales pt_clust_5="13000.00000" pt_clust_6="13000.00000" pt_clust_7="13000.00000" pt_clust_8="13000.00000" pt_clust_9="34.87503"></scales>
<clustering>
<clus scale="   34.875">  1  9  2 -1</clus>
<clus scale="   79.888">  5  6 -1 -1</clus>
<clus scale="   89.861">  7  8 -1 -1</clus>
<clus scale="  107.404">  1  5  2 -1</clus>
<clus scale="  115.015">  2  5  1 -1</clus>
</clustering>
</event>
<event>
 9    2  0.3402837E-005  0.9236387E+02  0.7546771E-02  0.1298609E+00
         -1   -1    0    0    0  501 -0.00000000000E+00  0.00000000000E+00  0.81694212161E+02  0.81694212161E+02  0.00000000000E+00 0.  1.
          2   -1    0    0  502    0  0.00000000000E+00 -0.00000000000E+00 -0.52612034863E+03  0.52612034863E+03  0.00000000000E+00 0. -1.
         23    2    1    2    0    0 -0.19181355232E+02 -0.13476295424E+02 -0.21486629273E+02  0.96242351896E+02  0.90837107693E+02 0.  0.
         24    2    1    2    0    0 -0.37497844447E+01  0.17044716658E+02 -0.45950246702E+03  0.46826607967E+03  0.88464800495E+02 0.  0.
        -11    1    4    4    0    0  0.28354644161E+02  0.36096787637E+02 -0.16026301053E+03  0.16670691788E+03  0.00000000000E+00 0.  1.
         12    1    4    4    0    0 -0.32104428606E+02 -0.19052070979E+02 -0.29923945649E+03  0.30155916180E+03  0.00000000000E+00 0. -1.
        -11    1    3    3    0    0  0.18677397627E+02  0.74523789803E+01 -0.43339449530E+02  0.47777515843E+02  0.00000000000E+00 0.  1.
         11    1    3    3    0    0 -0.37858752859E+02 -0.20928674404E+02  0.21852820257E+02  0.48464836052E+02  0.00000000000E+00 0. -1.
         21    1    1    2  502  501  0.22931139677E+02 -0.35684212341E+01  0.36562959824E+02  0.43306129221E+02  0.00000000000E+00 0.  1.
<scales pt_clust_5="13000.00000" pt_clust_6="13000.00000" pt_clust_7="13000.00000" pt_clust_8="13000.00000" pt_clust_9="23.20713"></scales>
<clustering>
<clus scale="   23.207">  1  9  2 -1</clus>
<clus scale="   88.465">  5  6 -1 -1</clus>
<clus scale="   90.032">  2  5  1 -1</clus>
<clus scale="   90.837">  7  8 -1 -1</clus>
<clus scale="   90.032">  2  5  1 -1</clus>
</clustering>
</event>
<event>
 9    2  0.3402837E-005  0.2740630E+03  0.7546771E-02  0.1099603E+00
         -1   -1    0    0    0  501 -0.00000000000E+00  0.00000000000E+00  0.17402566705E+03  0.17402566705E+03  0.00000000000E+00 0.  1.
          2   -1    0    0  502    0  0.00000000000E+00 -0.00000000000E+00 -0.12289983600E+04  0.12289983600E+04  0.00000000000E+00 0. -1.
         23    2    1    2    0    0  0.11059499060E+03 -0.20891796085E+03 -0.19672646432E+03  0.32156585907E+03  0.93943246918E+02 0.  0.
         24    2    1    2    0    0 -0.12930704200E+03  0.23030402821E+03 -0.94797457490E+03  0.98733760238E+03  0.80121719237E+02 0.  0.
        -13    1    4    4    0    0 -0.29432606982E+02  0.28752468459E+02 -0.71845513070E+02  0.82793481292E+02  0.00000000000E+00 0.  1.
         14    1    4    4    0    0 -0.99874435020E+02  0.20155155975E+03 -0.87612906183E+03  0.90454412109E+03  0.00000000000E+00 0. -1.
        -13    1    3    3    0    0  0.54943561419E+02 -0.22098316673E+02 -0.40339190227E+02  0.71654593777E+02  0.00000000000E+00 0.  1.
         13    1    3    3    0    0  0.55651429185E+02 -0.18681964418E+03 -0.15638727409E+03  0.24991126529E+03  0.00000000000E+00 0. -1.
         21    1    1    2  502  501  0.18712051399E+02 -0.21386067356E+02  0.89728346268E+02  0.94120565598E+02  0.00000000000E+00 0.  1.
<scales pt_clust_5="13000.00000" pt_clust_6="13000.00000" pt_clust_7="13000.00000" pt_clust_8="13000.00000" pt_clust_9="28.41663"></scales>
<clustering>
<clus scale="   28.417">  1  9  2 -1</clus>
<clus scale="   80.122">  5  6 -1 -1</clus>
<clus scale="   93.943">  7  8 -1 -1</clus>
<clus scale="  269.638">  2  5  1 -1</clus>
<clus scale="  269.638">  2  5  1 -1</clus>
</clustering>
</event>
<event>
 9    2  0.3402837E-005  0.9871580E+02  0.7546771E-02  0.1291925E+00
         -1   -1    0    0    0  501 -0.00000000000E+00  0.00000000000E+00  0.10919927976E+03  0.10919927976E+03  0.00000000000E+00 0.  1.
          2   -1    0    0  502    0  0.00000000000E+00 -0.00000000000E+00 -0.13945203188E+03  0.13945203188E+03  0.00000000000E+00 0. -1.
         23    2    1    2    0    0 -0.20399301446E+02  0.35398064587E+02 -0.12010348199E+02  0.10074608865E+03  0.91303731783E+02 0.  0.
         24    2    1    2    0    0 -0.10790633458E+02 -0.38645306107E+02 -0.53924066199E+02  0.10040219531E+03  0.74584840635E+02 0.  0.
        -11    1    4    4    0    0 -0.62148373150E+01 -0.30691781643E+02  0.12227494080E+02  0.33617276433E+02  0.00000000000E+00 0.  1.
         12    1    4    4    0    0 -0.45757961431E+01 -0.79535244637E+01 -0.66151560279E+02  0.66784918875E+02  0.00000000000E+00 0. -1.
        -11    1    3    3    0    0 -0.42584376805E+02 -0.89658297663E+01 -0.24025924707E+02  0.49709760705E+02  0.00000000000E+00 0. -1.
         11    1    3    3    0    0  0.22185075359E+02  0.44363894353E+02  0.12015576508E+02  0.51036327941E+02  0.00000000000E+00 0.  1.
         21    1    1    2  502  501  0.31189934904E+02  0.32472415199E+01  0.35681662275E+02  0.47503027688E+02  0.00000000000E+00 0.  1.
<scales pt_clust_5="13000.00000" pt_clust_6="13000.00000" pt_clust_7="13000.00000" pt_clust_8="13000.00000" pt_clust_9="31.35852"></scales>
<clustering>
<clus scale="   31.359">  1  9  2 -1</clus>
<clus scale="   74.585">  5  6 -1 -1</clus>
<clus scale="   83.495">  2  5  1 -1</clus>
<clus scale="   91.304">  7  8 -1 -1</clus>
<clus scale="   83.495">  2  5  1 -1</clus>
</clustering>
</event>
<event>
 9    2  0.3402837E-005  0.3142530E+03  0.7546771E-02  0.1094811E+00
          2   -1    0    0  502    0  0.00000000000E+00  0.00000000000E+00  0.13677670628E+04  0.13677670628E+04  0.00000000000E+00 0. -1.
         -1   -1    0    0    0  501 -0.00000000000E+00 -0.00000000000E+00 -0.54964805377E+03  0.54964805377E+03  0.00000000000E+00 0.  1.
         24    2    1    2    0    0 -0.13208332646E+03 -0.13054743290E+03 -0.39269007803E+03  0.44190141385E+03  0.81133992999E+02 0.  0.
         23    2    1    2    0    0 -0.97100904573E+02  0.29887199159E+03  0.11351405357E+04  0.11812616025E+04  0.89899303347E+02 0.  0.
        -11    1    3    3    0    0 -0.14110153348E+03 -0.13195872317E+03 -0.37973873787E+03  0.42605663522E+03  0.00000000000E+00 0.  1.
         12    1    3    3    0    0  0.90182070267E+01  0.14112902710E+01 -0.12951340155E+02  0.15844778636E+02  0.00000000000E+00 0. -1.
        -13    1    4    4    0    0 -0.73040841483E+02  0.18892305177E+03  0.56732965773E+03  0.60240337363E+03  0.00000000000E+00 0.  1.
         13    1    4    4    0    0 -0.24060063091E+02  0.10994893982E+03  0.56781087797E+03  0.57885822889E+03  0.00000000000E+00 0. -1.
         21    1    1    2  502  501  0.22918423103E+03 -0.16832455870E+03  0.75668551346E+02  0.29425210021E+03  0.00000000000E+00 0.  1.
<scales pt_clust_5="13000.00000" pt_clust_6="13000.00000" pt_clust_7="13000.00000" pt_clust_8="13000.00000" pt_clust_9="301.11965"></scales>
<clustering>
<clus scale="   81.134">  5  6 -1 -1</clus>
<clus scale="   89.899">  7  8 -1 -1</clus>
<clus scale="  202.661">  2  5  1 -1</clus>
<clus scale="  301.120">  2  9  1 -1</clus>
<clus scale="  314.253">  1  5  2 -1</clus>
</clustering>
</event>
<event>
 9    2  0.3402837E-005  0.9781361E+02  0.7546771E-02  0.1293315E+00
          2   -1    0    0  502    0  0.00000000000E+00  0.00000000000E+00  0.64678200207E+03  0.64678200207E+03  0.00000000000E+00 0. -1.
         -1   -1    0    0    0  501 -0.00000000000E+00 -0.00000000000E+00 -0.26391164445E+02  0.26391164445E+02  0.00000000000E+00 0.  1.
         24    2    1    2    0    0 -0.55715012636E+01 -0.39146263224E+01  0.11012628037E+03  0.13671912797E+03  0.80733861541E+02 0.  0.
         23    2    1    2    0    0  0.19945184992E+02 -0.21901609611E+02  0.49130172165E+03  0.50134463872E+03  0.95349746562E+02 0.  0.
        -13    1    3    3    0    0  0.20735980323E+02  0.28279837995E+02  0.72971585568E+02  0.80960375600E+02  0.00000000000E+00 0.  1.
         14    1    3    3    0    0 -0.26307481587E+02 -0.32194464318E+02  0.37154694806E+02  0.55758752374E+02  0.00000000000E+00 0. -1.
        -13    1    4    4    0    0 -0.31837489112E+02  0.15429178110E+02  0.20303021356E+03  0.20608967191E+03  0.00000000000E+00 0.  1.
         13    1    4    4    0    0  0.51782674104E+02 -0.37330787720E+02  0.28827150809E+03  0.29525496681E+03  0.00000000000E+00 0. -1.
         21    1    1    2  502  501 -0.14373683729E+02  0.25816235933E+02  0.18962835599E+02  0.35109399819E+02  0.00000000000E+00 0.  1.
<scales pt_clust_5="13000.00000" pt_clust_6="13000.00000" pt_clust_7="13000.00000" pt_clust_8="13000.00000" pt_clust_9="29.54794"></scales>
<clustering>
<clus scale="   29.548">  2  9  1 -1</clus>
<clus scale="   80.734">  5  6 -1 -1</clus>
<clus scale="   83.629">  2  5  1 -1</clus>
<clus scale="   95.350">  7  8 -1 -1</clus>
<clus scale="   97.814">  1  5  2 -1</clus>
</clustering>
</event>
<event>
 9    2  0.3402837E-005  0.1091581E+03  0.7546771E-02  0.1265992E+00
          2   -1    0    0  502    0  0.00000000000E+00  0.00000000000E+00  0.14187954124E+03  0.14187954124E+03  0.00000000000E+00 0. -1.
         -1   -1    0    0    0  501 -0.00000000000E+00 -0.00000000000E+00 -0.17331895214E+03  0.17331895214E+03  0.00000000000E+00 0.  1.
         23    2    1    2    0    0  0.55902341473E+02  0.59653386817E+02 -0.60691350198E+02  0.13641611360E+03  0.90787211211E+02 0.  0.
         24    2    1    2    0    0 -0.49025745191E+02 -0.27151733952E+02  0.73848390404E+02  0.12317223263E+03  0.81099160147E+02 0.  0.
        -13    1    4    4    0    0 -0.10308571183E+02  0.18487385794E+02 -0.72557602515E+01  0.22376240304E+02  0.00000000000E+00 0.  1.
         14    1    4    4    0    0 -0.38717174008E+02 -0.45639119746E+02  0.81104150656E+02  0.10079599232E+03  0.00000000000E+00 0. -1.
        -11    1    3    3    0    0  0.61342367886E+02  0.80159895318E+02 -0.51026328568E+02  0.11310252483E+03  0.00000000000E+00 0.  1.
         11    1    3    3    0    0 -0.54400264127E+01 -0.20506508501E+02 -0.96650216300E+01  0.23313588771E+02  0.00000000000E+00 0. -1.
         21    1    1    2  502  501 -0.68765962828E+01 -0.32501652865E+02 -0.44596451103E+02  0.55610147153E+02  0.00000000000E+00 0. -1.
<scales pt_clust_5="13000.00000" pt_clust_6="13000.00000" pt_clust_7="13000.00000" pt_clust_8="13000.00000" pt_clust_9="33.22115"></scales>
<clustering>
<clus scale="   33.221">  2  9  1 -1</clus>
<clus scale="   81.099">  5  6 -1 -1</clus>
<clus scale="   90.787">  7  8 -1 -1</clus>
<clus scale="  101.243">  1  5  2 -1</clus>
<clus scale="  101.243">  1  5  2 -1</clus>
</clustering>
</event>
<event>
 9    2  0.3402837E-005  0.9713481E+02  0.7546771E-02  0.1295028E+00
         -1   -1    0    0    0  501 -0.00000000000E+00  0.00000000000E+00  0.50870646447E+03  0.50870646447E+03  0.00000000000E+00 0.  1.
          2   -1    0    0  502    0  0.00000000000E+00 -0.00000000000E+00 -0.36148235905E+02  0.36148235905E+02  0.00000000000E+00 0. -1.
         23    2    1    2    0    0  0.19372093591E+01  0.15631532625E+02  0.34675819656E+03  0.35919198740E+03  0.92355505183E+02 0.  0.
         24    2    1    2    0    0 -0.33962847392E+02 -0.70785658318E+01  0.39615938693E+02  0.93323703492E+02  0.77047452507E+02 0.  0.
        -11    1    4    4    0    0 -0.53693634291E+02 -0.23648074490E+02  0.25870480539E+02  0.64121131882E+02  0.00000000000E+00 0.  1.
         12    1    4    4    0    0  0.19730786899E+02  0.16569508658E+02  0.13745458154E+02  0.29202571611E+02  0.00000000000E+00 0. -1.
        -13    1    3    3    0    0 -0.46156137582E+01 -0.37101457880E+02  0.99600820123E+02  0.10638677284E+03  0.00000000000E+00 0.  1.
         13    1    3    3    0    0  0.65528231173E+01  0.52732990505E+02  0.24715737644E+03  0.25280521455E+03  0.00000000000E+00 0. -1.
         21    1    1    2  502  501  0.32025638033E+02 -0.85529667930E+01  0.86184093315E+02  0.92339009486E+02  0.00000000000E+00 0.  1.
<scales pt_clust_5="13000.00000" pt_clust_6="13000.00000" pt_clust_7="13000.00000" pt_clust_8="13000.00000" pt_clust_9="33.14807"></scales>
<clustering>
<clus scale="   33.148">  1  9  2 -1</clus>
<clus scale="   77.047">  5  6 -1 -1</clus>
<clus scale="   82.716">  2  5  1 -1</clus>
<clus scale="   92.356">  7  8 -1 -1</clus>
<clus scale="   82.716">  2  5  1 -1</clus>
</clustering>
</event>
<event>
 9    2  0.3402837E-005  0.1453535E+03  0.7546771E-02  0.1244894E+00
          2   -1    0    0  502    0  0.00000000000E+00  0.00000000000E+00  0.42257677772E+03  0.42257677772E+03  0.00000000000E+00 0. -1.
         -1   -1    0    0    0  501 -0.00000000000E+00 -0.00000000000E+00 -0.12628696278E+03  0.12628696278E+03  0.00000000000E+00 0.  1.
         23    2    1    2    0    0 -0.10081704890E+03 -0.49117856795E+02 -0.31836220016E+02  0.15137202950E+03  0.96557263869E+02 0.  0.
         24    2    1    2    0    0  0.72182577133E+01  0.47940079684E+01  0.27202269154E+03  0.27970834023E+03  0.64539330072E+02 0.  0.
        -11    1    4    4    0    0  0.33753126532E+02  0.10788950919E+02  0.11463378228E+03  0.11998574520E+03  0.00000000000E+00 0.  1.
         12    1    4    4    0    0 -0.26534868819E+02 -0.59949429507E+01  0.15738890926E+03  0.15972259503E+03  0.00000000000E+00 0. -1.
        -11    1    3    3    0    0 -0.12278509559E+02 -0.16718211004E+02 -0.51094773508E+02  0.55144684749E+02  0.00000000000E+00 0.  1.
         11    1    3    3    0    0 -0.88538539336E+02 -0.32399645791E+02  0.19258553492E+02  0.96227344751E+02  0.00000000000E+00 0. -1.
         21    1    1    2  502  501  0.93598791182E+02  0.44323848827E+02  0.56103343421E+02  0.11778337076E+03  0.00000000000E+00 0. -1.
<scales pt_clust_5="13000.00000" pt_clust_6="13000.00000" pt_clust_7="13000.00000" pt_clust_8="13000.00000" pt_clust_9="108.64769"></scales>
<clustering>
<clus scale="   64.539">  5  6 -1 -1</clus>
<clus scale="   65.118">  1  5  2 -1</clus>
<clus scale="   96.557">  7  8 -1 -1</clus>
<clus scale="  108.648">  1  9  2 -1</clus>
<clus scale="   65.118">  1  5  2 -1</clus>
</clustering>
</event>
<event>
 9    2  0.3402837E-005  0.1678462E+03  0.7546771E-02  0.1181569E+00
         -3   -1    0    0    0  501 -0.00000000000E+00  0.00000000000E+00  0.25897778328E+03  0.25897778328E+03  0.00000000000E+00 0.  1.
          4   -1    0    0  502    0  0.00000000000E+00 -0.00000000000E+00 -0.14038367321E+03  0.14038367321E+03  0.00000000000E+00 0. -1.
         24    2    1    2    0    0  0.87770002959E+02 -0.87874855062E+02  0.80341997546E+02  0.16858673955E+03  0.80876996805E+02 0.  0.
         23    2    1    2    0    0 -0.12122925093E+03  0.93635787527E+02 -0.17595133345E+01  0.17829958167E+03  0.91232959777E+02 0.  0.
        -13    1    3    3    0    0  0.76244195125E+02 -0.19293412164E+02  0.44051148566E+02  0.90143866864E+02  0.00000000000E+00 0.  1.
         14    1    3    3    0    0  0.11525807834E+02 -0.68581442898E+02  0.36290848980E+02  0.78442872690E+02  0.00000000000E+00 0. -1.
        -11    1    4    4    0    0 -0.73462047503E+02  0.10580868964E+03  0.23770643453E+01  0.12883245578E+03  0.00000000000E+00 0.  1.
         11    1    4    4    0    0 -0.47767203426E+02 -0.12172902114E+02 -0.41365776799E+01  0.49467125891E+02  0.00000000000E+00 0. -1.
         21    1    1    2  502  501  0.33459247970E+02 -0.57609324645E+01  0.40011625860E+02  0.52475135270E+02  0.00000000000E+00 0.  1.
<scales pt_clust_5="13000.00000" pt_clust_6="13000.00000" pt_clust_7="13000.00000" pt_clust_8="13000.00000" pt_clust_9="33.95158"></scales>
<clustering>
<clus scale="   33.952">  1  9  2 -1</clus>
<clus scale="   80.877">  5  6 -1 -1</clus>
<clus scale="   91.233">  7  8 -1 -1</clus>
<clus scale="  162.450">  1  5  2 -1</clus>
<clus scale="  167.846">  2  5  1 -1</clus>
</clustering>
</event>
<event>
 9    2  0.3402837E-005  0.9871462E+02  0.7546771E-02  0.1287038E+00
          2   -1    0    0  502    0  0.00000000000E+00  0.00000000000E+00  0.15917349643E+03  0.15917349643E+03  0.00000000000E+00 0. -1.
         -1   -1    0    0    0  501 -0.00000000000E+00 -0.00000000000E+00 -0.12003959763E+03  0.12003959763E+03  0.00000000000E+00 0.  1.
         24    2    1    2    0    0  0.23016542394E+02  0.25101036643E+02 -0.38621737075E+02  0.95691552813E+02  0.80656130831E+02 0.  0.
         23    2    1    2    0    0 -0.70598694073E+02 -0.32284584020E+02  0.59304925427E+02  0.13198424187E+03  0.88748498315E+02 0.  0.
        -13    1    3    3    0    0  0.14361171684E+02  0.29025877436E+02 -0.62279637592E+02  0.70196140005E+02  0.00000000000E+00 0.  1.
         14    1    3    3    0    0  0.86553707105E+01 -0.39248407929E+01  0.23657900516E+02  0.25495412808E+02  0.00000000000E+00 0. -1.
        -11    1    4    4    0    0 -0.28644520168E+02 -0.25915178424E+02 -0.18903456767E+02  0.43005182085E+02  0.00000000000E+00 0.  1.
         11    1    4    4    0    0 -0.41954173904E+02 -0.63694055955E+01  0.78208382193E+02  0.88979059789E+02  0.00000000000E+00 0. -1.
         21    1    1    2  502  501  0.47582151678E+02  0.71835473766E+01  0.18450710449E+02  0.51537299380E+02  0.00000000000E+00 0.  1.
<scales pt_clust_5="13000.00000" pt_clust_6="13000.00000" pt_clust_7="13000.00000" pt_clust_8="13000.00000" pt_clust_9="48.12135"></scales>
<clustering>
<clus scale="   48.121">  1  9  2 -1</clus>
<clus scale="   80.656">  5  6 -1 -1</clus>
<clus scale="   88.748">  7  8 -1 -1</clus>
<clus scale="   91.508">  2  5  1 -1</clus>
<clus scale="   48.121">  1  5  2 -1</clus>
</clustering>
</event>
<event>
 9    2  0.3402837E-005  0.1857383E+03  0.7546771E-02  0.1163273E+00
          2   -1    0    0  502    0  0.00000000000E+00  0.00000000000E+00  0.48601799422E+03  0.48601799422E+03  0.00000000000E+00 0. -1.
         -1   -1    0    0    0  501 -0.00000000000E+00 -0.00000000000E+00 -0.15223627778E+03  0.15223627778E+03  0.00000000000E+00 0.  1.
         23    2    1    2    0    0  0.12485465354E+03 -0.71688657192E+02 -0.39382384211E+02  0.17449647114E+03  0.90388595370E+02 0.  0.
         24    2    1    2    0    0 -0.13275014449E+03  0.99704300626E+02  0.38883674582E+03  0.43069956647E+03  0.82125228978E+02 0.  0.
        -13    1    4    4    0    0 -0.92045977075E+02  0.18015993435E+02  0.20612957111E+03  0.22646509224E+03  0.00000000000E+00 0.  1.
         14    1    4    4    0    0 -0.40704167418E+02  0.81688307192E+02  0.18270717470E+03  0.20423447423E+03  0.00000000000E+00 0. -1.
        -11    1    3    3    0    0  0.45911402650E+02  0.16582183835E+02  0.25211468520E+01  0.48879258336E+02  0.00000000000E+00 0. -1.
         11    1    3    3    0    0  0.78943250891E+02 -0.88270841027E+02 -0.41903531063E+02  0.12561721280E+03  0.00000000000E+00 0.  1.
         21    1    1    2  502  501  0.78954909512E+01 -0.28015643434E+02 -0.15672645165E+02  0.33058234388E+02  0.00000000000E+00 0.  1.
<scales pt_clust_5="13000.00000" pt_clust_6="13000.00000" pt_clust_7="13000.00000" pt_clust_8="13000.00000" pt_clust_9="29.10696"></scales>
<clustering>
<clus scale="   29.107">  2  9  1 -1</clus>
<clus scale="   82.125">  5  6 -1 -1</clus>
<clus scale="   90.389">  7  8 -1 -1</clus>
<clus scale="  181.860">  1  5  2 -1</clus>
<clus scale="  181.860">  1  5  2 -1</clus>
</clustering>
</event>
<event>
 9    2  0.3402837E-005  0.9747392E+02  0.7546771E-02  0.1292297E+00
         -1   -1    0    0    0  501 -0.00000000000E+00  0.00000000000E+00  0.21910380399E+03  0.21910380399E+03  0.00000000000E+00 0.  1.
          2   -1    0    0  502    0  0.00000000000E+00 -0.00000000000E+00 -0.15189159837E+03  0.15189159837E+03  0.00000000000E+00 0. -1.
         23    2    1    2    0    0  0.66674600551E+02 -0.32282604750E+01  0.85787235998E+02  0.14269098959E+03  0.92441033243E+02 0.  0.
         24    2    1    2    0    0 -0.60565366409E+01  0.31241901843E+02 -0.93900955268E+02  0.12764007581E+03  0.80385704479E+02 0.  0.
        -11    1    4    4    0    0 -0.25263484570E+02 -0.18218482855E+02 -0.49352606961E+02  0.58359545784E+02  0.00000000000E+00 0.  1.
         12    1    4    4    0    0  0.19206947929E+02  0.49460384699E+02 -0.44548348307E+02  0.69280530022E+02  0.00000000000E+00 0. -1.
        -13    1    3    3    0    0  0.79929140222E+02  0.21066058374E+02  0.78679542052E+02  0.11411799424E+03  0.00000000000E+00 0. -1.
         13    1    3    3    0    0 -0.13254539671E+02 -0.24294318849E+02  0.71076939454E+01  0.28572995353E+02  0.00000000000E+00 0.  1.
         21    1    1    2  502  501 -0.60618063910E+02 -0.28013641368E+02  0.75325924885E+02  0.10066433696E+03  0.00000000000E+00 0.  1.
<scales pt_clust_5="13000.00000" pt_clust_6="13000.00000" pt_clust_7="13000.00000" pt_clust_8="13000.00000" pt_clust_9="66.77809"></scales>
<clustering>
<clus scale="   66.778">  1  9  2 -1</clus>
<clus scale="   80.386">  5  6 -1 -1</clus>
<clus scale="   86.126">  2  5  1 -1</clus>
<clus scale="   92.441">  7  8 -1 -1</clus>
<clus scale="   86.126">  2  5  1 -1</clus>
</clustering>
</event>
<event>
 9    2  0.3402837E-005  0.9071764E+02  0.7546771E-02  0.1307996E+00
          2   -1    0    0  502    0  0.00000000000E+00  0.00000000000E+00  0.51572322439E+03  0.51572322439E+03  0.00000000000E+00 0. -1.
         -1   -1    0    0    0  501 -0.00000000000E+00 -0.00000000000E+00 -0.28728701589E+02  0.28728701589E+02  0.00000000000E+00 0.  1.
         23    2    1    2    0    0 -0.20071517824E+02 -0.25325169866E+02  0.10710176002E+03  0.14362837941E+03  0.90078267730E+02 0.  0.
         24    2    1    2    0    0  0.31624686929E+01  0.46173516326E+01  0.35665749080E+03  0.36540310695E+03  0.79268806476E+02 0.  0.
        -11    1    4    4    0    0  0.11342949508E+02 -0.27494702798E+02  0.60689341819E+02  0.67585630100E+02  0.00000000000E+00 0.  1.
         12    1    4    4    0    0 -0.81804808147E+01  0.32112054431E+02  0.29596814898E+03  0.29781747685E+03  0.00000000000E+00 0. -1.
        -13    1    3    3    0    0  0.34480431977E+02 -0.46602179458E+01  0.24707541567E+02  0.42674118982E+02  0.00000000000E+00 0.  1.
         13    1    3    3    0    0 -0.54551949801E+02 -0.20664951920E+02  0.82394218450E+02  0.10095426043E+03  0.00000000000E+00 0. -1.
         21    1    1    2  502  501  0.16909049132E+02  0.20707818233E+02  0.23235271984E+02  0.35420439617E+02  0.00000000000E+00 0. -1.
<scales pt_clust_5="13000.00000" pt_clust_6="13000.00000" pt_clust_7="13000.00000" pt_clust_8="13000.00000" pt_clust_9="26.73443"></scales>
<clustering>
<clus scale="   26.734">  2  9  1 -1</clus>
<clus scale="   79.269">  5  6 -1 -1</clus>
<clus scale="   79.995">  1  5  2 -1</clus>
<clus scale="   90.078">  7  8 -1 -1</clus>
<clus scale="   79.995">  1  5  2 -1</clus>
</clustering>
</event>
<event>
 9    2  0.3402837E-005  0.1097926E+03  0.7546771E-02  0.1262084E+00
          2   -1    0    0  502    0  0.00000000000E+00  0.00000000000E+00  0.42076958236E+03  0.42076958236E+03  0.00000000000E+00 0. -1.
         -1   -1    0    0    0  501 -0.00000000000E+00 -0.00000000000E+00 -0.78826811932E+02  0.78826811932E+02  0.00000000000E+00 0.  1.
         24    2    1    2    0    0  0.59132497618E+02  0.12409276094E+02 -0.18530222301E+02  0.10816889132E+03  0.87786659021E+02 0.  0.
         23    2    1    2    0    0 -0.65286130821E+02 -0.39621534833E+02  0.32709465641E+03  0.34792477245E+03  0.90711565620E+02 0.  0.
        -13    1    3    3    0    0  0.77231284267E+02  0.61559044959E+00  0.35020943347E+01  0.77313096470E+02  0.00000000000E+00 0.  1.
         14    1    3    3    0    0 -0.18098786648E+02  0.11793685644E+02 -0.22032316636E+02  0.30855794845E+02  0.00000000000E+00 0. -1.
        -11    1    4    4    0    0 -0.28317817487E+02 -0.66873572470E+02  0.19664783283E+03  0.20962906201E+03  0.00000000000E+00 0. -1.
         11    1    4    4    0    0 -0.36968313333E+02  0.27252037637E+02  0.13044682357E+03  0.13829571044E+03  0.00000000000E+00 0.  1.
         21    1    1    2  502  501  0.61536332023E+01  0.27212258739E+02  0.33378336319E+02  0.43502730520E+02  0.00000000000E+00 0. -1.
<scales pt_clust_5="13000.00000" pt_clust_6="13000.00000" pt_clust_7="13000.00000" pt_clust_8="13000.00000" pt_clust_9="27.89936"></scales>
<clustering>
<clus scale="   27.899">  1  9  2 -1</clus>
<clus scale="   87.787">  5  6 -1 -1</clus>
<clus scale="   90.712">  7  8 -1 -1</clus>
<clus scale="  107.389">  2  5  1 -1</clus>
<clus scale="   27.899">  1  5  2 -1</clus>
</clustering>
</event>
<event>
 9    2  0.3402837E-005  0.1246981E+03  0.7546771E-02  0.1237915E+00
         -1   -1    0    0    0  501 -0.00000000000E+00  0.00000000000E+00  0.32475510253E+02  0.32475510253E+02  0.00000000000E+00 0.  1.
          2   -1    0    0  502    0  0.00000000000E+00 -0.00000000000E+00 -0.74026296246E+03  0.74026296246E+03  0.00000000000E+00 0. -1.
         23    2    1    2    0    0  0.68272284892E+02  0.20942864800E+00 -0.11739403893E+03  0.16417023468E+03  0.92246175176E+02 0.  0.
         24    2    1    2    0    0 -0.88185596274E+02 -0.69610213422E+01 -0.54558493026E+03  0.55907152981E+03  0.84100559531E+02 0.  0.
        -11    1    4    4    0    0 -0.97377048713E+01 -0.27665653012E+02 -0.60340011045E+02  0.67090447798E+02  0.00000000000E+00 0.  1.
         12    1    4    4    0    0 -0.78447891403E+02  0.20704631670E+02 -0.48524491921E+03  0.49198108201E+03  0.00000000000E+00 0. -1.
        -13    1    3    3    0    0 -0.37037421371E+00  0.20691606305E+02 -0.81424470826E+02  0.84013238230E+02  0.00000000000E+00 0. -1.
         13    1    3    3    0    0  0.68642659105E+02 -0.20482177657E+02 -0.35969568105E+02  0.80156996453E+02  0.00000000000E+00 0.  1.
         21    1    1    2  502  501  0.19913311382E+02  0.67515926942E+01 -0.44808483013E+02  0.49496708214E+02  0.00000000000E+00 0.  1.
<scales pt_clust_5="13000.00000" pt_clust_6="13000.00000" pt_clust_7="13000.00000" pt_clust_8="13000.00000" pt_clust_9="21.02674"></scales>
<clustering>
<clus scale="   21.027">  1  9  2 -1</clus>
<clus scale="   84.101">  5  6 -1 -1</clus>
<clus scale="   92.246">  7  8 -1 -1</clus>
<clus scale="  118.799">  2  5  1 -1</clus>
<clus scale="  118.799">  2  5  1 -1</clus>
</clustering>
</event>
<event>
 9    2  0.3402837E-005  0.1065893E+03  0.7546771E-02  0.1269609E+00
          2   -1    0    0  502    0  0.00000000000E+00  0.00000000000E+00  0.97616322245E+02  0.97616322245E+02  0.00000000000E+00 0. -1.
         -1   -1    0    0    0  501 -0.00000000000E+00 -0.00000000000E+00 -0.21526974374E+03  0.21526974374E+03  0.00000000000E+00 0.  1.
         23    2    1    2    0    0  0.61935144802E+02  0.76461676979E+02 -0.60012735641E+02  0.14431891792E+03  0.86856614161E+02 0.  0.
         24    2    1    2    0    0 -0.36175584093E+02 -0.26667947133E+02 -0.58808044567E+01  0.92264750838E+02  0.80363848199E+02 0.  0.
        -13    1    4    4    0    0 -0.32862008669E+02  0.14339099280E+02  0.22459187901E+02  0.42307641190E+02  0.00000000000E+00 0.  1.
         14    1    4    4    0    0 -0.33135754247E+01 -0.41007046412E+02 -0.28339992357E+02  0.49957109648E+02  0.00000000000E+00 0. -1.
        -11    1    3    3    0    0  0.58946093060E+02  0.98235017006E+01 -0.91962167763E+01  0.60462496439E+02  0.00000000000E+00 0. -1.
         11    1    3    3    0    0  0.29890517425E+01  0.66638175278E+02 -0.50816518864E+02  0.83856421485E+02  0.00000000000E+00 0.  1.
         21    1    1    2  502  501 -0.25759560709E+02 -0.49793729846E+02 -0.51759881399E+02  0.76302397226E+02  0.00000000000E+00 0.  1.
<scales pt_clust_5="13000.00000" pt_clust_6="13000.00000" pt_clust_7="13000.00000" pt_clust_8="13000.00000" pt_clust_9="56.06220"></scales>
<clustering>
<clus scale="   56.062">  2  9  1 -1</clus>
<clus scale="   80.364">  5  6 -1 -1</clus>
<clus scale="   86.857">  7  8 -1 -1</clus>
<clus scale="  101.368">  1  5  2 -1</clus>
<clus scale="  101.368">  1  5  2 -1</clus>
</clustering>
</event>
<event>
 9    2  0.3402837E-005  0.1166729E+03  0.7546771E-02  0.1260485E+00
          2   -1    0    0  502    0  0.00000000000E+00  0.00000000000E+00  0.66015427254E+03  0.66015427254E+03  0.00000000000E+00 0. -1.
         -1   -1    0    0    0  501 -0.00000000000E+00 -0.00000000000E+00 -0.55631074354E+02  0.55631074354E+02  0.00000000000E+00 0.  1.
         23    2    1    2    0    0 -0.20770579745E+02 -0.20971590671E+02  0.73403915707E+02  0.13388795119E+03  0.10801214763E+03 0.  0.
         24    2    1    2    0    0  0.46496657408E+02 -0.11872922206E+02  0.53188359846E+03  0.54016997934E+03  0.81120520454E+02 0.  0.
        -11    1    4    4    0    0 -0.51648194168E+01 -0.32732592603E+02  0.11840247766E+03  0.12295220492E+03  0.00000000000E+00 0.  1.
         12    1    4    4    0    0  0.51661476824E+02  0.20859670397E+02  0.41348112080E+03  0.41721777442E+03  0.00000000000E+00 0. -1.
        -13    1    3    3    0    0 -0.44229375088E+02  0.31619843548E+02  0.36803985876E+02  0.65655049334E+02  0.00000000000E+00 0.  1.
         13    1    3    3    0    0  0.23458795343E+02 -0.52591434219E+02  0.36599929832E+02  0.68232901857E+02  0.00000000000E+00 0. -1.
         21    1    1    2  502  501 -0.25726077662E+02  0.32844512876E+02 -0.76431597418E+00  0.41727416370E+02  0.00000000000E+00 0.  1.
<scales pt_clust_5="13000.00000" pt_clust_6="13000.00000" pt_clust_7="13000.00000" pt_clust_8="13000.00000" pt_clust_9="41.72042"></scales>
<clustering>
<clus scale="   41.720">  2  9  1 -1</clus>
<clus scale="   81.121">  5  6 -1 -1</clus>
<clus scale="   92.339">  1  5  2 -1</clus>
<clus scale="  108.012">  7  8 -1 -1</clus>
<clus scale="   92.339">  1  5  2 -1</clus>
</clustering>
</event>
<event>
 9    2  0.3402837E-005  0.9894310E+02  0.7546771E-02  0.1284637E+00
         -1   -1    0    0    0  501 -0.00000000000E+00  0.00000000000E+00  0.57744082007E+02  0.57744082007E+02  0.00000000000E+00 0.  1.
          2   -1    0    0  502    0  0.00000000000E+00 -0.00000000000E+00 -0.38054344964E+03  0.38054344964E+03  0.00000000000E+00 0. -1.
         23    2    1    2    0    0 -0.77513658484E+01 -0.36622115518E+02 -0.75224986677E+02  0.12423262327E+03  0.91507830526E+02 0.  0.
         24    2    1    2    0    0 -0.37837040133E+02 -0.16992123301E+01 -0.23008525909E+03  0.25198481645E+03  0.95512262789E+02 0.  0.
        -11    1    4    4    0    0  0.23813044168E+02 -0.33805266852E+01 -0.15265158690E+02  0.28487086602E+02  0.00000000000E+00 0.  1.
         12    1    4    4    0    0 -0.61650084301E+02  0.16813143552E+01 -0.21482010040E+03  0.22349772985E+03  0.00000000000E+00 0. -1.
        -13    1    3    3    0    0 -0.43237370916E+02 -0.33205020756E+02 -0.69171210630E+02  0.88072129684E+02  0.00000000000E+00 0. -1.
         13    1    3    3    0    0  0.35486005067E+02 -0.34170947612E+01 -0.60537760473E+01  0.36160493590E+02  0.00000000000E+00 0.  1.
         21    1    1    2  502  501  0.45588405981E+02  0.38321327848E+02 -0.17489121872E+02  0.62070091927E+02  0.00000000000E+00 0.  1.
<scales pt_clust_5="13000.00000" pt_clust_6="13000.00000" pt_clust_7="13000.00000" pt_clust_8="13000.00000" pt_clust_9="59.55524"></scales>
<clustering>
<clus scale="   59.555">  1  9  2 -1</clus>
<clus scale="   91.508">  7  8 -1 -1</clus>
<clus scale="   95.083">  1  7  2 -1</clus>
<clus scale="   95.512">  5  6 -1 -1</clus>
<clus scale="   98.943">  2  5  1 -1</clus>
</clustering>
</event>
<event>
 9    2  0.3402837E-005  0.2473843E+03  0.7546771E-02  0.1117101E+00
         -1   -1    0    0    0  501 -0.00000000000E+00  0.00000000000E+00  0.48686854984E+03  0.48686854984E+03  0.00000000000E+00 0.  1.
          2   -1    0    0  502    0  0.00000000000E+00 -0.00000000000E+00 -0.40925166498E+03  0.40925166498E+03  0.00000000000E+00 0. -1.
         23    2    1    2    0    0  0.22218364474E+03 -0.20025295268E+02  0.30537111410E+03  0.38972480909E+03  0.94166475214E+02 0.  0.
         24    2    1    2    0    0 -0.22310164675E+03  0.54351026994E+02 -0.32615907331E+03  0.40217155087E+03  0.51320914859E+02 0.  0.
        -11    1    4    4    0    0 -0.12506338261E+03  0.11177973586E+02 -0.14596148783E+03  0.19253714627E+03  0.00000000000E+00 0.  1.
         12    1    4    4    0    0 -0.98038264139E+02  0.43173053408E+02 -0.18019758549E+03  0.20963440460E+03  0.00000000000E+00 0. -1.
        -11    1    3    3    0    0  0.41249237694E+02  0.12464556554E+02  0.12486242815E+03  0.13208895012E+03  0.00000000000E+00 0. -1.
         11    1    3    3    0    0  0.18093440704E+03 -0.32489851823E+02  0.18050868595E+03  0.25763585897E+03  0.00000000000E+00 0.  1.
         21    1    1    2  502  501  0.91800201602E+00 -0.34325731726E+02  0.98404844075E+02  0.10422385487E+03  0.00000000000E+00 0.  1.
<scales pt_clust_5="13000.00000" pt_clust_6="13000.00000" pt_clust_7="13000.00000" pt_clust_8="13000.00000" pt_clust_9="34.33800"></scales>
<clustering>
<clus scale="   34.338">  1  9  2 -1</clus>
<clus scale="   51.321">  5  6 -1 -1</clus>
<clus scale="   94.166">  7  8 -1 -1</clus>
<clus scale="  234.447">  2  5  1 -1</clus>
<clus scale="  234.447">  2  5  1 -1</clus>
</clustering>
</event>
<event>
 9    2  0.3402837E-005  0.9658459E+02  0.7546771E-02  0.1289719E+00
          2   -1    0    0  502    0  0.00000000000E+00  0.00000000000E+00  0.82023062097E+02  0.82023062097E+02  0.00000000000E+00 0. -1.
         -1   -1    0    0    0  501 -0.00000000000E+00 -0.00000000000E+00 -0.33146123093E+03  0.33146123093E+03  0.00000000000E+00 0.  1.
         23    2    1    2    0    0 -0.24879559210E+01 -0.55617392593E+02 -0.21788865808E+03  0.24301687023E+03  0.92099118396E+02 0.  0.
         24    2    1    2    0    0  0.11392974196E+02  0.23222055204E+02  0.33011185480E+02  0.97688025080E+02  0.88227819696E+02 0.  0.
        -11    1    4    4    0    0  0.47645715725E+02  0.20654544489E+02  0.57314125601E+01  0.52245320603E+02  0.00000000000E+00 0.  1.
         12    1    4    4    0    0 -0.36252741529E+02  0.25675107149E+01  0.27279772920E+02  0.45442704477E+02  0.00000000000E+00 0. -1.
        -11    1    3    3    0    0  0.29986938860E+02 -0.50477008942E+02 -0.19313281741E+03  0.20185992692E+03  0.00000000000E+00 0.  1.
         11    1    3    3    0    0 -0.32474894781E+02 -0.51403836512E+01 -0.24755840674E+02  0.41156943310E+02  0.00000000000E+00 0. -1.
         21    1    1    2  502  501 -0.89050182754E+01  0.32395337390E+02 -0.64560696228E+02  0.72779397720E+02  0.00000000000E+00 0. -1.
<scales pt_clust_5="13000.00000" pt_clust_6="13000.00000" pt_clust_7="13000.00000" pt_clust_8="13000.00000" pt_clust_9="33.59698"></scales>
<clustering>
<clus scale="   33.597">  2  9  1 -1</clus>
<clus scale="   88.228">  5  6 -1 -1</clus>
<clus scale="   92.099">  7  8 -1 -1</clus>
<clus scale="   92.900">  1  5  2 -1</clus>
<clus scale="   92.900">  1  5  2 -1</clus>
</clustering>
</event>
<event>
 9    2  0.3402837E-005  0.1493400E+03  0.7546771E-02  0.1202832E+00
          2   -1    0    0  502    0  0.00000000000E+00  0.00000000000E+00  0.16555604383E+03  0.16555604383E+03  0.00000000000E+00 0. -1.
         -1   -1    0    0    0  501 -0.00000000000E+00 -0.00000000000E+00 -0.41026595463E+03  0.41026595463E+03  0.00000000000E+00 0.  1.
         23    2    1    2    0    0 -0.89421546674E+02 -0.15587679232E+03 -0.25588531105E+03  0.32549077182E+03  0.90405545953E+02 0.  0.
         24    2    1    2    0    0  0.63320189345E+02  0.90365825507E+02  0.73772516256E+02  0.15603718356E+03  0.82035295451E+02 0.  0.
        -13    1    4    4    0    0  0.29187933816E+02  0.78106606309E+01 -0.11699852618E+02  0.32401056329E+02  0.00000000000E+00 0.  1.
         14    1    4    4    0    0  0.34132255529E+02  0.82555164876E+02  0.85472368875E+02  0.12363612723E+03  0.00000000000E+00 0. -1.
        -13    1    3    3    0    0 -0.52689856650E+02 -0.95907129654E+02 -0.22183480726E+03  0.24735618089E+03  0.00000000000E+00 0.  1.
         13    1    3    3    0    0 -0.36731690023E+02 -0.59969662664E+02 -0.34050503787E+02  0.78134590932E+02  0.00000000000E+00 0. -1.
         21    1    1    2  502  501  0.26101357329E+02  0.65510966811E+02 -0.62597116005E+02  0.94294043073E+02  0.00000000000E+00 0. -1.
<scales pt_clust_5="13000.00000" pt_clust_6="13000.00000" pt_clust_7="13000.00000" pt_clust_8="13000.00000" pt_clust_9="70.51927"></scales>
<clustering>
<clus scale="   70.519">  2  9  1 -1</clus>
<clus scale="   82.035">  5  6 -1 -1</clus>
<clus scale="   90.406">  7  8 -1 -1</clus>
<clus scale="  144.427">  1  5  2 -1</clus>
<clus scale="  144.427">  1  5  2 -1</clus>
</clustering>
</event>
<event>
 9    2  0.3402837E-005  0.1254128E+03  0.7546771E-02  0.1238188E+00
         -1   -1    0    0    0  501 -0.00000000000E+00  0.00000000000E+00  0.49488648674E+03  0.49488648674E+03  0.00000000000E+00 0.  1.
          2   -1    0    0  502    0  0.00000000000E+00 -0.00000000000E+00 -0.13493819412E+03  0.13493819412E+03  0.00000000000E+00 0. -1.
         24    2    1    2    0    0 -0.33804422478E+02  0.48039858968E+02  0.33949687007E+03  0.35365325868E+03  0.79761742465E+02 0.  0.
         23    2    1    2    0    0  0.36335711639E+02 -0.78904957250E+02 -0.93701683446E+02  0.15789212000E+03  0.92755807681E+02 0.  0.
        -11    1    3    3    0    0  0.25002722293E+00  0.61619735914E+02  0.23355431035E+03  0.24154641428E+03  0.00000000000E+00 0.  1.
         12    1    3    3    0    0 -0.34054449701E+02 -0.13579876946E+02  0.10594255971E+03  0.11210684440E+03  0.00000000000E+00 0. -1.
        -13    1    4    4    0    0  0.54195915524E+02 -0.96548417287E+01 -0.33751228079E+02  0.64572119565E+02  0.00000000000E+00 0. -1.
         13    1    4    4    0    0 -0.17860203885E+02 -0.69250115521E+02 -0.59950455367E+02  0.93320000435E+02  0.00000000000E+00 0.  1.
         21    1    1    2  502  501 -0.25312891608E+01  0.30865098282E+02  0.11415310599E+03  0.11827930218E+03  0.00000000000E+00 0.  1.
<scales pt_clust_5="13000.00000" pt_clust_6="13000.00000" pt_clust_7="13000.00000" pt_clust_8="13000.00000" pt_clust_9="30.96872"></scales>
<clustering>
<clus scale="   30.969">  1  9  2 -1</clus>
<clus scale="   79.762">  5  6 -1 -1</clus>
<clus scale="   92.756">  7  8 -1 -1</clus>
<clus scale="  116.132">  1  5  2 -1</clus>
<clus scale="  125.413">  2  5  1 -1</clus>
</clustering>
</event>
<event>
 9    2  0.3402837E-005  0.9126216E+02  0.7546771E-02  0.1305815E+00
         -1   -1    0    0    0  501 -0.00000000000E+00  0.00000000000E+00  0.12366791354E+03  0.12366791354E+03  0.00000000000E+00 0.  1.
          2   -1    0    0  502    0  0.00000000000E+00 -0.00000000000E+00 -0.16253806262E+03  0.16253806262E+03  0.00000000000E+00 0. -1.
         23    2    1    2    0    0  0.92676349310E+01 -0.50428176566E+01  0.14987563774E+02  0.92039548702E+02  0.90196077466E+02 0.  0.
         24    2    1    2    0    0 -0.59526511732E+01 -0.16727053620E+02 -0.10789086473E+03  0.13581835195E+03  0.80566479723E+02 0.  0.
        -13    1    4    4    0    0 -0.23432183042E+02 -0.36505457193E+02 -0.27878980739E+02  0.51565038292E+02  0.00000000000E+00 0.  1.
         14    1    4    4    0    0  0.17479531869E+02  0.19778403573E+02 -0.80011883993E+02  0.84253313658E+02  0.00000000000E+00 0. -1.
        -11    1    3    3    0    0  0.97338305884E+01 -0.39349356680E+02  0.33917845058E+02  0.52853945382E+02  0.00000000000E+00 0.  1.
         11    1    3    3    0    0 -0.46619565743E+00  0.34306539023E+02 -0.18930281284E+02  0.39185603321E+02  0.00000000000E+00 0. -1.
         21    1    1    2  502  501 -0.33149837578E+01  0.21769871276E+02  0.54033151886E+02  0.58348075508E+02  0.00000000000E+00 0.  1.
<scales pt_clust_5="13000.00000" pt_clust_6="13000.00000" pt_clust_7="13000.00000" pt_clust_8="13000.00000" pt_clust_9="22.02082"></scales>
<clustering>
<clus scale="   22.021">  1  9  2 -1</clus>
<clus scale="   80.566">  5  6 -1 -1</clus>
<clus scale="   81.758">  2  5  1 -1</clus>
<clus scale="   90.196">  7  8 -1 -1</clus>
<clus scale="   81.758">  2  5  1 -1</clus>
</clustering>
</event>
<event>
 9    2  0.3402837E-005  0.1604499E+03  0.7546771E-02  0.1197194E+00
         -3   -1    0    0    0  501 -0.00000000000E+00  0.00000000000E+00  0.54748761164E+03  0.54748761164E+03  0.00000000000E+00 0.  1.
          4   -1    0    0  502    0  0.00000000000E+00 -0.00000000000E+00 -0.39652821950E+03  0.39652821950E+03  0.00000000000E+00 0. -1.
         23    2    1    2    0    0 -0.58247207442E+02  0.73740885656E+02  0.37136863686E+03  0.39400424847E+03  0.92164136047E+02 0.  0.
         24    2    1    2    0    0 -0.10981306319E+03 -0.83484697859E+02 -0.31762972247E+03  0.35561246298E+03  0.80888686551E+02 0.  0.
        -13    1    4    4    0    0 -0.85998326121E+02 -0.76255829401E+02 -0.16571930709E+03  0.20167685132E+03  0.00000000000E+00 0.  1.
         14    1    4    4    0    0 -0.23814737070E+02 -0.72288684571E+01 -0.15191041537E+03  0.15393561167E+03  0.00000000000E+00 0. -1.
        -13    1    3    3    0    0  0.97418782456E+01  0.24185066147E+02  0.20436802304E+02  0.33128303680E+02  0.00000000000E+00 0. -1.
         13    1    3    3    0    0 -0.67989085687E+02  0.49555819509E+02  0.35093183456E+03  0.36087594479E+03  0.00000000000E+00 0.  1.
         21    1    1    2  502  501  0.16806027063E+03  0.97438122022E+01  0.97220477749E+02  0.19439911969E+03  0.00000000000E+00 0.  1.
<scales pt_clust_5="13000.00000" pt_clust_6="13000.00000" pt_clust_7="13000.00000" pt_clust_8="13000.00000" pt_clust_9="138.56840"></scales>
<clustering>
<clus scale="   80.889">  5  6 -1 -1</clus>
<clus scale="   92.164">  7  8 -1 -1</clus>
<clus scale="  131.623">  1  7  2 -1</clus>
<clus scale="  138.568">  1  9  2 -1</clus>
<clus scale="  160.450">  2  5  1 -1</clus>
</clustering>
</event>
<event>
 9    2  0.3402837E-005  0.1971209E+03  0.7546771E-02  0.1172554E+00
          2   -1    0    0  502    0  0.00000000000E+00  0.00000000000E+00  0.12056017754E+04  0.12056017754E+04  0.00000000000E+00 0. -1.
         -1   -1    0    0    0  501 -0.00000000000E+00 -0.00000000000E+00 -0.68427629104E+02  0.68427629104E+02  0.00000000000E+00 0.  1.
         24    2    1    2    0    0  0.17321047374E+03  0.13410548151E+03  0.28228347974E+03  0.36723118518E+03  0.84785800981E+02 0.  0.
         23    2    1    2    0    0 -0.79153060227E+02 -0.22751233183E+02  0.60617481176E+03  0.61851686008E+03  0.91281861539E+02 0.  0.
        -11    1    3    3    0    0  0.17137287506E+03  0.13977378160E+03  0.28495555683E+03  0.36070076476E+03  0.00000000000E+00 0.  1.
         12    1    3    3    0    0  0.18375986797E+01 -0.56683000868E+01 -0.26720770963E+01  0.65304204145E+01  0.00000000000E+00 0. -1.
        -11    1    4    4    0    0  0.14109777265E+02 -0.23437040013E+02  0.93175861510E+02  0.97108814364E+02  0.00000000000E+00 0.  1.
         11    1    4    4    0    0 -0.93262837492E+02  0.68580683009E+00  0.51299895025E+03  0.52140804572E+03  0.00000000000E+00 0. -1.
         21    1    1    2  502  501 -0.94057413514E+02 -0.11135424833E+03  0.24871585479E+03  0.28828135923E+03  0.00000000000E+00 0. -1.
<scales pt_clust_5="13000.00000" pt_clust_6="13000.00000" pt_clust_7="13000.00000" pt_clust_8="13000.00000" pt_clust_9="177.95515"></scales>
<clustering>
<clus scale="   84.786">  5  6 -1 -1</clus>
<clus scale="   91.282">  7  8 -1 -1</clus>
<clus scale="  122.944">  1  7  2 -1</clus>
<clus scale="  177.955">  2  9  1 -1</clus>
<clus scale="  122.944">  1  5  2 -1</clus>
</clustering>
</event>
<event>
 9    2  0.3402837E-005  0.1301928E+03  0.7546771E-02  0.1231363E+00
          2   -1    0    0  502    0  0.00000000000E+00  0.00000000000E+00  0.44554946018E+03  0.44554946018E+03  0.00000000000E+00 0. -1.
         -1   -1    0    0    0  501 -0.00000000000E+00 -0.00000000000E+00 -0.12272976424E+03  0.12272976424E+03  0.00000000000E+00 0.  1.
         24    2    1    2    0    0 -0.47182599092E+02 -0.41125776338E+02 -0.33386142363E+02  0.10580626603E+03  0.78503530443E+02 0.  0.
         23    2    1    2    0    0  0.85057966686E+02  0.41449988129E+02  0.38969313129E+03  0.41191559122E+03  0.94131602025E+02 0.  0.
        -11    1    3    3    0    0 -0.24161748031E+02  0.18807708417E+02 -0.27807754827E+02  0.41361711671E+02  0.00000000000E+00 0.  1.
         12    1    3    3    0    0 -0.23020851061E+02 -0.59933484755E+02 -0.55783875360E+01  0.64444554355E+02  0.00000000000E+00 0. -1.
        -11    1    4    4    0    0  0.63312950756E+02  0.22488490299E+02  0.37211352945E+03  0.37813058687E+03  0.00000000000E+00 0. -1.
         11    1    4    4    0    0  0.21745015929E+02  0.18961497830E+02  0.17579601844E+02  0.33785004347E+02  0.00000000000E+00 0.  1.
         21    1    1    2  502  501 -0.37875367594E+02 -0.32421179141E+00 -0.33487292996E+02  0.50557367177E+02  0.00000000000E+00 0.  1.
<scales pt_clust_5="13000.00000" pt_clust_6="13000.00000" pt_clust_7="13000.00000" pt_clust_8="13000.00000" pt_clust_9="37.87676"></scales>
<clustering>
<clus scale="   37.877">  2  9  1 -1</clus>
<clus scale="   78.504">  5  6 -1 -1</clus>
<clus scale="   94.132">  7  8 -1 -1</clus>
<clus scale="  119.383">  2  5  1 -1</clus>
<clus scale="  130.193">  1  5  2 -1</clus>
</clustering>
</event>
<event>
 9    2  0.3402837E-005  0.1401046E+03  0.7546771E-02  0.1234443E+00
         -1   -1    0    0    0  501 -0.00000000000E+00  0.00000000000E+00  0.58635927803E+02  0.58635927803E+02  0.00000000000E+00 0.  1.
          2   -1    0    0  502    0  0.00000000000E+00 -0.00000000000E+00 -0.59959392046E+03  0.59959392046E+03  0.00000000000E+00 0. -1.
         23    2    1    2    0    0  0.81215164088E+02  0.62611334688E+01 -0.30153821829E+03  0.32518281268E+03  0.90462477890E+02 0.  0.
         24    2    1    2    0    0  0.29557940146E+02  0.23276112361E+02 -0.18594473968E+03  0.20654522196E+03  0.81670271630E+02 0.  0.
        -13    1    4    4    0    0 -0.58725607346E+01 -0.21213592743E+02 -0.10703873705E+03  0.10927851901E+03  0.00000000000E+00 0.  1.
         14    1    4    4    0    0  0.35430500880E+02  0.44489705104E+02 -0.78906002628E+02  0.97266702955E+02  0.00000000000E+00 0. -1.
        -11    1    3    3    0    0  0.49479891446E+02 -0.30874004727E+02 -0.23797682444E+03  0.24501924985E+03  0.00000000000E+00 0. -1.
         11    1    3    3    0    0  0.31735272643E+02  0.37135138196E+02 -0.63561393848E+02  0.80163562835E+02  0.00000000000E+00 0.  1.
         21    1    1    2  502  501 -0.11077310423E+03 -0.29537245830E+02 -0.53475034684E+02  0.12650181361E+03  0.00000000000E+00 0.  1.
<scales pt_clust_5="13000.00000" pt_clust_6="13000.00000" pt_clust_7="13000.00000" pt_clust_8="13000.00000" pt_clust_9="106.98519"></scales>
<clustering>
<clus scale="   81.670">  5  6 -1 -1</clus>
<clus scale="   89.919">  2  5  1 -1</clus>
<clus scale="   90.462">  7  8 -1 -1</clus>
<clus scale="  106.985">  1  9  2 -1</clus>
<clus scale="   89.919">  2  5  1 -1</clus>
</clustering>
</event>
<event>
 9    2  0.3402837E-005  0.3093409E+03  0.7546771E-02  0.1117984E+00
         -1   -1    0    0    0  501 -0.00000000000E+00  0.00000000000E+00  0.22904316088E+03  0.22904316088E+03  0.00000000000E+00 0.  1.
          2   -1    0    0  502    0  0.00000000000E+00 -0.00000000000E+00 -0.21603733367E+04  0.21603733367E+04  0.00000000000E+00 0. -1.
         23    2    1    2    0    0  0.12728615787E+03 -0.22959552820E+03 -0.13412722851E+04  0.13697598763E+04  0.91186092060E+02 0.  0.
         24    2    1    2    0    0  0.84069565209E+02  0.18185663591E+02 -0.69348341723E+03  0.70333050466E+03  0.79725395398E+02 0.  0.
        -13    1    4    4    0    0  0.11993227541E+02  0.21196985375E+02 -0.47967864307E+02  0.53796521281E+02  0.00000000000E+00 0.  1.
         14    1    4    4    0    0  0.72076337668E+02 -0.30113217840E+01 -0.64551555292E+03  0.64953398338E+03  0.00000000000E+00 0. -1.
        -13    1    3    3    0    0  0.21044281711E+02 -0.11972035208E+03 -0.70389834316E+03  0.71431694786E+03  0.00000000000E+00 0.  1.
         13    1    3    3    0    0  0.10624187616E+03 -0.10987517612E+03 -0.63737394193E+03  0.65544292843E+03  0.00000000000E+00 0. -1.
         21    1    1    2  502  501 -0.21135572308E+03  0.21140986461E+03  0.10342552649E+03  0.31632611663E+03  0.00000000000E+00 0.  1.
<scales pt_clust_5="13000.00000" pt_clust_6="13000.00000" pt_clust_7="13000.00000" pt_clust_8="13000.00000" pt_clust_9="295.59585"></scales>
<clustering>
<clus scale="   79.725">  5  6 -1 -1</clus>
<clus scale="   91.186">  7  8 -1 -1</clus>
<clus scale="  117.280">  2  5  1 -1</clus>
<clus scale="  295.596">  1  9  2 -1</clus>
<clus scale="  117.280">  2  5  1 -1</clus>
</clustering>
</event>
<event>
 9    2  0.3402837E-005  0.9398760E+02  0.7546771E-02  0.1299425E+00
         -1   -1    0    0    0  501 -0.00000000000E+00  0.00000000000E+00  0.59428997758E+02  0.59428997758E+02  0.00000000000E+00 0.  1.
          2   -1    0    0  502    0  0.00000000000E+00 -0.00000000000E+00 -0.72597579938E+03  0.72597579938E+03  0.00000000000E+00 0. -1.
         23    2    1    2    0    0 -0.74662637044E+01  0.10606916011E+02 -0.81328038953E+02  0.12326439349E+03  0.91714824437E+02 0.  0.
         24    2    1    2    0    0  0.34363207599E+01  0.24504132742E+02 -0.61192676805E+03  0.61784205451E+03  0.81622141884E+02 0.  0.
        -13    1    4    4    0    0  0.33830069054E+02  0.11236632821E+02 -0.13070450510E+03  0.13547842317E+03  0.00000000000E+00 0.  1.
         14    1    4    4    0    0 -0.30393748294E+02  0.13267499921E+02 -0.48122226295E+03  0.48236363135E+03  0.00000000000E+00 0. -1.
        -13    1    3    3    0    0 -0.44922887095E+02 -0.14554270970E+02 -0.36771314185E+02  0.59849996953E+02  0.00000000000E+00 0. -1.
         13    1    3    3    0    0  0.37456623390E+02  0.25161186981E+02 -0.44556724768E+02  0.63414396537E+02  0.00000000000E+00 0.  1.
         21    1    1    2  502  501  0.40299429445E+01 -0.35111048753E+02  0.26708005382E+02  0.44298349136E+02  0.00000000000E+00 0.  1.
<scales pt_clust_5="13000.00000" pt_clust_6="13000.00000" pt_clust_7="13000.00000" pt_clust_8="13000.00000" pt_clust_9="35.34156"></scales>
<clustering>
<clus scale="   35.342">  1  9  2 -1</clus>
<clus scale="   81.622">  5  6 -1 -1</clus>
<clus scale="   84.168">  2  5  1 -1</clus>
<clus scale="   91.715">  7  8 -1 -1</clus>
<clus scale="   84.168">  2  5  1 -1</clus>
</clustering>
</event>
<event>
 9    2  0.3402837E-005  0.2339659E+03  0.7546771E-02  0.1124632E+00
          2   -1    0    0  502    0  0.00000000000E+00  0.00000000000E+00  0.15383918532E+03  0.15383918532E+03  0.00000000000E+00 0. -1.
         -1   -1    0    0    0  501 -0.00000000000E+00 -0.00000000000E+00 -0.10645159698E+04  0.10645159698E+04  0.00000000000E+00 0.  1.
         24    2    1    2    0    0 -0.75133518743E+02 -0.19535795758E+03 -0.83768941890E+03  0.86711211195E+03  0.79687357410E+02 0.  0.
         23    2    1    2    0    0  0.70141515986E+02  0.25614782170E+03 -0.46291424782E+02  0.28466225823E+03  0.91423008187E+02 0.  0.
        -13    1    3    3    0    0 -0.91345949513E+02 -0.14926773617E+03 -0.66563802264E+03  0.68825788535E+03  0.00000000000E+00 0.  1.
         14    1    3    3    0    0  0.16212430770E+02 -0.46090221415E+02 -0.17205139626E+03  0.17885422661E+03  0.00000000000E+00 0. -1.
        -13    1    4    4    0    0  0.39473829135E+02  0.10462517522E+03  0.24742599525E+02  0.11452862833E+03  0.00000000000E+00 0.  1.
         13    1    4    4    0    0  0.30667686851E+02  0.15152264648E+03 -0.71034024307E+02  0.17013362989E+03  0.00000000000E+00 0. -1.
         21    1    1    2  502  501  0.49920027567E+01 -0.60789864115E+02 -0.26695940818E+02  0.66580784967E+02  0.00000000000E+00 0.  1.
<scales pt_clust_5="13000.00000" pt_clust_6="13000.00000" pt_clust_7="13000.00000" pt_clust_8="13000.00000" pt_clust_9="60.99449"></scales>
<clustering>
<clus scale="   60.994">  1  9  2 -1</clus>
<clus scale="   79.687">  5  6 -1 -1</clus>
<clus scale="   91.423">  7  8 -1 -1</clus>
<clus scale="  229.634">  2  5  1 -1</clus>
<clus scale="   60.994">  1  5  2 -1</clus>
</clustering>
</event>
<event>
 9    2  0.3402837E-005  0.1538749E+03  0.7546771E-02  0.1196145E+00
         -3   -1    0    0    0  501 -0.00000000000E+00  0.00000000000E+00  0.21098257016E+03  0.21098257016E+03  0.00000000000E+00 0.  1.
          4   -1    0    0  502    0  0.00000000000E+00 -0.00000000000E+00 -0.17779981416E+03  0.17779981416E+03  0.00000000000E+00 0. -1.
         24    2    1    2    0    0  0.39078524017E+02  0.14446876591E+03  0.38820363655E+02  0.17334509210E+03  0.78378217356E+02 0.  0.
         23    2    1    2    0    0 -0.12912763393E+00 -0.12322474809E+03 -0.47185986160E+02  0.15465381150E+03  0.80665537284E+02 0.  0.
        -13    1    3    3    0    0  0.33196741074E+02  0.73779517275E+02  0.58375491890E+02  0.99765419062E+02  0.00000000000E+00 0.  1.
         14    1    3    3    0    0  0.58817829425E+01  0.70689248638E+02 -0.19555128234E+02  0.73579673034E+02  0.00000000000E+00 0. -1.
        -13    1    4    4    0    0 -0.70219906136E+01 -0.31423390097E+02  0.22425463938E+02  0.39238236838E+02  0.00000000000E+00 0.  1.
         13    1    4    4    0    0  0.68928629797E+01 -0.91801357998E+02 -0.69611450098E+02  0.11541557466E+03  0.00000000000E+00 0. -1.
         21    1    1    2  502  501 -0.38949396383E+02 -0.21244017818E+02  0.41548378503E+02  0.60783480715E+02  0.00000000000E+00 0.  1.
<scales pt_clust_5="13000.00000" pt_clust_6="13000.00000" pt_clust_7="13000.00000" pt_clust_8="13000.00000" pt_clust_9="44.36625"></scales>
<clustering>
<clus scale="   44.366">  1  9  2 -1</clus>
<clus scale="   78.378">  5  6 -1 -1</clus>
<clus scale="   80.666">  7  8 -1 -1</clus>
<clus scale="  152.688">  1  5  2 -1</clus>
<clus scale="  153.875">  2  5  1 -1</clus>
</clustering>
</event>
<event>
 9    2  0.3402837E-005  0.9835453E+02  0.7546771E-02  0.1289537E+00
         -1   -1    0    0    0  501 -0.00000000000E+00  0.00000000000E+00  0.54734229520E+02  0.54734229520E+02  0.00000000000E+00 0.  1.
          2   -1    0    0  502    0  0.00000000000E+00 -0.00000000000E+00 -0.71356658392E+03  0.71356658392E+03  0.00000000000E+00 0. -1.
         23    2    1    2    0    0 -0.29008414803E+02  0.27095383562E+02 -0.11476430727E+02  0.10087703592E+03  0.92026191781E+02 0.  0.
         24    2    1    2    0    0 -0.28172139399E+02 -0.11705895688E+02 -0.51736616535E+03  0.52458194407E+03  0.81165075984E+02 0.  0.
        -13    1    4    4    0    0 -0.30670060418E+02 -0.82814628090E+01 -0.66528237605E+02  0.73724091253E+02  0.00000000000E+00 0.  1.
         14    1    4    4    0    0  0.24979210186E+01 -0.34244328792E+01 -0.45083792775E+03  0.45085785282E+03  0.00000000000E+00 0. -1.
        -11    1    3    3    0    0 -0.59132989443E+02  0.32569710253E+02  0.17322641366E+01  0.67531453453E+02  0.00000000000E+00 0.  1.
         11    1    3    3    0    0  0.30124574640E+02 -0.54743266903E+01 -0.13208694864E+02  0.33345582466E+02  0.00000000000E+00 0. -1.
         21    1    1    2  502  501  0.57180554202E+02 -0.15389487874E+02 -0.12998975832E+03  0.14284183345E+03  0.00000000000E+00 0.  1.
<scales pt_clust_5="13000.00000" pt_clust_6="13000.00000" pt_clust_7="13000.00000" pt_clust_8="13000.00000" pt_clust_9="59.21530"></scales>
<clustering>
<clus scale="   59.215">  2  9  1 -1</clus>
<clus scale="   81.165">  5  6 -1 -1</clus>
<clus scale="   88.275">  2  5  1 -1</clus>
<clus scale="   92.026">  7  8 -1 -1</clus>
<clus scale="   59.215">  2  5  1 -1</clus>
</clustering>
</event>
<event>
 9    2  0.3402837E-005  0.9661891E+02  0.7546771E-02  0.1293187E+00
          2   -1    0    0  502    0  0.00000000000E+00  0.00000000000E+00  0.55561512562E+03  0.55561512562E+03  0.00000000000E+00 0. -1.
         -1   -1    0    0    0  501 -0.00000000000E+00 -0.00000000000E+00 -0.19157366162E+02  0.19157366162E+02  0.00000000000E+00 0.  1.
         24    2    1    2    0    0  0.28753114304E+02 -0.33393462128E+02  0.23107373192E+03  0.24856905053E+03  0.80309640806E+02 0.  0.
         23    2    1    2    0    0 -0.13820460155E+02  0.18823163859E+02  0.25657394594E+03  0.27312141211E+03  0.90663109369E+02 0.  0.
        -13    1    3    3    0    0  0.13776161196E+02  0.24949193533E+02  0.47806779769E+02  0.55657282247E+02  0.00000000000E+00 0.  1.
         14    1    3    3    0    0  0.14976953108E+02 -0.58342655662E+02  0.18326695215E+03  0.19291176829E+03  0.00000000000E+00 0. -1.
        -13    1    4    4    0    0  0.29225030029E+02 -0.81939703766E+01  0.17036268198E+03  0.17304533205E+03  0.00000000000E+00 0. -1.
         13    1    4    4    0    0 -0.43045490185E+02  0.27017134236E+02  0.86211263959E+02  0.10007608006E+03  0.00000000000E+00 0.  1.
         21    1    1    2  502  501 -0.14932654149E+02  0.14570298269E+02  0.48810081595E+02  0.53082029133E+02  0.00000000000E+00 0.  1.
<scales pt_clust_5="13000.00000" pt_clust_6="13000.00000" pt_clust_7="13000.00000" pt_clust_8="13000.00000" pt_clust_9="20.86331"></scales>
<clustering>
<clus scale="   20.863">  2  9  1 -1</clus>
<clus scale="   80.310">  5  6 -1 -1</clus>
<clus scale="   86.977">  2  5  1 -1</clus>
<clus scale="   90.663">  7  8 -1 -1</clus>
<clus scale="   96.619">  1  5  2 -1</clus>
</clustering>
</event>
<event>
 9    2  0.3402837E-005  0.2568993E+03  0.7546771E-02  0.1109501E+00
         -1   -1    0    0    0  501 -0.00000000000E+00  0.00000000000E+00  0.14734206469E+03  0.14734206469E+03  0.00000000000E+00 0.  1.
          2   -1    0    0  502    0  0.00000000000E+00 -0.00000000000E+00 -0.13391280169E+04  0.13391280169E+04  0.00000000000E+00 0. -1.
         24    2    1    2    0    0 -0.27281944889E+02 -0.21847087492E+03 -0.87573465522E+02  0.25084108965E+03  0.82330508845E+02 0.  0.
         23    2    1    2    0    0  0.91855252874E+02  0.22693874341E+03 -0.11342027344E+04  0.11639293974E+04  0.91527147611E+02 0.  0.
        -13    1    3    3    0    0 -0.22158465211E+02 -0.19594986234E+03 -0.10357364731E+03  0.22274390351E+03  0.00000000000E+00 0.  1.
         14    1    3    3    0    0 -0.51234796774E+01 -0.22521012584E+02  0.16000181792E+02  0.28097186144E+02  0.00000000000E+00 0. -1.
        -11    1    4    4    0    0  0.64465105346E+02  0.51312051609E+02 -0.30867883408E+03  0.31948599196E+03  0.00000000000E+00 0.  1.
         11    1    4    4    0    0  0.27390147527E+02  0.17562669181E+03 -0.82552390030E+03  0.84444340546E+03  0.00000000000E+00 0. -1.
         21    1    1    2  502  501 -0.64573307985E+02 -0.84678684909E+01  0.29990247682E+02  0.71699594538E+02  0.00000000000E+00 0.  1.
<scales pt_clust_5="13000.00000" pt_clust_6="13000.00000" pt_clust_7="13000.00000" pt_clust_8="13000.00000" pt_clust_9="65.12616"></scales>
<clustering>
<clus scale="   65.126">  1  9  2 -1</clus>
<clus scale="   82.331">  5  6 -1 -1</clus>
<clus scale="   91.527">  7  8 -1 -1</clus>
<clus scale="  253.768">  1  5  2 -1</clus>
<clus scale="  256.899">  2  5  1 -1</clus>
</clustering>
</event>
<event>
 9    2  0.3402837E-005  0.9603244E+02  0.7546771E-02  0.1296594E+00
         -1   -1    0    0    0  501 -0.00000000000E+00  0.00000000000E+00  0.48098956245E+02  0.48098956245E+02  0.00000000000E+00 0.  1.
          2   -1    0    0  502    0  0.00000000000E+00 -0.00000000000E+00 -0.51485113422E+03  0.51485113422E+03  0.00000000000E+00 0. -1.
         23    2    1    2    0    0  0.37703327195E+01  0.18144270985E+02 -0.21939178535E+02  0.98744208684E+02  0.94475717597E+02 0.  0.
         24    2    1    2    0    0 -0.31465634147E+02  0.15816796561E+01 -0.39052357224E+03  0.40014743382E+03  0.81343226346E+02 0.  0.
        -13    1    4    4    0    0  0.78651135392E+01 -0.33304290466E+02 -0.17395765609E+03  0.17729157308E+03  0.00000000000E+00 0.  1.
         14    1    4    4    0    0 -0.39330747686E+02  0.34885970122E+02 -0.21656591615E+03  0.22285586073E+03  0.00000000000E+00 0. -1.
        -13    1    3    3    0    0  0.64350107780E+01  0.52795679659E+02 -0.32612025777E+02  0.62388599757E+02  0.00000000000E+00 0. -1.
         13    1    3    3    0    0 -0.26646780585E+01 -0.34651408674E+02  0.10672847242E+02  0.36355608927E+02  0.00000000000E+00 0.  1.
         21    1    1    2  502  501  0.27695301427E+02 -0.19725950641E+02 -0.54289427197E+02  0.64058447962E+02  0.00000000000E+00 0.  1.
<scales pt_clust_5="13000.00000" pt_clust_6="13000.00000" pt_clust_7="13000.00000" pt_clust_8="13000.00000" pt_clust_9="34.00210"></scales>
<clustering>
<clus scale="   34.002">  2  9  1 -1</clus>
<clus scale="   81.343">  5  6 -1 -1</clus>
<clus scale="   83.146">  2  5  1 -1</clus>
<clus scale="   94.476">  7  8 -1 -1</clus>
<clus scale="   34.002">  2  5  1 -1</clus>
</clustering>
</event>
<event>
 9    2  0.3402837E-005  0.1292309E+03  0.7546771E-02  0.1251377E+00
         -1   -1    0    0    0  501 -0.00000000000E+00  0.00000000000E+00  0.10907620352E+03  0.10907620352E+03  0.00000000000E+00 0.  1.
          2   -1    0    0  502    0  0.00000000000E+00 -0.00000000000E+00 -0.93666712533E+03  0.93666712533E+03  0.00000000000E+00 0. -1.
         23    2    1    2    0    0  0.25853227662E+02  0.92394998512E+02 -0.52624908364E+02  0.14105161664E+03  0.88999732846E+02 0.  0.
         24    2    1    2    0    0 -0.10396372569E+02 -0.64643656962E+00 -0.80331639429E+03  0.80742683118E+03  0.80699169351E+02 0.  0.
        -13    1    4    4    0    0 -0.34645549073E+02 -0.11314927593E+02 -0.18571521014E+03  0.18925771037E+03  0.00000000000E+00 0.  1.
         14    1    4    4    0    0  0.24249176504E+02  0.10668491024E+02 -0.61760118415E+03  0.61816912081E+03  0.00000000000E+00 0. -1.
        -11    1    3    3    0    0 -0.26683539576E+02  0.41006287541E+02 -0.46183715122E+02  0.67278989623E+02  0.00000000000E+00 0.  1.
         11    1    3    3    0    0  0.52536767238E+02  0.51388710971E+02 -0.64411932420E+01  0.73772627020E+02  0.00000000000E+00 0. -1.
         21    1    1    2  502  501 -0.15456855093E+02 -0.91748561942E+02  0.28350380848E+02  0.97264881031E+02  0.00000000000E+00 0.  1.
<scales pt_clust_5="13000.00000" pt_clust_6="13000.00000" pt_clust_7="13000.00000" pt_clust_8="13000.00000" pt_clust_9="93.69985"></scales>
<clustering>
<clus scale="   80.699">  5  6 -1 -1</clus>
<clus scale="   81.369">  2  5  1 -1</clus>
<clus scale="   89.000">  7  8 -1 -1</clus>
<clus scale="   93.700">  1  9  2 -1</clus>
<clus scale="   81.369">  2  5  1 -1</clus>
</clustering>
</event>
<event>
 9    2  0.3402837E-005  0.1026802E+03  0.7546771E-02  0.1279510E+00
         -1   -1    0    0    0  501 -0.00000000000E+00  0.00000000000E+00  0.96937788407E+02  0.96937788407E+02  0.00000000000E+00 0.  1.
          2   -1    0    0  502    0  0.00000000000E+00 -0.00000000000E+00 -0.14465933471E+03  0.14465933471E+03  0.00000000000E+00 0. -1.
         23    2    1    2    0    0 -0.38405854379E+02 -0.15137390341E+02  0.21986707680E+02  0.99002352185E+02  0.87257665490E+02 0.  0.
         24    2    1    2    0    0  0.59680548643E+02  0.58031966077E+01 -0.69196394184E+02  0.11935683236E+03  0.76566751834E+02 0.  0.
        -13    1    4    4    0    0  0.39401515103E+02 -0.34246865317E+02 -0.33830403293E+02  0.62207904348E+02  0.00000000000E+00 0.  1.
         14    1    4    4    0    0  0.20279033540E+02  0.40050061925E+02 -0.35365990891E+02  0.57148928015E+02  0.00000000000E+00 0. -1.
        -11    1    3    3    0    0 -0.51756912362E+02 -0.40329494993E+02  0.25249619898E+02  0.70304974566E+02  0.00000000000E+00 0.  1.
         11    1    3    3    0    0  0.13351057984E+02  0.25192104652E+02 -0.32629122178E+01  0.28697377619E+02  0.00000000000E+00 0. -1.
         21    1    1    2  502  501 -0.21274694264E+02  0.93341937331E+01 -0.51185980355E+00  0.23237938573E+02  0.00000000000E+00 0.  1.
<scales pt_clust_5="13000.00000" pt_clust_6="13000.00000" pt_clust_7="13000.00000" pt_clust_8="13000.00000" pt_clust_9="23.23230"></scales>
<clustering>
<clus scale="   23.232">  1  9  2 -1</clus>
<clus scale="   76.567">  5  6 -1 -1</clus>
<clus scale="   87.258">  7  8 -1 -1</clus>
<clus scale="   93.765">  2  5  1 -1</clus>
<clus scale="   93.765">  2  5  1 -1</clus>
</clustering>
</event>
<event>
 9    2  0.3402837E-005  0.1035174E+03  0.7546771E-02  0.1278288E+00
         -1   -1    0    0    0  501 -0.00000000000E+00  0.00000000000E+00  0.92514711161E+01  0.92514711161E+01  0.00000000000E+00 0.  1.
          2   -1    0    0  502    0  0.00000000000E+00 -0.00000000000E+00 -0.19088245885E+04  0.19088245885E+04  0.00000000000E+00 0. -1.
         23    2    1    2    0    0  0.24506164960E+01  0.31864764901E+02 -0.40537270517E+03  0.41683845319E+03  0.91683680088E+02 0.  0.
         24    2    1    2    0    0  0.17093509578E+02 -0.50559614406E+02 -0.13974626094E+04  0.14007902433E+04  0.80393397939E+02 0.  0.
        -13    1    4    4    0    0  0.64602334403E+01 -0.24573784650E+02 -0.10528397959E+03  0.10830661045E+03  0.00000000000E+00 0.  1.
         14    1    4    4    0    0  0.10633276137E+02 -0.25985829756E+02 -0.12921786298E+04  0.12924836329E+04  0.00000000000E+00 0. -1.
        -11    1    3    3    0    0  0.32433272622E+02 -0.19311804874E+02 -0.15230543869E+03  0.15691338259E+03  0.00000000000E+00 0. -1.
         11    1    3    3    0    0 -0.29982656126E+02  0.51176569774E+02 -0.25306726648E+03  0.25992507060E+03  0.00000000000E+00 0.  1.
         21    1    1    2  502  501 -0.19544126074E+02  0.18694849505E+02 -0.96737802765E+02  0.10044736306E+03  0.00000000000E+00 0. -1.
<scales pt_clust_5="13000.00000" pt_clust_6="13000.00000" pt_clust_7="13000.00000" pt_clust_8="13000.00000" pt_clust_9="27.04571"></scales>
<clustering>
<clus scale="   27.046">  1  9  2 -1</clus>
<clus scale="   80.393">  5  6 -1 -1</clus>
<clus scale="   91.684">  7  8 -1 -1</clus>
<clus scale="   93.665">  2  5  1 -1</clus>
<clus scale="   93.665">  2  5  1 -1</clus>
</clustering>
</event>
<event>
 9    2  0.3402837E-005  0.9180390E+02  0.7546771E-02  0.1299218E+00
          2   -1    0    0  502    0  0.00000000000E+00  0.00000000000E+00  0.57790314669E+02  0.57790314669E+02  0.00000000000E+00 0. -1.
         -1   -1    0    0    0  501 -0.00000000000E+00 -0.00000000000E+00 -0.42259151721E+03  0.42259151721E+03  0.00000000000E+00 0.  1.
         24    2    1    2    0    0  0.64360339339E+02 -0.23044583314E+02 -0.14011769280E+03  0.18065090873E+03  0.91260489198E+02 0.  0.
         23    2    1    2    0    0  0.16665460333E+02 -0.10123911063E+02 -0.51332458369E+02  0.10552506268E+03  0.90112631895E+02 0.  0.
        -13    1    3    3    0    0 -0.57326543625E+01 -0.40298268658E+02 -0.38684564925E+02  0.56154335062E+02  0.00000000000E+00 0.  1.
         14    1    3    3    0    0  0.70092993701E+02  0.17253685343E+02 -0.10143312788E+03  0.12449657367E+03  0.00000000000E+00 0. -1.
        -13    1    4    4    0    0 -0.97053487811E+01 -0.27448142096E+02 -0.64937060471E+02  0.71164711214E+02  0.00000000000E+00 0.  1.
         13    1    4    4    0    0  0.26370809114E+02  0.17324231033E+02  0.13604602102E+02  0.34360351462E+02  0.00000000000E+00 0. -1.
         21    1    1    2  502  501 -0.81025799672E+02  0.33168494378E+02 -0.17335105137E+03  0.19420586048E+03  0.00000000000E+00 0.  1.
<scales pt_clust_5="13000.00000" pt_clust_6="13000.00000" pt_clust_7="13000.00000" pt_clust_8="13000.00000" pt_clust_9="87.55187"></scales>
<clustering>
<clus scale="   87.552">  2  9  1 -1</clus>
<clus scale="   90.113">  7  8 -1 -1</clus>
<clus scale="   90.663">  1  7  2 -1</clus>
<clus scale="   91.260">  5  6 -1 -1</clus>
<clus scale="   90.663">  1  5  2 -1</clus>
</clustering>
</event>
<event>
 9    2  0.3402837E-005  0.9768361E+02  0.7546771E-02  0.1289454E+00
          2   -1    0    0  502    0  0.00000000000E+00  0.00000000000E+00  0.18543381149E+03  0.18543381149E+03  0.00000000000E+00 0. -1.
         -1   -1    0    0    0  501 -0.00000000000E+00 -0.00000000000E+00 -0.97430590221E+02  0.97430590221E+02  0.00000000000E+00 0.  1.
         24    2    1    2    0    0  0.29478485529E+02  0.38845402559E+02  0.24968569758E+02  0.98906284008E+02  0.82347295836E+02 0.  0.
         23    2    1    2    0    0 -0.10218654586E+01 -0.33386067157E+02  0.98723050769E+02  0.13798806865E+03  0.90436677553E+02 0.  0.
        -13    1    3    3    0    0 -0.11535458809E+02  0.20955612811E+02 -0.23086517929E+02  0.33244425522E+02  0.00000000000E+00 0.  1.
         14    1    3    3    0    0  0.41013944338E+02  0.17889789748E+02  0.48055087686E+02  0.65661858487E+02  0.00000000000E+00 0. -1.
        -13    1    4    4    0    0 -0.69210248247E+01 -0.63704973890E+02  0.77258165428E+02  0.10037454064E+03  0.00000000000E+00 0. -1.
         13    1    4    4    0    0  0.58991593661E+01  0.30318906733E+02  0.21464885342E+02  0.37613528011E+02  0.00000000000E+00 0.  1.
         21    1    1    2  502  501 -0.28456620071E+02 -0.54593354018E+01 -0.35688399256E+02  0.45970049057E+02  0.00000000000E+00 0. -1.
<scales pt_clust_5="13000.00000" pt_clust_6="13000.00000" pt_clust_7="13000.00000" pt_clust_8="13000.00000" pt_clust_9="28.97557"></scales>
<clustering>
<clus scale="   28.976">  2  9  1 -1</clus>
<clus scale="   82.347">  5  6 -1 -1</clus>
<clus scale="   90.246">  2  5  1 -1</clus>
<clus scale="   90.437">  7  8 -1 -1</clus>
<clus scale="   97.684">  1  5  2 -1</clus>
</clustering>
</event>
<event>
 9    2  0.3402837E-005  0.9743476E+02  0.7546771E-02  0.1291156E+00
          2   -1    0    0  502    0  0.00000000000E+00  0.00000000000E+00  0.16028415266E+03  0.16028415266E+03  0.00000000000E+00 0. -1.
         -1   -1    0    0    0  501 -0.00000000000E+00 -0.00000000000E+00 -0.93105898078E+02  0.93105898078E+02  0.00000000000E+00 0.  1.
         24    2    1    2    0    0 -0.56523491648E+02  0.35797067771E+01 -0.29427041194E+01  0.97955576731E+02  0.79868116896E+02 0.  0.
         23    2    1    2    0    0  0.22533403055E+02 -0.21594715445E+02  0.67639596895E+02  0.11688549456E+03  0.90072291974E+02 0.  0.
        -11    1    3    3    0    0 -0.76755872601E+02  0.33068855429E+01  0.29407942413E+01  0.76883338516E+02  0.00000000000E+00 0.  1.
         12    1    3    3    0    0  0.20232380952E+02  0.27282123426E+00 -0.58834983607E+01  0.21072238215E+02  0.00000000000E+00 0. -1.
        -13    1    4    4    0    0 -0.27188747326E+02 -0.10996230624E+02  0.58207661210E+02  0.65178807082E+02  0.00000000000E+00 0.  1.
         13    1    4    4    0    0  0.49722150380E+02 -0.10598484821E+02  0.94319356852E+01  0.51706687476E+02  0.00000000000E+00 0. -1.
         21    1    1    2  502  501  0.33990088594E+02  0.18015008667E+02  0.24813618022E+01  0.38548979445E+02  0.00000000000E+00 0. -1.
<scales pt_clust_5="13000.00000" pt_clust_6="13000.00000" pt_clust_7="13000.00000" pt_clust_8="13000.00000" pt_clust_9="38.46904"></scales>
<clustering>
<clus scale="   38.469">  2  9  1 -1</clus>
<clus scale="   79.868">  5  6 -1 -1</clus>
<clus scale="   88.088">  2  5  1 -1</clus>
<clus scale="   90.072">  7  8 -1 -1</clus>
<clus scale="   97.435">  1  5  2 -1</clus>
</clustering>
</event>
<event>
 9    2  0.3402837E-005  0.9250721E+02  0.7546771E-02  0.1303403E+00
         -1   -1    0    0    0  501 -0.00000000000E+00  0.00000000000E+00  0.13981634468E+03  0.13981634468E+03  0.00000000000E+00 0.  1.
          2   -1    0    0  502    0  0.00000000000E+00 -0.00000000000E+00 -0.61419913337E+03  0.61419913337E+03  0.00000000000E+00 0. -1.
         23    2    1    2    0    0 -0.77596525604E+01  0.58921260065E+02 -0.81059730869E+02  0.13586490028E+03  0.91414791269E+02 0.  0.
         24    2    1    2    0    0  0.51290429455E+01 -0.75671580550E+01 -0.49636884442E+03  0.50298722406E+03  0.80811811585E+02 0.  0.
        -11    1    4    4    0    0  0.62607986637E+01 -0.39561460416E+02 -0.15395413840E+03  0.15907917362E+03  0.00000000000E+00 0.  1.
         12    1    4    4    0    0 -0.11317557183E+01  0.31994302362E+02 -0.34241470602E+03  0.34390805044E+03  0.00000000000E+00 0. -1.
        -13    1    3    3    0    0 -0.10466897851E+02 -0.23577156444E+02 -0.26114140601E+02  0.36706764989E+02  0.00000000000E+00 0.  1.
         13    1    3    3    0    0  0.27072452903E+01  0.82498416509E+02 -0.54945590268E+02  0.99158135286E+02  0.00000000000E+00 0. -1.
         21    1    1    2  502  501  0.26306096149E+01 -0.51354102010E+02  0.10304578661E+03  0.11516335371E+03  0.00000000000E+00 0.  1.
<scales pt_clust_5="13000.00000" pt_clust_6="13000.00000" pt_clust_7="13000.00000" pt_clust_8="13000.00000" pt_clust_9="51.42143"></scales>
<clustering>
<clus scale="   51.421">  1  9  2 -1</clus>
<clus scale="   80.812">  5  6 -1 -1</clus>
<clus scale="   82.046">  2  5  1 -1</clus>
<clus scale="   91.415">  7  8 -1 -1</clus>
<clus scale="   82.046">  2  5  1 -1</clus>
</clustering>
</event>
<event>
 9    2  0.3402837E-005  0.1040190E+03  0.7546771E-02  0.1284233E+00
          2   -1    0    0  502    0  0.00000000000E+00  0.00000000000E+00  0.50965725336E+02  0.50965725336E+02  0.00000000000E+00 0. -1.
         -1   -1    0    0    0  501 -0.00000000000E+00 -0.00000000000E+00 -0.28456134917E+03  0.28456134917E+03  0.00000000000E+00 0.  1.
         23    2    1    2    0    0 -0.49218508631E+02  0.11214246191E+02 -0.16561163520E+03  0.19528974797E+03  0.90347390878E+02 0.  0.
         24    2    1    2    0    0  0.40099485235E+02 -0.44544998381E+02 -0.51939814377E+02  0.10213862371E+03  0.64360924014E+02 0.  0.
        -11    1    4    4    0    0  0.22491148871E+02 -0.16606984933E+02 -0.61669655067E+02  0.67711077987E+02  0.00000000000E+00 0.  1.
         12    1    4    4    0    0  0.17608336365E+02 -0.27938013448E+02  0.97298406903E+01  0.34427545727E+02  0.00000000000E+00 0. -1.
        -11    1    3    3    0    0 -0.67683698264E+02 -0.16631731407E+02 -0.11960199998E+03  0.13842808928E+03  0.00000000000E+00 0.  1.
         11    1    3    3    0    0  0.18465189633E+02  0.27845977598E+02 -0.46009635217E+02  0.56861658694E+02  0.00000000000E+00 0. -1.
         21    1    1    2  502  501  0.91190233957E+01  0.33330752190E+02 -0.16044174258E+02  0.38098702824E+02  0.00000000000E+00 0.  1.
<scales pt_clust_5="13000.00000" pt_clust_6="13000.00000" pt_clust_7="13000.00000" pt_clust_8="13000.00000" pt_clust_9="34.55569"></scales>
<clustering>
<clus scale="   34.556">  1  9  2 -1</clus>
<clus scale="   64.361">  5  6 -1 -1</clus>
<clus scale="   82.460">  1  5  2 -1</clus>
<clus scale="   90.347">  7  8 -1 -1</clus>
<clus scale="   34.556">  1  5  2 -1</clus>
</clustering>
</event>
<event>
 9    2  0.3402837E-005  0.1775986E+03  0.7546771E-02  0.1171306E+00
          2   -1    0    0  502    0  0.00000000000E+00  0.00000000000E+00  0.59701796181E+03  0.59701796181E+03  0.00000000000E+00 0. -1.
         -1   -1    0    0    0  501 -0.00000000000E+00 -0.00000000000E+00 -0.11145046059E+03  0.11145046059E+03  0.00000000000E+00 0.  1.
         24    2    1    2    0    0  0.75831892390E+02 -0.15117632277E+03  0.33505069294E+02  0.19044640126E+03  0.80885632935E+02 0.  0.
         23    2    1    2    0    0 -0.57833808486E+02  0.13800690583E+03  0.46173062982E+03  0.49371484900E+03  0.90379876948E+02 0.  0.
        -11    1    3    3    0    0  0.85290570348E+02 -0.99863889446E+02  0.60052286765E+01  0.13146611950E+03  0.00000000000E+00 0.  1.
         12    1    3    3    0    0 -0.94586779585E+01 -0.51312433321E+02  0.27499840618E+02  0.58980281757E+02  0.00000000000E+00 0. -1.
        -11    1    4    4    0    0  0.10060025649E+02  0.88377074502E+02  0.20222955359E+03  0.22092646685E+03  0.00000000000E+00 0.  1.
         11    1    4    4    0    0 -0.67893834134E+02  0.49629831324E+02  0.25950107623E+03  0.27278838215E+03  0.00000000000E+00 0. -1.
         21    1    1    2  502  501 -0.17998083904E+02  0.13169416941E+02 -0.96681978939E+01  0.24307172137E+02  0.00000000000E+00 0.  1.
<scales pt_clust_5="13000.00000" pt_clust_6="13000.00000" pt_clust_7="13000.00000" pt_clust_8="13000.00000" pt_clust_9="22.30167"></scales>
<clustering>
<clus scale="   22.302">  2  9  1 -1</clus>
<clus scale="   80.886">  5  6 -1 -1</clus>
<clus scale="   90.380">  7  8 -1 -1</clus>
<clus scale="  172.960">  2  5  1 -1</clus>
<clus scale="  177.599">  1  5  2 -1</clus>
</clustering>
</event>
<event>
 9    2  0.3402837E-005  0.1074833E+03  0.7546771E-02  0.1271818E+00
          2   -1    0    0  502    0  0.00000000000E+00  0.00000000000E+00  0.72544755254E+02  0.72544755254E+02  0.00000000000E+00 0. -1.
         -1   -1    0    0    0  501 -0.00000000000E+00 -0.00000000000E+00 -0.32937802533E+03  0.32937802533E+03  0.00000000000E+00 0.  1.
         24    2    1    2    0    0 -0.48662358002E+02 -0.53268150228E+02 -0.23860996713E+03  0.26151248632E+03  0.79047727198E+02 0.  0.
         23    2    1    2    0    0  0.25595478299E+02  0.41025230724E+02  0.45442203416E+01  0.10576451336E+03  0.93953628366E+02 0.  0.
        -11    1    3    3    0    0 -0.25567402955E+02 -0.33914837372E+02 -0.22406301022E+03  0.22805293429E+03  0.00000000000E+00 0.  1.
         12    1    3    3    0    0 -0.23094955047E+02 -0.19353312856E+02 -0.14546956905E+02  0.33459552034E+02  0.00000000000E+00 0. -1.
        -13    1    4    4    0    0 -0.16484924945E+02  0.22436052584E+02 -0.35263205813E+02  0.44929087350E+02  0.00000000000E+00 0.  1.
         13    1    4    4    0    0  0.42080403244E+02  0.18589178140E+02  0.39807426154E+02  0.60835426012E+02  0.00000000000E+00 0. -1.
         21    1    1    2  502  501  0.23066879703E+02  0.12242919504E+02 -0.22767523290E+02  0.34645780897E+02  0.00000000000E+00 0.  1.
<scales pt_clust_5="13000.00000" pt_clust_6="13000.00000" pt_clust_7="13000.00000" pt_clust_8="13000.00000" pt_clust_9="26.11456"></scales>
<clustering>
<clus scale="   26.115">  2  9  1 -1</clus>
<clus scale="   79.048">  5  6 -1 -1</clus>
<clus scale="   93.954">  7  8 -1 -1</clus>
<clus scale="   94.731">  2  5  1 -1</clus>
<clus scale="  107.483">  1  5  2 -1</clus>
</clustering>
</event>
<event>
 9    2  0.3402837E-005  0.9271778E+02  0.7546771E-02  0.1302567E+00
         -1   -1    0    0    0  501 -0.00000000000E+00  0.00000000000E+00  0.30494083375E+03  0.30494083375E+03  0.00000000000E+00 0.  1.
          2   -1    0    0  502    0  0.00000000000E+00 -0.00000000000E+00 -0.22269441387E+03  0.22269441387E+03  0.00000000000E+00 0. -1.
         23    2    1    2    0    0 -0.28071066593E+02  0.43350871371E+02 -0.71651721876E+01  0.10564948228E+03  0.91886835761E+02 0.  0.
         24    2    1    2    0    0  0.90334039488E+01  0.87802869381E+01 -0.15264651824E+03  0.17364684566E+03  0.81814250906E+02 0.  0.
        -11    1    4    4    0    0  0.33902262056E+02  0.30561493623E+02 -0.11395105432E+03  0.12275264171E+03  0.00000000000E+00 0.  1.
         12    1    4    4    0    0 -0.24868858107E+02 -0.21781206685E+02 -0.38695463917E+02  0.50894203952E+02  0.00000000000E+00 0. -1.
        -11    1    3    3    0    0 -0.58705524230E+02  0.16578178995E+02 -0.17897967671E+02  0.63572886049E+02  0.00000000000E+00 0. -1.
         11    1    3    3    0    0  0.30634457637E+02  0.26772692377E+02  0.10732795484E+02  0.42076596235E+02  0.00000000000E+00 0.  1.
         21    1    1    2  502  501  0.19037662644E+02 -0.52131158309E+02  0.24205811030E+03  0.24833891968E+03  0.00000000000E+00 0.  1.
<scales pt_clust_5="13000.00000" pt_clust_6="13000.00000" pt_clust_7="13000.00000" pt_clust_8="13000.00000" pt_clust_9="55.49856"></scales>
<clustering>
<clus scale="   55.499">  1  9  2 -1</clus>
<clus scale="   81.814">  5  6 -1 -1</clus>
<clus scale="   82.746">  2  5  1 -1</clus>
<clus scale="   91.887">  7  8 -1 -1</clus>
<clus scale="   82.746">  2  5  1 -1</clus>
</clustering>
</event>
<event>
 9    2  0.3402837E-005  0.9715412E+02  0.7546771E-02  0.1291515E+00
          2   -1    0    0  502    0  0.00000000000E+00  0.00000000000E+00  0.42142615905E+03  0.42142615905E+03  0.00000000000E+00 0. -1.
         -1   -1    0    0    0  501 -0.00000000000E+00 -0.00000000000E+00 -0.34319667790E+02  0.34319667790E+02  0.00000000000E+00 0.  1.
         24    2    1    2    0    0  0.49007022619E+02  0.28889081654E+02  0.17560439621E+03  0.20171362981E+03  0.81333985378E+02 0.  0.
         23    2    1    2    0    0 -0.15965726707E+02  0.30178271595E+01  0.16221009777E+03  0.18665654073E+03  0.90909497141E+02 0.  0.
        -11    1    3    3    0    0  0.45983454135E+02  0.50791413170E+02  0.88921718904E+02  0.11225559139E+03  0.00000000000E+00 0.  1.
         12    1    3    3    0    0  0.30235684842E+01 -0.21902331517E+02  0.86682677308E+02  0.89458038418E+02  0.00000000000E+00 0. -1.
        -11    1    4    4    0    0 -0.30754641518E+02 -0.37907656758E+02  0.83808053080E+02  0.96987773337E+02  0.00000000000E+00 0.  1.
         11    1    4    4    0    0  0.14788914811E+02  0.40925483917E+02  0.78402044687E+02  0.89668767395E+02  0.00000000000E+00 0. -1.
         21    1    1    2  502  501 -0.33041295912E+02 -0.31906908813E+02  0.49291997276E+02  0.67375656294E+02  0.00000000000E+00 0.  1.
<scales pt_clust_5="13000.00000" pt_clust_6="13000.00000" pt_clust_7="13000.00000" pt_clust_8="13000.00000" pt_clust_9="45.93232"></scales>
<clustering>
<clus scale="   45.932">  2  9  1 -1</clus>
<clus scale="   81.334">  5  6 -1 -1</clus>
<clus scale="   88.259">  2  5  1 -1</clus>
<clus scale="   90.909">  7  8 -1 -1</clus>
<clus scale="   97.154">  1  5  2 -1</clus>
</clustering>
</event>
<event>
 9    2  0.3402837E-005  0.2549147E+03  0.7546771E-02  0.1111034E+00
         -1   -1    0    0    0  501 -0.00000000000E+00  0.00000000000E+00  0.34251850163E+03  0.34251850163E+03  0.00000000000E+00 0.  1.
          2   -1    0    0  502    0  0.00000000000E+00 -0.00000000000E+00 -0.85646633076E+03  0.85646633076E+03  0.00000000000E+00 0. -1.
         23    2    1    2    0    0 -0.57421412895E+02  0.16157826959E+03  0.14151995528E+03  0.24148241533E+03  0.94239605839E+02 0.  0.
         24    2    1    2    0    0  0.11396900912E+02 -0.24450447961E+03 -0.76821770524E+03  0.81016757169E+03  0.79377085340E+02 0.  0.
        -13    1    4    4    0    0  0.55430826157E+01 -0.10746586181E+03 -0.21802158107E+03  0.24313174830E+03  0.00000000000E+00 0.  1.
         14    1    4    4    0    0  0.58538182964E+01 -0.13703861780E+03 -0.55019612417E+03  0.56703582339E+03  0.00000000000E+00 0. -1.
        -11    1    3    3    0    0 -0.29722556440E+02  0.40357880667E+02 -0.37510769207E+01  0.50261908751E+02  0.00000000000E+00 0. -1.
         11    1    3    3    0    0 -0.27698856455E+02  0.12122038892E+03  0.14527103220E+03  0.19122050658E+03  0.00000000000E+00 0.  1.
         21    1    1    2  502  501  0.46024511983E+02  0.82926210021E+02  0.11274992083E+03  0.14733484537E+03  0.00000000000E+00 0.  1.
<scales pt_clust_5="13000.00000" pt_clust_6="13000.00000" pt_clust_7="13000.00000" pt_clust_8="13000.00000" pt_clust_9="94.84204"></scales>
<clustering>
<clus scale="   79.377">  5  6 -1 -1</clus>
<clus scale="   94.240">  7  8 -1 -1</clus>
<clus scale="   94.842">  1  9  2 -1</clus>
<clus scale="  249.802">  2  5  1 -1</clus>
<clus scale="  249.802">  2  5  1 -1</clus>
</clustering>
</event>
<event>
 9    2  0.3402837E-005  0.2138267E+03  0.7546771E-02  0.1139060E+00
         -1   -1    0    0    0  501 -0.00000000000E+00  0.00000000000E+00  0.46553918516E+03  0.46553918516E+03  0.00000000000E+00 0.  1.
          2   -1    0    0  502    0  0.00000000000E+00 -0.00000000000E+00 -0.74069128917E+03  0.74069128917E+03  0.00000000000E+00 0. -1.
         23    2    1    2    0    0  0.81704855857E+02  0.19547570597E+03  0.32029227591E+03  0.39414629838E+03  0.88756562727E+02 0.  0.
         24    2    1    2    0    0 -0.53658784668E+02 -0.18625254897E+03 -0.68559099185E+03  0.71722606941E+03  0.82516358229E+02 0.  0.
        -11    1    4    4    0    0 -0.57658876000E+02 -0.10726516732E+03 -0.51486035194E+03  0.52906667264E+03  0.00000000000E+00 0.  1.
         12    1    4    4    0    0  0.40000913319E+01 -0.78987381644E+02 -0.17073063991E+03  0.18815939677E+03  0.00000000000E+00 0. -1.
        -11    1    3    3    0    0  0.37205292394E+02  0.10826028541E+03  0.95949918299E+02  0.14936837015E+03  0.00000000000E+00 0. -1.
         11    1    3    3    0    0  0.44499563463E+02  0.87215420552E+02  0.22434235761E+03  0.24477792823E+03  0.00000000000E+00 0.  1.
         21    1    1    2  502  501 -0.28046071189E+02 -0.92231569978E+01  0.90146611923E+02  0.94858106534E+02  0.00000000000E+00 0. -1.
<scales pt_clust_5="13000.00000" pt_clust_6="13000.00000" pt_clust_7="13000.00000" pt_clust_8="13000.00000" pt_clust_9="29.52370"></scales>
<clustering>
<clus scale="   29.524">  1  9  2 -1</clus>
<clus scale="   82.516">  5  6 -1 -1</clus>
<clus scale="   88.757">  7  8 -1 -1</clus>
<clus scale="  211.313">  2  5  1 -1</clus>
<clus scale="  211.313">  2  5  1 -1</clus>
</clustering>
</event>
<event>
 9    2  0.3402837E-005  0.1511263E+03  0.7546771E-02  0.1219953E+00
          2   -1    0    0  502    0  0.00000000000E+00  0.00000000000E+00  0.60742456485E+02  0.60742456485E+02  0.00000000000E+00 0. -1.
         -1   -1    0    0    0  501 -0.00000000000E+00 -0.00000000000E+00 -0.13423439028E+04  0.13423439028E+04  0.00000000000E+00 0.  1.
         23    2    1    2    0    0  0.81032774845E+02 -0.22565895020E+02 -0.24622231750E+03  0.27472832914E+03  0.88174230808E+02 0.  0.
         24    2    1    2    0    0  0.51653562106E+02 -0.13972003544E+01 -0.13600287277E+02  0.97721384687E+02  0.81819671009E+02 0.  0.
        -11    1    4    4    0    0 -0.20227544780E+02 -0.46383413427E+00 -0.15999134516E+02  0.25794205070E+02  0.00000000000E+00 0.  1.
         12    1    4    4    0    0  0.71881106885E+02 -0.93336622008E+00  0.23988472388E+01  0.71927179617E+02  0.00000000000E+00 0. -1.
        -11    1    3    3    0    0  0.39130576172E+02  0.12424883143E+02 -0.27788029225E+02  0.49575742868E+02  0.00000000000E+00 0. -1.
         11    1    3    3    0    0  0.41902198674E+02 -0.34990778163E+02 -0.21843428827E+03  0.22515258627E+03  0.00000000000E+00 0.  1.
         21    1    1    2  502  501 -0.13268633695E+03  0.23963095375E+02 -0.10217788416E+04  0.10306366455E+04  0.00000000000E+00 0.  1.
<scales pt_clust_5="13000.00000" pt_clust_6="13000.00000" pt_clust_7="13000.00000" pt_clust_8="13000.00000" pt_clust_9="122.73740"></scales>
<clustering>
<clus scale="   81.820">  5  6 -1 -1</clus>
<clus scale="   88.174">  7  8 -1 -1</clus>
<clus scale="   96.770">  1  5  2 -1</clus>
<clus scale="  122.737">  2  9  1 -1</clus>
<clus scale="   96.770">  1  5  2 -1</clus>
</clustering>
</event>
<event>
 9    2  0.3402837E-005  0.1000907E+03  0.7546771E-02  0.1285268E+00
          4   -1    0    0  502    0  0.00000000000E+00  0.00000000000E+00  0.36131722027E+03  0.36131722027E+03  0.00000000000E+00 0. -1.
         -3   -1    0    0    0  501 -0.00000000000E+00 -0.00000000000E+00 -0.68688891919E+02  0.68688891919E+02  0.00000000000E+00 0.  1.
         24    2    1    2    0    0  0.27679761487E+02  0.11297889427E+02 -0.65640724377E+01  0.85756559387E+02  0.80107982932E+02 0.  0.
         23    2    1    2    0    0 -0.32431591239E+02  0.36976604832E+02  0.26657575605E+03  0.28579570608E+03  0.90539905510E+02 0.  0.
        -11    1    3    3    0    0  0.33257662017E+02 -0.29404129570E+02 -0.22695566262E+01  0.44450262158E+02  0.00000000000E+00 0.  1.
         12    1    3    3    0    0 -0.55779005301E+01  0.40702018997E+02 -0.42945158115E+01  0.41306297230E+02  0.00000000000E+00 0. -1.
        -13    1    4    4    0    0  0.10672276696E+02 -0.23621192441E+02  0.10124955066E+03  0.10451473452E+03  0.00000000000E+00 0.  1.
         13    1    4    4    0    0 -0.43103867935E+02  0.60597797273E+02  0.16532620539E+03  0.18128097157E+03  0.00000000000E+00 0. -1.
         21    1    1    2  502  501  0.47518297518E+01 -0.48274494259E+02  0.32616644748E+02  0.58453846722E+02  0.00000000000E+00 0.  1.
<scales pt_clust_5="13000.00000" pt_clust_6="13000.00000" pt_clust_7="13000.00000" pt_clust_8="13000.00000" pt_clust_9="48.50780"></scales>
<clustering>
<clus scale="   48.508">  2  9  1 -1</clus>
<clus scale="   80.108">  5  6 -1 -1</clus>
<clus scale="   90.540">  7  8 -1 -1</clus>
<clus scale="   90.763">  2  5  1 -1</clus>
<clus scale="  100.091">  1  5  2 -1</clus>
</clustering>
</event>
<event>
 9    2  0.3402837E-005  0.1102388E+03  0.7546771E-02  0.1266355E+00
         -1   -1    0    0    0  501 -0.00000000000E+00  0.00000000000E+00  0.23379770850E+03  0.23379770850E+03  0.00000000000E+00 0.  1.
          2   -1    0    0  502    0  0.00000000000E+00 -0.00000000000E+00 -0.45454813590E+03  0.45454813590E+03  0.00000000000E+00 0. -1.
         23    2    1    2    0    0 -0.28872709005E+02  0.14417838481E+02  0.16052449969E+02  0.10125911658E+03  0.94626741198E+02 0.  0.
         24    2    1    2    0    0  0.58893111405E+02 -0.63108428065E+01 -0.40452565943E+03  0.41650572195E+03  0.79547356799E+02 0.  0.
        -11    1    4    4    0    0 -0.13710574988E+02 -0.19179845099E+02 -0.67215570664E+02  0.71230465843E+02  0.00000000000E+00 0.  1.
         12    1    4    4    0    0  0.72603686393E+02  0.12869002292E+02 -0.33731008877E+03  0.34527525611E+03  0.00000000000E+00 0. -1.
        -13    1    3    3    0    0  0.17454687446E+02  0.15931551935E+02  0.41960600100E+02  0.48157786718E+02  0.00000000000E+00 0.  1.
         13    1    3    3    0    0 -0.46327396451E+02 -0.15137134537E+01 -0.25908150131E+02  0.53101329866E+02  0.00000000000E+00 0. -1.
         21    1    1    2  502  501 -0.30020402400E+02 -0.81069956743E+01  0.16772278207E+03  0.17058100587E+03  0.00000000000E+00 0.  1.
<scales pt_clust_5="13000.00000" pt_clust_6="13000.00000" pt_clust_7="13000.00000" pt_clust_8="13000.00000" pt_clust_9="31.09579"></scales>
<clustering>
<clus scale="   31.096">  1  9  2 -1</clus>
<clus scale="   79.547">  5  6 -1 -1</clus>
<clus scale="   94.627">  7  8 -1 -1</clus>
<clus scale="   97.602">  2  5  1 -1</clus>
<clus scale="   97.602">  2  5  1 -1</clus>
</clustering>
</event>
<event>
 9    2  0.3402837E-005  0.1254781E+03  0.7546771E-02  0.1241522E+00
         -1   -1    0    0    0  501 -0.00000000000E+00  0.00000000000E+00  0.26177357886E+03  0.26177357886E+03  0.00000000000E+00 0.  1.
          2   -1    0    0  502    0  0.00000000000E+00 -0.00000000000E+00 -0.32147828032E+03  0.32147828032E+03  0.00000000000E+00 0. -1.
         24    2    1    2    0    0  0.60384187600E+02 -0.15995723124E+02  0.17678344087E+03  0.19789691802E+03  0.63314231640E+02 0.  0.
         23    2    1    2    0    0 -0.82525453864E+02  0.35295868332E+02 -0.29433929467E+03  0.32047438086E+03  0.89509550007E+02 0.  0.
        -11    1    3    3    0    0  0.40638022114E+02 -0.40301592181E+02  0.10514257231E+03  0.11971059972E+03  0.00000000000E+00 0.  1.
         12    1    3    3    0    0  0.19746165486E+02  0.24305869058E+02  0.71640868560E+02  0.78186318305E+02  0.00000000000E+00 0. -1.
        -11    1    4    4    0    0 -0.57490102365E+02  0.55041093175E+02 -0.26655057369E+03  0.27817951423E+03  0.00000000000E+00 0. -1.
         11    1    4    4    0    0 -0.25035351499E+02 -0.19745224843E+02 -0.27788720988E+02  0.42294866627E+02  0.00000000000E+00 0.  1.
         21    1    1    2  502  501  0.22141266264E+02 -0.19300145208E+02  0.57851152347E+02  0.64880560299E+02  0.00000000000E+00 0. -1.
<scales pt_clust_5="13000.00000" pt_clust_6="13000.00000" pt_clust_7="13000.00000" pt_clust_8="13000.00000" pt_clust_9="29.37229"></scales>
<clustering>
<clus scale="   29.372">  1  9  2 -1</clus>
<clus scale="   63.314">  5  6 -1 -1</clus>
<clus scale="   89.510">  7  8 -1 -1</clus>
<clus scale="  108.358">  1  5  2 -1</clus>
<clus scale="  125.478">  2  5  1 -1</clus>
</clustering>
</event>
<event>
 9    2  0.3402837E-005  0.9151573E+02  0.7546771E-02  0.1305081E+00
         -1   -1    0    0    0  501 -0.00000000000E+00  0.00000000000E+00  0.15873007190E+03  0.15873007190E+03  0.00000000000E+00 0.  1.
          2   -1    0    0  502    0  0.00000000000E+00 -0.00000000000E+00 -0.11837805706E+03  0.11837805706E+03  0.00000000000E+00 0. -1.
         23    2    1    2    0    0  0.11775011961E+02 -0.26092535138E+02  0.63535767441E+02  0.11459769763E+03  0.90974541835E+02 0.  0.
         24    2    1    2    0    0 -0.62785888245E+01  0.27939172671E+01 -0.71435219073E+02  0.10864726879E+03  0.81572126607E+02 0.  0.
        -11    1    4    4    0    0  0.11115871575E+02 -0.23247138372E+02 -0.72876457411E+02  0.77297930685E+02  0.00000000000E+00 0.  1.
         12    1    4    4    0    0 -0.17394460400E+02  0.26041055639E+02  0.14412383381E+01  0.31349338101E+02  0.00000000000E+00 0. -1.
        -13    1    3    3    0    0 -0.24937572648E+02 -0.25076971242E+02 -0.60833380887E+01  0.35885150391E+02  0.00000000000E+00 0. -1.
         13    1    3    3    0    0  0.36712584609E+02 -0.10155638956E+01  0.69619105530E+02  0.78712547243E+02  0.00000000000E+00 0.  1.
         21    1    1    2  502  501 -0.54964231361E+01  0.23298617871E+02  0.48251466473E+02  0.53863162540E+02  0.00000000000E+00 0.  1.
<scales pt_clust_5="13000.00000" pt_clust_6="13000.00000" pt_clust_7="13000.00000" pt_clust_8="13000.00000" pt_clust_9="23.93818"></scales>
<clustering>
<clus scale="   23.938">  1  9  2 -1</clus>
<clus scale="   81.572">  5  6 -1 -1</clus>
<clus scale="   82.175">  2  5  1 -1</clus>
<clus scale="   90.975">  7  8 -1 -1</clus>
<clus scale="   82.175">  2  5  1 -1</clus>
</clustering>
</event>
<event>
 9    2  0.3402837E-005  0.1127248E+03  0.7546771E-02  0.1261643E+00
          2   -1    0    0  502    0  0.00000000000E+00  0.00000000000E+00  0.12178010178E+04  0.12178010178E+04  0.00000000000E+00 0. -1.
         -1   -1    0    0    0  501 -0.00000000000E+00 -0.00000000000E+00 -0.51002535706E+02  0.51002535706E+02  0.00000000000E+00 0.  1.
         23    2    1    2    0    0 -0.48091952391E+02 -0.37348892140E+02  0.36005094096E+02  0.11552463411E+03  0.91333447627E+02 0.  0.
         24    2    1    2    0    0 -0.44728321004E+02 -0.36225854455E+02  0.36898416824E+03  0.38231709557E+03  0.81878629235E+02 0.  0.
        -13    1    4    4    0    0 -0.42612450552E+02 -0.57743648274E+02  0.33024494711E+03  0.33795247440E+03  0.00000000000E+00 0.  1.
         14    1    4    4    0    0 -0.21158704525E+01  0.21517793818E+02  0.38739221128E+02  0.44364621177E+02  0.00000000000E+00 0. -1.
        -13    1    3    3    0    0  0.23735644754E+02 -0.25930567663E+01  0.25679420077E+02  0.35064759957E+02  0.00000000000E+00 0. -1.
         13    1    3    3    0    0 -0.71827597145E+02 -0.34755835373E+02  0.10325674019E+02  0.80459874149E+02  0.00000000000E+00 0.  1.
         21    1    1    2  502  501  0.92820273395E+02  0.73574746595E+02  0.76180921973E+03  0.77096182379E+03  0.00000000000E+00 0. -1.
<scales pt_clust_5="13000.00000" pt_clust_6="13000.00000" pt_clust_7="13000.00000" pt_clust_8="13000.00000" pt_clust_9="66.06878"></scales>
<clustering>
<clus scale="   81.879">  5  6 -1 -1</clus>
<clus scale="   91.333">  7  8 -1 -1</clus>
<clus scale="  100.085">  1  5  2 -1</clus>
<clus scale="   66.069">  1  9  2 -1</clus>
<clus scale="  100.085">  1  5  2 -1</clus>
</clustering>
</event>
<event>
 9    2  0.3402837E-005  0.1005856E+03  0.7546771E-02  0.1284765E+00
          2   -1    0    0  502    0  0.00000000000E+00  0.00000000000E+00  0.51517129602E+03  0.51517129602E+03  0.00000000000E+00 0. -1.
         -1   -1    0    0    0  501 -0.00000000000E+00 -0.00000000000E+00 -0.57023445915E+02  0.57023445915E+02  0.00000000000E+00 0.  1.
         23    2    1    2    0    0 -0.14803317914E+02  0.96137848470E+01  0.34826983055E+02  0.10099397285E+03  0.93141294399E+02 0.  0.
         24    2    1    2    0    0  0.39875026880E+02 -0.97377122131E+01  0.43427970620E+03  0.44383834770E+03  0.81907111177E+02 0.  0.
        -11    1    4    4    0    0 -0.22425302250E+02 -0.63525011527E+01  0.59528228207E+02  0.63928541399E+02  0.00000000000E+00 0.  1.
         12    1    4    4    0    0  0.62300329130E+02 -0.33852110605E+01  0.37475147800E+03  0.37990980630E+03  0.00000000000E+00 0. -1.
        -13    1    3    3    0    0 -0.39472083006E+02  0.25437576385E+02 -0.94460670816E+01  0.47899309102E+02  0.00000000000E+00 0.  1.
         13    1    3    3    0    0  0.24668765092E+02 -0.15823791538E+02  0.44273050137E+02  0.53094663745E+02  0.00000000000E+00 0. -1.
         21    1    1    2  502  501 -0.25071708966E+02  0.12392736610E+00 -0.10958839156E+02  0.27362421386E+02  0.00000000000E+00 0.  1.
<scales pt_clust_5="13000.00000" pt_clust_6="13000.00000" pt_clust_7="13000.00000" pt_clust_8="13000.00000" pt_clust_9="25.07202"></scales>
<clustering>
<clus scale="   25.072">  2  9  1 -1</clus>
<clus scale="   81.907">  5  6 -1 -1</clus>
<clus scale="   90.283">  1  5  2 -1</clus>
<clus scale="   93.141">  7  8 -1 -1</clus>
<clus scale="   90.283">  1  5  2 -1</clus>
</clustering>
</event>
<event>
 9    2  0.3402837E-005  0.1061713E+03  0.7546771E-02  0.1277067E+00
          2   -1    0    0  502    0  0.00000000000E+00  0.00000000000E+00  0.18005496413E+03  0.18005496413E+03  0.00000000000E+00 0. -1.
         -1   -1    0    0    0  501 -0.00000000000E+00 -0.00000000000E+00 -0.21243835106E+03  0.21243835106E+03  0.00000000000E+00 0.  1.
         24    2    1    2    0    0  0.28808716315E+02 -0.16726383918E+02 -0.13343413203E+03  0.15663211822E+03  0.74961582250E+02 0.  0.
         23    2    1    2    0    0 -0.49991879709E+02 -0.32485885845E+01  0.14669253017E+03  0.18172342381E+03  0.94841778713E+02 0.  0.
        -11    1    3    3    0    0  0.49679603112E+02 -0.91194578683E+01 -0.12112792898E+03  0.13123719997E+03  0.00000000000E+00 0.  1.
         12    1    3    3    0    0 -0.20870886797E+02 -0.76069260500E+01 -0.12306203056E+02  0.25394918257E+02  0.00000000000E+00 0. -1.
        -13    1    4    4    0    0  0.17232852011E+02  0.23196302800E+02  0.17718993385E+02  0.33896937599E+02  0.00000000000E+00 0.  1.
         13    1    4    4    0    0 -0.67224731719E+02 -0.26444891384E+02  0.12897353678E+03  0.14782648621E+03  0.00000000000E+00 0. -1.
         21    1    1    2  502  501  0.21183163393E+02  0.19974972503E+02 -0.45641785065E+02  0.54137773151E+02  0.00000000000E+00 0. -1.
<scales pt_clust_5="13000.00000" pt_clust_6="13000.00000" pt_clust_7="13000.00000" pt_clust_8="13000.00000" pt_clust_9="29.11573"></scales>
<clustering>
<clus scale="   29.116">  2  9  1 -1</clus>
<clus scale="   74.962">  5  6 -1 -1</clus>
<clus scale="   88.863">  2  5  1 -1</clus>
<clus scale="   94.842">  7  8 -1 -1</clus>
<clus scale="  106.171">  1  5  2 -1</clus>
</clustering>
</event>
<event>
 9    2  0.3402837E-005  0.2000868E+03  0.7546771E-02  0.1176193E+00
         -1   -1    0    0    0  501 -0.00000000000E+00  0.00000000000E+00  0.88935478983E+02  0.88935478983E+02  0.00000000000E+00 0.  1.
          2   -1    0    0  502    0  0.00000000000E+00 -0.00000000000E+00 -0.10184037800E+04  0.10184037800E+04  0.00000000000E+00 0. -1.
         24    2    1    2    0    0 -0.27800085692E+02 -0.19517614565E+02 -0.36581522126E+02  0.11425148690E+03  0.10276873287E+03 0.  0.
         23    2    1    2    0    0  0.81257641235E+01  0.19870553016E+03 -0.26705297052E+03  0.34180953375E+03  0.77243462764E+02 0.  0.
        -11    1    3    3    0    0 -0.48262748902E+02  0.15162934402E+02  0.11150648329E+02  0.51802938811E+02  0.00000000000E+00 0.  1.
         12    1    3    3    0    0  0.20462663210E+02 -0.34680548967E+02 -0.47732170455E+02  0.62448548091E+02  0.00000000000E+00 0. -1.
        -11    1    4    4    0    0 -0.29096133233E+02  0.12796740821E+03 -0.18895422442E+03  0.23005638757E+03  0.00000000000E+00 0.  1.
         11    1    4    4    0    0  0.37221897357E+02  0.70738121948E+02 -0.78098746100E+02  0.11175314618E+03  0.00000000000E+00 0. -1.
         21    1    1    2  502  501  0.19674321569E+02 -0.17918791560E+03 -0.62583380839E+03  0.65127823835E+03  0.00000000000E+00 0. -1.
<scales pt_clust_5="13000.00000" pt_clust_6="13000.00000" pt_clust_7="13000.00000" pt_clust_8="13000.00000" pt_clust_9="184.57569"></scales>
<clustering>
<clus scale="   77.243">  7  8 -1 -1</clus>
<clus scale="  102.769">  5  6 -1 -1</clus>
<clus scale="  108.237">  1  5  2 -1</clus>
<clus scale="  184.576">  2  9  1 -1</clus>
<clus scale="  184.576">  2  5  1 -1</clus>
</clustering>
</event>
<event>
 9    2  0.3402837E-005  0.1458292E+03  0.7546771E-02  0.1207767E+00
         -3   -1    0    0    0  501 -0.00000000000E+00  0.00000000000E+00  0.26559612876E+03  0.26559612876E+03  0.00000000000E+00 0.  1.
          4   -1    0    0  502    0  0.00000000000E+00 -0.00000000000E+00 -0.10460873747E+03  0.10460873747E+03  0.00000000000E+00 0. -1.
         23    2    1    2    0    0  0.44524186714E+02  0.11181088319E+03  0.11882275161E+03  0.19196504365E+03  0.90816600252E+02 0.  0.
         24    2    1    2    0    0 -0.11287343718E+02 -0.11180955869E+03  0.23314945485E+02  0.14002989317E+03  0.80224701645E+02 0.  0.
        -11    1    4    4    0    0 -0.94511212196E+01 -0.23858051317E+02  0.42821903954E+02  0.49922397410E+02  0.00000000000E+00 0.  1.
         12    1    4    4    0    0 -0.18362224982E+01 -0.87951507376E+02 -0.19506958469E+02  0.90107495757E+02  0.00000000000E+00 0. -1.
        -11    1    3    3    0    0  0.52295488214E+02  0.33870010378E+02  0.87927505375E+02  0.10776475255E+03  0.00000000000E+00 0. -1.
         11    1    3    3    0    0 -0.77713014994E+01  0.77940872814E+02  0.30895246238E+02  0.84200291104E+02  0.00000000000E+00 0.  1.
         21    1    1    2  502  501 -0.33236842997E+02 -0.13244980988E-02  0.18849694200E+02  0.38209929411E+02  0.00000000000E+00 0.  1.
<scales pt_clust_5="13000.00000" pt_clust_6="13000.00000" pt_clust_7="13000.00000" pt_clust_8="13000.00000" pt_clust_9="33.23684"></scales>
<clustering>
<clus scale="   33.237">  1  9  2 -1</clus>
<clus scale="   80.225">  5  6 -1 -1</clus>
<clus scale="   90.817">  7  8 -1 -1</clus>
<clus scale="  139.479">  2  5  1 -1</clus>
<clus scale="  139.479">  2  5  1 -1</clus>
</clustering>
</event>
<event>
 9    2  0.3402837E-005  0.1377260E+03  0.7546771E-02  0.1235898E+00
          2   -1    0    0  502    0  0.00000000000E+00  0.00000000000E+00  0.18341462051E+04  0.18341462051E+04  0.00000000000E+00 0. -1.
         -1   -1    0    0    0  501 -0.00000000000E+00 -0.00000000000E+00 -0.48746145168E+02  0.48746145168E+02  0.00000000000E+00 0.  1.
         23    2    1    2    0    0 -0.94722322576E+01  0.19957056355E+02  0.26581061474E+03  0.28124256869E+03  0.89185717739E+02 0.  0.
         24    2    1    2    0    0  0.11275231597E+03 -0.63359460651E+01  0.14856560421E+04  0.14920879900E+04  0.79996657728E+02 0.  0.
        -11    1    4    4    0    0  0.25406077064E+02  0.77845586808E+00  0.85655913042E+02  0.89347692664E+02  0.00000000000E+00 0.  1.
         12    1    4    4    0    0  0.87346238909E+02 -0.71144019331E+01  0.14000001291E+04  0.14027402973E+04  0.00000000000E+00 0. -1.
        -13    1    3    3    0    0  0.14068337654E+02 -0.25614244311E+02  0.17069334501E+03  0.17317686239E+03  0.00000000000E+00 0. -1.
         13    1    3    3    0    0 -0.23540569911E+02  0.45571300666E+02  0.95117269734E+02  0.10806570630E+03  0.00000000000E+00 0.  1.
         21    1    1    2  502  501 -0.10328008372E+03 -0.13621110290E+02  0.33933403017E+02  0.10956179160E+03  0.00000000000E+00 0.  1.
<scales pt_clust_5="13000.00000" pt_clust_6="13000.00000" pt_clust_7="13000.00000" pt_clust_8="13000.00000" pt_clust_9="112.11147"></scales>
<clustering>
<clus scale="   79.997">  5  6 -1 -1</clus>
<clus scale="   89.186">  7  8 -1 -1</clus>
<clus scale="   91.881">  2  7  1 -1</clus>
<clus scale="  112.111">  2  9  1 -1</clus>
<clus scale="  137.726">  1  5  2 -1</clus>
</clustering>
</event>
<event>
 9    2  0.3402837E-005  0.1276071E+03  0.7546771E-02  0.1233202E+00
          2   -1    0    0  502    0  0.00000000000E+00  0.00000000000E+00  0.54022191285E+03  0.54022191285E+03  0.00000000000E+00 0. -1.
         -1   -1    0    0    0  501 -0.00000000000E+00 -0.00000000000E+00 -0.72074520293E+02  0.72074520293E+02  0.00000000000E+00 0.  1.
         23    2    1    2    0    0 -0.56420455384E+02 -0.75153389803E+02  0.22346963245E+02  0.13193897633E+03  0.89873282594E+02 0.  0.
         24    2    1    2    0    0  0.29563961693E+02  0.85716105599E+02  0.43090397283E+03  0.44788059376E+03  0.81838339857E+02 0.  0.
        -13    1    4    4    0    0  0.13444052631E+02  0.35909820579E+02  0.48097511491E+02  0.61511205295E+02  0.00000000000E+00 0.  1.
         14    1    4    4    0    0  0.16119909062E+02  0.49806285020E+02  0.38280646134E+03  0.38636938846E+03  0.00000000000E+00 0. -1.
        -13    1    3    3    0    0 -0.36302833209E+02 -0.91796516358E+02  0.32497212068E+02  0.10392576633E+03  0.00000000000E+00 0.  1.
         13    1    3    3    0    0 -0.20117622175E+02  0.16643126555E+02 -0.10150248822E+02  0.28013210003E+02  0.00000000000E+00 0. -1.
         21    1    1    2  502  501  0.26856493691E+02 -0.10562715796E+02  0.14896456479E+02  0.32476863057E+02  0.00000000000E+00 0.  1.
<scales pt_clust_5="13000.00000" pt_clust_6="13000.00000" pt_clust_7="13000.00000" pt_clust_8="13000.00000" pt_clust_9="28.85901"></scales>
<clustering>
<clus scale="   28.859">  2  9  1 -1</clus>
<clus scale="   81.838">  5  6 -1 -1</clus>
<clus scale="   89.873">  7  8 -1 -1</clus>
<clus scale="  122.081">  1  5  2 -1</clus>
<clus scale="  122.081">  1  5  2 -1</clus>
</clustering>
</event>
<event>
 9    2  0.3402837E-005  0.1085653E+03  0.7546771E-02  0.1266988E+00
          4   -1    0    0  502    0  0.00000000000E+00  0.00000000000E+00  0.28394507182E+03  0.28394507182E+03  0.00000000000E+00 0. -1.
         -3   -1    0    0    0  501 -0.00000000000E+00 -0.00000000000E+00 -0.14016120078E+03  0.14016120078E+03  0.00000000000E+00 0.  1.
         23    2    1    2    0    0  0.80389796761E+02  0.78381590087E+01 -0.59494057163E+02  0.13482697785E+03  0.90082267721E+02 0.  0.
         24    2    1    2    0    0 -0.58268037426E+02 -0.48246135700E+01  0.23223112716E+03  0.25271782019E+03  0.80725207573E+02 0.  0.
        -11    1    4    4    0    0  0.11176172439E+02 -0.24870366804E+02  0.69474768873E+02  0.74633675277E+02  0.00000000000E+00 0.  1.
         12    1    4    4    0    0 -0.69444209865E+02  0.20045753234E+02  0.16275635829E+03  0.17808414492E+03  0.00000000000E+00 0. -1.
        -11    1    3    3    0    0  0.18431259795E+02  0.44513805391E+02 -0.31575632188E+02  0.57603912681E+02  0.00000000000E+00 0.  1.
         11    1    3    3    0    0  0.61958536966E+02 -0.36675646383E+02 -0.27918424975E+02  0.77223065166E+02  0.00000000000E+00 0. -1.
         21    1    1    2  502  501 -0.22121759335E+02 -0.30135454387E+01 -0.28953198963E+02  0.36561474565E+02  0.00000000000E+00 0. -1.
<scales pt_clust_5="13000.00000" pt_clust_6="13000.00000" pt_clust_7="13000.00000" pt_clust_8="13000.00000" pt_clust_9="22.32608"></scales>
<clustering>
<clus scale="   22.326">  2  9  1 -1</clus>
<clus scale="   80.725">  5  6 -1 -1</clus>
<clus scale="   90.082">  7  8 -1 -1</clus>
<clus scale="  100.936">  1  5  2 -1</clus>
<clus scale="  100.936">  1  5  2 -1</clus>
</clustering>
</event>
<event>
 9    2  0.3402837E-005  0.2341643E+03  0.7546771E-02  0.1124601E+00
          2   -1    0    0  502    0  0.00000000000E+00  0.00000000000E+00  0.37380670241E+03  0.37380670241E+03  0.00000000000E+00 0. -1.
         -1   -1    0    0    0  501 -0.00000000000E+00 -0.00000000000E+00 -0.38500681506E+03  0.38500681506E+03  0.00000000000E+00 0.  1.
         24    2    1    2    0    0 -0.22400181500E+03  0.83560475198E+02 -0.26789030696E+03  0.36713603552E+03  0.76579931250E+02 0.  0.
         23    2    1    2    0    0  0.19263404226E+03 -0.91041000133E+02  0.27103651613E+03  0.35638283122E+03  0.90286163752E+02 0.  0.
        -13    1    3    3    0    0 -0.22907216614E+03  0.84267324712E+02 -0.26731582964E+03  0.36198451913E+03  0.00000000000E+00 0.  1.
         14    1    3    3    0    0  0.50703511370E+01 -0.70684951368E+00 -0.57447732396E+00  0.51515163868E+01  0.00000000000E+00 0. -1.
        -13    1    4    4    0    0  0.14783934845E+03 -0.40678854962E+02  0.23318214822E+03  0.27907912219E+03  0.00000000000E+00 0. -1.
         13    1    4    4    0    0  0.44794693809E+02 -0.50362145171E+02  0.37854367913E+02  0.77303709030E+02  0.00000000000E+00 0.  1.
         21    1    1    2  502  501  0.31367772743E+02  0.74805249343E+01 -0.14346321824E+02  0.35294650728E+02  0.00000000000E+00 0. -1.
<scales pt_clust_5="13000.00000" pt_clust_6="13000.00000" pt_clust_7="13000.00000" pt_clust_8="13000.00000" pt_clust_9="32.24741"></scales>
<clustering>
<clus scale="   32.247">  2  9  1 -1</clus>
<clus scale="   76.580">  5  6 -1 -1</clus>
<clus scale="   90.286">  7  8 -1 -1</clus>
<clus scale="  229.229">  2  5  1 -1</clus>
<clus scale="  234.164">  1  5  2 -1</clus>
</clustering>
</event>
<event>
 9    2  0.3402837E-005  0.9272868E+02  0.7546771E-02  0.1301158E+00
         -1   -1    0    0    0  501 -0.00000000000E+00  0.00000000000E+00  0.31323211792E+03  0.31323211792E+03  0.00000000000E+00 0.  1.
          2   -1    0    0  502    0  0.00000000000E+00 -0.00000000000E+00 -0.86197812310E+02  0.86197812310E+02  0.00000000000E+00 0. -1.
         24    2    1    2    0    0  0.16284148998E+02  0.46969173282E+02  0.15478031474E+03  0.18197831141E+03  0.81779479369E+02 0.  0.
         23    2    1    2    0    0 -0.49846338446E+01 -0.17286108600E+02 -0.40563842650E+02  0.10024826165E+03  0.89892338428E+02 0.  0.
        -11    1    3    3    0    0  0.20734363168E+02  0.19692193930E+02  0.15146719662E+03  0.15414281680E+03  0.00000000000E+00 0.  1.
         12    1    3    3    0    0 -0.44502141691E+01  0.27276979352E+02  0.33131181172E+01  0.27835494614E+02  0.00000000000E+00 0. -1.
        -13    1    4    4    0    0  0.19213761977E+02 -0.39031069454E+02  0.55042736710E+01  0.43850770355E+02  0.00000000000E+00 0.  1.
         13    1    4    4    0    0 -0.24198395822E+02  0.21744960855E+02 -0.46068116321E+02  0.56397491294E+02  0.00000000000E+00 0. -1.
         21    1    1    2  502  501 -0.11299515154E+02 -0.29683064683E+02  0.11281783353E+03  0.11720335718E+03  0.00000000000E+00 0.  1.
<scales pt_clust_5="13000.00000" pt_clust_6="13000.00000" pt_clust_7="13000.00000" pt_clust_8="13000.00000" pt_clust_9="31.76104"></scales>
<clustering>
<clus scale="   31.761">  1  9  2 -1</clus>
<clus scale="   81.779">  5  6 -1 -1</clus>
<clus scale="   84.887">  1  5  2 -1</clus>
<clus scale="   89.892">  7  8 -1 -1</clus>
<clus scale="   92.729">  2  5  1 -1</clus>
</clustering>
</event>
<event>
 9    2  0.3402837E-005  0.1563858E+03  0.7546771E-02  0.1194918E+00
         -1   -1    0    0    0  501 -0.00000000000E+00  0.00000000000E+00  0.51251836224E+03  0.51251836224E+03  0.00000000000E+00 0.  1.
          2   -1    0    0  502    0  0.00000000000E+00 -0.00000000000E+00 -0.10095597076E+03  0.10095597076E+03  0.00000000000E+00 0. -1.
         23    2    1    2    0    0 -0.61245426866E+02 -0.13179284747E+03  0.38501335513E+03  0.42133014017E+03  0.90351792639E+02 0.  0.
         24    2    1    2    0    0  0.63276061456E+02  0.10751235635E+03 -0.11029520756E+02  0.14735788153E+03  0.77652612309E+02 0.  0.
        -11    1    4    4    0    0  0.16519027806E+02  0.59362935784E+02  0.30167017149E+02  0.68606744189E+02  0.00000000000E+00 0.  1.
         12    1    4    4    0    0  0.46757033649E+02  0.48149420568E+02 -0.41196537905E+02  0.78751137338E+02  0.00000000000E+00 0. -1.
        -13    1    3    3    0    0 -0.27501748283E+02 -0.13448025217E+03  0.31073888210E+03  0.33970566264E+03  0.00000000000E+00 0.  1.
         13    1    3    3    0    0 -0.33743678583E+02  0.26874046997E+01  0.74274473024E+02  0.81624477526E+02  0.00000000000E+00 0. -1.
         21    1    1    2  502  501 -0.20306345896E+01  0.24280491115E+02  0.37578557110E+02  0.44786311302E+02  0.00000000000E+00 0.  1.
<scales pt_clust_5="13000.00000" pt_clust_6="13000.00000" pt_clust_7="13000.00000" pt_clust_8="13000.00000" pt_clust_9="24.36526"></scales>
<clustering>
<clus scale="   24.365">  1  9  2 -1</clus>
<clus scale="   77.653">  5  6 -1 -1</clus>
<clus scale="   90.352">  7  8 -1 -1</clus>
<clus scale="  149.409">  2  5  1 -1</clus>
<clus scale="  149.409">  2  5  1 -1</clus>
</clustering>
</event>
<event>
 9    2  0.3402837E-005  0.1691966E+03  0.7546771E-02  0.1181299E+00
         -1   -1    0    0    0  501 -0.00000000000E+00  0.00000000000E+00  0.19706158272E+03  0.19706158272E+03  0.00000000000E+00 0.  1.
          2   -1    0    0  502    0  0.00000000000E+00 -0.00000000000E+00 -0.17775683839E+03  0.17775683839E+03  0.00000000000E+00 0. -1.
         23    2    1    2    0    0 -0.10090064242E+03  0.74127922541E+02  0.27494210728E+02  0.16097130702E+03  0.97364991232E+02 0.  0.
         24    2    1    2    0    0  0.97237402269E+02 -0.11522973700E+03 -0.18192664208E+02  0.17138722188E+03  0.79433003870E+02 0.  0.
        -11    1    4    4    0    0  0.20558035407E+02 -0.18895794261E+02  0.28318341134E+02  0.39769489626E+02  0.00000000000E+00 0.  1.
         12    1    4    4    0    0  0.76679366862E+02 -0.96333942739E+02 -0.46511005342E+02  0.13161773225E+03  0.00000000000E+00 0. -1.
        -13    1    3    3    0    0 -0.41783621175E+01  0.42688649010E+02  0.39815609704E+02  0.58524031307E+02  0.00000000000E+00 0.  1.
         13    1    3    3    0    0 -0.96722280306E+02  0.31439273531E+02 -0.12321398977E+02  0.10244727571E+03  0.00000000000E+00 0. -1.
         21    1    1    2  502  501  0.36632401542E+01  0.41101814459E+02  0.10003197814E+02  0.42459892213E+02  0.00000000000E+00 0.  1.
<scales pt_clust_5="13000.00000" pt_clust_6="13000.00000" pt_clust_7="13000.00000" pt_clust_8="13000.00000" pt_clust_9="41.26474"></scales>
<clustering>
<clus scale="   41.265">  1  9  2 -1</clus>
<clus scale="   79.433">  5  6 -1 -1</clus>
<clus scale="   97.365">  7  8 -1 -1</clus>
<clus scale="  159.553">  2  5  1 -1</clus>
<clus scale="  159.553">  2  5  1 -1</clus>
</clustering>
</event>
<event>
 9    2  0.3402837E-005  0.1236108E+03  0.7546771E-02  0.1242341E+00
          2   -1    0    0  502    0  0.00000000000E+00  0.00000000000E+00  0.14504952482E+03  0.14504952482E+03  0.00000000000E+00 0. -1.
         -1   -1    0    0    0  501 -0.00000000000E+00 -0.00000000000E+00 -0.21111759681E+03  0.21111759681E+03  0.00000000000E+00 0.  1.
         24    2    1    2    0    0  0.67967035707E+02 -0.66171691284E+02 -0.64868905646E+02  0.13995314451E+03  0.79879265565E+02 0.  0.
         23    2    1    2    0    0 -0.32182742392E+02  0.65731259182E+02  0.67780046326E+02  0.13850399443E+03  0.96087951653E+02 0.  0.
        -13    1    3    3    0    0  0.77228377363E+02 -0.25388846034E+02 -0.34724430167E+02  0.88400236558E+02  0.00000000000E+00 0.  1.
         14    1    3    3    0    0 -0.92613416568E+01 -0.40782845250E+02 -0.30144475479E+02  0.51552907948E+02  0.00000000000E+00 0. -1.
        -13    1    4    4    0    0  0.20889402304E+02  0.52991110293E+02  0.61074745705E+02  0.83513768096E+02  0.00000000000E+00 0.  1.
         13    1    4    4    0    0 -0.53072144696E+02  0.12740148889E+02  0.67053006213E+01  0.54990226339E+02  0.00000000000E+00 0. -1.
         21    1    1    2  502  501 -0.35784293315E+02  0.44043210164E+00 -0.68979212677E+02  0.77709982692E+02  0.00000000000E+00 0. -1.
<scales pt_clust_5="13000.00000" pt_clust_6="13000.00000" pt_clust_7="13000.00000" pt_clust_8="13000.00000" pt_clust_9="35.78700"></scales>
<clustering>
<clus scale="   35.787">  2  9  1 -1</clus>
<clus scale="   79.879">  5  6 -1 -1</clus>
<clus scale="   96.088">  7  8 -1 -1</clus>
<clus scale="  111.478">  2  5  1 -1</clus>
<clus scale="  123.611">  1  5  2 -1</clus>
</clustering>
</event>
<event>
 9    2  0.3402837E-005  0.1136581E+03  0.7546771E-02  0.1256634E+00
         -1   -1    0    0    0  501 -0.00000000000E+00  0.00000000000E+00  0.13579794658E+03  0.13579794658E+03  0.00000000000E+00 0.  1.
          2   -1    0    0  502    0  0.00000000000E+00 -0.00000000000E+00 -0.23282278991E+03  0.23282278991E+03  0.00000000000E+00 0. -1.
         24    2    1    2    0    0 -0.44002034777E+02  0.46253674870E+02 -0.16434155900E+02  0.10472271279E+03  0.81370655582E+02 0.  0.
         23    2    1    2    0    0  0.34679292547E+02 -0.65898036513E+02 -0.15085664312E+03  0.19034451261E+03  0.89039890822E+02 0.  0.
        -13    1    3    3    0    0 -0.63969468571E+02  0.14481822575E+02 -0.14349204594E+02  0.67139524624E+02  0.00000000000E+00 0.  1.
         14    1    3    3    0    0  0.19967433794E+02  0.31771852295E+02 -0.20849513060E+01  0.37583188163E+02  0.00000000000E+00 0. -1.
        -13    1    4    4    0    0  0.26556942543E+01 -0.66458010511E+02 -0.14247877905E+03  0.15723842518E+03  0.00000000000E+00 0. -1.
         13    1    4    4    0    0  0.32023598293E+02  0.55997399805E+00 -0.83778640748E+01  0.33106087431E+02  0.00000000000E+00 0.  1.
         21    1    1    2  502  501  0.93227422293E+01  0.19644361643E+02  0.70265955685E+02  0.73553511101E+02  0.00000000000E+00 0.  1.
<scales pt_clust_5="13000.00000" pt_clust_6="13000.00000" pt_clust_7="13000.00000" pt_clust_8="13000.00000" pt_clust_9="21.74430"></scales>
<clustering>
<clus scale="   21.744">  1  9  2 -1</clus>
<clus scale="   81.371">  5  6 -1 -1</clus>
<clus scale="   89.040">  7  8 -1 -1</clus>
<clus scale="  107.756">  1  5  2 -1</clus>
<clus scale="  113.658">  2  5  1 -1</clus>
</clustering>
</event>
<event>
 9    2  0.3402837E-005  0.1072686E+03  0.7546771E-02  0.1270589E+00
          2   -1    0    0  502    0  0.00000000000E+00  0.00000000000E+00  0.90714493797E+03  0.90714493797E+03  0.00000000000E+00 0. -1.
         -1   -1    0    0    0  501 -0.00000000000E+00 -0.00000000000E+00 -0.17661514316E+02  0.17661514316E+02  0.00000000000E+00 0.  1.
         24    2    1    2    0    0  0.36913190708E+02  0.56843447445E+02  0.24702630258E+03  0.26812758765E+03  0.79225298524E+02 0.  0.
         23    2    1    2    0    0 -0.31656760130E+02 -0.21041331824E+02  0.50632961583E+03  0.51582390651E+03  0.90883081772E+02 0.  0.
        -11    1    3    3    0    0  0.30461945755E+02 -0.16375823769E+01  0.28247690351E+02  0.41575760070E+02  0.00000000000E+00 0.  1.
         12    1    3    3    0    0  0.64512449534E+01  0.58481029822E+02  0.21877861223E+03  0.22655182758E+03  0.00000000000E+00 0. -1.
        -11    1    4    4    0    0  0.18822795713E+02  0.23062473015E+02  0.11476050489E+03  0.11855863015E+03  0.00000000000E+00 0. -1.
         11    1    4    4    0    0 -0.50479555843E+02 -0.44103804838E+02  0.39156911094E+03  0.39726527636E+03  0.00000000000E+00 0.  1.
         21    1    1    2  502  501 -0.52564305785E+01 -0.35802115621E+02  0.13612750525E+03  0.14085495813E+03  0.00000000000E+00 0.  1.
<scales pt_clust_5="13000.00000" pt_clust_6="13000.00000" pt_clust_7="13000.00000" pt_clust_8="13000.00000" pt_clust_9="36.18593"></scales>
<clustering>
<clus scale="   36.186">  1  9  2 -1</clus>
<clus scale="   79.225">  5  6 -1 -1</clus>
<clus scale="   90.883">  7  8 -1 -1</clus>
<clus scale="   97.588">  2  5  1 -1</clus>
<clus scale="   36.186">  1  5  2 -1</clus>
</clustering>
</event>
<event>
 9    2  0.3402837E-005  0.1112482E+03  0.7546771E-02  0.1261459E+00
          2   -1    0    0  502    0  0.00000000000E+00  0.00000000000E+00  0.13891704433E+04  0.13891704433E+04  0.00000000000E+00 0. -1.
         -1   -1    0    0    0  501 -0.00000000000E+00 -0.00000000000E+00 -0.12530587346E+02  0.12530587346E+02  0.00000000000E+00 0.  1.
         23    2    1    2    0    0  0.26968867858E+02 -0.36705639607E+02  0.39081905070E+03  0.40373380792E+03  0.90481122075E+02 0.  0.
         24    2    1    2    0    0 -0.29932422363E+02  0.69459167410E+02  0.88280419244E+03  0.88982842879E+03  0.82041846935E+02 0.  0.
        -11    1    4    4    0    0 -0.13638755855E+02 -0.15324926123E+02  0.88535705341E+02  0.90881462038E+02  0.00000000000E+00 0.  1.
         12    1    4    4    0    0 -0.16293666508E+02  0.84784093533E+02  0.79426848710E+03  0.79894696675E+03  0.00000000000E+00 0. -1.
        -11    1    3    3    0    0 -0.30733069247E+02 -0.16334876145E+02  0.84942380586E+02  0.91796283932E+02  0.00000000000E+00 0.  1.
         11    1    3    3    0    0  0.57701937105E+02 -0.20370763462E+02  0.30587667011E+03  0.31193752399E+03  0.00000000000E+00 0. -1.
         21    1    1    2  502  501  0.29635545044E+01 -0.32753527803E+02  0.10301661280E+03  0.10813879393E+03  0.00000000000E+00 0.  1.
<scales pt_clust_5="13000.00000" pt_clust_6="13000.00000" pt_clust_7="13000.00000" pt_clust_8="13000.00000" pt_clust_9="32.88733"></scales>
<clustering>
<clus scale="   32.887">  2  9  1 -1</clus>
<clus scale="   82.042">  5  6 -1 -1</clus>
<clus scale="   90.481">  7  8 -1 -1</clus>
<clus scale="  104.500">  1  5  2 -1</clus>
<clus scale="  104.500">  1  5  2 -1</clus>
</clustering>
</event>
<event>
 9    2  0.3402837E-005  0.1446757E+03  0.7546771E-02  0.1225635E+00
         -3   -1    0    0    0  501 -0.00000000000E+00  0.00000000000E+00  0.26806123625E+03  0.26806123625E+03  0.00000000000E+00 0.  1.
          4   -1    0    0  502    0  0.00000000000E+00 -0.00000000000E+00 -0.12917518002E+03  0.12917518002E+03  0.00000000000E+00 0. -1.
         23    2    1    2    0    0 -0.30012424436E+02 -0.23237471628E+02  0.49605120664E+02  0.10979600367E+03  0.90298221010E+02 0.  0.
         24    2    1    2    0    0 -0.81393122012E+02  0.84667906619E+02  0.23235732059E+02  0.14409864259E+03  0.80193670769E+02 0.  0.
        -13    1    4    4    0    0 -0.95492143386E+02  0.57410199873E+02  0.15945208678E+02  0.11255634224E+03  0.00000000000E+00 0.  1.
         14    1    4    4    0    0  0.14099021374E+02  0.27257706746E+02  0.72905233810E+01  0.31542300359E+02  0.00000000000E+00 0. -1.
        -13    1    3    3    0    0 -0.43624182876E+02  0.50729828157E+01 -0.75643216470E+01  0.44564822991E+02  0.00000000000E+00 0. -1.
         13    1    3    3    0    0  0.13611758440E+02 -0.28310454444E+02  0.57169442311E+02  0.65231180679E+02  0.00000000000E+00 0.  1.
         21    1    1    2  502  501  0.11140554645E+03 -0.61430434991E+02  0.66045203511E+02  0.14334177001E+03  0.00000000000E+00 0. -1.
<scales pt_clust_5="13000.00000" pt_clust_6="13000.00000" pt_clust_7="13000.00000" pt_clust_8="13000.00000" pt_clust_9="120.41606"></scales>
<clustering>
<clus scale="   80.194">  5  6 -1 -1</clus>
<clus scale="   90.298">  7  8 -1 -1</clus>
<clus scale="   97.951">  1  7  2 -1</clus>
<clus scale="  120.416">  1  9  2 -1</clus>
<clus scale="  144.676">  2  5  1 -1</clus>
</clustering>
</event>
<event>
 9    2  0.3402837E-005  0.1676140E+03  0.7546771E-02  0.1181879E+00
         -1   -1    0    0    0  501 -0.00000000000E+00  0.00000000000E+00  0.67832941788E+02  0.67832941788E+02  0.00000000000E+00 0.  1.
          2   -1    0    0  502    0  0.00000000000E+00 -0.00000000000E+00 -0.84400671836E+03  0.84400671836E+03  0.00000000000E+00 0. -1.
         23    2    1    2    0    0 -0.11870927455E+03  0.93425819076E+02 -0.19343668799E+03  0.26193998698E+03  0.91512452636E+02 0.  0.
         24    2    1    2    0    0  0.12050541689E+03 -0.66496042224E+02 -0.59797747551E+03  0.61890437670E+03  0.80760678291E+02 0.  0.
        -13    1    4    4    0    0  0.46931353905E+02 -0.70785156265E+02 -0.28626551767E+03  0.29859845434E+03  0.00000000000E+00 0.  1.
         14    1    4    4    0    0  0.73574062981E+02  0.42891140410E+01 -0.31171195784E+03  0.32030592236E+03  0.00000000000E+00 0. -1.
        -11    1    3    3    0    0 -0.64436767011E+02  0.31255290822E+02 -0.27688831528E+02  0.76783211307E+02  0.00000000000E+00 0.  1.
         11    1    3    3    0    0 -0.54272507535E+02  0.62170528254E+02 -0.16574785646E+03  0.18515677568E+03  0.00000000000E+00 0. -1.
         21    1    1    2  502  501 -0.17961423397E+01 -0.26929776852E+02  0.15240386931E+02  0.30995296456E+02  0.00000000000E+00 0.  1.
<scales pt_clust_5="13000.00000" pt_clust_6="13000.00000" pt_clust_7="13000.00000" pt_clust_8="13000.00000" pt_clust_9="26.98961"></scales>
<clustering>
<clus scale="   26.990">  1  9  2 -1</clus>
<clus scale="   80.761">  5  6 -1 -1</clus>
<clus scale="   91.512">  7  8 -1 -1</clus>
<clus scale="  161.995">  2  5  1 -1</clus>
<clus scale="  161.995">  2  5  1 -1</clus>
</clustering>
</event>
<event>
 9    2  0.3402837E-005  0.1223394E+03  0.7546771E-02  0.1245465E+00
          2   -1    0    0  502    0  0.00000000000E+00  0.00000000000E+00  0.12458877818E+04  0.12458877818E+04  0.00000000000E+00 0. -1.
         -1   -1    0    0    0  501 -0.00000000000E+00 -0.00000000000E+00 -0.14462919211E+02  0.14462919211E+02  0.00000000000E+00 0.  1.
         23    2    1    2    0    0 -0.84327868611E+02  0.16761803803E+02  0.47343445412E+03  0.49108387575E+03  0.98137878401E+02 0.  0.
         24    2    1    2    0    0  0.58119423549E+02  0.23944982483E+01  0.59022787857E+03  0.59839227204E+03  0.79503217462E+02 0.  0.
        -13    1    4    4    0    0  0.73330619437E+02  0.10451901139E+02  0.36110571059E+03  0.36862441075E+03  0.00000000000E+00 0.  1.
         14    1    4    4    0    0 -0.15211195888E+02 -0.80574028905E+01  0.22912216798E+03  0.22976786129E+03  0.00000000000E+00 0. -1.
        -13    1    3    3    0    0 -0.14394572964E+02 -0.38605516494E+02  0.14202124456E+03  0.14787705549E+03  0.00000000000E+00 0.  1.
         13    1    3    3    0    0 -0.69933295647E+02  0.55367320297E+02  0.33141320956E+03  0.34320682025E+03  0.00000000000E+00 0. -1.
         21    1    1    2  502  501  0.26208445061E+02 -0.19156302052E+02  0.16776252995E+03  0.17087455327E+03  0.00000000000E+00 0.  1.
<scales pt_clust_5="13000.00000" pt_clust_6="13000.00000" pt_clust_7="13000.00000" pt_clust_8="13000.00000" pt_clust_9="32.46300"></scales>
<clustering>
<clus scale="   32.463">  1  9  2 -1</clus>
<clus scale="   79.503">  5  6 -1 -1</clus>
<clus scale="   98.138">  7  8 -1 -1</clus>
<clus scale="  107.966">  1  5  2 -1</clus>
<clus scale="   32.463">  1  5  2 -1</clus>
</clustering>
</event>
<event>
 9    2  0.3402837E-005  0.1798767E+03  0.7546771E-02  0.1169023E+00
         -1   -1    0    0    0  501 -0.00000000000E+00  0.00000000000E+00  0.95691760620E+02  0.95691760620E+02  0.00000000000E+00 0.  1.
          2   -1    0    0  502    0  0.00000000000E+00 -0.00000000000E+00 -0.13713070841E+04  0.13713070841E+04  0.00000000000E+00 0. -1.
         23    2    1    2    0    0 -0.43596661770E+02 -0.15232495234E+03 -0.20483912521E+02  0.18377046158E+03  0.90820877844E+02 0.  0.
         24    2    1    2    0    0  0.90461894059E+02  0.12671343639E+03 -0.11671115969E+04  0.11802731142E+04  0.81581217887E+02 0.  0.
        -13    1    4    4    0    0  0.25821981475E+02  0.63056098703E+02 -0.26533045309E+03  0.27393994898E+03  0.00000000000E+00 0.  1.
         14    1    4    4    0    0  0.64639912584E+02  0.63657337690E+02 -0.90178114386E+03  0.90633316521E+03  0.00000000000E+00 0. -1.
        -13    1    3    3    0    0 -0.30006239535E+02 -0.68079435514E+02  0.34756096290E+02  0.82116808147E+02  0.00000000000E+00 0.  1.
         13    1    3    3    0    0 -0.13590422235E+02 -0.84245516829E+02 -0.55240008810E+02  0.10165365343E+03  0.00000000000E+00 0. -1.
         21    1    1    2  502  501 -0.46865232289E+02  0.25611515950E+02 -0.88019814020E+02  0.10295526896E+03  0.00000000000E+00 0.  1.
<scales pt_clust_5="13000.00000" pt_clust_6="13000.00000" pt_clust_7="13000.00000" pt_clust_8="13000.00000" pt_clust_9="53.40693"></scales>
<clustering>
<clus scale="   53.407">  1  9  2 -1</clus>
<clus scale="   81.581">  5  6 -1 -1</clus>
<clus scale="   90.821">  7  8 -1 -1</clus>
<clus scale="  175.393">  2  5  1 -1</clus>
<clus scale="  175.393">  2  5  1 -1</clus>
</clustering>
</event>
<event>
 9    2  0.3402837E-005  0.1026075E+03  0.7546771E-02  0.1276574E+00
          2   -1    0    0  502    0  0.00000000000E+00  0.00000000000E+00  0.39758912321E+03  0.39758912321E+03  0.00000000000E+00 0. -1.
         -1   -1    0    0    0  501 -0.00000000000E+00 -0.00000000000E+00 -0.13271904749E+03  0.13271904749E+03  0.00000000000E+00 0.  1.
         24    2    1    2    0    0  0.83864881093E+02 -0.47694304905E+02  0.14461656193E+02  0.12691970409E+03  0.81187479241E+02 0.  0.
         23    2    1    2    0    0 -0.52383881373E+02 -0.18365380583E+02  0.29883579894E+03  0.31563798816E+03  0.85106677832E+02 0.  0.
        -11    1    3    3    0    0  0.46207729281E+02 -0.68376068890E+02  0.15384066766E+02  0.83947069945E+02  0.00000000000E+00 0.  1.
         12    1    3    3    0    0  0.37657151812E+02  0.20681763985E+02 -0.92241057305E+00  0.42972634145E+02  0.00000000000E+00 0. -1.
        -13    1    4    4    0    0  0.69848390210E+01  0.24892466057E+02  0.51509731891E+02  0.57633977149E+02  0.00000000000E+00 0.  1.
         13    1    4    4    0    0 -0.59368720394E+02 -0.43257846639E+02  0.24732606705E+03  0.25800401102E+03  0.00000000000E+00 0. -1.
         21    1    1    2  502  501 -0.31480999721E+02  0.66059685487E+02 -0.48427379418E+02  0.87750478445E+02  0.00000000000E+00 0.  1.
<scales pt_clust_5="13000.00000" pt_clust_6="13000.00000" pt_clust_7="13000.00000" pt_clust_8="13000.00000" pt_clust_9="73.17742"></scales>
<clustering>
<clus scale="   73.177">  2  9  1 -1</clus>
<clus scale="   81.187">  5  6 -1 -1</clus>
<clus scale="   85.107">  7  8 -1 -1</clus>
<clus scale="   99.381">  2  5  1 -1</clus>
<clus scale="  102.608">  1  5  2 -1</clus>
</clustering>
</event>
<event>
 9    2  0.3402837E-005  0.9582280E+02  0.7546771E-02  0.1297272E+00
          2   -1    0    0  502    0  0.00000000000E+00  0.00000000000E+00  0.16003450364E+03  0.16003450364E+03  0.00000000000E+00 0. -1.
         -1   -1    0    0    0  501 -0.00000000000E+00 -0.00000000000E+00 -0.12435214946E+03  0.12435214946E+03  0.00000000000E+00 0.  1.
         24    2    1    2    0    0 -0.21296010108E+02  0.29819868221E+02 -0.42458750460E+01  0.85982962593E+02  0.77667868608E+02 0.  0.
         23    2    1    2    0    0 -0.90756275251E+00 -0.26730175162E+02  0.97634054876E+02  0.13649644404E+03  0.91561698480E+02 0.  0.
        -13    1    3    3    0    0 -0.44586515401E+02  0.31452674181E+02 -0.19669253249E+02  0.58000927511E+02  0.00000000000E+00 0.  1.
         14    1    3    3    0    0  0.23290505293E+02 -0.16328059600E+01  0.15423378203E+02  0.27982035082E+02  0.00000000000E+00 0. -1.
        -11    1    4    4    0    0 -0.27592666549E+02 -0.18078526483E+02  0.10280803503E+03  0.10797073878E+03  0.00000000000E+00 0. -1.
         11    1    4    4    0    0  0.26685103797E+02 -0.86516486793E+01 -0.51739801523E+01  0.28525705252E+02  0.00000000000E+00 0.  1.
         21    1    1    2  502  501  0.22203572860E+02 -0.30896930594E+01 -0.57705825651E+02  0.61907246466E+02  0.00000000000E+00 0. -1.
<scales pt_clust_5="13000.00000" pt_clust_6="13000.00000" pt_clust_7="13000.00000" pt_clust_8="13000.00000" pt_clust_9="22.41751"></scales>
<clustering>
<clus scale="   22.418">  2  9  1 -1</clus>
<clus scale="   77.668">  5  6 -1 -1</clus>
<clus scale="   82.648">  2  5  1 -1</clus>
<clus scale="   91.562">  7  8 -1 -1</clus>
<clus scale="   95.823">  1  5  2 -1</clus>
</clustering>
</event>
<event>
 9    2  0.3402837E-005  0.9066984E+02  0.7546771E-02  0.1318077E+00
         -1   -1    0    0    0  501 -0.00000000000E+00  0.00000000000E+00  0.10017937246E+03  0.10017937246E+03  0.00000000000E+00 0.  1.
          2   -1    0    0  502    0  0.00000000000E+00 -0.00000000000E+00 -0.12311594034E+03  0.12311594034E+03  0.00000000000E+00 0. -1.
         24    2    1    2    0    0  0.20235372448E+02  0.99197168061E+01  0.50950521158E+02  0.84923874001E+02  0.64095535644E+02 0.  0.
         23    2    1    2    0    0  0.65182133403E+01 -0.10819984433E+02 -0.62682722078E+02  0.10935243342E+03  0.88708916572E+02 0.  0.
        -11    1    3    3    0    0  0.29524381057E+02 -0.20539469934E+02  0.29656085407E+02  0.46615901832E+02  0.00000000000E+00 0.  1.
         12    1    3    3    0    0 -0.92890086085E+01  0.30459186740E+02  0.21294435750E+02  0.38307972169E+02  0.00000000000E+00 0. -1.
        -11    1    4    4    0    0  0.25659545377E+02 -0.25412644333E+02  0.59687353246E+01  0.36603832618E+02  0.00000000000E+00 0.  1.
         11    1    4    4    0    0 -0.19141332037E+02  0.14592659900E+02 -0.68651457402E+02  0.72748600801E+02  0.00000000000E+00 0. -1.
         21    1    1    2  502  501 -0.26753585788E+02  0.90026762703E+00 -0.11204366952E+02  0.29019005378E+02  0.00000000000E+00 0. -1.
<scales pt_clust_5="13000.00000" pt_clust_6="13000.00000" pt_clust_7="13000.00000" pt_clust_8="13000.00000" pt_clust_9="26.76873"></scales>
<clustering>
<clus scale="   26.769">  2  9  1 -1</clus>
<clus scale="   64.096">  5  6 -1 -1</clus>
<clus scale="   66.783">  1  5  2 -1</clus>
<clus scale="   88.709">  7  8 -1 -1</clus>
<clus scale="   26.769">  2  5  1 -1</clus>
</clustering>
</event>
<event>
 9    2  0.3402837E-005  0.9578402E+02  0.7546771E-02  0.1295231E+00
          2   -1    0    0  502    0  0.00000000000E+00  0.00000000000E+00  0.52496720722E+03  0.52496720722E+03  0.00000000000E+00 0. -1.
         -1   -1    0    0    0  501 -0.00000000000E+00 -0.00000000000E+00 -0.38850838103E+02  0.38850838103E+02  0.00000000000E+00 0.  1.
         24    2    1    2    0    0 -0.44058686633E+02  0.48052486429E+02  0.81492190066E+02  0.13173132204E+03  0.80386285178E+02 0.  0.
         23    2    1    2    0    0  0.14545355441E+02 -0.16399429526E+02  0.35074609246E+03  0.36297955329E+03  0.90834057929E+02 0.  0.
        -13    1    3    3    0    0  0.12975915453E+02  0.23916721145E+02 -0.25565435636E+01  0.27329834379E+02  0.00000000000E+00 0.  1.
         14    1    3    3    0    0 -0.57034602087E+02  0.24135765284E+02  0.84048733629E+02  0.10440148766E+03  0.00000000000E+00 0. -1.
        -11    1    4    4    0    0  0.49813935506E+02 -0.17320533193E+02  0.14638942555E+03  0.15559978456E+03  0.00000000000E+00 0.  1.
         11    1    4    4    0    0 -0.35268580065E+02  0.92110366658E+00  0.20435666691E+03  0.20737976874E+03  0.00000000000E+00 0. -1.
         21    1    1    2  502  501  0.29513331192E+02 -0.31653056903E+02  0.53878086591E+02  0.69107169990E+02  0.00000000000E+00 0.  1.
<scales pt_clust_5="13000.00000" pt_clust_6="13000.00000" pt_clust_7="13000.00000" pt_clust_8="13000.00000" pt_clust_9="43.27762"></scales>
<clustering>
<clus scale="   43.278">  2  9  1 -1</clus>
<clus scale="   80.386">  5  6 -1 -1</clus>
<clus scale="   85.940">  2  5  1 -1</clus>
<clus scale="   90.834">  7  8 -1 -1</clus>
<clus scale="   95.784">  1  5  2 -1</clus>
</clustering>
</event>
<event>
 9    2  0.3402837E-005  0.3209911E+03  0.7546771E-02  0.1075194E+00
         -1   -1    0    0    0  501 -0.00000000000E+00  0.00000000000E+00  0.99691746420E+02  0.99691746420E+02  0.00000000000E+00 0.  1.
          2   -1    0    0  502    0  0.00000000000E+00 -0.00000000000E+00 -0.91513860816E+03  0.91513860816E+03  0.00000000000E+00 0. -1.
         24    2    1    2    0    0  0.83080484951E+02 -0.86454013360E+01 -0.22748725845E+03  0.25528942664E+03  0.80281558617E+02 0.  0.
         23    2    1    2    0    0  0.16246917973E+03 -0.85632745146E+02 -0.34718028609E+03  0.40294916370E+03  0.90025974467E+02 0.  0.
        -13    1    3    3    0    0  0.41056883296E+02 -0.16181510133E+02 -0.30295451220E+02  0.53528714731E+02  0.00000000000E+00 0.  1.
         14    1    3    3    0    0  0.42023601655E+02  0.75361087971E+01 -0.19719180723E+03  0.20176071191E+03  0.00000000000E+00 0. -1.
        -13    1    4    4    0    0  0.28615440349E+01 -0.37645996857E+02 -0.69450845063E+02  0.79049537592E+02  0.00000000000E+00 0.  1.
         13    1    4    4    0    0  0.15960763569E+03 -0.47986748289E+02 -0.27772944103E+03  0.32389962611E+03  0.00000000000E+00 0. -1.
         21    1    1    2  502  501 -0.24554966468E+03  0.94278146482E+02 -0.24077931721E+03  0.35659176424E+03  0.00000000000E+00 0.  1.
<scales pt_clust_5="13000.00000" pt_clust_6="13000.00000" pt_clust_7="13000.00000" pt_clust_8="13000.00000" pt_clust_9="263.02663"></scales>
<clustering>
<clus scale="   80.282">  5  6 -1 -1</clus>
<clus scale="   90.026">  7  8 -1 -1</clus>
<clus scale="   97.244">  5  7 -1 -1</clus>
<clus scale="  263.027">  1  9  2 -1</clus>
<clus scale="  320.991">  2  5  1 -1</clus>
</clustering>
</event>
<event>
 9    2  0.3402837E-005  0.9826382E+02  0.7546771E-02  0.1289608E+00
          2   -1    0    0  502    0  0.00000000000E+00  0.00000000000E+00  0.14891010911E+03  0.14891010911E+03  0.00000000000E+00 0. -1.
         -1   -1    0    0    0  501 -0.00000000000E+00 -0.00000000000E+00 -0.19813737857E+03  0.19813737857E+03  0.00000000000E+00 0.  1.
         24    2    1    2    0    0 -0.10863346689E+02 -0.54144070227E+02 -0.12806992570E+03  0.16043547279E+03  0.79297177883E+02 0.  0.
         23    2    1    2    0    0  0.26201020925E+02  0.27395438275E+02  0.10692262033E+03  0.14490808286E+03  0.90160424831E+02 0.  0.
        -11    1    3    3    0    0 -0.19016704556E+02  0.16565404144E+02 -0.38555569558E+02  0.46071461997E+02  0.00000000000E+00 0.  1.
         12    1    3    3    0    0  0.81533578662E+01 -0.70709474371E+02 -0.89514356140E+02  0.11436401080E+03  0.00000000000E+00 0. -1.
        -13    1    4    4    0    0  0.21156434501E+02 -0.20970334237E+02  0.87695703413E+02  0.92616877706E+02  0.00000000000E+00 0.  1.
         13    1    4    4    0    0  0.50445864240E+01  0.48365772512E+02  0.19226916915E+02  0.52291205158E+02  0.00000000000E+00 0. -1.
         21    1    1    2  502  501 -0.15337674235E+02  0.26748631953E+02 -0.28079964097E+02  0.41703932020E+02  0.00000000000E+00 0. -1.
<scales pt_clust_5="13000.00000" pt_clust_6="13000.00000" pt_clust_7="13000.00000" pt_clust_8="13000.00000" pt_clust_9="30.83397"></scales>
<clustering>
<clus scale="   30.834">  2  9  1 -1</clus>
<clus scale="   79.297">  5  6 -1 -1</clus>
<clus scale="   88.402">  2  5  1 -1</clus>
<clus scale="   90.160">  7  8 -1 -1</clus>
<clus scale="   98.264">  1  5  2 -1</clus>
</clustering>
</event>
<event>
 9    2  0.3402837E-005  0.9903520E+02  0.7546771E-02  0.1287570E+00
          2   -1    0    0  502    0  0.00000000000E+00  0.00000000000E+00  0.10255604488E+03  0.10255604488E+03  0.00000000000E+00 0. -1.
         -1   -1    0    0    0  501 -0.00000000000E+00 -0.00000000000E+00 -0.13521486600E+03  0.13521486600E+03  0.00000000000E+00 0.  1.
         23    2    1    2    0    0 -0.56249617973E+02 -0.17226012634E+02 -0.30482297486E+02  0.11268607791E+03  0.91149474276E+02 0.  0.
         24    2    1    2    0    0  0.14972276083E+02  0.14654959686E+02 -0.39093931505E+01  0.83691209027E+02  0.80932059279E+02 0.  0.
        -13    1    4    4    0    0  0.34533510725E+02 -0.71433908298E+01 -0.28584124119E+02  0.45394311838E+02  0.00000000000E+00 0.  1.
         14    1    4    4    0    0 -0.19561234642E+02  0.21798350516E+02  0.24674730969E+02  0.38296897189E+02  0.00000000000E+00 0. -1.
        -13    1    3    3    0    0 -0.38582233791E+02 -0.46159351662E+02  0.87970936553E+01  0.60800192162E+02  0.00000000000E+00 0. -1.
         13    1    3    3    0    0 -0.17667384183E+02  0.28933339028E+02 -0.39279391141E+02  0.51885885745E+02  0.00000000000E+00 0.  1.
         21    1    1    2  502  501  0.41277341891E+02  0.25710529481E+01  0.17328695169E+01  0.41393623949E+02  0.00000000000E+00 0. -1.
<scales pt_clust_5="13000.00000" pt_clust_6="13000.00000" pt_clust_7="13000.00000" pt_clust_8="13000.00000" pt_clust_9="41.35734"></scales>
<clustering>
<clus scale="   41.357">  1  9  2 -1</clus>
<clus scale="   80.932">  5  6 -1 -1</clus>
<clus scale="   89.720">  1  5  2 -1</clus>
<clus scale="   91.149">  7  8 -1 -1</clus>
<clus scale="   41.357">  1  5  2 -1</clus>
</clustering>
</event>
<event>
 9    2  0.3402837E-005  0.1016673E+03  0.7546771E-02  0.1281782E+00
          2   -1    0    0  502    0  0.00000000000E+00  0.00000000000E+00  0.20659370369E+03  0.20659370369E+03  0.00000000000E+00 0. -1.
         -1   -1    0    0    0  501 -0.00000000000E+00 -0.00000000000E+00 -0.14868390538E+03  0.14868390538E+03  0.00000000000E+00 0.  1.
         24    2    1    2    0    0 -0.18605314968E+02 -0.81799058466E+02 -0.56501460849E+02  0.12601794756E+03  0.75172231036E+02 0.  0.
         23    2    1    2    0    0  0.69568192232E+01  0.48552479440E+02  0.14958871911E+03  0.17947536519E+03  0.86190957951E+02 0.  0.
        -13    1    3    3    0    0 -0.44734540633E+02 -0.70150719934E+02 -0.48532001619E+02  0.96320599116E+02  0.00000000000E+00 0.  1.
         14    1    3    3    0    0  0.26129225664E+02 -0.11648338532E+02 -0.79694592303E+01  0.29697348447E+02  0.00000000000E+00 0. -1.
        -11    1    4    4    0    0 -0.23331669420E+02  0.32201639984E+02  0.18345189956E+02  0.43793360342E+02  0.00000000000E+00 0.  1.
         11    1    4    4    0    0  0.30288488643E+02  0.16350839456E+02  0.13124352916E+03  0.13568200485E+03  0.00000000000E+00 0. -1.
         21    1    1    2  502  501  0.11648495745E+02  0.33246579026E+02 -0.35177459953E+02  0.49784296307E+02  0.00000000000E+00 0.  1.
<scales pt_clust_5="13000.00000" pt_clust_6="13000.00000" pt_clust_7="13000.00000" pt_clust_8="13000.00000" pt_clust_9="35.22815"></scales>
<clustering>
<clus scale="   35.228">  2  9  1 -1</clus>
<clus scale="   75.172">  5  6 -1 -1</clus>
<clus scale="   86.191">  7  8 -1 -1</clus>
<clus scale="   92.511">  2  5  1 -1</clus>
<clus scale="  101.667">  1  5  2 -1</clus>
</clustering>
</event>
<event>
 9    2  0.3402837E-005  0.1408563E+03  0.7546771E-02  0.1214712E+00
         -1   -1    0    0    0  501 -0.00000000000E+00  0.00000000000E+00  0.10415997836E+03  0.10415997836E+03  0.00000000000E+00 0.  1.
          2   -1    0    0  502    0  0.00000000000E+00 -0.00000000000E+00 -0.60082215800E+03  0.60082215800E+03  0.00000000000E+00 0. -1.
         23    2    1    2    0    0 -0.80806208866E+02  0.77018603943E+02 -0.17114166335E+02  0.14547540681E+03  0.91698912488E+02 0.  0.
         24    2    1    2    0    0  0.13667241349E+03  0.35003937851E+02 -0.29246786448E+03  0.33440882914E+03  0.79919891009E+02 0.  0.
        -11    1    4    4    0    0  0.13942382088E+03  0.42796952119E+02 -0.23664421198E+03  0.27797673284E+03  0.00000000000E+00 0.  1.
         12    1    4    4    0    0 -0.27514073870E+01 -0.77930142681E+01 -0.55823652500E+02  0.56432096297E+02  0.00000000000E+00 0. -1.
        -13    1    3    3    0    0 -0.77595941223E+02  0.11571782813E+02 -0.15255738110E+02  0.79923549703E+02  0.00000000000E+00 0. -1.
         13    1    3    3    0    0 -0.32102676433E+01  0.65446821130E+02 -0.18584282251E+01  0.65551857104E+02  0.00000000000E+00 0.  1.
         21    1    1    2  502  501 -0.55866204623E+02 -0.11202254179E+03 -0.18708014882E+03  0.22509790042E+03  0.00000000000E+00 0. -1.
<scales pt_clust_5="13000.00000" pt_clust_6="13000.00000" pt_clust_7="13000.00000" pt_clust_8="13000.00000" pt_clust_9="125.18020"></scales>
<clustering>
<clus scale="   79.920">  5  6 -1 -1</clus>
<clus scale="   91.699">  7  8 -1 -1</clus>
<clus scale="  125.180">  2  9  1 -1</clus>
<clus scale="  133.488">  2  5  1 -1</clus>
<clus scale="  125.180">  2  5  1 -1</clus>
</clustering>
</event>
<event>
 9    2  0.3402837E-005  0.3204882E+03  0.7546771E-02  0.1075661E+00
          2   -1    0    0  502    0  0.00000000000E+00  0.00000000000E+00  0.46272418649E+03  0.46272418649E+03  0.00000000000E+00 0. -1.
         -1   -1    0    0    0  501 -0.00000000000E+00 -0.00000000000E+00 -0.28330283738E+03  0.28330283738E+03  0.00000000000E+00 0.  1.
         23    2    1    2    0    0 -0.23946342365E+03  0.12416100542E+03 -0.26859444096E+02  0.28535009124E+03  0.89132251740E+02 0.  0.
         24    2    1    2    0    0  0.30317873950E+03 -0.13536923138E+03  0.19901022085E+03  0.39557603382E+03  0.81444175016E+02 0.  0.
        -11    1    4    4    0    0  0.38216692912E+02 -0.41698712070E+01 -0.12660755729E+01  0.38464352203E+02  0.00000000000E+00 0.  1.
         12    1    4    4    0    0  0.26496204659E+03 -0.13119936017E+03  0.20027629642E+03  0.35711168162E+03  0.00000000000E+00 0. -1.
        -11    1    3    3    0    0 -0.88653651775E+02  0.83137701947E+02 -0.41376474495E+02  0.12838753872E+03  0.00000000000E+00 0.  1.
         11    1    3    3    0    0 -0.15080977187E+03  0.41023303478E+02  0.14517030399E+02  0.15696255252E+03  0.00000000000E+00 0. -1.
         21    1    1    2  502  501 -0.63715315854E+02  0.11208225951E+02  0.72705723543E+01  0.65100898809E+02  0.00000000000E+00 0. -1.
<scales pt_clust_5="13000.00000" pt_clust_6="13000.00000" pt_clust_7="13000.00000" pt_clust_8="13000.00000" pt_clust_9="64.69363"></scales>
<clustering>
<clus scale="   64.694">  2  9  1 -1</clus>
<clus scale="   81.444">  5  6 -1 -1</clus>
<clus scale="   89.132">  7  8 -1 -1</clus>
<clus scale="  318.436">  1  5  2 -1</clus>
<clus scale="  318.436">  1  5  2 -1</clus>
</clustering>
</event>
<event>
 9    2  0.3402837E-005  0.2080808E+03  0.7546771E-02  0.1143813E+00
         -1   -1    0    0    0  501 -0.00000000000E+00  0.00000000000E+00  0.45962183823E+03  0.45962183823E+03  0.00000000000E+00 0.  1.
          2   -1    0    0  502    0  0.00000000000E+00 -0.00000000000E+00 -0.57031918149E+03  0.57031918149E+03  0.00000000000E+00 0. -1.
         24    2    1    2    0    0 -0.12211405865E+02 -0.16187140939E+03  0.29504640473E+03  0.34668176407E+03  0.82367426712E+02 0.  0.
         23    2    1    2    0    0  0.12126543232E+03  0.14726397144E+03 -0.49717020947E+03  0.54020347706E+03  0.90827292649E+02 0.  0.
        -11    1    3    3    0    0 -0.13002045056E+02 -0.16255133531E+03  0.30008823871E+03  0.34153322063E+03  0.00000000000E+00 0.  1.
         12    1    3    3    0    0  0.79063919101E+00  0.67992592202E+00 -0.50418339797E+01  0.51485434318E+01  0.00000000000E+00 0. -1.
        -11    1    4    4    0    0  0.37945907909E+02  0.35267242966E+02 -0.50956794793E+02  0.72665433936E+02  0.00000000000E+00 0.  1.
         11    1    4    4    0    0  0.83319524410E+02  0.11199672847E+03 -0.44621341467E+03  0.46753804313E+03  0.00000000000E+00 0. -1.
         21    1    1    2  502  501 -0.10905402645E+03  0.14607437945E+02  0.91426461479E+02  0.14305577859E+03  0.00000000000E+00 0. -1.
<scales pt_clust_5="13000.00000" pt_clust_6="13000.00000" pt_clust_7="13000.00000" pt_clust_8="13000.00000" pt_clust_9="110.02799"></scales>
<clustering>
<clus scale="   82.367">  5  6 -1 -1</clus>
<clus scale="   90.827">  7  8 -1 -1</clus>
<clus scale="  110.028">  1  9  2 -1</clus>
<clus scale="  204.530">  1  5  2 -1</clus>
<clus scale="  208.081">  2  5  1 -1</clus>
</clustering>
</event>
<event>
 9    2  0.3402837E-005  0.1011552E+03  0.7546771E-02  0.1285578E+00
         -1   -1    0    0    0  501 -0.00000000000E+00  0.00000000000E+00  0.20861352968E+03  0.20861352968E+03  0.00000000000E+00 0.  1.
          2   -1    0    0  502    0  0.00000000000E+00 -0.00000000000E+00 -0.16680638996E+03  0.16680638996E+03  0.00000000000E+00 0. -1.
         23    2    1    2    0    0  0.18129897281E+02 -0.14266017755E+01  0.15942832282E+03  0.18621919992E+03  0.94495883157E+02 0.  0.
         24    2    1    2    0    0 -0.74297684852E+01  0.37938216096E+02 -0.12219575878E+03  0.15087947914E+03  0.79613466591E+02 0.  0.
        -13    1    4    4    0    0  0.71876854279E+01  0.49672591908E+02 -0.12223153948E+03  0.13213469814E+03  0.00000000000E+00 0.  1.
         14    1    4    4    0    0 -0.14617453913E+02 -0.11734375812E+02  0.35780701385E-01  0.18744781003E+02  0.00000000000E+00 0. -1.
        -13    1    3    3    0    0 -0.98074370280E+01 -0.34794069797E+02  0.12673028149E+03  0.13178534578E+03  0.00000000000E+00 0.  1.
         13    1    3    3    0    0  0.27937334309E+02  0.33367468022E+02  0.32698041332E+02  0.54433854148E+02  0.00000000000E+00 0. -1.
         21    1    1    2  502  501 -0.10700128795E+02 -0.36511614320E+02  0.45745756707E+01  0.38321240573E+02  0.00000000000E+00 0.  1.
<scales pt_clust_5="13000.00000" pt_clust_6="13000.00000" pt_clust_7="13000.00000" pt_clust_8="13000.00000" pt_clust_9="38.04722"></scales>
<clustering>
<clus scale="   38.047">  1  9  2 -1</clus>
<clus scale="   79.613">  5  6 -1 -1</clus>
<clus scale="   87.414">  2  5  1 -1</clus>
<clus scale="   94.496">  7  8 -1 -1</clus>
<clus scale="   87.414">  2  5  1 -1</clus>
</clustering>
</event>
<event>
 9    2  0.3402837E-005  0.9530824E+02  0.7546771E-02  0.1299500E+00
         -3   -1    0    0    0  501 -0.00000000000E+00  0.00000000000E+00  0.12701736037E+03  0.12701736037E+03  0.00000000000E+00 0.  1.
          4   -1    0    0  502    0  0.00000000000E+00 -0.00000000000E+00 -0.14256194845E+03  0.14256194845E+03  0.00000000000E+00 0. -1.
         24    2    1    2    0    0  0.12637012664E+01  0.48311120337E+01  0.40289264235E+02  0.88839126211E+02  0.79020433743E+02 0.  0.
         23    2    1    2    0    0  0.19602490709E+02  0.98204430785E+01 -0.94084504729E+02  0.13477086192E+03  0.93971232022E+02 0.  0.
        -11    1    3    3    0    0 -0.27560085848E+02  0.21185788834E+02  0.43340071437E+02  0.55558597648E+02  0.00000000000E+00 0.  1.
         12    1    3    3    0    0  0.28823787114E+02 -0.16354676801E+02 -0.30508072023E+01  0.33280528563E+02  0.00000000000E+00 0. -1.
        -13    1    4    4    0    0  0.23594197052E+02  0.45534451256E+02 -0.82263916564E+02  0.96940313359E+02  0.00000000000E+00 0.  1.
         13    1    4    4    0    0 -0.39917063439E+01 -0.35714008178E+02 -0.11820588165E+02  0.37830548558E+02  0.00000000000E+00 0. -1.
         21    1    1    2  502  501 -0.20866191975E+02 -0.14651555112E+02  0.38250652412E+02  0.45969320690E+02  0.00000000000E+00 0. -1.
<scales pt_clust_5="13000.00000" pt_clust_6="13000.00000" pt_clust_7="13000.00000" pt_clust_8="13000.00000" pt_clust_9="25.49639"></scales>
<clustering>
<clus scale="   25.496">  1  9  2 -1</clus>
<clus scale="   79.020">  5  6 -1 -1</clus>
<clus scale="   80.606">  1  5  2 -1</clus>
<clus scale="   93.971">  7  8 -1 -1</clus>
<clus scale="   95.308">  2  5  1 -1</clus>
</clustering>
</event>
<event>
 9    2  0.3402837E-005  0.9630756E+02  0.7546771E-02  0.1292974E+00
         -1   -1    0    0    0  501 -0.00000000000E+00  0.00000000000E+00  0.64800280961E+02  0.64800280961E+02  0.00000000000E+00 0.  1.
          2   -1    0    0  502    0  0.00000000000E+00 -0.00000000000E+00 -0.60186563286E+03  0.60186563286E+03  0.00000000000E+00 0. -1.
         23    2    1    2    0    0 -0.38051842583E+02  0.69293520103E+00  0.21585473852E+01  0.98583280266E+02  0.90915240405E+02 0.  0.
         24    2    1    2    0    0  0.14202230968E+02 -0.29537253543E+02 -0.51705855223E+03  0.52458434296E+03  0.82249825098E+02 0.  0.
        -13    1    4    4    0    0  0.26769372088E+02  0.14577308911E+02 -0.88995642404E+02  0.94070832802E+02  0.00000000000E+00 0.  1.
         14    1    4    4    0    0 -0.12567141120E+02 -0.44114562454E+02 -0.42806290983E+03  0.43051351016E+03  0.00000000000E+00 0. -1.
        -13    1    3    3    0    0  0.20930946832E+02 -0.21431985388E+02  0.16177698834E+02  0.34046328327E+02  0.00000000000E+00 0. -1.
         13    1    3    3    0    0 -0.58982789415E+02  0.22124920589E+02 -0.14019151449E+02  0.64536951939E+02  0.00000000000E+00 0.  1.
         21    1    1    2  502  501  0.23849611615E+02  0.28844318342E+02 -0.22165347046E+02  0.43498290593E+02  0.00000000000E+00 0. -1.
<scales pt_clust_5="13000.00000" pt_clust_6="13000.00000" pt_clust_7="13000.00000" pt_clust_8="13000.00000" pt_clust_9="37.42725"></scales>
<clustering>
<clus scale="   37.427">  1  9  2 -1</clus>
<clus scale="   82.250">  5  6 -1 -1</clus>
<clus scale="   88.174">  2  5  1 -1</clus>
<clus scale="   90.915">  7  8 -1 -1</clus>
<clus scale="   88.174">  2  5  1 -1</clus>
</clustering>
</event>
<event>
 9    2  0.3402837E-005  0.1775831E+03  0.7546771E-02  0.1171529E+00
          2   -1    0    0  502    0  0.00000000000E+00  0.00000000000E+00  0.97474528078E+03  0.97474528078E+03  0.00000000000E+00 0. -1.
         -1   -1    0    0    0  501 -0.00000000000E+00 -0.00000000000E+00 -0.44410968467E+02  0.44410968467E+02  0.00000000000E+00 0.  1.
         23    2    1    2    0    0  0.55479046095E+02  0.15304177750E+03  0.37438162510E+03  0.41835359926E+03  0.91424409132E+02 0.  0.
         24    2    1    2    0    0 -0.79960487345E+02 -0.12389493171E+03  0.52663691423E+03  0.55275794028E+03  0.80319782561E+02 0.  0.
        -11    1    4    4    0    0 -0.64465813715E+02 -0.10320761238E+03  0.50373559604E+03  0.51822505064E+03  0.00000000000E+00 0.  1.
         12    1    4    4    0    0 -0.15494673630E+02 -0.20687319330E+02  0.22901318186E+02  0.34532889636E+02  0.00000000000E+00 0. -1.
        -11    1    3    3    0    0  0.27898476148E+02  0.50495166745E+02  0.47730522235E+02  0.74875160025E+02  0.00000000000E+00 0.  1.
         11    1    3    3    0    0  0.27580569946E+02  0.10254661076E+03  0.32665110287E+03  0.34347843924E+03  0.00000000000E+00 0. -1.
         21    1    1    2  502  501  0.24481441250E+02 -0.29146845793E+02  0.29315772984E+02  0.48044709709E+02  0.00000000000E+00 0. -1.
<scales pt_clust_5="13000.00000" pt_clust_6="13000.00000" pt_clust_7="13000.00000" pt_clust_8="13000.00000" pt_clust_9="38.06415"></scales>
<clustering>
<clus scale="   38.064">  2  9  1 -1</clus>
<clus scale="   80.320">  5  6 -1 -1</clus>
<clus scale="   91.424">  7  8 -1 -1</clus>
<clus scale="  172.130">  1  5  2 -1</clus>
<clus scale="  172.130">  1  5  2 -1</clus>
</clustering>
</event>
<event>
 9    2  0.3402837E-005  0.9859819E+02  0.7546771E-02  0.1286746E+00
          4   -1    0    0  502    0  0.00000000000E+00  0.00000000000E+00  0.75094670960E+02  0.75094670960E+02  0.00000000000E+00 0. -1.
         -3   -1    0    0    0  501 -0.00000000000E+00 -0.00000000000E+00 -0.32357570965E+03  0.32357570965E+03  0.00000000000E+00 0.  1.
         23    2    1    2    0    0  0.15445365283E+02  0.53359526869E+01 -0.20870223423E+03  0.22789691417E+03  0.90074131770E+02 0.  0.
         24    2    1    2    0    0 -0.23545594593E+02 -0.37910554973E+02  0.25147489636E+02  0.97683507529E+02  0.83174913316E+02 0.  0.
        -13    1    4    4    0    0  0.20719106852E+02  0.12767184755E+02 -0.34330526367E+01  0.24577799855E+02  0.00000000000E+00 0.  1.
         14    1    4    4    0    0 -0.44264701445E+02 -0.50677739728E+02  0.28580542272E+02  0.73105707674E+02  0.00000000000E+00 0. -1.
        -13    1    3    3    0    0 -0.41003066445E+01 -0.30555400668E+02 -0.16581088822E+03  0.16865258871E+03  0.00000000000E+00 0.  1.
         13    1    3    3    0    0  0.19545671927E+02  0.35891353355E+02 -0.42891346006E+02  0.59244325457E+02  0.00000000000E+00 0. -1.
         21    1    1    2  502  501  0.81002293098E+01  0.32574602286E+02 -0.64926294094E+02  0.73089958912E+02  0.00000000000E+00 0. -1.
<scales pt_clust_5="13000.00000" pt_clust_6="13000.00000" pt_clust_7="13000.00000" pt_clust_8="13000.00000" pt_clust_9="33.56663"></scales>
<clustering>
<clus scale="   33.567">  2  9  1 -1</clus>
<clus scale="   83.175">  5  6 -1 -1</clus>
<clus scale="   90.074">  7  8 -1 -1</clus>
<clus scale="   92.338">  1  5  2 -1</clus>
<clus scale="   92.338">  1  5  2 -1</clus>
</clustering>
</event>
<event>
 9    2  0.3402837E-005  0.9295682E+02  0.7546771E-02  0.1301346E+00
          2   -1    0    0  502    0  0.00000000000E+00  0.00000000000E+00  0.59223794629E+03  0.59223794629E+03  0.00000000000E+00 0. -1.
         -1   -1    0    0    0  501 -0.00000000000E+00 -0.00000000000E+00 -0.33327141424E+02  0.33327141424E+02  0.00000000000E+00 0.  1.
         23    2    1    2    0    0  0.18294110842E+02  0.11010354409E+02  0.99793388984E+02  0.13619356986E+03  0.90189054717E+02 0.  0.
         24    2    1    2    0    0  0.27050328664E+02  0.20732873072E+02  0.39513797367E+03  0.40477175597E+03  0.80898602509E+02 0.  0.
        -11    1    4    4    0    0  0.51665176538E+02 -0.38954804134E+01  0.26737982151E+03  0.27235350959E+03  0.00000000000E+00 0.  1.
         12    1    4    4    0    0 -0.24614847874E+02  0.24628353486E+02  0.12775815216E+03  0.13241824638E+03  0.00000000000E+00 0. -1.
        -11    1    3    3    0    0 -0.13105655544E+02  0.19808578856E+02  0.10080838622E+03  0.10356866677E+03  0.00000000000E+00 0. -1.
         11    1    3    3    0    0  0.31399766386E+02 -0.87982244461E+01 -0.10149972366E+01  0.32624903094E+02  0.00000000000E+00 0.  1.
         21    1    1    2  502  501 -0.45344439506E+02 -0.31743227482E+02  0.63979442214E+02  0.84599761885E+02  0.00000000000E+00 0. -1.
<scales pt_clust_5="13000.00000" pt_clust_6="13000.00000" pt_clust_7="13000.00000" pt_clust_8="13000.00000" pt_clust_9="55.35116"></scales>
<clustering>
<clus scale="   55.351">  2  9  1 -1</clus>
<clus scale="   80.899">  5  6 -1 -1</clus>
<clus scale="   83.973">  1  5  2 -1</clus>
<clus scale="   90.189">  7  8 -1 -1</clus>
<clus scale="   83.973">  1  5  2 -1</clus>
</clustering>
</event>
<event>
 9    2  0.3402837E-005  0.1301455E+03  0.7546771E-02  0.1229374E+00
          2   -1    0    0  502    0  0.00000000000E+00  0.00000000000E+00  0.15306337793E+03  0.15306337793E+03  0.00000000000E+00 0. -1.
         -1   -1    0    0    0  501 -0.00000000000E+00 -0.00000000000E+00 -0.59349818272E+03  0.59349818272E+03  0.00000000000E+00 0.  1.
         24    2    1    2    0    0 -0.93404166199E+02 -0.89967494155E+01 -0.53771186769E+03  0.55189651309E+03  0.81550160917E+02 0.  0.
         23    2    1    2    0    0  0.95114387210E+02  0.39754596615E+02  0.87364431000E+02  0.16230410982E+03  0.89904981262E+02 0.  0.
        -13    1    3    3    0    0  0.25205344524E+01  0.20054037275E+02 -0.48853874838E+02  0.52869826854E+02  0.00000000000E+00 0.  1.
         14    1    3    3    0    0 -0.95924700651E+02 -0.29050786690E+02 -0.48885799285E+03  0.49902668623E+03  0.00000000000E+00 0. -1.
        -11    1    4    4    0    0  0.56559424955E+02 -0.19615513387E+02  0.64294258880E+02  0.87849238139E+02  0.00000000000E+00 0. -1.
         11    1    4    4    0    0  0.38554962255E+02  0.59370110002E+02  0.23070172120E+02  0.74454871686E+02  0.00000000000E+00 0.  1.
         21    1    1    2  502  501 -0.17102210113E+01 -0.30757847199E+02  0.99126319012E+01  0.32360937741E+02  0.00000000000E+00 0.  1.
<scales pt_clust_5="13000.00000" pt_clust_6="13000.00000" pt_clust_7="13000.00000" pt_clust_8="13000.00000" pt_clust_9="30.80536"></scales>
<clustering>
<clus scale="   30.805">  1  9  2 -1</clus>
<clus scale="   81.550">  5  6 -1 -1</clus>
<clus scale="   89.905">  7  8 -1 -1</clus>
<clus scale="  124.521">  2  5  1 -1</clus>
<clus scale="   30.805">  1  5  2 -1</clus>
</clustering>
</event>
<event>
 9    2  0.3402837E-005  0.1036661E+03  0.7546771E-02  0.1277125E+00
          2   -1    0    0  502    0  0.00000000000E+00  0.00000000000E+00  0.57508386004E+03  0.57508386004E+03  0.00000000000E+00 0. -1.
         -1   -1    0    0    0  501 -0.00000000000E+00 -0.00000000000E+00 -0.38510524577E+02  0.38510524577E+02  0.00000000000E+00 0.  1.
         23    2    1    2    0    0  0.70881497579E+02 -0.15313832392E+02  0.15170089075E+03  0.19143952204E+03  0.91527210072E+02 0.  0.
         24    2    1    2    0    0 -0.38586903134E+02  0.17379072552E+02  0.37796440027E+03  0.38906517951E+03  0.81997833979E+02 0.  0.
        -13    1    4    4    0    0 -0.22510357222E+02 -0.89440468051E+01  0.25195142830E+02  0.34950069781E+02  0.00000000000E+00 0.  1.
         14    1    4    4    0    0 -0.16076545912E+02  0.26323119357E+02  0.35276925744E+03  0.35411510973E+03  0.00000000000E+00 0. -1.
        -13    1    3    3    0    0  0.30761856382E+02  0.33441988688E+02  0.99975834655E+02  0.10981723877E+03  0.00000000000E+00 0. -1.
         13    1    3    3    0    0  0.40119641198E+02 -0.48755821080E+02  0.51725056099E+02  0.81622283277E+02  0.00000000000E+00 0.  1.
         21    1    1    2  502  501 -0.32294594445E+02 -0.20652401607E+01  0.69080444363E+01  0.33089683063E+02  0.00000000000E+00 0.  1.
<scales pt_clust_5="13000.00000" pt_clust_6="13000.00000" pt_clust_7="13000.00000" pt_clust_8="13000.00000" pt_clust_9="32.36056"></scales>
<clustering>
<clus scale="   32.361">  2  9  1 -1</clus>
<clus scale="   81.998">  5  6 -1 -1</clus>
<clus scale="   91.527">  7  8 -1 -1</clus>
<clus scale="   95.358">  1  5  2 -1</clus>
<clus scale="   95.358">  1  5  2 -1</clus>
</clustering>
</event>
<event>
 9    2  0.3402837E-005  0.1158250E+03  0.7546771E-02  0.1253213E+00
          4   -1    0    0  502    0  0.00000000000E+00  0.00000000000E+00  0.11019362779E+03  0.11019362779E+03  0.00000000000E+00 0. -1.
         -3   -1    0    0    0  501 -0.00000000000E+00 -0.00000000000E+00 -0.28746145842E+03  0.28746145842E+03  0.00000000000E+00 0.  1.
         23    2    1    2    0    0  0.15842477992E+02 -0.12234588435E+02 -0.88788004785E+02  0.13471750062E+03  0.99321830014E+02 0.  0.
         24    2    1    2    0    0 -0.70065480544E+02  0.26982739613E+02  0.38348206677E+02  0.12421847441E+03  0.91227214301E+02 0.  0.
        -11    1    4    4    0    0 -0.49256732549E+01  0.41554507899E+02  0.39378913475E+02  0.57460753652E+02  0.00000000000E+00 0.  1.
         12    1    4    4    0    0 -0.65139807289E+02 -0.14571768286E+02 -0.10307067977E+01  0.66757720761E+02  0.00000000000E+00 0. -1.
        -13    1    3    3    0    0  0.31060369065E+00  0.39338063852E+02 -0.12394061982E+02  0.41245515086E+02  0.00000000000E+00 0. -1.
         13    1    3    3    0    0  0.15531874301E+02 -0.51572652288E+02 -0.76393942803E+02  0.93471985537E+02  0.00000000000E+00 0.  1.
         21    1    1    2  502  501  0.54223002552E+02 -0.14748151177E+02 -0.12682803252E+03  0.13871911117E+03  0.00000000000E+00 0.  1.
<scales pt_clust_5="13000.00000" pt_clust_6="13000.00000" pt_clust_7="13000.00000" pt_clust_8="13000.00000" pt_clust_9="56.19290"></scales>
<clustering>
<clus scale="   56.193">  2  9  1 -1</clus>
<clus scale="   91.227">  5  6 -1 -1</clus>
<clus scale="   99.322">  7  8 -1 -1</clus>
<clus scale="  108.963">  1  5  2 -1</clus>
<clus scale="  108.963">  1  5  2 -1</clus>
</clustering>
</event>
<event>
 9    2  0.3402837E-005  0.1375136E+03  0.7546771E-02  0.1219661E+00
         -1   -1    0    0    0  501 -0.00000000000E+00  0.00000000000E+00  0.83413120848E+02  0.83413120848E+02  0.00000000000E+00 0.  1.
          2   -1    0    0  502    0  0.00000000000E+00 -0.00000000000E+00 -0.97870513136E+03  0.97870513136E+03  0.00000000000E+00 0. -1.
         23    2    1    2    0    0  0.29981097008E+02  0.85630132398E+02  0.46081784432E+01  0.12845033074E+03  0.90812259120E+02 0.  0.
         24    2    1    2    0    0  0.76150091569E+01 -0.10440839448E+03 -0.87533195029E+03  0.88498847327E+03  0.77714049050E+02 0.  0.
        -11    1    4    4    0    0  0.53631823548E+01 -0.69243275915E+02 -0.27538323881E+03  0.28400585064E+03  0.00000000000E+00 0.  1.
         12    1    4    4    0    0  0.22518268020E+01 -0.35165118564E+02 -0.59994871148E+03  0.60098262263E+03  0.00000000000E+00 0. -1.
        -11    1    3    3    0    0  0.15525951489E+02  0.34832461728E+02 -0.42908751324E+02  0.57406589342E+02  0.00000000000E+00 0. -1.
         11    1    3    3    0    0  0.14455145519E+02  0.50797670670E+02  0.47516929767E+02  0.71043741399E+02  0.00000000000E+00 0.  1.
         21    1    1    2  502  501 -0.37596106165E+02  0.18778262081E+02 -0.24568238662E+02  0.48679448194E+02  0.00000000000E+00 0. -1.
<scales pt_clust_5="13000.00000" pt_clust_6="13000.00000" pt_clust_7="13000.00000" pt_clust_8="13000.00000" pt_clust_9="42.02488"></scales>
<clustering>
<clus scale="   42.025">  1  9  2 -1</clus>
<clus scale="   77.714">  5  6 -1 -1</clus>
<clus scale="   90.812">  7  8 -1 -1</clus>
<clus scale="  129.239">  2  5  1 -1</clus>
<clus scale="  129.239">  2  5  1 -1</clus>
</clustering>
</event>
<event>
 9    2  0.3402837E-005  0.9835608E+02  0.7546771E-02  0.1295444E+00
          2   -1    0    0  502    0  0.00000000000E+00  0.00000000000E+00  0.20348113465E+03  0.20348113465E+03  0.00000000000E+00 0. -1.
         -1   -1    0    0    0  501 -0.00000000000E+00 -0.00000000000E+00 -0.15620575577E+03  0.15620575577E+03  0.00000000000E+00 0.  1.
         23    2    1    2    0    0  0.37374263298E+02  0.10399483217E+02 -0.11294594203E+03  0.15268560623E+03  0.95137393917E+02 0.  0.
         24    2    1    2    0    0 -0.21128391277E+02  0.12948807438E+02  0.16012763769E+03  0.17855695592E+03  0.75017635411E+02 0.  0.
        -11    1    4    4    0    0 -0.17746066210E+02 -0.26955535076E+02  0.37085369805E+02  0.49161452285E+02  0.00000000000E+00 0.  1.
         12    1    4    4    0    0 -0.33823250672E+01  0.39904342515E+02  0.12304226788E+03  0.12939550363E+03  0.00000000000E+00 0. -1.
        -13    1    3    3    0    0 -0.25813073778E+02 -0.11791937510E+02 -0.63140653335E+02  0.69225043674E+02  0.00000000000E+00 0.  1.
         13    1    3    3    0    0  0.63187337076E+02  0.22191420726E+02 -0.49805288690E+02  0.83460562556E+02  0.00000000000E+00 0. -1.
         21    1    1    2  502  501 -0.16245872021E+02 -0.23348290655E+02  0.93683220365E-01  0.28444328271E+02  0.00000000000E+00 0.  1.
<scales pt_clust_5="13000.00000" pt_clust_6="13000.00000" pt_clust_7="13000.00000" pt_clust_8="13000.00000" pt_clust_9="28.44417"></scales>
<clustering>
<clus scale="   28.444">  2  9  1 -1</clus>
<clus scale="   75.018">  5  6 -1 -1</clus>
<clus scale="   79.060">  1  5  2 -1</clus>
<clus scale="   95.137">  7  8 -1 -1</clus>
<clus scale="   79.060">  1  5  2 -1</clus>
</clustering>
</event>
<event>
 9    2  0.3402837E-005  0.1196335E+03  0.7546771E-02  0.1247600E+00
          2   -1    0    0  502    0  0.00000000000E+00  0.00000000000E+00  0.23778356820E+03  0.23778356820E+03  0.00000000000E+00 0. -1.
         -1   -1    0    0    0  501 -0.00000000000E+00 -0.00000000000E+00 -0.10063711975E+03  0.10063711975E+03  0.00000000000E+00 0.  1.
         23    2    1    2    0    0  0.25846583348E+02 -0.34835960668E+02 -0.14185191107E+02  0.10244732767E+03  0.91720473584E+02 0.  0.
         24    2    1    2    0    0 -0.70814689448E+02  0.55475268260E+02  0.14136118081E+03  0.18550038105E+03  0.79593858437E+02 0.  0.
        -13    1    4    4    0    0 -0.61026898333E+02 -0.98964060108E+00  0.88708408496E+02  0.10767749740E+03  0.00000000000E+00 0.  1.
         14    1    4    4    0    0 -0.97877911152E+01  0.56464908861E+02  0.52652772310E+02  0.77822883649E+02  0.00000000000E+00 0. -1.
        -13    1    3    3    0    0 -0.25024612992E+02 -0.18380155899E+01 -0.30654378519E+02  0.39614397372E+02  0.00000000000E+00 0.  1.
         13    1    3    3    0    0  0.50871196340E+02 -0.32997945078E+02  0.16469187412E+02  0.62832930302E+02  0.00000000000E+00 0. -1.
         21    1    1    2  502  501  0.44968106100E+02 -0.20639307592E+02  0.99704587545E+01  0.50472979225E+02  0.00000000000E+00 0. -1.
<scales pt_clust_5="13000.00000" pt_clust_6="13000.00000" pt_clust_7="13000.00000" pt_clust_8="13000.00000" pt_clust_9="49.47840"></scales>
<clustering>
<clus scale="   49.478">  2  9  1 -1</clus>
<clus scale="   79.594">  5  6 -1 -1</clus>
<clus scale="   91.720">  7  8 -1 -1</clus>
<clus scale="  110.611">  1  5  2 -1</clus>
<clus scale="  110.611">  1  5  2 -1</clus>
</clustering>
</event>
<event>
 9    2  0.3402837E-005  0.9366113E+02  0.7546771E-02  0.1300422E+00
         -1   -1    0    0    0  501 -0.00000000000E+00  0.00000000000E+00  0.40749283057E+02  0.40749283057E+02  0.00000000000E+00 0.  1.
          2   -1    0    0  502    0  0.00000000000E+00 -0.00000000000E+00 -0.57212420362E+03  0.57212420362E+03  0.00000000000E+00 0. -1.
         23    2    1    2    0    0 -0.92011068173E+01  0.10449306413E+02 -0.65174768877E+02  0.11280225644E+03  0.91009615917E+02 0.  0.
         24    2    1    2    0    0 -0.26757780918E+02 -0.35995460929E+01 -0.45341221564E+03  0.46129633975E+03  0.80515465635E+02 0.  0.
        -11    1    4    4    0    0  0.27237126118E+02  0.10243301705E+02 -0.16520630674E+03  0.16774954562E+03  0.00000000000E+00 0.  1.
         12    1    4    4    0    0 -0.53994907037E+02 -0.13842847798E+02 -0.28820590890E+03  0.29354679413E+03  0.00000000000E+00 0. -1.
        -11    1    3    3    0    0  0.95459472898E+01  0.39856084365E+02 -0.24769809941E+01  0.41058105234E+02  0.00000000000E+00 0.  1.
         11    1    3    3    0    0 -0.18747054107E+02 -0.29406777952E+02 -0.62697787883E+02  0.71744151209E+02  0.00000000000E+00 0. -1.
         21    1    1    2  502  501  0.35958887735E+02 -0.68497603202E+01 -0.12787936048E+02  0.38774890483E+02  0.00000000000E+00 0. -1.
<scales pt_clust_5="13000.00000" pt_clust_6="13000.00000" pt_clust_7="13000.00000" pt_clust_8="13000.00000" pt_clust_9="36.60548"></scales>
<clustering>
<clus scale="   36.605">  1  9  2 -1</clus>
<clus scale="   80.515">  5  6 -1 -1</clus>
<clus scale="   83.501">  2  5  1 -1</clus>
<clus scale="   91.010">  7  8 -1 -1</clus>
<clus scale="   83.501">  2  5  1 -1</clus>
</clustering>
</event>
<event>
 9    2  0.3402837E-005  0.8920369E+02  0.7546771E-02  0.1304934E+00
         -3   -1    0    0    0  501 -0.00000000000E+00  0.00000000000E+00  0.54561768689E+02  0.54561768689E+02  0.00000000000E+00 0.  1.
          4   -1    0    0  502    0  0.00000000000E+00 -0.00000000000E+00 -0.52902915175E+03  0.52902915175E+03  0.00000000000E+00 0. -1.
         23    2    1    2    0    0 -0.42131648216E+02 -0.44276624491E+02 -0.73682378303E+02  0.12487570893E+03  0.80183256052E+02 0.  0.
         24    2    1    2    0    0  0.16436699507E+02  0.31471915454E+02 -0.41677606482E+03  0.42585330400E+03  0.79925601472E+02 0.  0.
        -11    1    4    4    0    0 -0.28006356669E+02  0.32488313668E+02 -0.21529893956E+03  0.21953013441E+03  0.00000000000E+00 0.  1.
         12    1    4    4    0    0  0.44443056176E+02 -0.10163982143E+01 -0.20147712526E+03  0.20632316959E+03  0.00000000000E+00 0. -1.
        -13    1    3    3    0    0 -0.46340614397E+02 -0.64461749237E+02 -0.51719548572E+02  0.94750627238E+02  0.00000000000E+00 0.  1.
         13    1    3    3    0    0  0.42089661812E+01  0.20185124746E+02 -0.21962829731E+02  0.30125081695E+02  0.00000000000E+00 0. -1.
         21    1    1    2  502  501  0.25694948709E+02  0.12804709037E+02  0.15991060064E+02  0.32861907502E+02  0.00000000000E+00 0.  1.
<scales pt_clust_5="13000.00000" pt_clust_6="13000.00000" pt_clust_7="13000.00000" pt_clust_8="13000.00000" pt_clust_9="28.70873"></scales>
<clustering>
<clus scale="   28.709">  1  9  2 -1</clus>
<clus scale="   79.926">  5  6 -1 -1</clus>
<clus scale="   80.183">  7  8 -1 -1</clus>
<clus scale="   88.972">  2  5  1 -1</clus>
<clus scale="   88.972">  2  5  1 -1</clus>
</clustering>
</event>
<event>
 9    2  0.3402837E-005  0.1277706E+03  0.7546771E-02  0.1232890E+00
          2   -1    0    0  502    0  0.00000000000E+00  0.00000000000E+00  0.24647963674E+03  0.24647963674E+03  0.00000000000E+00 0. -1.
         -1   -1    0    0    0  501 -0.00000000000E+00 -0.00000000000E+00 -0.35854360292E+03  0.35854360292E+03  0.00000000000E+00 0.  1.
         24    2    1    2    0    0 -0.53157908626E+02  0.15834708869E+03 -0.25346024622E+03  0.31388141756E+03  0.79874176866E+02 0.  0.
         23    2    1    2    0    0  0.29571506360E+02 -0.82209468610E+02  0.16651634850E+03  0.20756985667E+03  0.87890160786E+02 0.  0.
        -11    1    3    3    0    0 -0.98221004765E+01  0.11047729199E+03 -0.20523890396E+03  0.23329104870E+03  0.00000000000E+00 0.  1.
         12    1    3    3    0    0 -0.43335808150E+02  0.47869796704E+02 -0.48221342254E+02  0.80590368862E+02  0.00000000000E+00 0. -1.
        -11    1    4    4    0    0  0.57057832475E+02 -0.56841660198E+02  0.80973809791E+02  0.11420739229E+03  0.00000000000E+00 0. -1.
         11    1    4    4    0    0 -0.27486326116E+02 -0.25367808411E+02  0.85542538713E+02  0.93362464387E+02  0.00000000000E+00 0.  1.
         21    1    1    2  502  501  0.23586402267E+02 -0.76137620084E+02 -0.25120068470E+02  0.83571965419E+02  0.00000000000E+00 0. -1.
<scales pt_clust_5="13000.00000" pt_clust_6="13000.00000" pt_clust_7="13000.00000" pt_clust_8="13000.00000" pt_clust_9="79.70731"></scales>
<clustering>
<clus scale="   79.707">  2  9  1 -1</clus>
<clus scale="   79.874">  5  6 -1 -1</clus>
<clus scale="   87.890">  7  8 -1 -1</clus>
<clus scale="  122.395">  2  5  1 -1</clus>
<clus scale="  127.771">  1  5  2 -1</clus>
</clustering>
</event>
<event>
 9    2  0.3402837E-005  0.4077375E+03  0.7546771E-02  0.1041268E+00
         -1   -1    0    0    0  501 -0.00000000000E+00  0.00000000000E+00  0.18061057894E+03  0.18061057894E+03  0.00000000000E+00 0.  1.
          2   -1    0    0  502    0  0.00000000000E+00 -0.00000000000E+00 -0.12075512203E+04  0.12075512203E+04  0.00000000000E+00 0. -1.
         24    2    1    2    0    0 -0.30444166273E+03  0.22702711045E+03 -0.24847002717E+03  0.46223921210E+03  0.87759329480E+02 0.  0.
         23    2    1    2    0    0  0.34933160216E+03 -0.20602056105E+03 -0.77029470206E+03  0.87569085097E+03  0.94886767260E+02 0.  0.
        -13    1    3    3    0    0 -0.22908550333E+03  0.11993779687E+03 -0.15706102432E+03  0.30254488644E+03  0.00000000000E+00 0.  1.
         14    1    3    3    0    0 -0.75356159405E+02  0.10708931358E+03 -0.91409002857E+02  0.15969432566E+03  0.00000000000E+00 0. -1.
        -13    1    4    4    0    0  0.98690821222E+02 -0.22223945341E+02 -0.13769610366E+03  0.17086251463E+03  0.00000000000E+00 0. -1.
         13    1    4    4    0    0  0.25064078093E+03 -0.18379661571E+03 -0.63259859840E+03  0.70482833634E+03  0.00000000000E+00 0.  1.
         21    1    1    2  502  501 -0.44889939424E+02 -0.21006549392E+02 -0.81759121111E+01  0.50231736160E+02  0.00000000000E+00 0. -1.
<scales pt_clust_5="13000.00000" pt_clust_6="13000.00000" pt_clust_7="13000.00000" pt_clust_8="13000.00000" pt_clust_9="49.56190"></scales>
<clustering>
<clus scale="   49.562">  1  9  2 -1</clus>
<clus scale="   87.759">  5  6 -1 -1</clus>
<clus scale="   94.887">  7  8 -1 -1</clus>
<clus scale="  406.138">  1  5  2 -1</clus>
<clus scale="  407.738">  2  5  1 -1</clus>
</clustering>
</event>
<event>
 9    2  0.3402837E-005  0.1143929E+03  0.7546771E-02  0.1255591E+00
          2   -1    0    0  502    0  0.00000000000E+00  0.00000000000E+00  0.12110888706E+04  0.12110888706E+04  0.00000000000E+00 0. -1.
         -1   -1    0    0    0  501 -0.00000000000E+00 -0.00000000000E+00 -0.21579672492E+02  0.21579672492E+02  0.00000000000E+00 0.  1.
         23    2    1    2    0    0 -0.59177309450E+02  0.15573600840E+02  0.26956477457E+03  0.29002201340E+03  0.87767360525E+02 0.  0.
         24    2    1    2    0    0  0.77375249509E+02 -0.59684861728E+01  0.91473023731E+03  0.92141893004E+03  0.79113118530E+02 0.  0.
        -13    1    4    4    0    0  0.19685254538E+02  0.15356354618E+02  0.67671100234E+02  0.72129776655E+02  0.00000000000E+00 0.  1.
         14    1    4    4    0    0  0.57689994971E+02 -0.21324840791E+02  0.84705913707E+03  0.84928915338E+03  0.00000000000E+00 0. -1.
        -13    1    3    3    0    0 -0.15653441088E+02  0.46039499280E+02  0.84613161650E+02  0.97591253893E+02  0.00000000000E+00 0.  1.
         13    1    3    3    0    0 -0.43523868362E+02 -0.30465898440E+02  0.18495161291E+03  0.19243075951E+03  0.00000000000E+00 0. -1.
         21    1    1    2  502  501 -0.18197940059E+02 -0.96051146675E+01  0.52141862718E+01  0.21227599691E+02  0.00000000000E+00 0.  1.
<scales pt_clust_5="13000.00000" pt_clust_6="13000.00000" pt_clust_7="13000.00000" pt_clust_8="13000.00000" pt_clust_9="20.57725"></scales>
<clustering>
<clus scale="   20.577">  2  9  1 -1</clus>
<clus scale="   79.113">  5  6 -1 -1</clus>
<clus scale="   87.767">  7  8 -1 -1</clus>
<clus scale="  107.896">  1  5  2 -1</clus>
<clus scale="  107.896">  1  5  2 -1</clus>
</clustering>
</event>
<event>
 9    2  0.3402837E-005  0.1969608E+03  0.7546771E-02  0.1153122E+00
         -1   -1    0    0    0  501 -0.00000000000E+00  0.00000000000E+00  0.61683583464E+03  0.61683583464E+03  0.00000000000E+00 0.  1.
          2   -1    0    0  502    0  0.00000000000E+00 -0.00000000000E+00 -0.19044286370E+03  0.19044286370E+03  0.00000000000E+00 0. -1.
         24    2    1    2    0    0  0.51618304489E+01  0.15802443125E+03  0.51702373424E+03  0.54674723858E+03  0.81367289250E+02 0.  0.
         23    2    1    2    0    0 -0.25521370516E+02 -0.17550500213E+03 -0.11026665148E+03  0.22728015402E+03  0.89689396569E+02 0.  0.
        -13    1    3    3    0    0  0.20725978745E+02  0.14829262194E+03  0.49915685604E+03  0.52113130289E+03  0.00000000000E+00 0.  1.
         14    1    3    3    0    0 -0.15564148296E+02  0.97318093142E+01  0.17866878194E+02  0.25615935687E+02  0.00000000000E+00 0. -1.
        -13    1    4    4    0    0  0.87610806994E+01 -0.11264659528E+03 -0.24602656759E+02  0.11563434906E+03  0.00000000000E+00 0.  1.
         13    1    4    4    0    0 -0.34282451216E+02 -0.62858406844E+02 -0.85663994718E+02  0.11164580495E+03  0.00000000000E+00 0. -1.
         21    1    1    2  502  501  0.20359540068E+02  0.17480570872E+02  0.19635888176E+02  0.33251305752E+02  0.00000000000E+00 0. -1.
<scales pt_clust_5="13000.00000" pt_clust_6="13000.00000" pt_clust_7="13000.00000" pt_clust_8="13000.00000" pt_clust_9="26.83433"></scales>
<clustering>
<clus scale="   26.834">  1  9  2 -1</clus>
<clus scale="   81.367">  5  6 -1 -1</clus>
<clus scale="   89.689">  7  8 -1 -1</clus>
<clus scale="  193.313">  1  5  2 -1</clus>
<clus scale="  196.961">  2  5  1 -1</clus>
</clustering>
</event>
<event>
 9    2  0.3402837E-005  0.1146931E+03  0.7546771E-02  0.1253082E+00
         -1   -1    0    0    0  501 -0.00000000000E+00  0.00000000000E+00  0.21561315974E+03  0.21561315974E+03  0.00000000000E+00 0.  1.
          2   -1    0    0  502    0  0.00000000000E+00 -0.00000000000E+00 -0.11948328148E+03  0.11948328148E+03  0.00000000000E+00 0. -1.
         23    2    1    2    0    0 -0.55769626967E+02 -0.54680998503E+01  0.86739505841E+02  0.13866056988E+03  0.92535724762E+02 0.  0.
         24    2    1    2    0    0  0.70799812289E+02 -0.13943408188E+02 -0.54893240301E+02  0.12762383767E+03  0.89819508230E+02 0.  0.
        -13    1    4    4    0    0  0.16420013018E+02  0.22944470519E+02  0.14780501267E+02  0.31851668286E+02  0.00000000000E+00 0.  1.
         14    1    4    4    0    0  0.54379799271E+02 -0.36887878707E+02 -0.69673741568E+02  0.95772169383E+02  0.00000000000E+00 0. -1.
        -11    1    3    3    0    0 -0.35535285971E+02  0.40610514098E+02  0.63194654129E+02  0.83099547019E+02  0.00000000000E+00 0.  1.
         11    1    3    3    0    0 -0.20234340996E+02 -0.46078613948E+02  0.23544851711E+02  0.55561022858E+02  0.00000000000E+00 0. -1.
         21    1    1    2  502  501 -0.15030185322E+02  0.19411508039E+02  0.64283612712E+02  0.68812033675E+02  0.00000000000E+00 0. -1.
<scales pt_clust_5="13000.00000" pt_clust_6="13000.00000" pt_clust_7="13000.00000" pt_clust_8="13000.00000" pt_clust_9="24.55022"></scales>
<clustering>
<clus scale="   24.550">  1  9  2 -1</clus>
<clus scale="   89.820">  5  6 -1 -1</clus>
<clus scale="   92.536">  7  8 -1 -1</clus>
<clus scale="  112.513">  2  5  1 -1</clus>
<clus scale="  112.513">  2  5  1 -1</clus>
</clustering>
</event>
<event>
 9    2  0.3402837E-005  0.1048686E+03  0.7546771E-02  0.1275869E+00
          2   -1    0    0  502    0  0.00000000000E+00  0.00000000000E+00  0.12389361739E+03  0.12389361739E+03  0.00000000000E+00 0. -1.
         -1   -1    0    0    0  501 -0.00000000000E+00 -0.00000000000E+00 -0.21939353212E+03  0.21939353212E+03  0.00000000000E+00 0.  1.
         24    2    1    2    0    0  0.26047535913E+02  0.20847031906E+02 -0.52145071872E+02  0.10009912207E+03  0.78661635201E+02 0.  0.
         23    2    1    2    0    0 -0.61112447308E+02  0.32337275408E+02  0.54344543856E+02  0.12655489013E+03  0.91007583042E+02 0.  0.
        -11    1    3    3    0    0  0.65288360355E+01  0.30462621021E+02 -0.66907510233E+02  0.73805229524E+02  0.00000000000E+00 0.  1.
         12    1    3    3    0    0  0.19518699877E+02 -0.96155891149E+01  0.14762438361E+02  0.26293892548E+02  0.00000000000E+00 0. -1.
        -11    1    4    4    0    0 -0.23168385179E+02  0.29977674230E+02  0.74459318231E+02  0.83544150576E+02  0.00000000000E+00 0. -1.
         11    1    4    4    0    0 -0.37944062129E+02  0.23596011776E+01 -0.20114774374E+02  0.43010739551E+02  0.00000000000E+00 0.  1.
         21    1    1    2  502  501  0.35064911395E+02 -0.53184307314E+02 -0.97699386718E+02  0.11663313732E+03  0.00000000000E+00 0.  1.
<scales pt_clust_5="13000.00000" pt_clust_6="13000.00000" pt_clust_7="13000.00000" pt_clust_8="13000.00000" pt_clust_9="63.70336"></scales>
<clustering>
<clus scale="   63.703">  2  9  1 -1</clus>
<clus scale="   78.662">  5  6 -1 -1</clus>
<clus scale="   91.008">  7  8 -1 -1</clus>
<clus scale="   94.354">  2  5  1 -1</clus>
<clus scale="  104.869">  1  5  2 -1</clus>
</clustering>
</event>
<event>
 9    2  0.3402837E-005  0.1129719E+03  0.7546771E-02  0.1259155E+00
          2   -1    0    0  502    0  0.00000000000E+00  0.00000000000E+00  0.59738802179E+03  0.59738802179E+03  0.00000000000E+00 0. -1.
         -1   -1    0    0    0  501 -0.00000000000E+00 -0.00000000000E+00 -0.59491345746E+02  0.59491345746E+02  0.00000000000E+00 0.  1.
         24    2    1    2    0    0  0.26187182488E+02 -0.43154728910E+02  0.75879172119E+01  0.94748143590E+02  0.79821895944E+02 0.  0.
         23    2    1    2    0    0 -0.42360787211E+02  0.55351465522E+02  0.52964615524E+03  0.54186339433E+03  0.90734047227E+02 0.  0.
        -13    1    3    3    0    0 -0.11380798943E+02 -0.52382751879E+02 -0.55546959182E+01  0.53891835428E+02  0.00000000000E+00 0.  1.
         14    1    3    3    0    0  0.37567981431E+02  0.92280229694E+01  0.13142613130E+02  0.40856308162E+02  0.00000000000E+00 0. -1.
        -13    1    4    4    0    0 -0.81551573527E+01 -0.23162219574E+02  0.67018354848E+02  0.71375450217E+02  0.00000000000E+00 0.  1.
         13    1    4    4    0    0 -0.34205629858E+02  0.78513685096E+02  0.46262780039E+03  0.47048794411E+03  0.00000000000E+00 0. -1.
         21    1    1    2  502  501  0.16173604723E+02 -0.12196736612E+02  0.66260358975E+00  0.20267829614E+02  0.00000000000E+00 0. -1.
<scales pt_clust_5="13000.00000" pt_clust_6="13000.00000" pt_clust_7="13000.00000" pt_clust_8="13000.00000" pt_clust_9="20.25700"></scales>
<clustering>
<clus scale="   20.257">  2  9  1 -1</clus>
<clus scale="   79.822">  5  6 -1 -1</clus>
<clus scale="   90.734">  7  8 -1 -1</clus>
<clus scale="  104.410">  2  5  1 -1</clus>
<clus scale="  112.972">  1  5  2 -1</clus>
</clustering>
</event>
<event>
 9    2  0.3402837E-005  0.1029551E+03  0.7546771E-02  0.1279636E+00
          2   -1    0    0  502    0  0.00000000000E+00  0.00000000000E+00  0.24423989703E+03  0.24423989703E+03  0.00000000000E+00 0. -1.
         -1   -1    0    0    0  501 -0.00000000000E+00 -0.00000000000E+00 -0.87800224648E+02  0.87800224648E+02  0.00000000000E+00 0.  1.
         24    2    1    2    0    0 -0.47655063270E+02  0.14919021149E+02 -0.39614936393E+02  0.10213895593E+03  0.79808776999E+02 0.  0.
         23    2    1    2    0    0  0.32428372439E+02 -0.15403999523E+01  0.17815568923E+03  0.20286025341E+03  0.91426804823E+02 0.  0.
        -13    1    3    3    0    0 -0.52354285773E+02  0.41416516051E+02 -0.32800729709E+02  0.74378672414E+02  0.00000000000E+00 0.  1.
         14    1    3    3    0    0  0.46992225031E+01 -0.26497494903E+02 -0.68142066841E+01  0.27760283518E+02  0.00000000000E+00 0. -1.
        -11    1    4    4    0    0 -0.72475250116E+01 -0.31312893411E+02  0.12930657676E+03  0.13324118997E+03  0.00000000000E+00 0. -1.
         11    1    4    4    0    0  0.39675897451E+02  0.29772493459E+02  0.48849112468E+02  0.69619063440E+02  0.00000000000E+00 0.  1.
         21    1    1    2  502  501  0.15226690831E+02 -0.13378621196E+02  0.17898919546E+02  0.27040912331E+02  0.00000000000E+00 0.  1.
<scales pt_clust_5="13000.00000" pt_clust_6="13000.00000" pt_clust_7="13000.00000" pt_clust_8="13000.00000" pt_clust_9="20.26918"></scales>
<clustering>
<clus scale="   20.269">  1  9  2 -1</clus>
<clus scale="   79.809">  5  6 -1 -1</clus>
<clus scale="   91.427">  7  8 -1 -1</clus>
<clus scale="   92.792">  2  5  1 -1</clus>
<clus scale="   20.269">  1  5  2 -1</clus>
</clustering>
</event>
<event>
 9    2  0.3402837E-005  0.1651816E+03  0.7546771E-02  0.1184909E+00
         -1   -1    0    0    0  501 -0.00000000000E+00  0.00000000000E+00  0.30450879331E+03  0.30450879331E+03  0.00000000000E+00 0.  1.
          2   -1    0    0  502    0  0.00000000000E+00 -0.00000000000E+00 -0.21020561613E+03  0.21020561613E+03  0.00000000000E+00 0. -1.
         23    2    1    2    0    0 -0.52676624836E+02 -0.41273955463E+02  0.11492762188E+03  0.16251807039E+03  0.93409842788E+02 0.  0.
         24    2    1    2    0    0  0.16329010172E+03  0.27596489058E+02 -0.10544022740E+03  0.21213873893E+03  0.80373997506E+02 0.  0.
        -11    1    4    4    0    0  0.99897516320E+02  0.36388238201E+02 -0.24771508664E+02  0.10916613618E+03  0.00000000000E+00 0.  1.
         12    1    4    4    0    0  0.63392585400E+02 -0.87917491425E+01 -0.80668718733E+02  0.10297260276E+03  0.00000000000E+00 0. -1.
        -13    1    3    3    0    0 -0.51634529858E+02 -0.11268972544E+02  0.12086403994E+03  0.13191372395E+03  0.00000000000E+00 0.  1.
         13    1    3    3    0    0 -0.10420949781E+01 -0.30004982919E+02 -0.59364180586E+01  0.30604346444E+02  0.00000000000E+00 0. -1.
         21    1    1    2  502  501 -0.11061347688E+03  0.13677466405E+02  0.84815782690E+02  0.14005760011E+03  0.00000000000E+00 0.  1.
<scales pt_clust_5="13000.00000" pt_clust_6="13000.00000" pt_clust_7="13000.00000" pt_clust_8="13000.00000" pt_clust_9="111.45589"></scales>
<clustering>
<clus scale="   80.374">  5  6 -1 -1</clus>
<clus scale="   93.410">  7  8 -1 -1</clus>
<clus scale="  111.456">  1  9  2 -1</clus>
<clus scale="  158.176">  2  5  1 -1</clus>
<clus scale="  158.176">  2  5  1 -1</clus>
</clustering>
</event>
<event>
 9    2  0.3402837E-005  0.1901576E+03  0.7546771E-02  0.1159053E+00
          2   -1    0    0  502    0  0.00000000000E+00  0.00000000000E+00  0.16458790207E+03  0.16458790207E+03  0.00000000000E+00 0. -1.
         -1   -1    0    0    0  501 -0.00000000000E+00 -0.00000000000E+00 -0.77000393398E+03  0.77000393398E+03  0.00000000000E+00 0.  1.
         23    2    1    2    0    0 -0.20074120907E+03 -0.45375360666E+02 -0.53429675765E+03  0.57950174948E+03  0.89405235024E+02 0.  0.
         24    2    1    2    0    0  0.16313809030E+03  0.15212807904E+02  0.77335601300E+02  0.19900477588E+03  0.82320347216E+02 0.  0.
        -13    1    4    4    0    0  0.55450122749E+02  0.45243417463E+02  0.30417477140E+02  0.77761853451E+02  0.00000000000E+00 0.  1.
         14    1    4    4    0    0  0.10768796755E+03 -0.30030609559E+02  0.46918124160E+02  0.12124292243E+03  0.00000000000E+00 0. -1.
        -11    1    3    3    0    0 -0.12671450977E+03 -0.31690131646E+02 -0.43921830950E+03  0.45822871454E+03  0.00000000000E+00 0.  1.
         11    1    3    3    0    0 -0.74026699300E+02 -0.13685229019E+02 -0.95078448150E+02  0.12127303495E+03  0.00000000000E+00 0. -1.
         21    1    1    2  502  501  0.37603118772E+02  0.30162552762E+02 -0.14845487556E+03  0.15608531068E+03  0.00000000000E+00 0.  1.
<scales pt_clust_5="13000.00000" pt_clust_6="13000.00000" pt_clust_7="13000.00000" pt_clust_8="13000.00000" pt_clust_9="48.20554"></scales>
<clustering>
<clus scale="   48.206">  2  9  1 -1</clus>
<clus scale="   82.320">  5  6 -1 -1</clus>
<clus scale="   89.405">  7  8 -1 -1</clus>
<clus scale="  186.931">  1  5  2 -1</clus>
<clus scale="  186.931">  1  5  2 -1</clus>
</clustering>
</event>
<event>
 9    2  0.3402837E-005  0.9496225E+02  0.7546771E-02  0.1296438E+00
         -1   -1    0    0    0  501 -0.00000000000E+00  0.00000000000E+00  0.24493284385E+03  0.24493284385E+03  0.00000000000E+00 0.  1.
          2   -1    0    0  502    0  0.00000000000E+00 -0.00000000000E+00 -0.82405469070E+02  0.82405469070E+02  0.00000000000E+00 0. -1.
         23    2    1    2    0    0 -0.30117718883E+02  0.39915223982E+02  0.14972876914E+03  0.18190090952E+03  0.90382157959E+02 0.  0.
         24    2    1    2    0    0  0.23270112725E+02 -0.11875229107E+02 -0.32893866866E+02  0.91391746167E+02  0.81166037094E+02 0.  0.
        -11    1    4    4    0    0  0.50516143848E+02  0.83496605872E+01 -0.22272974162E+02  0.55836215839E+02  0.00000000000E+00 0.  1.
         12    1    4    4    0    0 -0.27246031123E+02 -0.20224889694E+02 -0.10620892703E+02  0.35555530328E+02  0.00000000000E+00 0. -1.
        -13    1    3    3    0    0 -0.49255495168E+02  0.33361073618E+01  0.36543756178E+02  0.61422142035E+02  0.00000000000E+00 0. -1.
         13    1    3    3    0    0  0.19137776285E+02  0.36579116620E+02  0.11318501297E+03  0.12047876748E+03  0.00000000000E+00 0.  1.
         21    1    1    2  502  501  0.68476061584E+01 -0.28039994875E+02  0.45692472502E+02  0.54045657235E+02  0.00000000000E+00 0. -1.
<scales pt_clust_5="13000.00000" pt_clust_6="13000.00000" pt_clust_7="13000.00000" pt_clust_8="13000.00000" pt_clust_9="28.86401"></scales>
<clustering>
<clus scale="   28.864">  1  9  2 -1</clus>
<clus scale="   81.166">  5  6 -1 -1</clus>
<clus scale="   86.237">  2  5  1 -1</clus>
<clus scale="   90.382">  7  8 -1 -1</clus>
<clus scale="   86.237">  2  5  1 -1</clus>
</clustering>
</event>
<event>
 9    2  0.3402837E-005  0.1750124E+03  0.7546771E-02  0.1177692E+00
         -1   -1    0    0    0  501 -0.00000000000E+00  0.00000000000E+00  0.81864448431E+02  0.81864448431E+02  0.00000000000E+00 0.  1.
          2   -1    0    0  502    0  0.00000000000E+00 -0.00000000000E+00 -0.72857984523E+03  0.72857984523E+03  0.00000000000E+00 0. -1.
         24    2    1    2    0    0  0.11230657018E+03 -0.69501341621E+01 -0.42996315419E+02  0.14786609442E+03  0.85759131689E+02 0.  0.
         23    2    1    2    0    0 -0.12446084222E+03  0.57662116005E+02 -0.57618641771E+03  0.60360804577E+03  0.11634631108E+03 0.  0.
        -11    1    3    3    0    0  0.78984104721E+02  0.29471140620E+02 -0.30417235280E+01  0.84358099849E+02  0.00000000000E+00 0.  1.
         12    1    3    3    0    0  0.33322465462E+02 -0.36421274782E+02 -0.39954591891E+02  0.63507994571E+02  0.00000000000E+00 0. -1.
        -13    1    4    4    0    0 -0.40641035510E+02 -0.18508112178E+02 -0.58062158434E+02  0.73249288227E+02  0.00000000000E+00 0.  1.
         13    1    4    4    0    0 -0.83819806714E+02  0.76170228183E+02 -0.51812425927E+03  0.53035875755E+03  0.00000000000E+00 0. -1.
         21    1    1    2  502  501  0.12154272040E+02 -0.50711981843E+02 -0.27532663674E+02  0.58970153470E+02  0.00000000000E+00 0.  1.
<scales pt_clust_5="13000.00000" pt_clust_6="13000.00000" pt_clust_7="13000.00000" pt_clust_8="13000.00000" pt_clust_9="52.14817"></scales>
<clustering>
<clus scale="   52.148">  1  9  2 -1</clus>
<clus scale="   85.759">  5  6 -1 -1</clus>
<clus scale="  116.346">  7  8 -1 -1</clus>
<clus scale="  156.357">  1  5  2 -1</clus>
<clus scale="  175.012">  2  5  1 -1</clus>
</clustering>
</event>
<event>
 9    2  0.3402837E-005  0.9946833E+02  0.7546771E-02  0.1287965E+00
         -1   -1    0    0    0  501 -0.00000000000E+00  0.00000000000E+00  0.10159770544E+03  0.10159770544E+03  0.00000000000E+00 0.  1.
          2   -1    0    0  502    0  0.00000000000E+00 -0.00000000000E+00 -0.19669620841E+03  0.19669620841E+03  0.00000000000E+00 0. -1.
         24    2    1    2    0    0  0.48411377102E+02 -0.20197668654E+02  0.23074491968E+02  0.96906591771E+02  0.78146324911E+02 0.  0.
         23    2    1    2    0    0 -0.34288278105E+02 -0.24926756379E+02 -0.11692389959E+03  0.15408789398E+03  0.90966211174E+02 0.  0.
        -11    1    3    3    0    0  0.87561105238E+01  0.28963140491E+02  0.13062134559E+02  0.32956825360E+02  0.00000000000E+00 0.  1.
         12    1    3    3    0    0  0.39655266578E+02 -0.49160809144E+02  0.10012357410E+02  0.63949766411E+02  0.00000000000E+00 0. -1.
        -13    1    4    4    0    0 -0.48394980098E+02 -0.47568085990E+02 -0.10464514654E+03  0.12472130370E+03  0.00000000000E+00 0. -1.
         13    1    4    4    0    0  0.14106701994E+02  0.22641329612E+02 -0.12278753054E+02  0.29366590273E+02  0.00000000000E+00 0.  1.
         21    1    1    2  502  501 -0.14123098997E+02  0.45124425033E+02 -0.12490953527E+01  0.47299428105E+02  0.00000000000E+00 0.  1.
<scales pt_clust_5="13000.00000" pt_clust_6="13000.00000" pt_clust_7="13000.00000" pt_clust_8="13000.00000" pt_clust_9="47.28293"></scales>
<clustering>
<clus scale="   47.283">  1  9  2 -1</clus>
<clus scale="   78.146">  5  6 -1 -1</clus>
<clus scale="   87.897">  1  5  2 -1</clus>
<clus scale="   90.966">  7  8 -1 -1</clus>
<clus scale="   99.468">  2  5  1 -1</clus>
</clustering>
</event>
<event>
 9    2  0.3402837E-005  0.1383184E+03  0.7546771E-02  0.1217911E+00
          2   -1    0    0  502    0  0.00000000000E+00  0.00000000000E+00  0.16438296004E+03  0.16438296004E+03  0.00000000000E+00 0. -1.
         -1   -1    0    0    0  501 -0.00000000000E+00 -0.00000000000E+00 -0.18501482861E+03  0.18501482861E+03  0.00000000000E+00 0.  1.
         24    2    1    2    0    0  0.12186366540E+03  0.44609041227E+01 -0.67252089021E+02  0.16008804727E+03  0.78960032877E+02 0.  0.
         23    2    1    2    0    0 -0.71012179439E+02 -0.36947034199E+02  0.47096180343E+02  0.12896532316E+03  0.89477323443E+02 0.  0.
        -13    1    3    3    0    0  0.12076113302E+03 -0.13070132878E+02 -0.72867573732E+02  0.14164661282E+03  0.00000000000E+00 0.  1.
         14    1    3    3    0    0  0.11025323714E+01  0.17531037000E+02  0.56154847106E+01  0.18441434447E+02  0.00000000000E+00 0. -1.
        -11    1    4    4    0    0 -0.69107786386E+01  0.27868763454E+02  0.14382250185E+02  0.32113485614E+02  0.00000000000E+00 0.  1.
         11    1    4    4    0    0 -0.64101400800E+02 -0.64815797653E+02  0.32713930158E+02  0.96851837548E+02  0.00000000000E+00 0. -1.
         21    1    1    2  502  501 -0.50851485956E+02  0.32486130076E+02 -0.47595989318E+00  0.60344418210E+02  0.00000000000E+00 0. -1.
<scales pt_clust_5="13000.00000" pt_clust_6="13000.00000" pt_clust_7="13000.00000" pt_clust_8="13000.00000" pt_clust_9="60.34254"></scales>
<clustering>
<clus scale="   60.343">  1  9  2 -1</clus>
<clus scale="   78.960">  5  6 -1 -1</clus>
<clus scale="   89.477">  7  8 -1 -1</clus>
<clus scale="  131.759">  2  5  1 -1</clus>
<clus scale="   60.343">  1  5  2 -1</clus>
</clustering>
</event>
<event>
 9    2  0.3402837E-005  0.1716235E+03  0.7546771E-02  0.1179728E+00
         -1   -1    0    0    0  501 -0.00000000000E+00  0.00000000000E+00  0.31979876629E+03  0.31979876629E+03  0.00000000000E+00 0.  1.
          2   -1    0    0  502    0  0.00000000000E+00 -0.00000000000E+00 -0.19079239501E+03  0.19079239501E+03  0.00000000000E+00 0. -1.
         24    2    1    2    0    0  0.67302035892E+02 -0.11020395691E+03  0.13912539579E+03  0.21171760889E+03  0.93776297683E+02 0.  0.
         23    2    1    2    0    0 -0.46177845173E+02  0.11900235441E+03 -0.10504038385E+03  0.20123284526E+03  0.11474851646E+03 0.  0.
        -13    1    3    3    0    0  0.78632143129E+02 -0.99473050612E+02  0.14708840794E+03  0.19419809855E+03  0.00000000000E+00 0.  1.
         14    1    3    3    0    0 -0.11330107237E+02 -0.10730906300E+02 -0.79630121511E+01  0.17519510340E+02  0.00000000000E+00 0. -1.
        -11    1    4    4    0    0  0.37894887722E+02  0.42538054557E+02 -0.45666198103E+02  0.73013082733E+02  0.00000000000E+00 0.  1.
         11    1    4    4    0    0 -0.84072732895E+02  0.76464299854E+02 -0.59374185747E+02  0.12821976252E+03  0.00000000000E+00 0. -1.
         21    1    1    2  502  501 -0.21124190719E+02 -0.87983974987E+01  0.94921359351E+02  0.97640707152E+02  0.00000000000E+00 0.  1.
<scales pt_clust_5="13000.00000" pt_clust_6="13000.00000" pt_clust_7="13000.00000" pt_clust_8="13000.00000" pt_clust_9="22.88325"></scales>
<clustering>
<clus scale="   22.883">  1  9  2 -1</clus>
<clus scale="   93.776">  5  6 -1 -1</clus>
<clus scale="  114.749">  7  8 -1 -1</clus>
<clus scale="  158.371">  1  5  2 -1</clus>
<clus scale="  171.623">  2  5  1 -1</clus>
</clustering>
</event>
<event>
 9    2  0.3402837E-005  0.8976812E+02  0.7546771E-02  0.1305186E+00
          2   -1    0    0  502    0  0.00000000000E+00  0.00000000000E+00  0.86843930593E+02  0.86843930593E+02  0.00000000000E+00 0. -1.
         -1   -1    0    0    0  501 -0.00000000000E+00 -0.00000000000E+00 -0.67870653552E+03  0.67870653552E+03  0.00000000000E+00 0.  1.
         23    2    1    2    0    0 -0.39633625111E+02  0.28901267490E+02 -0.21506387475E+03  0.23698876615E+03  0.86631966138E+02 0.  0.
         24    2    1    2    0    0 -0.24502331670E+02 -0.13838617777E+02  0.46776363951E+02  0.99893804346E+02  0.83659263223E+02 0.  0.
        -11    1    4    4    0    0  0.26162525646E+00 -0.44398847742E+02  0.88897505716E+01  0.45280832521E+02  0.00000000000E+00 0.  1.
         12    1    4    4    0    0 -0.24763956926E+02  0.30560229965E+02  0.37886613379E+02  0.54612971824E+02  0.00000000000E+00 0. -1.
        -11    1    3    3    0    0 -0.95969030940E+01  0.42714829028E+02 -0.19137089719E+03  0.19631474081E+03  0.00000000000E+00 0.  1.
         11    1    3    3    0    0 -0.30036722017E+02 -0.13813561538E+02 -0.23692977567E+02  0.40674025347E+02  0.00000000000E+00 0. -1.
         21    1    1    2  502  501  0.64135956781E+02 -0.15062649713E+02 -0.42357509412E+03  0.42866789561E+03  0.00000000000E+00 0. -1.
<scales pt_clust_5="13000.00000" pt_clust_6="13000.00000" pt_clust_7="13000.00000" pt_clust_8="13000.00000" pt_clust_9="65.88099"></scales>
<clustering>
<clus scale="   65.881">  2  9  1 -1</clus>
<clus scale="   83.659">  5  6 -1 -1</clus>
<clus scale="   86.632">  7  8 -1 -1</clus>
<clus scale="   86.903">  1  5  2 -1</clus>
<clus scale="   86.903">  1  5  2 -1</clus>
</clustering>
</event>
<event>
 9    2  0.3402837E-005  0.5142026E+03  0.7546771E-02  0.1059950E+00
         -1   -1    0    0    0  501 -0.00000000000E+00  0.00000000000E+00  0.18603961736E+03  0.18603961736E+03  0.00000000000E+00 0.  1.
          2   -1    0    0  502    0  0.00000000000E+00 -0.00000000000E+00 -0.29720689337E+04  0.29720689337E+04  0.00000000000E+00 0. -1.
         23    2    1    2    0    0  0.23315134960E+03  0.36626402355E+03 -0.22546373866E+04  0.22979264523E+04  0.92559971534E+02 0.  0.
         24    2    1    2    0    0  0.35402475938E+02  0.79031868304E+02 -0.23059079957E+03  0.25944013382E+03  0.81472048477E+02 0.  0.
        -11    1    4    4    0    0  0.60678214942E+02  0.41713670207E+02 -0.15013083177E+03  0.16721585660E+03  0.00000000000E+00 0.  1.
         12    1    4    4    0    0 -0.25275739004E+02  0.37318198097E+02 -0.80459967799E+02  0.92224277225E+02  0.00000000000E+00 0. -1.
        -13    1    3    3    0    0  0.16019757898E+02  0.72931663282E+02 -0.27649411112E+03  0.28639946514E+03  0.00000000000E+00 0.  1.
         13    1    3    3    0    0  0.21713159171E+03  0.29333236027E+03 -0.19781432755E+04  0.20115269871E+04  0.00000000000E+00 0. -1.
         21    1    1    2  502  501 -0.26855382554E+03 -0.44529589186E+03 -0.30080113016E+03  0.60074196493E+03  0.00000000000E+00 0.  1.
<scales pt_clust_5="13000.00000" pt_clust_6="13000.00000" pt_clust_7="13000.00000" pt_clust_8="13000.00000" pt_clust_9="505.80332"></scales>
<clustering>
<clus scale="   81.472">  5  6 -1 -1</clus>
<clus scale="   92.560">  7  8 -1 -1</clus>
<clus scale="  118.899">  2  5  1 -1</clus>
<clus scale="  505.803">  1  9  2 -1</clus>
<clus scale="  118.899">  2  5  1 -1</clus>
</clustering>
</event>
<event>
 9    2  0.3402837E-005  0.1240548E+03  0.7546771E-02  0.1239783E+00
         -1   -1    0    0    0  501 -0.00000000000E+00  0.00000000000E+00  0.30020418539E+03  0.30020418539E+03  0.00000000000E+00 0.  1.
          2   -1    0    0  502    0  0.00000000000E+00 -0.00000000000E+00 -0.84205416069E+02  0.84205416069E+02  0.00000000000E+00 0. -1.
         23    2    1    2    0    0 -0.52020322921E+02  0.22731695130E+02  0.15409060678E+03  0.18800373287E+03  0.91534936041E+02 0.  0.
         24    2    1    2    0    0  0.94805316168E+02 -0.72052456006E+01  0.65763088513E+01  0.12475923353E+03  0.80508726079E+02 0.  0.
        -11    1    4    4    0    0  0.51847793433E+02  0.34385834483E+01  0.42996129349E+02  0.67443937304E+02  0.00000000000E+00 0.  1.
         12    1    4    4    0    0  0.42957522734E+02 -0.10643829049E+02 -0.36419820498E+02  0.57315296225E+02  0.00000000000E+00 0. -1.
        -13    1    3    3    0    0  0.24260821039E+02  0.18702368060E+02  0.34909834416E+02  0.46444187445E+02  0.00000000000E+00 0.  1.
         13    1    3    3    0    0 -0.76281143960E+02  0.40293270708E+01  0.11918077236E+03  0.14155954543E+03  0.00000000000E+00 0. -1.
         21    1    1    2  502  501 -0.42784993246E+02 -0.15526449530E+02  0.55331853690E+02  0.71646635056E+02  0.00000000000E+00 0. -1.
<scales pt_clust_5="13000.00000" pt_clust_6="13000.00000" pt_clust_7="13000.00000" pt_clust_8="13000.00000" pt_clust_9="45.51512"></scales>
<clustering>
<clus scale="   45.515">  1  9  2 -1</clus>
<clus scale="   80.509">  5  6 -1 -1</clus>
<clus scale="   91.535">  7  8 -1 -1</clus>
<clus scale="  116.158">  2  5  1 -1</clus>
<clus scale="  116.158">  2  5  1 -1</clus>
</clustering>
</event>
<event>
 9    2  0.3402837E-005  0.1311697E+03  0.7546771E-02  0.1229636E+00
         -1   -1    0    0    0  501 -0.00000000000E+00  0.00000000000E+00  0.14985383982E+03  0.14985383982E+03  0.00000000000E+00 0.  1.
          2   -1    0    0  502    0  0.00000000000E+00 -0.00000000000E+00 -0.23052826723E+03  0.23052826723E+03  0.00000000000E+00 0. -1.
         23    2    1    2    0    0  0.70917409287E+01 -0.81522589509E+02 -0.50116541606E+02  0.13433735359E+03  0.94013995971E+02 0.  0.
         24    2    1    2    0    0 -0.53992375927E+02  0.87760253343E+02 -0.98640373286E+02  0.16313635151E+03  0.79161273460E+02 0.  0.
        -13    1    4    4    0    0 -0.32839156739E+01  0.48610732201E+02 -0.40443865319E+01  0.48889103589E+02  0.00000000000E+00 0.  1.
         14    1    4    4    0    0 -0.50708460253E+02  0.39149521142E+02 -0.94595986754E+02  0.11424724792E+03  0.00000000000E+00 0. -1.
        -13    1    3    3    0    0 -0.31273124119E+02 -0.78690211633E+02 -0.24610736320E+02  0.88180757772E+02  0.00000000000E+00 0. -1.
         13    1    3    3    0    0  0.38364865048E+02 -0.28323778752E+01 -0.25505805285E+02  0.46156595821E+02  0.00000000000E+00 0.  1.
         21    1    1    2  502  501  0.46900634998E+02 -0.62376638348E+01  0.68082487482E+02  0.82908401957E+02  0.00000000000E+00 0.  1.
<scales pt_clust_5="13000.00000" pt_clust_6="13000.00000" pt_clust_7="13000.00000" pt_clust_8="13000.00000" pt_clust_9="47.31361"></scales>
<clustering>
<clus scale="   47.314">  1  9  2 -1</clus>
<clus scale="   79.161">  5  6 -1 -1</clus>
<clus scale="   94.014">  7  8 -1 -1</clus>
<clus scale="  120.968">  2  5  1 -1</clus>
<clus scale="  120.968">  2  5  1 -1</clus>
</clustering>
</event>
<event>
 9    2  0.3402837E-005  0.1060395E+03  0.7546771E-02  0.1270211E+00
         -3   -1    0    0    0  501 -0.00000000000E+00  0.00000000000E+00  0.65579953812E+02  0.65579953812E+02  0.00000000000E+00 0.  1.
          4   -1    0    0  502    0  0.00000000000E+00 -0.00000000000E+00 -0.34171686012E+03  0.34171686012E+03  0.00000000000E+00 0. -1.
         23    2    1    2    0    0  0.27523393609E+02  0.95371750256E+01 -0.15296756911E+02  0.97234931306E+02  0.91499432735E+02 0.  0.
         24    2    1    2    0    0 -0.60137380561E+02  0.87138927278E+01 -0.24955278724E+03  0.27102115820E+03  0.86506867388E+02 0.  0.
        -11    1    4    4    0    0 -0.80862899537E+02 -0.30099632438E+01 -0.17601733486E+03  0.19372653554E+03  0.00000000000E+00 0.  1.
         12    1    4    4    0    0  0.20725518976E+02  0.11723855972E+02 -0.73535452386E+02  0.77294622667E+02  0.00000000000E+00 0. -1.
        -11    1    3    3    0    0 -0.30022498047E+02 -0.14867928993E+02 -0.61504068606E+01  0.34062196143E+02  0.00000000000E+00 0.  1.
         11    1    3    3    0    0  0.57545891657E+02  0.24405104019E+02 -0.91463500499E+01  0.63172735163E+02  0.00000000000E+00 0. -1.
         21    1    1    2  502  501  0.32613986952E+02 -0.18251067753E+02 -0.11287362154E+02  0.39040724422E+02  0.00000000000E+00 0.  1.
<scales pt_clust_5="13000.00000" pt_clust_6="13000.00000" pt_clust_7="13000.00000" pt_clust_8="13000.00000" pt_clust_9="37.37343"></scales>
<clustering>
<clus scale="   37.373">  1  9  2 -1</clus>
<clus scale="   86.507">  5  6 -1 -1</clus>
<clus scale="   91.499">  7  8 -1 -1</clus>
<clus scale="  101.763">  2  5  1 -1</clus>
<clus scale="  101.763">  2  5  1 -1</clus>
</clustering>
</event>
<event>
 9    2  0.3402837E-005  0.1366474E+03  0.7546771E-02  0.1228142E+00
         -1   -1    0    0    0  501 -0.00000000000E+00  0.00000000000E+00  0.95146316300E+03  0.95146316300E+03  0.00000000000E+00 0.  1.
          2   -1    0    0  502    0  0.00000000000E+00 -0.00000000000E+00 -0.15614046503E+03  0.15614046503E+03  0.00000000000E+00 0. -1.
         23    2    1    2    0    0 -0.51753175871E+02 -0.36605045634E+02  0.49486518951E+03  0.50702049076E+03  0.90332174139E+02 0.  0.
         24    2    1    2    0    0  0.63463062442E+02 -0.90174173665E+02 -0.10713457225E+03  0.17356862213E+03  0.80556242018E+02 0.  0.
        -13    1    4    4    0    0  0.58360579113E+01 -0.72444645619E+02 -0.38620938748E+02  0.82303482068E+02  0.00000000000E+00 0.  1.
         14    1    4    4    0    0  0.57627004530E+02 -0.17729528046E+02 -0.68513633499E+02  0.91265140065E+02  0.00000000000E+00 0. -1.
        -13    1    3    3    0    0 -0.71015219618E+02 -0.26570649774E+01  0.33567085319E+03  0.34311097781E+03  0.00000000000E+00 0.  1.
         13    1    3    3    0    0  0.19262043748E+02 -0.33947980657E+02  0.15919433632E+03  0.16390951296E+03  0.00000000000E+00 0. -1.
         21    1    1    2  502  501 -0.11709886571E+02  0.12677921930E+03  0.40759208070E+03  0.42701451514E+03  0.00000000000E+00 0.  1.
<scales pt_clust_5="13000.00000" pt_clust_6="13000.00000" pt_clust_7="13000.00000" pt_clust_8="13000.00000" pt_clust_9="110.37756"></scales>
<clustering>
<clus scale="   80.556">  5  6 -1 -1</clus>
<clus scale="   90.332">  7  8 -1 -1</clus>
<clus scale="  110.355">  1  7  2 -1</clus>
<clus scale="  110.378">  1  9  2 -1</clus>
<clus scale="  136.647">  2  5  1 -1</clus>
</clustering>
</event>
<event>
 9    2  0.3402837E-005  0.1691242E+03  0.7546771E-02  0.1181278E+00
         -1   -1    0    0    0  501 -0.00000000000E+00  0.00000000000E+00  0.53343585940E+02  0.53343585940E+02  0.00000000000E+00 0.  1.
          2   -1    0    0  502    0  0.00000000000E+00 -0.00000000000E+00 -0.67938899932E+03  0.67938899932E+03  0.00000000000E+00 0. -1.
         24    2    1    2    0    0  0.11763055818E+03  0.43522108183E+02 -0.19732110602E+03  0.24741044835E+03  0.80902342079E+02 0.  0.
         23    2    1    2    0    0 -0.14573121950E+03 -0.25217966935E+02 -0.41040148606E+03  0.44710676652E+03  0.97987482456E+02 0.  0.
        -11    1    3    3    0    0  0.10488230304E+03  0.11752458253E+02 -0.18091878445E+03  0.20945172315E+03  0.00000000000E+00 0.  1.
         12    1    3    3    0    0  0.12748255136E+02  0.31769649930E+02 -0.16402321578E+02  0.37958725200E+02  0.00000000000E+00 0. -1.
        -11    1    4    4    0    0 -0.12285801557E+03 -0.25519176384E+02 -0.40445295506E+03  0.42347079381E+03  0.00000000000E+00 0. -1.
         11    1    4    4    0    0 -0.22873203930E+02  0.30120944861E+00 -0.59485310022E+01  0.23635972717E+02  0.00000000000E+00 0.  1.
         21    1    1    2  502  501  0.28100661321E+02 -0.18304141248E+02 -0.18322821300E+02  0.38215370387E+02  0.00000000000E+00 0. -1.
<scales pt_clust_5="13000.00000" pt_clust_6="13000.00000" pt_clust_7="13000.00000" pt_clust_8="13000.00000" pt_clust_9="33.53638"></scales>
<clustering>
<clus scale="   33.536">  1  9  2 -1</clus>
<clus scale="   80.902">  5  6 -1 -1</clus>
<clus scale="   97.987">  7  8 -1 -1</clus>
<clus scale="  159.833">  1  5  2 -1</clus>
<clus scale="  169.124">  2  5  1 -1</clus>
</clustering>
</event>
<event>
 9    2  0.3402837E-005  0.1235390E+03  0.7546771E-02  0.1241326E+00
         -1   -1    0    0    0  501 -0.00000000000E+00  0.00000000000E+00  0.61653465505E+02  0.61653465505E+02  0.00000000000E+00 0.  1.
          2   -1    0    0  502    0  0.00000000000E+00 -0.00000000000E+00 -0.32316502958E+03  0.32316502958E+03  0.00000000000E+00 0. -1.
         24    2    1    2    0    0  0.79251460661E+02 -0.38740744162E+02 -0.13278436169E+03  0.17679401014E+03  0.76438184405E+02 0.  0.
         23    2    1    2    0    0 -0.81433410408E+02  0.13416203522E+02 -0.13477646094E+03  0.18189620923E+03  0.90056324932E+02 0.  0.
        -13    1    3    3    0    0  0.57819432347E+02 -0.45557198942E+02 -0.45227420888E+02  0.86394818899E+02  0.00000000000E+00 0.  1.
         14    1    3    3    0    0  0.21432028314E+02  0.68164547801E+01 -0.87556940807E+02  0.90399191240E+02  0.00000000000E+00 0. -1.
        -13    1    4    4    0    0 -0.30783526151E+02 -0.29422472477E+02 -0.96090392875E+02  0.10510314444E+03  0.00000000000E+00 0. -1.
         13    1    4    4    0    0 -0.50649884257E+02  0.42838675998E+02 -0.38686068062E+02  0.76793064782E+02  0.00000000000E+00 0.  1.
         21    1    1    2  502  501  0.21819497465E+01  0.25324540640E+02  0.60492585529E+01  0.26128275725E+02  0.00000000000E+00 0.  1.
<scales pt_clust_5="13000.00000" pt_clust_6="13000.00000" pt_clust_7="13000.00000" pt_clust_8="13000.00000" pt_clust_9="25.41836"></scales>
<clustering>
<clus scale="   25.418">  1  9  2 -1</clus>
<clus scale="   76.438">  5  6 -1 -1</clus>
<clus scale="   90.056">  7  8 -1 -1</clus>
<clus scale="  113.994">  1  5  2 -1</clus>
<clus scale="  123.539">  2  5  1 -1</clus>
</clustering>
</event>
<event>
 9    2  0.3402837E-005  0.2283741E+03  0.7546771E-02  0.1128766E+00
         -1   -1    0    0    0  501 -0.00000000000E+00  0.00000000000E+00  0.76095452981E+02  0.76095452981E+02  0.00000000000E+00 0.  1.
          2   -1    0    0  502    0  0.00000000000E+00 -0.00000000000E+00 -0.95067645360E+03  0.95067645360E+03  0.00000000000E+00 0. -1.
         24    2    1    2    0    0  0.18814510958E+03 -0.88297337647E+02 -0.19985551767E+03  0.29930327780E+03  0.80282140398E+02 0.  0.
         23    2    1    2    0    0 -0.20022664671E+03  0.58994982068E+02 -0.64318443813E+03  0.68275365265E+03  0.94314425143E+02 0.  0.
        -13    1    3    3    0    0  0.74032140489E+02 -0.55453630067E+01 -0.10800282917E+03  0.13105769716E+03  0.00000000000E+00 0.  1.
         14    1    3    3    0    0  0.11411296909E+03 -0.82751974640E+02 -0.91852688500E+02  0.16824558064E+03  0.00000000000E+00 0. -1.
        -13    1    4    4    0    0 -0.14377158846E+03  0.15110273027E+01 -0.34234812451E+03  0.37131494880E+03  0.00000000000E+00 0.  1.
         13    1    4    4    0    0 -0.56455058247E+02  0.57483954766E+02 -0.30083631362E+03  0.31143870384E+03  0.00000000000E+00 0. -1.
         21    1    1    2  502  501  0.12081537130E+02  0.29302355579E+02 -0.31541044823E+02  0.44714976132E+02  0.00000000000E+00 0. -1.
<scales pt_clust_5="13000.00000" pt_clust_6="13000.00000" pt_clust_7="13000.00000" pt_clust_8="13000.00000" pt_clust_9="31.69529"></scales>
<clustering>
<clus scale="   31.695">  1  9  2 -1</clus>
<clus scale="   80.282">  5  6 -1 -1</clus>
<clus scale="   94.314">  7  8 -1 -1</clus>
<clus scale="  222.946">  1  5  2 -1</clus>
<clus scale="  228.374">  2  5  1 -1</clus>
</clustering>
</event>
<event>
 9    2  0.3402837E-005  0.9913684E+02  0.7546771E-02  0.1290810E+00
         -1   -1    0    0    0  501 -0.00000000000E+00  0.00000000000E+00  0.25620818022E+03  0.25620818022E+03  0.00000000000E+00 0.  1.
          2   -1    0    0  502    0  0.00000000000E+00 -0.00000000000E+00 -0.16778158214E+03  0.16778158214E+03  0.00000000000E+00 0. -1.
         24    2    1    2    0    0  0.25086755931E+01 -0.12410853311E+02  0.14683259292E+03  0.16866055875E+03  0.82013724468E+02 0.  0.
         23    2    1    2    0    0 -0.63617853436E+01 -0.21081369212E+02 -0.13719079209E+03  0.16963428134E+03  0.97311764612E+02 0.  0.
        -13    1    3    3    0    0  0.28210206489E+02  0.62610056477E+01  0.14051211043E+02  0.32131798481E+02  0.00000000000E+00 0.  1.
         14    1    3    3    0    0 -0.25701530896E+02 -0.18671858959E+02  0.13278138188E+03  0.13652876027E+03  0.00000000000E+00 0. -1.
        -13    1    4    4    0    0 -0.28630506250E+02 -0.68023907536E+01  0.49360258374E+00  0.29431650508E+02  0.00000000000E+00 0.  1.
         13    1    4    4    0    0  0.22268720906E+02 -0.14278978459E+02 -0.13768439467E+03  0.14020263083E+03  0.00000000000E+00 0. -1.
         21    1    1    2  502  501  0.38531097505E+01  0.33492222524E+02  0.78784797249E+02  0.85694922265E+02  0.00000000000E+00 0.  1.
<scales pt_clust_5="13000.00000" pt_clust_6="13000.00000" pt_clust_7="13000.00000" pt_clust_8="13000.00000" pt_clust_9="33.71313"></scales>
<clustering>
<clus scale="   33.713">  1  9  2 -1</clus>
<clus scale="   82.014">  5  6 -1 -1</clus>
<clus scale="   84.171">  1  5  2 -1</clus>
<clus scale="   97.312">  7  8 -1 -1</clus>
<clus scale="   99.137">  2  5  1 -1</clus>
</clustering>
</event>
<event>
 9    2  0.3402837E-005  0.1293800E+03  0.7546771E-02  0.1231607E+00
          2   -1    0    0  502    0  0.00000000000E+00  0.00000000000E+00  0.46555383397E+03  0.46555383397E+03  0.00000000000E+00 0. -1.
         -1   -1    0    0    0  501 -0.00000000000E+00 -0.00000000000E+00 -0.14151156794E+03  0.14151156794E+03  0.00000000000E+00 0.  1.
         24    2    1    2    0    0  0.86123361332E+02 -0.75913718317E+02 -0.43318107528E+02  0.14622112033E+03  0.79523780051E+02 0.  0.
         23    2    1    2    0    0 -0.54651622576E+02  0.70167720085E+02  0.39711031871E+03  0.41715737196E+03  0.91724364037E+02 0.  0.
        -11    1    3    3    0    0  0.92182735420E+02 -0.62297625513E+02 -0.57854356747E+02  0.12540246189E+03  0.00000000000E+00 0.  1.
         12    1    3    3    0    0 -0.60593740880E+01 -0.13616092804E+02  0.14536249219E+02  0.20818658433E+02  0.00000000000E+00 0. -1.
        -13    1    4    4    0    0 -0.30911224511E+02 -0.17685935794E+02  0.88124663636E+02  0.95048684718E+02  0.00000000000E+00 0.  1.
         13    1    4    4    0    0 -0.23740398065E+02  0.87853655880E+02  0.30898565508E+03  0.32210868724E+03  0.00000000000E+00 0. -1.
         21    1    1    2  502  501 -0.31471738756E+02  0.57459982318E+01 -0.29749945157E+02  0.43686909628E+02  0.00000000000E+00 0. -1.
<scales pt_clust_5="13000.00000" pt_clust_6="13000.00000" pt_clust_7="13000.00000" pt_clust_8="13000.00000" pt_clust_9="31.99198"></scales>
<clustering>
<clus scale="   31.992">  2  9  1 -1</clus>
<clus scale="   79.524">  5  6 -1 -1</clus>
<clus scale="   91.724">  7  8 -1 -1</clus>
<clus scale="  121.037">  2  5  1 -1</clus>
<clus scale="  129.380">  1  5  2 -1</clus>
</clustering>
</event>
<event>
 9    2  0.3402837E-005  0.1308579E+03  0.7546771E-02  0.1229116E+00
          2   -1    0    0  502    0  0.00000000000E+00  0.00000000000E+00  0.46222442959E+03  0.46222442959E+03  0.00000000000E+00 0. -1.
         -1   -1    0    0    0  501 -0.00000000000E+00 -0.00000000000E+00 -0.17748440305E+03  0.17748440305E+03  0.00000000000E+00 0.  1.
         24    2    1    2    0    0  0.19694338127E+02 -0.63435645140E+02 -0.72258001404E+02  0.12710758162E+03  0.80766147057E+02 0.  0.
         23    2    1    2    0    0 -0.27668454616E+02  0.91603711468E+02  0.42141409938E+03  0.44184493149E+03  0.92088636611E+02 0.  0.
        -13    1    3    3    0    0 -0.90160951541E+01 -0.63287006717E+02 -0.74669311928E+02  0.98295683195E+02  0.00000000000E+00 0.  1.
         14    1    3    3    0    0  0.28710433281E+02 -0.14863842304E+00  0.24113105238E+01  0.28811898428E+02  0.00000000000E+00 0. -1.
        -13    1    4    4    0    0 -0.29478000509E+02 -0.80592750255E+00  0.41892287932E+02  0.51230516505E+02  0.00000000000E+00 0.  1.
         13    1    4    4    0    0  0.18095458927E+01  0.92409638971E+02  0.37952181144E+03  0.39061441498E+03  0.00000000000E+00 0. -1.
         21    1    1    2  502  501  0.79741164891E+01 -0.28168066328E+02 -0.64416071436E+02  0.70756319532E+02  0.00000000000E+00 0. -1.
<scales pt_clust_5="13000.00000" pt_clust_6="13000.00000" pt_clust_7="13000.00000" pt_clust_8="13000.00000" pt_clust_9="29.27501"></scales>
<clustering>
<clus scale="   29.275">  2  9  1 -1</clus>
<clus scale="   80.766">  5  6 -1 -1</clus>
<clus scale="   92.089">  7  8 -1 -1</clus>
<clus scale="  123.153">  2  5  1 -1</clus>
<clus scale="  130.858">  1  5  2 -1</clus>
</clustering>
</event>
<event>
 9    2  0.3402837E-005  0.1352315E+03  0.7546771E-02  0.1222915E+00
         -1   -1    0    0    0  501 -0.00000000000E+00  0.00000000000E+00  0.62803672814E+02  0.62803672814E+02  0.00000000000E+00 0.  1.
          2   -1    0    0  502    0  0.00000000000E+00 -0.00000000000E+00 -0.64458121263E+03  0.64458121263E+03  0.00000000000E+00 0. -1.
         24    2    1    2    0    0  0.51712402307E+02  0.83396035397E+02 -0.12161929603E+03  0.17486168644E+03  0.78461996837E+02 0.  0.
         23    2    1    2    0    0  0.14645115250E+02 -0.10645612082E+03 -0.43600958181E+03  0.45823830450E+03  0.91272138229E+02 0.  0.
        -11    1    3    3    0    0  0.35472402623E+02  0.73575442549E+02 -0.39782488302E+02  0.90853087287E+02  0.00000000000E+00 0.  1.
         12    1    3    3    0    0  0.16239999684E+02  0.98205928480E+01 -0.81836807726E+02  0.84008599158E+02  0.00000000000E+00 0. -1.
        -13    1    4    4    0    0 -0.23466978708E+02 -0.81143038782E+01 -0.30983335504E+02  0.39705265344E+02  0.00000000000E+00 0.  1.
         13    1    4    4    0    0  0.38112093958E+02 -0.98341816942E+02 -0.40502624631E+03  0.41853303915E+03  0.00000000000E+00 0. -1.
         21    1    1    2  502  501 -0.66357517557E+02  0.23060085423E+02 -0.24148661979E+02  0.74284894504E+02  0.00000000000E+00 0.  1.
<scales pt_clust_5="13000.00000" pt_clust_6="13000.00000" pt_clust_7="13000.00000" pt_clust_8="13000.00000" pt_clust_9="70.25018"></scales>
<clustering>
<clus scale="   70.250">  1  9  2 -1</clus>
<clus scale="   78.462">  5  6 -1 -1</clus>
<clus scale="   91.272">  7  8 -1 -1</clus>
<clus scale="  126.938">  1  5  2 -1</clus>
<clus scale="  135.231">  2  5  1 -1</clus>
</clustering>
</event>
<event>
 9    2  0.3402837E-005  0.1193549E+03  0.7546771E-02  0.1248802E+00
          2   -1    0    0  502    0  0.00000000000E+00  0.00000000000E+00  0.58152279587E+03  0.58152279587E+03  0.00000000000E+00 0. -1.
         -1   -1    0    0    0  501 -0.00000000000E+00 -0.00000000000E+00 -0.56111341104E+02  0.56111341104E+02  0.00000000000E+00 0.  1.
         23    2    1    2    0    0  0.71482940864E+02 -0.47351464972E+02  0.60371287168E+02  0.14092951794E+03  0.94151285939E+02 0.  0.
         24    2    1    2    0    0 -0.24197402247E+01  0.45179356373E+02  0.35505415037E+03  0.36681478985E+03  0.80265876769E+02 0.  0.
        -13    1    4    4    0    0  0.17958988838E+02  0.60500576977E+02  0.20129614120E+03  0.21095729795E+03  0.00000000000E+00 0.  1.
         14    1    4    4    0    0 -0.20378729063E+02 -0.15321220604E+02  0.15375800917E+03  0.15585749191E+03  0.00000000000E+00 0. -1.
        -11    1    3    3    0    0  0.40879049495E+02  0.19686482820E+02  0.48274404891E+02  0.66250075178E+02  0.00000000000E+00 0.  1.
         11    1    3    3    0    0  0.30603891369E+02 -0.67037947792E+02  0.12096882278E+02  0.74679442767E+02  0.00000000000E+00 0. -1.
         21    1    1    2  502  501 -0.69063200640E+02  0.21721085987E+01  0.10998601723E+03  0.12988982918E+03  0.00000000000E+00 0. -1.
<scales pt_clust_5="13000.00000" pt_clust_6="13000.00000" pt_clust_7="13000.00000" pt_clust_8="13000.00000" pt_clust_9="69.09735"></scales>
<clustering>
<clus scale="   69.097">  1  9  2 -1</clus>
<clus scale="   80.266">  5  6 -1 -1</clus>
<clus scale="   94.151">  7  8 -1 -1</clus>
<clus scale="  108.737">  1  5  2 -1</clus>
<clus scale="   69.097">  1  5  2 -1</clus>
</clustering>
</event>
<event>
 9    2  0.3402837E-005  0.1089163E+03  0.7546771E-02  0.1272263E+00
         -1   -1    0    0    0  501 -0.00000000000E+00  0.00000000000E+00  0.63275897175E+02  0.63275897175E+02  0.00000000000E+00 0.  1.
          2   -1    0    0  502    0  0.00000000000E+00 -0.00000000000E+00 -0.16992724787E+04  0.16992724787E+04  0.00000000000E+00 0. -1.
         23    2    1    2    0    0  0.71920932446E+01 -0.76810139476E+02 -0.20495065183E+03  0.23808990454E+03  0.93437194028E+02 0.  0.
         24    2    1    2    0    0  0.10488541906E+02  0.53447475262E+02 -0.14716655326E+04  0.14743748304E+04  0.70817078782E+02 0.  0.
        -13    1    4    4    0    0  0.32158070613E+01  0.25883212810E+02 -0.14027981903E+03  0.14268395056E+03  0.00000000000E+00 0.  1.
         14    1    4    4    0    0  0.72727348448E+01  0.27564262452E+02 -0.13313857136E+04  0.13316908799E+04  0.00000000000E+00 0. -1.
        -13    1    3    3    0    0 -0.27058693561E+02  0.82149889816E+01 -0.63810896807E+02  0.69796056425E+02  0.00000000000E+00 0. -1.
         13    1    3    3    0    0  0.34250786806E+02 -0.85025128457E+02 -0.14113975502E+03  0.16829384812E+03  0.00000000000E+00 0.  1.
         21    1    1    2  502  501 -0.17680635151E+02  0.23362664214E+02  0.40619602945E+02  0.50083640861E+02  0.00000000000E+00 0.  1.
<scales pt_clust_5="13000.00000" pt_clust_6="13000.00000" pt_clust_7="13000.00000" pt_clust_8="13000.00000" pt_clust_9="29.29879"></scales>
<clustering>
<clus scale="   29.299">  1  9  2 -1</clus>
<clus scale="   70.817">  5  6 -1 -1</clus>
<clus scale="   90.262">  2  5  1 -1</clus>
<clus scale="   93.437">  7  8 -1 -1</clus>
<clus scale="   90.262">  2  5  1 -1</clus>
</clustering>
</event>
<event>
 9    2  0.3402837E-005  0.1646370E+03  0.7546771E-02  0.1185173E+00
          2   -1    0    0  502    0  0.00000000000E+00  0.00000000000E+00  0.30718006103E+03  0.30718006103E+03  0.00000000000E+00 0. -1.
         -1   -1    0    0    0  501 -0.00000000000E+00 -0.00000000000E+00 -0.31068019574E+03  0.31068019574E+03  0.00000000000E+00 0.  1.
         24    2    1    2    0    0  0.17895037749E+03 -0.26809099490E+02 -0.14016439391E+03  0.24226842229E+03  0.79410110823E+02 0.  0.
         23    2    1    2    0    0 -0.11883789242E+03 -0.65339492027E+02  0.19245785958E+03  0.25223138854E+03  0.90492827113E+02 0.  0.
        -13    1    3    3    0    0  0.16469376655E+03 -0.45245864411E+02 -0.13657678154E+03  0.21868800205E+03  0.00000000000E+00 0.  1.
         14    1    3    3    0    0  0.14256610939E+02  0.18436764921E+02 -0.35876123761E+01  0.23580420241E+02  0.00000000000E+00 0. -1.
        -11    1    4    4    0    0 -0.47436240177E+02 -0.76677599871E+02  0.11725602203E+03  0.14791425187E+03  0.00000000000E+00 0. -1.
         11    1    4    4    0    0 -0.71401652243E+02  0.11338107844E+02  0.75201837546E+02  0.10431713667E+03  0.00000000000E+00 0.  1.
         21    1    1    2  502  501 -0.60112485068E+02  0.92148591517E+02 -0.55793600378E+02  0.12336044594E+03  0.00000000000E+00 0.  1.
<scales pt_clust_5="13000.00000" pt_clust_6="13000.00000" pt_clust_7="13000.00000" pt_clust_8="13000.00000" pt_clust_9="110.02215"></scales>
<clustering>
<clus scale="   79.410">  5  6 -1 -1</clus>
<clus scale="   90.493">  7  8 -1 -1</clus>
<clus scale="  110.022">  2  9  1 -1</clus>
<clus scale="  158.815">  2  5  1 -1</clus>
<clus scale="  164.637">  1  5  2 -1</clus>
</clustering>
</event>
<event>
 9    2  0.3402837E-005  0.1836799E+03  0.7546771E-02  0.1166582E+00
         -1   -1    0    0    0  501 -0.00000000000E+00  0.00000000000E+00  0.43949738934E+02  0.43949738934E+02  0.00000000000E+00 0.  1.
          2   -1    0    0  502    0  0.00000000000E+00 -0.00000000000E+00 -0.99785021008E+03  0.99785021008E+03  0.00000000000E+00 0. -1.
         23    2    1    2    0    0  0.81054185376E+01  0.15512030346E+03 -0.45003156395E+03  0.48658658745E+03  0.10054895418E+03 0.  0.
         24    2    1    2    0    0  0.24389932374E+02 -0.15199601744E+03 -0.48931327816E+03  0.51947017577E+03  0.82000739069E+02 0.  0.
        -11    1    4    4    0    0 -0.18564905743E+02 -0.41520270559E+02 -0.68060207479E+02  0.81858294843E+02  0.00000000000E+00 0.  1.
         12    1    4    4    0    0  0.42954838117E+02 -0.11047574688E+03 -0.42125307068E+03  0.43761188092E+03  0.00000000000E+00 0. -1.
        -13    1    3    3    0    0  0.33041354908E+02  0.13463955967E+03 -0.26817838142E+03  0.30189267368E+03  0.00000000000E+00 0.  1.
         13    1    3    3    0    0 -0.24935936371E+02  0.20480743792E+02 -0.18185318253E+03  0.18469391377E+03  0.00000000000E+00 0. -1.
         21    1    1    2  502  501 -0.32495350912E+02 -0.31242860209E+01 -0.14555629042E+02  0.35743185796E+02  0.00000000000E+00 0.  1.
<scales pt_clust_5="13000.00000" pt_clust_6="13000.00000" pt_clust_7="13000.00000" pt_clust_8="13000.00000" pt_clust_9="32.64520"></scales>
<clustering>
<clus scale="   32.645">  1  9  2 -1</clus>
<clus scale="   82.001">  5  6 -1 -1</clus>
<clus scale="  100.549">  7  8 -1 -1</clus>
<clus scale="  174.219">  2  5  1 -1</clus>
<clus scale="  174.219">  2  5  1 -1</clus>
</clustering>
</event>
<event>
 9    2  0.3402837E-005  0.5755254E+03  0.7546771E-02  0.9957526E-01
         -1   -1    0    0    0  501 -0.00000000000E+00  0.00000000000E+00  0.65933809800E+03  0.65933809800E+03  0.00000000000E+00 0.  1.
          2   -1    0    0  502    0  0.00000000000E+00 -0.00000000000E+00 -0.50747542413E+03  0.50747542413E+03  0.00000000000E+00 0. -1.
         24    2    1    2    0    0 -0.52382973855E+02 -0.11620504125E+03 -0.25518698614E+02  0.15281768352E+03  0.80339609515E+02 0.  0.
         23    2    1    2    0    0 -0.80918856861E+02 -0.40604939623E+03 -0.52596682748E+02  0.42798476241E+03  0.94765881214E+02 0.  0.
        -13    1    3    3    0    0 -0.21080441127E+02 -0.23827711131E+02  0.27278678230E+02  0.41907888300E+02  0.00000000000E+00 0.  1.
         14    1    3    3    0    0 -0.31302532728E+02 -0.92377330118E+02 -0.52797376843E+02  0.11090979522E+03  0.00000000000E+00 0. -1.
        -11    1    4    4    0    0 -0.49731787201E+02 -0.79839624346E+02  0.92038648982E+01  0.94510990911E+02  0.00000000000E+00 0.  1.
         11    1    4    4    0    0 -0.31187069660E+02 -0.32620977189E+03 -0.61800547646E+02  0.33347377150E+03  0.00000000000E+00 0. -1.
         21    1    1    2  502  501  0.13330183072E+03  0.52225443748E+03  0.22997805523E+03  0.58601107620E+03  0.00000000000E+00 0.  1.
<scales pt_clust_5="13000.00000" pt_clust_6="13000.00000" pt_clust_7="13000.00000" pt_clust_8="13000.00000" pt_clust_9="538.99821"></scales>
<clustering>
<clus scale="   80.340">  5  6 -1 -1</clus>
<clus scale="   94.766">  7  8 -1 -1</clus>
<clus scale="   99.738">  5  7 -1 -1</clus>
<clus scale="  538.998">  1  9  2 -1</clus>
<clus scale="  575.525">  2  5  1 -1</clus>
</clustering>
</event>
<event>
 9    2  0.3402837E-005  0.3995095E+03  0.7546771E-02  0.1085055E+00
          2   -1    0    0  502    0  0.00000000000E+00  0.00000000000E+00  0.15039394657E+04  0.15039394657E+04  0.00000000000E+00 0. -1.
         -1   -1    0    0    0  501 -0.00000000000E+00 -0.00000000000E+00 -0.41796438433E+03  0.41796438433E+03  0.00000000000E+00 0.  1.
         23    2    1    2    0    0 -0.99994717038E+02 -0.33960962550E+03  0.79762314333E+03  0.87741104408E+03  0.91180153162E+02 0.  0.
         24    2    1    2    0    0  0.83281319969E+02 -0.54561942780E+02  0.55422780470E+03  0.56874020283E+03  0.79901032249E+02 0.  0.
        -11    1    4    4    0    0  0.97474759808E+02 -0.36524038891E+02  0.47390759608E+03  0.48520484729E+03  0.00000000000E+00 0.  1.
         12    1    4    4    0    0 -0.14193439839E+02 -0.18037903889E+02  0.80320208624E+02  0.83535355536E+02  0.00000000000E+00 0. -1.
        -11    1    3    3    0    0 -0.55967477169E+02 -0.23540858804E+03  0.63297452111E+03  0.67764762686E+03  0.00000000000E+00 0. -1.
         11    1    3    3    0    0 -0.44027239869E+02 -0.10420103746E+03  0.16464862222E+03  0.19976341722E+03  0.00000000000E+00 0.  1.
         21    1    1    2  502  501  0.16713397069E+02  0.39417156828E+03 -0.26587586668E+03  0.47575260311E+03  0.00000000000E+00 0.  1.
<scales pt_clust_5="13000.00000" pt_clust_6="13000.00000" pt_clust_7="13000.00000" pt_clust_8="13000.00000" pt_clust_9="388.96537"></scales>
<clustering>
<clus scale="   79.901">  5  6 -1 -1</clus>
<clus scale="   91.180">  7  8 -1 -1</clus>
<clus scale="  127.660">  1  5  2 -1</clus>
<clus scale="  388.965">  2  9  1 -1</clus>
<clus scale="  127.660">  1  5  2 -1</clus>
</clustering>
</event>
<event>
 9    2  0.3402837E-005  0.9787975E+02  0.7546771E-02  0.1290306E+00
         -3   -1    0    0    0  501 -0.00000000000E+00  0.00000000000E+00  0.38068778482E+02  0.38068778482E+02  0.00000000000E+00 0.  1.
          4   -1    0    0  502    0  0.00000000000E+00 -0.00000000000E+00 -0.49876991852E+03  0.49876991852E+03  0.00000000000E+00 0. -1.
         23    2    1    2    0    0  0.21748494972E+02  0.12867575081E+02 -0.91695274492E+02  0.13142886958E+03  0.90702551639E+02 0.  0.
         24    2    1    2    0    0  0.31760828773E+02 -0.39901287073E+02 -0.29625146355E+03  0.31113749680E+03  0.80254279020E+02 0.  0.
        -11    1    4    4    0    0  0.54231407948E+02 -0.15331257916E+02 -0.13170385904E+03  0.14325501584E+03  0.00000000000E+00 0.  1.
         12    1    4    4    0    0 -0.22470579175E+02 -0.24570029157E+02 -0.16454760451E+03  0.16788248095E+03  0.00000000000E+00 0. -1.
        -11    1    3    3    0    0  0.45214539122E+02 -0.14734646527E+02 -0.20987934566E+02  0.51980359307E+02  0.00000000000E+00 0.  1.
         11    1    3    3    0    0 -0.23466044150E+02  0.27602221608E+02 -0.70707339927E+02  0.79448510277E+02  0.00000000000E+00 0. -1.
         21    1    1    2  502  501 -0.53509323745E+02  0.27033711992E+02 -0.72754401994E+02  0.94272330623E+02  0.00000000000E+00 0.  1.
<scales pt_clust_5="13000.00000" pt_clust_6="13000.00000" pt_clust_7="13000.00000" pt_clust_8="13000.00000" pt_clust_9="59.95056"></scales>
<clustering>
<clus scale="   59.951">  1  9  2 -1</clus>
<clus scale="   80.254">  5  6 -1 -1</clus>
<clus scale="   88.285">  2  5  1 -1</clus>
<clus scale="   90.703">  7  8 -1 -1</clus>
<clus scale="   88.285">  2  5  1 -1</clus>
</clustering>
</event>
<event>
 9    2  0.3402837E-005  0.1031657E+03  0.7546771E-02  0.1280091E+00
          2   -1    0    0  502    0  0.00000000000E+00  0.00000000000E+00  0.38895212443E+03  0.38895212443E+03  0.00000000000E+00 0. -1.
         -1   -1    0    0    0  501 -0.00000000000E+00 -0.00000000000E+00 -0.92886937022E+02  0.92886937022E+02  0.00000000000E+00 0.  1.
         23    2    1    2    0    0  0.22898232766E+02 -0.81666948182E+01 -0.49007634967E+02  0.11467711226E+03  0.10078724038E+03 0.  0.
         24    2    1    2    0    0  0.35700260827E+01  0.87448744338E+01  0.31352333386E+03  0.32597611129E+03  0.88737401018E+02 0.  0.
        -13    1    4    4    0    0  0.44945978062E+02  0.29786592737E+01  0.12468677797E+03  0.13257377552E+03  0.00000000000E+00 0.  1.
         14    1    4    4    0    0 -0.41375951979E+02  0.57662151601E+01  0.18883655589E+03  0.19340233577E+03  0.00000000000E+00 0. -1.
        -13    1    3    3    0    0 -0.36887420082E+02  0.13887501779E+01 -0.38300087292E+02  0.53193111151E+02  0.00000000000E+00 0. -1.
         13    1    3    3    0    0  0.59785652849E+02 -0.95554449961E+01 -0.10707547676E+02  0.61484001113E+02  0.00000000000E+00 0.  1.
         21    1    1    2  502  501 -0.26468258849E+02 -0.57817961567E+00  0.31549488514E+02  0.41185837902E+02  0.00000000000E+00 0. -1.
<scales pt_clust_5="13000.00000" pt_clust_6="13000.00000" pt_clust_7="13000.00000" pt_clust_8="13000.00000" pt_clust_9="26.47457"></scales>
<clustering>
<clus scale="   26.475">  1  9  2 -1</clus>
<clus scale="   88.737">  5  6 -1 -1</clus>
<clus scale="   91.430">  1  5  2 -1</clus>
<clus scale="  100.787">  7  8 -1 -1</clus>
<clus scale="   26.475">  1  5  2 -1</clus>
</clustering>
</event>
<event>
 9    2  0.3402837E-005  0.2842113E+03  0.7546771E-02  0.1094084E+00
          2   -1    0    0  502    0  0.00000000000E+00  0.00000000000E+00  0.67471659689E+03  0.67471659689E+03  0.00000000000E+00 0. -1.
         -1   -1    0    0    0  501 -0.00000000000E+00 -0.00000000000E+00 -0.80848056337E+03  0.80848056337E+03  0.00000000000E+00 0.  1.
         24    2    1    2    0    0  0.86182342975E+02  0.21380138745E+03 -0.18987359050E+03  0.30744783931E+03  0.73032622941E+02 0.  0.
         23    2    1    2    0    0  0.15072384835E+03 -0.24638734962E+03  0.54958739061E+03  0.62738202201E+03  0.90208076705E+02 0.  0.
        -13    1    3    3    0    0  0.61518285126E+02  0.20359819466E+03 -0.15333685393E+03  0.26220014311E+03  0.00000000000E+00 0.  1.
         14    1    3    3    0    0  0.24664057848E+02  0.10203192789E+02 -0.36536736566E+02  0.45247696201E+02  0.00000000000E+00 0. -1.
        -13    1    4    4    0    0 -0.11107268723E+02 -0.22633071801E+02  0.32012342687E+02  0.40748220108E+02  0.00000000000E+00 0.  1.
         13    1    4    4    0    0  0.16183111707E+03 -0.22375427782E+03  0.51757504793E+03  0.58663380190E+03  0.00000000000E+00 0. -1.
         21    1    1    2  502  501 -0.23690619132E+03  0.32585962174E+02 -0.49347776660E+03  0.54836729894E+03  0.00000000000E+00 0.  1.
<scales pt_clust_5="13000.00000" pt_clust_6="13000.00000" pt_clust_7="13000.00000" pt_clust_8="13000.00000" pt_clust_9="239.13676"></scales>
<clustering>
<clus scale="   73.033">  5  6 -1 -1</clus>
<clus scale="   90.208">  7  8 -1 -1</clus>
<clus scale="  239.137">  2  9  1 -1</clus>
<clus scale="  279.235">  2  5  1 -1</clus>
<clus scale="  284.211">  1  5  2 -1</clus>
</clustering>
</event>
<event>
 9    2  0.3402837E-005  0.1017816E+03  0.7546771E-02  0.1281576E+00
         -1   -1    0    0    0  501 -0.00000000000E+00  0.00000000000E+00  0.74810259072E+02  0.74810259072E+02  0.00000000000E+00 0.  1.
          2   -1    0    0  502    0  0.00000000000E+00 -0.00000000000E+00 -0.34774174222E+03  0.34774174222E+03  0.00000000000E+00 0. -1.
         23    2    1    2    0    0  0.57514459638E+02 -0.32946383583E+02 -0.52946994417E+02  0.12309431310E+03  0.89193320604E+02 0.  0.
         24    2    1    2    0    0 -0.33140291313E+02  0.30988996953E+02 -0.24694109096E+03  0.26306277306E+03  0.78508109939E+02 0.  0.
        -11    1    4    4    0    0  0.23222568276E+02  0.13514185448E+02 -0.42544464163E+02  0.50318508688E+02  0.00000000000E+00 0.  1.
         12    1    4    4    0    0 -0.56362859589E+02  0.17474811505E+02 -0.20439662680E+03  0.21274426438E+03  0.00000000000E+00 0. -1.
        -13    1    3    3    0    0  0.78105249028E+01 -0.43115145646E+02 -0.57346749779E+02  0.72170421874E+02  0.00000000000E+00 0. -1.
         13    1    3    3    0    0  0.49703934735E+02  0.10168762063E+02  0.43997553618E+01  0.50923891223E+02  0.00000000000E+00 0.  1.
         21    1    1    2  502  501 -0.24374168324E+02  0.19573866300E+01  0.26956602228E+02  0.36394915134E+02  0.00000000000E+00 0.  1.
<scales pt_clust_5="13000.00000" pt_clust_6="13000.00000" pt_clust_7="13000.00000" pt_clust_8="13000.00000" pt_clust_9="24.45264"></scales>
<clustering>
<clus scale="   24.453">  1  9  2 -1</clus>
<clus scale="   78.508">  5  6 -1 -1</clus>
<clus scale="   89.193">  7  8 -1 -1</clus>
<clus scale="   92.561">  2  5  1 -1</clus>
<clus scale="   92.561">  2  5  1 -1</clus>
</clustering>
</event>
<event>
 9    2  0.3402837E-005  0.5614742E+03  0.7546771E-02  0.9988725E-01
         -1   -1    0    0    0  501 -0.00000000000E+00  0.00000000000E+00  0.26938753646E+03  0.26938753646E+03  0.00000000000E+00 0.  1.
          2   -1    0    0  502    0  0.00000000000E+00 -0.00000000000E+00 -0.10202771383E+04  0.10202771383E+04  0.00000000000E+00 0. -1.
         24    2    1    2    0    0  0.29591598867E+03  0.13678097470E+03 -0.23719632736E+03  0.41072239061E+03  0.78456848276E+02 0.  0.
         23    2    1    2    0    0  0.56157326782E+02  0.19924643340E+03 -0.14826789826E+03  0.27033260296E+03  0.90794052645E+02 0.  0.
        -11    1    3    3    0    0  0.22905067445E+03  0.13845623199E+03 -0.17826762207E+03  0.32157998184E+03  0.00000000000E+00 0.  1.
         12    1    3    3    0    0  0.66865314227E+02 -0.16752572948E+01 -0.58928705290E+02  0.89142408767E+02  0.00000000000E+00 0. -1.
        -13    1    4    4    0    0  0.24829535487E+02  0.30405793165E+01 -0.30177450322E+02  0.39197314487E+02  0.00000000000E+00 0.  1.
         13    1    4    4    0    0  0.31327791295E+02  0.19620585408E+03 -0.11809044794E+03  0.23113528848E+03  0.00000000000E+00 0. -1.
         21    1    1    2  502  501 -0.35207331545E+03 -0.33602740810E+03 -0.36542537618E+03  0.60860968116E+03  0.00000000000E+00 0. -1.
<scales pt_clust_5="13000.00000" pt_clust_6="13000.00000" pt_clust_7="13000.00000" pt_clust_8="13000.00000" pt_clust_9="486.69296"></scales>
<clustering>
<clus scale="   78.457">  5  6 -1 -1</clus>
<clus scale="   90.794">  7  8 -1 -1</clus>
<clus scale="  195.774">  5  7 -1 -1</clus>
<clus scale="  486.693">  2  9  1 -1</clus>
<clus scale="  486.693">  2  5  1 -1</clus>
</clustering>
</event>
<event>
 9    2  0.3402837E-005  0.1116963E+03  0.7546771E-02  0.1260848E+00
          2   -1    0    0  502    0  0.00000000000E+00  0.00000000000E+00  0.29230994527E+03  0.29230994527E+03  0.00000000000E+00 0. -1.
         -1   -1    0    0    0  501 -0.00000000000E+00 -0.00000000000E+00 -0.82829483874E+02  0.82829483874E+02  0.00000000000E+00 0.  1.
         23    2    1    2    0    0  0.38481383367E+02 -0.86992378149E+01  0.48186184363E+02  0.11047063494E+03  0.91243406429E+02 0.  0.
         24    2    1    2    0    0 -0.72471453694E+02  0.26381208537E+02  0.18711442204E+03  0.21846644731E+03  0.82266043418E+02 0.  0.
        -11    1    4    4    0    0 -0.80644936879E+02  0.20890821065E+02  0.19060865480E+03  0.20801848844E+03  0.00000000000E+00 0.  1.
         12    1    4    4    0    0  0.81734831848E+01  0.54903874721E+01 -0.34942327569E+01  0.10447958869E+02  0.00000000000E+00 0. -1.
        -11    1    3    3    0    0  0.84555923936E+01 -0.46189056140E+02  0.75590215808E+01  0.47561168585E+02  0.00000000000E+00 0.  1.
         11    1    3    3    0    0  0.30025790974E+02  0.37489818326E+02  0.40627162782E+02  0.62909466358E+02  0.00000000000E+00 0. -1.
         21    1    1    2  502  501  0.33990070327E+02 -0.17681970722E+02 -0.25820145014E+02  0.46202346888E+02  0.00000000000E+00 0.  1.
<scales pt_clust_5="13000.00000" pt_clust_6="13000.00000" pt_clust_7="13000.00000" pt_clust_8="13000.00000" pt_clust_9="38.31419"></scales>
<clustering>
<clus scale="   38.314">  2  9  1 -1</clus>
<clus scale="   82.266">  5  6 -1 -1</clus>
<clus scale="   91.243">  7  8 -1 -1</clus>
<clus scale="  104.491">  1  5  2 -1</clus>
<clus scale="  104.491">  1  5  2 -1</clus>
</clustering>
</event>
<event>
 9    2  0.3402837E-005  0.2413456E+03  0.7546771E-02  0.1119129E+00
         -1   -1    0    0    0  501 -0.00000000000E+00  0.00000000000E+00  0.36400987523E+03  0.36400987523E+03  0.00000000000E+00 0.  1.
          2   -1    0    0  502    0  0.00000000000E+00 -0.00000000000E+00 -0.59564180264E+03  0.59564180264E+03  0.00000000000E+00 0. -1.
         23    2    1    2    0    0 -0.25410878330E+03 -0.13261766378E+02  0.24856724577E+03  0.36692798351E+03  0.90018449309E+02 0.  0.
         24    2    1    2    0    0  0.22119153119E+03  0.62730788598E+01 -0.50010158438E+03  0.55362774558E+03  0.86238280266E+02 0.  0.
        -13    1    4    4    0    0  0.62030920547E+02  0.30936793484E+02 -0.94327003041E+02  0.11705769431E+03  0.00000000000E+00 0.  1.
         14    1    4    4    0    0  0.15916061065E+03 -0.24663714625E+02 -0.40577458134E+03  0.43657005127E+03  0.00000000000E+00 0. -1.
        -11    1    3    3    0    0 -0.11650991769E+03 -0.50620022789E+02  0.12571990207E+03  0.17872448462E+03  0.00000000000E+00 0.  1.
         11    1    3    3    0    0 -0.13759886562E+03  0.37358256411E+02  0.12284734370E+03  0.18820349889E+03  0.00000000000E+00 0. -1.
         21    1    1    2  502  501  0.32917252107E+02  0.69886875186E+01  0.19902411205E+02  0.39095948784E+02  0.00000000000E+00 0.  1.
<scales pt_clust_5="13000.00000" pt_clust_6="13000.00000" pt_clust_7="13000.00000" pt_clust_8="13000.00000" pt_clust_9="33.65096"></scales>
<clustering>
<clus scale="   33.651">  1  9  2 -1</clus>
<clus scale="   86.238">  5  6 -1 -1</clus>
<clus scale="   90.018">  7  8 -1 -1</clus>
<clus scale="  239.961">  2  5  1 -1</clus>
<clus scale="  239.961">  2  5  1 -1</clus>
</clustering>
</event>
<event>
 9    2  0.3402837E-005  0.1151109E+03  0.7546771E-02  0.1257554E+00
         -1   -1    0    0    0  501 -0.00000000000E+00  0.00000000000E+00  0.80529072080E+02  0.80529072080E+02  0.00000000000E+00 0.  1.
          2   -1    0    0  502    0  0.00000000000E+00 -0.00000000000E+00 -0.28412027670E+03  0.28412027670E+03  0.00000000000E+00 0. -1.
         23    2    1    2    0    0 -0.13535899314E+02 -0.25533894234E+02 -0.81210431676E+01  0.95875819039E+02  0.91055043843E+02 0.  0.
         24    2    1    2    0    0  0.20020013157E+02  0.85202594033E+02 -0.16686066931E+03  0.20228367707E+03  0.73592935043E+02 0.  0.
        -13    1    4    4    0    0  0.33913321109E+02  0.20191165868E+02 -0.28193559575E+02  0.48504364023E+02  0.00000000000E+00 0.  1.
         14    1    4    4    0    0 -0.13893307952E+02  0.65011428165E+02 -0.13866710974E+03  0.15377931304E+03  0.00000000000E+00 0. -1.
        -13    1    3    3    0    0 -0.36857329661E+02 -0.16152770369E+02  0.30013581035E+02  0.50201491879E+02  0.00000000000E+00 0.  1.
         13    1    3    3    0    0  0.23321430347E+02 -0.93811238652E+01 -0.38134624202E+02  0.45674327160E+02  0.00000000000E+00 0. -1.
         21    1    1    2  502  501 -0.64841138428E+01 -0.59668699799E+02 -0.28609492142E+02  0.66489852674E+02  0.00000000000E+00 0.  1.
<scales pt_clust_5="13000.00000" pt_clust_6="13000.00000" pt_clust_7="13000.00000" pt_clust_8="13000.00000" pt_clust_9="60.01998"></scales>
<clustering>
<clus scale="   60.020">  1  9  2 -1</clus>
<clus scale="   73.593">  5  6 -1 -1</clus>
<clus scale="   91.055">  7  8 -1 -1</clus>
<clus scale="  101.860">  2  5  1 -1</clus>
<clus scale="  101.860">  2  5  1 -1</clus>
</clustering>
</event>
<event>
 9    2  0.3402837E-005  0.3666380E+03  0.7546771E-02  0.1056212E+00
          2   -1    0    0  502    0  0.00000000000E+00  0.00000000000E+00  0.58418968976E+03  0.58418968976E+03  0.00000000000E+00 0. -1.
         -1   -1    0    0    0  501 -0.00000000000E+00 -0.00000000000E+00 -0.35768103709E+03  0.35768103709E+03  0.00000000000E+00 0.  1.
         23    2    1    2    0    0  0.35506346975E+03  0.79459355559E+02 -0.31310884088E+02  0.37655594416E+03  0.91815853103E+02 0.  0.
         24    2    1    2    0    0 -0.30674917675E+03 -0.18161200050E+03  0.26558850171E+03  0.45204611715E+03  0.82039402870E+02 0.  0.
        -11    1    4    4    0    0 -0.18260781229E+03 -0.60842329730E+02  0.13385224414E+03  0.23444365092E+03  0.00000000000E+00 0.  1.
         12    1    4    4    0    0 -0.12414136446E+03 -0.12076967077E+03  0.13173625757E+03  0.21760246623E+03  0.00000000000E+00 0. -1.
        -13    1    3    3    0    0  0.73756717010E+02  0.15084565885E+02  0.30848672329E+02  0.81358699698E+02  0.00000000000E+00 0.  1.
         13    1    3    3    0    0  0.28130675274E+03  0.64374789674E+02 -0.62159556417E+02  0.29519724446E+03  0.00000000000E+00 0. -1.
         21    1    1    2  502  501 -0.48314293003E+02  0.10215264495E+03 -0.77689649523E+01  0.11326866554E+03  0.00000000000E+00 0. -1.
<scales pt_clust_5="13000.00000" pt_clust_6="13000.00000" pt_clust_7="13000.00000" pt_clust_8="13000.00000" pt_clust_9="113.00192"></scales>
<clustering>
<clus scale="   82.039">  5  6 -1 -1</clus>
<clus scale="   91.816">  7  8 -1 -1</clus>
<clus scale="  113.002">  2  9  1 -1</clus>
<clus scale="  364.313">  1  5  2 -1</clus>
<clus scale="  364.313">  1  5  2 -1</clus>
</clustering>
</event>
<event>
 9    2  0.3402837E-005  0.1003636E+03  0.7546771E-02  0.1286491E+00
         -1   -1    0    0    0  501 -0.00000000000E+00  0.00000000000E+00  0.31078384820E+03  0.31078384820E+03  0.00000000000E+00 0.  1.
          2   -1    0    0  502    0  0.00000000000E+00 -0.00000000000E+00 -0.10008158510E+03  0.10008158510E+03  0.00000000000E+00 0. -1.
         23    2    1    2    0    0 -0.39251962272E+02 -0.88488269854E+01  0.19671112615E+03  0.22021887860E+03  0.90454790137E+02 0.  0.
         24    2    1    2    0    0  0.67149625692E+02 -0.53654294945E+02 -0.15554443381E+02  0.11609549037E+03  0.76474613947E+02 0.  0.
        -11    1    4    4    0    0  0.16496744380E+02 -0.34768303633E+02  0.27239440156E+02  0.47148325661E+02  0.00000000000E+00 0.  1.
         12    1    4    4    0    0  0.50652881312E+02 -0.18885991313E+02 -0.42793883537E+02  0.68947164707E+02  0.00000000000E+00 0. -1.
        -11    1    3    3    0    0  0.19117710545E+02 -0.31120128308E+02  0.71755503155E+02  0.80515846114E+02  0.00000000000E+00 0. -1.
         11    1    3    3    0    0 -0.58369672817E+02  0.22271301322E+02  0.12495562300E+03  0.13970303249E+03  0.00000000000E+00 0.  1.
         21    1    1    2  502  501 -0.27897663420E+02  0.62503121931E+02  0.29545580327E+02  0.74551064326E+02  0.00000000000E+00 0.  1.
<scales pt_clust_5="13000.00000" pt_clust_6="13000.00000" pt_clust_7="13000.00000" pt_clust_8="13000.00000" pt_clust_9="68.44647"></scales>
<clustering>
<clus scale="   68.446">  2  9  1 -1</clus>
<clus scale="   76.475">  5  6 -1 -1</clus>
<clus scale="   87.972">  2  5  1 -1</clus>
<clus scale="   90.455">  7  8 -1 -1</clus>
<clus scale="   68.446">  2  5  1 -1</clus>
</clustering>
</event>
<event>
 9    2  0.3402837E-005  0.1011598E+03  0.7546771E-02  0.1281182E+00
          4   -1    0    0  502    0  0.00000000000E+00  0.00000000000E+00  0.47372634373E+02  0.47372634373E+02  0.00000000000E+00 0. -1.
         -3   -1    0    0    0  501 -0.00000000000E+00 -0.00000000000E+00 -0.47136299415E+03  0.47136299415E+03  0.00000000000E+00 0.  1.
         23    2    1    2    0    0 -0.53692648171E+02  0.26772953910E+02 -0.23186118052E+03  0.25517630174E+03  0.88066147920E+02 0.  0.
         24    2    1    2    0    0  0.31390000688E+02 -0.36351602026E+02 -0.28735064787E+02  0.98372174655E+02  0.80898761949E+02 0.  0.
        -11    1    4    4    0    0 -0.15179915652E+01 -0.55717199338E+02 -0.19866303059E+02  0.59172464861E+02  0.00000000000E+00 0.  1.
         12    1    4    4    0    0  0.32907992254E+02  0.19365597311E+02 -0.88687617283E+01  0.39199709795E+02  0.00000000000E+00 0. -1.
        -11    1    3    3    0    0 -0.40071354441E+02  0.51537070792E+02 -0.93985652239E+02  0.11443376224E+03  0.00000000000E+00 0.  1.
         11    1    3    3    0    0 -0.13621293730E+02 -0.24764116882E+02 -0.13787552828E+03  0.14074253950E+03  0.00000000000E+00 0. -1.
         21    1    1    2  502  501  0.22302647482E+02  0.95786481164E+01 -0.16339411447E+03  0.16518715213E+03  0.00000000000E+00 0. -1.
<scales pt_clust_5="13000.00000" pt_clust_6="13000.00000" pt_clust_7="13000.00000" pt_clust_8="13000.00000" pt_clust_9="24.27259"></scales>
<clustering>
<clus scale="   24.273">  2  9  1 -1</clus>
<clus scale="   80.899">  5  6 -1 -1</clus>
<clus scale="   88.066">  7  8 -1 -1</clus>
<clus scale="   94.986">  1  5  2 -1</clus>
<clus scale="   94.986">  1  5  2 -1</clus>
</clustering>
</event>
<event>
 9    2  0.3402837E-005  0.1388461E+03  0.7546771E-02  0.1237188E+00
         -1   -1    0    0    0  501 -0.00000000000E+00  0.00000000000E+00  0.14961523223E+03  0.14961523223E+03  0.00000000000E+00 0.  1.
          2   -1    0    0  502    0  0.00000000000E+00 -0.00000000000E+00 -0.29818820102E+03  0.29818820102E+03  0.00000000000E+00 0. -1.
         23    2    1    2    0    0 -0.71549378299E+02  0.99684303349E+02  0.18998301586E+02  0.15463951657E+03  0.92174675225E+02 0.  0.
         24    2    1    2    0    0  0.25288166482E+02 -0.19343197984E+02 -0.17956704615E+03  0.19968294767E+03  0.81334524388E+02 0.  0.
        -13    1    4    4    0    0  0.52183478739E+02 -0.12505580842E+02 -0.80069806731E+02  0.96388168130E+02  0.00000000000E+00 0.  1.
         14    1    4    4    0    0 -0.26895312258E+02 -0.68376171416E+01 -0.99497239416E+02  0.10329477954E+03  0.00000000000E+00 0. -1.
        -13    1    3    3    0    0 -0.18591162813E+02  0.63343431591E+02  0.50486811134E+02  0.83108000571E+02  0.00000000000E+00 0.  1.
         13    1    3    3    0    0 -0.52958215486E+02  0.36340871758E+02 -0.31488509548E+02  0.71531515999E+02  0.00000000000E+00 0. -1.
         21    1    1    2  502  501  0.46261211817E+02 -0.80341105365E+02  0.11995775772E+02  0.93480969007E+02  0.00000000000E+00 0. -1.
<scales pt_clust_5="13000.00000" pt_clust_6="13000.00000" pt_clust_7="13000.00000" pt_clust_8="13000.00000" pt_clust_9="103.83674"></scales>
<clustering>
<clus scale="   81.335">  5  6 -1 -1</clus>
<clus scale="   87.344">  2  5  1 -1</clus>
<clus scale="   92.175">  7  8 -1 -1</clus>
<clus scale="  103.837">  1  9  2 -1</clus>
<clus scale="   87.344">  2  5  1 -1</clus>
</clustering>
</event>
<event>
 9    2  0.3402837E-005  0.8731501E+02  0.7546771E-02  0.1309809E+00
         -3   -1    0    0    0  501 -0.00000000000E+00  0.00000000000E+00  0.12851164898E+03  0.12851164898E+03  0.00000000000E+00 0.  1.
          4   -1    0    0  502    0  0.00000000000E+00 -0.00000000000E+00 -0.18038218574E+03  0.18038218574E+03  0.00000000000E+00 0. -1.
         24    2    1    2    0    0  0.20248999070E+02 -0.35548712029E+02  0.76467338843E+02  0.11817773871E+03  0.80280702086E+02 0.  0.
         23    2    1    2    0    0  0.12696146370E+02  0.31340773116E+02 -0.13077567350E+03  0.15741396069E+03  0.80829710184E+02 0.  0.
        -11    1    3    3    0    0  0.51725271967E+01 -0.47500650098E+02  0.84702494508E+02  0.97250086752E+02  0.00000000000E+00 0.  1.
         12    1    3    3    0    0  0.15076471874E+02  0.11951938069E+02 -0.82351556659E+01  0.20927651961E+02  0.00000000000E+00 0. -1.
        -11    1    4    4    0    0  0.95350536390E+01 -0.27123440726E+02 -0.49525855861E+02  0.57266121603E+02  0.00000000000E+00 0.  1.
         11    1    4    4    0    0  0.31610927313E+01  0.58464213841E+02 -0.81249817643E+02  0.10014783909E+03  0.00000000000E+00 0. -1.
         21    1    1    2  502  501 -0.32945145441E+02  0.42079389135E+01  0.24377978944E+01  0.33302135316E+02  0.00000000000E+00 0.  1.
<scales pt_clust_5="13000.00000" pt_clust_6="13000.00000" pt_clust_7="13000.00000" pt_clust_8="13000.00000" pt_clust_9="33.21279"></scales>
<clustering>
<clus scale="   33.213">  1  9  2 -1</clus>
<clus scale="   80.281">  5  6 -1 -1</clus>
<clus scale="   80.830">  7  8 -1 -1</clus>
<clus scale="   86.807">  1  5  2 -1</clus>
<clus scale="   87.315">  2  5  1 -1</clus>
</clustering>
</event>
<event>
 9    2  0.3402837E-005  0.1074565E+03  0.7546771E-02  0.1268309E+00
         -1   -1    0    0    0  501 -0.00000000000E+00  0.00000000000E+00  0.33830615893E+02  0.33830615893E+02  0.00000000000E+00 0.  1.
          2   -1    0    0  502    0  0.00000000000E+00 -0.00000000000E+00 -0.46961996075E+03  0.46961996075E+03  0.00000000000E+00 0. -1.
         23    2    1    2    0    0 -0.41927592190E+02 -0.36660082438E+02 -0.17308423082E+03  0.20342428112E+03  0.91221721967E+02 0.  0.
         24    2    1    2    0    0  0.58457024114E+02  0.14338064178E+02 -0.24779447830E+03  0.26850135814E+03  0.84071826999E+02 0.  0.
        -13    1    4    4    0    0  0.71016587109E+02  0.24546794288E+02 -0.13457526838E+03  0.15413112474E+03  0.00000000000E+00 0.  1.
         14    1    4    4    0    0 -0.12559562996E+02 -0.10208730109E+02 -0.11321920992E+03  0.11437023340E+03  0.00000000000E+00 0. -1.
        -11    1    3    3    0    0 -0.39070929284E+02  0.80754450280E+01 -0.21438614225E+02  0.45291991647E+02  0.00000000000E+00 0.  1.
         11    1    3    3    0    0 -0.28566629062E+01 -0.44735527466E+02 -0.15164561660E+03  0.15813228947E+03  0.00000000000E+00 0. -1.
         21    1    1    2  502  501 -0.16529431924E+02  0.22322018260E+02 -0.14910635734E+02  0.31524937381E+02  0.00000000000E+00 0.  1.
<scales pt_clust_5="13000.00000" pt_clust_6="13000.00000" pt_clust_7="13000.00000" pt_clust_8="13000.00000" pt_clust_9="27.77579"></scales>
<clustering>
<clus scale="   27.776">  1  9  2 -1</clus>
<clus scale="   84.072">  5  6 -1 -1</clus>
<clus scale="   91.222">  7  8 -1 -1</clus>
<clus scale="  101.457">  2  5  1 -1</clus>
<clus scale="  101.457">  2  5  1 -1</clus>
</clustering>
</event>
<event>
 9    2  0.3402837E-005  0.1156218E+03  0.7546771E-02  0.1255161E+00
          2   -1    0    0  502    0  0.00000000000E+00  0.00000000000E+00  0.33134601682E+03  0.33134601682E+03  0.00000000000E+00 0. -1.
         -1   -1    0    0    0  501 -0.00000000000E+00 -0.00000000000E+00 -0.57895663363E+02  0.57895663363E+02  0.00000000000E+00 0.  1.
         23    2    1    2    0    0 -0.42639149614E+02 -0.30213743377E+02  0.49780502409E+02  0.11762314939E+03  0.92877012682E+02 0.  0.
         24    2    1    2    0    0  0.53868735424E+02  0.52726153436E+02  0.22044457514E+03  0.24625488340E+03  0.79773234722E+02 0.  0.
        -11    1    4    4    0    0 -0.92503774043E+01  0.42994858259E+02  0.68111286118E+02  0.81075733826E+02  0.00000000000E+00 0.  1.
         12    1    4    4    0    0  0.63119112828E+02  0.97312951774E+01  0.15233328902E+03  0.16517914958E+03  0.00000000000E+00 0. -1.
        -11    1    3    3    0    0 -0.62241634431E+02 -0.18185885171E+02  0.23218414820E+01  0.64885579476E+02  0.00000000000E+00 0.  1.
         11    1    3    3    0    0  0.19602484816E+02 -0.12027858206E+02  0.47458660927E+02  0.52737569919E+02  0.00000000000E+00 0. -1.
         21    1    1    2  502  501 -0.11229585810E+02 -0.22512410059E+02  0.32252759094E+01  0.25363647388E+02  0.00000000000E+00 0.  1.
<scales pt_clust_5="13000.00000" pt_clust_6="13000.00000" pt_clust_7="13000.00000" pt_clust_8="13000.00000" pt_clust_9="25.15775"></scales>
<clustering>
<clus scale="   25.158">  2  9  1 -1</clus>
<clus scale="   79.773">  5  6 -1 -1</clus>
<clus scale="   92.877">  7  8 -1 -1</clus>
<clus scale="  105.385">  1  5  2 -1</clus>
<clus scale="  105.385">  1  5  2 -1</clus>
</clustering>
</event>
<event>
 9    2  0.3402837E-005  0.9722126E+02  0.7546771E-02  0.1294214E+00
         -1   -1    0    0    0  501 -0.00000000000E+00  0.00000000000E+00  0.13151776355E+03  0.13151776355E+03  0.00000000000E+00 0.  1.
          2   -1    0    0  502    0  0.00000000000E+00 -0.00000000000E+00 -0.19732128661E+03  0.19732128661E+03  0.00000000000E+00 0. -1.
         23    2    1    2    0    0 -0.18051387792E+02 -0.14161896166E+02  0.88016782555E+02  0.12888537356E+03  0.91313052749E+02 0.  0.
         24    2    1    2    0    0  0.10039820121E+02  0.33294215131E+02 -0.15772245526E+03  0.17884780971E+03  0.76817077488E+02 0.  0.
        -13    1    4    4    0    0 -0.74823039423E+01  0.39345050615E+02 -0.30655742503E+02  0.50436023124E+02  0.00000000000E+00 0.  1.
         14    1    4    4    0    0  0.17522124063E+02 -0.60508354844E+01 -0.12706671276E+03  0.12841178658E+03  0.00000000000E+00 0. -1.
        -11    1    3    3    0    0 -0.41438416508E+02 -0.40585169674E+02  0.62973547251E+02  0.85615220688E+02  0.00000000000E+00 0.  1.
         11    1    3    3    0    0  0.23387028716E+02  0.26423273508E+02  0.25043235304E+02  0.43270152872E+02  0.00000000000E+00 0. -1.
         21    1    1    2  502  501  0.80115676710E+01 -0.19132318965E+02  0.39021496521E+01  0.21105866896E+02  0.00000000000E+00 0. -1.
<scales pt_clust_5="13000.00000" pt_clust_6="13000.00000" pt_clust_7="13000.00000" pt_clust_8="13000.00000" pt_clust_9="20.74201"></scales>
<clustering>
<clus scale="   20.742">  1  9  2 -1</clus>
<clus scale="   76.817">  5  6 -1 -1</clus>
<clus scale="   83.754">  2  5  1 -1</clus>
<clus scale="   91.313">  7  8 -1 -1</clus>
<clus scale="   83.754">  2  5  1 -1</clus>
</clustering>
</event>
<event>
 9    2  0.3402837E-005  0.1125794E+03  0.7546771E-02  0.1256263E+00
         -1   -1    0    0    0  501 -0.00000000000E+00  0.00000000000E+00  0.12691146492E+03  0.12691146492E+03  0.00000000000E+00 0.  1.
          2   -1    0    0  502    0  0.00000000000E+00 -0.00000000000E+00 -0.15869009616E+03  0.15869009616E+03  0.00000000000E+00 0. -1.
         24    2    1    2    0    0 -0.30791855572E+02  0.40091358205E+02  0.24431321651E+02  0.10329794493E+03  0.86707096465E+02 0.  0.
         23    2    1    2    0    0  0.58208042261E+02 -0.58633139320E+02 -0.78400838546E+02  0.14245539981E+03  0.85561838683E+02 0.  0.
        -11    1    3    3    0    0 -0.24300302913E+02  0.46580413078E+02  0.52194133738E+02  0.74057188718E+02  0.00000000000E+00 0.  1.
         12    1    3    3    0    0 -0.64915526593E+01 -0.64890548728E+01 -0.27762812087E+02  0.29240756215E+02  0.00000000000E+00 0. -1.
        -13    1    4    4    0    0  0.77100815109E+02 -0.42037224225E+02 -0.77767433987E+02  0.11730062958E+03  0.00000000000E+00 0. -1.
         13    1    4    4    0    0 -0.18892772849E+02 -0.16595915095E+02 -0.63340455906E+00  0.25154770225E+02  0.00000000000E+00 0.  1.
         21    1    1    2  502  501 -0.27416186688E+02  0.18541781115E+02  0.22190885650E+02  0.39848216339E+02  0.00000000000E+00 0.  1.
<scales pt_clust_5="13000.00000" pt_clust_6="13000.00000" pt_clust_7="13000.00000" pt_clust_8="13000.00000" pt_clust_9="33.09751"></scales>
<clustering>
<clus scale="   33.098">  1  9  2 -1</clus>
<clus scale="   85.562">  7  8 -1 -1</clus>
<clus scale="   86.707">  5  6 -1 -1</clus>
<clus scale="  111.700">  2  7  1 -1</clus>
<clus scale="  111.700">  2  5  1 -1</clus>
</clustering>
</event>
<event>
 9    2  0.3402837E-005  0.1261008E+03  0.7546771E-02  0.1235345E+00
         -1   -1    0    0    0  501 -0.00000000000E+00  0.00000000000E+00  0.64910242736E+02  0.64910242736E+02  0.00000000000E+00 0.  1.
          2   -1    0    0  502    0  0.00000000000E+00 -0.00000000000E+00 -0.83464905917E+03  0.83464905917E+03  0.00000000000E+00 0. -1.
         23    2    1    2    0    0 -0.24054365481E+02 -0.91096921026E+02 -0.16105096926E+03  0.20737231255E+03  0.90490882378E+02 0.  0.
         24    2    1    2    0    0  0.48178636241E+02  0.72718390189E+02 -0.63841857529E+03  0.64971738811E+03  0.83338237741E+02 0.  0.
        -13    1    4    4    0    0  0.16632205993E+02  0.22127382077E+02 -0.41846519994E+02  0.50173524387E+02  0.00000000000E+00 0.  1.
         14    1    4    4    0    0  0.31546430248E+02  0.50591008113E+02 -0.59657205530E+03  0.59954386372E+03  0.00000000000E+00 0. -1.
        -11    1    3    3    0    0  0.22637331247E+02 -0.75392066197E+02 -0.78043015907E+02  0.11084730373E+03  0.00000000000E+00 0. -1.
         11    1    3    3    0    0 -0.46691696728E+02 -0.15704854828E+02 -0.83007953354E+02  0.96525008824E+02  0.00000000000E+00 0.  1.
         21    1    1    2  502  501 -0.24124270761E+02  0.18378530836E+02  0.29730728121E+02  0.42469601246E+02  0.00000000000E+00 0.  1.
<scales pt_clust_5="13000.00000" pt_clust_6="13000.00000" pt_clust_7="13000.00000" pt_clust_8="13000.00000" pt_clust_9="30.32739"></scales>
<clustering>
<clus scale="   30.327">  1  9  2 -1</clus>
<clus scale="   83.338">  5  6 -1 -1</clus>
<clus scale="   90.491">  7  8 -1 -1</clus>
<clus scale="  121.071">  2  5  1 -1</clus>
<clus scale="  121.071">  2  5  1 -1</clus>
</clustering>
</event>
<event>
 9    2  0.3402837E-005  0.1017756E+03  0.7546771E-02  0.1280342E+00
          2   -1    0    0  502    0  0.00000000000E+00  0.00000000000E+00  0.29452216730E+03  0.29452216730E+03  0.00000000000E+00 0. -1.
         -1   -1    0    0    0  501 -0.00000000000E+00 -0.00000000000E+00 -0.97981977585E+02  0.97981977585E+02  0.00000000000E+00 0.  1.
         24    2    1    2    0    0 -0.51048076406E+02  0.30946520477E+02  0.13762580110E+02  0.10322343884E+03  0.83078736626E+02 0.  0.
         23    2    1    2    0    0  0.43714393269E+02 -0.20155450296E+00  0.21903798075E+03  0.24117820761E+03  0.90985174680E+02 0.  0.
        -13    1    3    3    0    0 -0.73530906564E+02  0.27272926866E+02  0.42642778783E+01  0.78541650262E+02  0.00000000000E+00 0.  1.
         14    1    3    3    0    0  0.22482830158E+02  0.36735936114E+01  0.94983022314E+01  0.24681788574E+02  0.00000000000E+00 0. -1.
        -13    1    4    4    0    0 -0.27248739015E+02  0.85711704474E+01  0.49007590777E+02  0.56724797879E+02  0.00000000000E+00 0.  1.
         13    1    4    4    0    0  0.70963132283E+02 -0.87727249504E+01  0.17003038997E+03  0.18445340973E+03  0.00000000000E+00 0. -1.
         21    1    1    2  502  501  0.73336831375E+01 -0.30744965974E+02 -0.36260371142E+02  0.48102498443E+02  0.00000000000E+00 0.  1.
<scales pt_clust_5="13000.00000" pt_clust_6="13000.00000" pt_clust_7="13000.00000" pt_clust_8="13000.00000" pt_clust_9="31.60753"></scales>
<clustering>
<clus scale="   31.608">  2  9  1 -1</clus>
<clus scale="   83.079">  5  6 -1 -1</clus>
<clus scale="   90.985">  7  8 -1 -1</clus>
<clus scale="   94.774">  2  5  1 -1</clus>
<clus scale="  101.776">  1  5  2 -1</clus>
</clustering>
</event>
<event>
 9    2  0.3402837E-005  0.2538850E+03  0.7546771E-02  0.1145947E+00
         -1   -1    0    0    0  501 -0.00000000000E+00  0.00000000000E+00  0.76462836402E+02  0.76462836402E+02  0.00000000000E+00 0.  1.
          2   -1    0    0  502    0  0.00000000000E+00 -0.00000000000E+00 -0.14474340157E+04  0.14474340157E+04  0.00000000000E+00 0. -1.
         24    2    1    2    0    0 -0.66236801217E+02  0.24125310538E+02 -0.78682756660E+02  0.13281459156E+03  0.80494689829E+02 0.  0.
         23    2    1    2    0    0  0.22535396905E+03  0.12453206819E+03 -0.92943319220E+03  0.96790238437E+03  0.81831042606E+02 0.  0.
        -11    1    3    3    0    0 -0.34647371280E+02  0.52568137481E+02 -0.35761913170E+02  0.72406932323E+02  0.00000000000E+00 0.  1.
         12    1    3    3    0    0 -0.31589429937E+02 -0.28442826943E+02 -0.42920843490E+02  0.60407659234E+02  0.00000000000E+00 0. -1.
        -13    1    4    4    0    0  0.10990074608E+02  0.22288059201E+02 -0.38235672205E+02  0.45601600321E+02  0.00000000000E+00 0.  1.
         13    1    4    4    0    0  0.21436389444E+03  0.10224400898E+03 -0.89119752000E+03  0.92230078405E+03  0.00000000000E+00 0. -1.
         21    1    1    2  502  501 -0.15911716783E+03 -0.14865737872E+03 -0.36285523045E+03  0.42317987619E+03  0.00000000000E+00 0.  1.
<scales pt_clust_5="13000.00000" pt_clust_6="13000.00000" pt_clust_7="13000.00000" pt_clust_8="13000.00000" pt_clust_9="240.33573"></scales>
<clustering>
<clus scale="   80.495">  5  6 -1 -1</clus>
<clus scale="   81.831">  7  8 -1 -1</clus>
<clus scale="  106.999">  1  5  2 -1</clus>
<clus scale="  240.336">  1  9  2 -1</clus>
<clus scale="  253.885">  2  5  1 -1</clus>
</clustering>
</event>
<event>
 9    2  0.3402837E-005  0.1712483E+03  0.7546771E-02  0.1177440E+00
          2   -1    0    0  502    0  0.00000000000E+00  0.00000000000E+00  0.82120706277E+03  0.82120706277E+03  0.00000000000E+00 0. -1.
         -1   -1    0    0    0  501 -0.00000000000E+00 -0.00000000000E+00 -0.17026666133E+03  0.17026666133E+03  0.00000000000E+00 0.  1.
         23    2    1    2    0    0 -0.92325163321E+02  0.27438103038E+02 -0.63464432435E+02  0.14499903130E+03  0.87864666460E+02 0.  0.
         24    2    1    2    0    0  0.14151868384E+03  0.61003111987E+02  0.72416543709E+03  0.74480306279E+03  0.81037673372E+02 0.  0.
        -13    1    4    4    0    0  0.78983528989E+02  0.15979103230E+02  0.21063526406E+03  0.22552371063E+03  0.00000000000E+00 0.  1.
         14    1    4    4    0    0  0.62535154850E+02  0.45024008757E+02  0.51353017304E+03  0.51927935216E+03  0.00000000000E+00 0. -1.
        -13    1    3    3    0    0 -0.65929752789E+02 -0.25010884324E+02 -0.25044115684E+02  0.74829702444E+02  0.00000000000E+00 0.  1.
         13    1    3    3    0    0 -0.26395410532E+02  0.52448987362E+02 -0.38420316752E+02  0.70169328853E+02  0.00000000000E+00 0. -1.
         21    1    1    2  502  501 -0.49193520518E+02 -0.88441215026E+02 -0.97606032173E+01  0.10167163002E+03  0.00000000000E+00 0.  1.
<scales pt_clust_5="13000.00000" pt_clust_6="13000.00000" pt_clust_7="13000.00000" pt_clust_8="13000.00000" pt_clust_9="101.20203"></scales>
<clustering>
<clus scale="   81.038">  5  6 -1 -1</clus>
<clus scale="   87.865">  7  8 -1 -1</clus>
<clus scale="  101.202">  2  9  1 -1</clus>
<clus scale="  167.848">  1  5  2 -1</clus>
<clus scale="  167.848">  1  5  2 -1</clus>
</clustering>
</event>
<event>
 9    2  0.3402837E-005  0.1031929E+03  0.7546771E-02  0.1279302E+00
         -1   -1    0    0    0  501 -0.00000000000E+00  0.00000000000E+00  0.25365206219E+03  0.25365206219E+03  0.00000000000E+00 0.  1.
          2   -1    0    0  502    0  0.00000000000E+00 -0.00000000000E+00 -0.69507786405E+03  0.69507786405E+03  0.00000000000E+00 0. -1.
         23    2    1    2    0    0  0.91419966447E+00 -0.19491424562E+02 -0.11958792104E+03  0.15238815800E+03  0.92412815385E+02 0.  0.
         24    2    1    2    0    0  0.34349068154E+02  0.41556802406E+02 -0.55301673832E+03  0.56145021216E+03  0.80572957983E+02 0.  0.
        -13    1    4    4    0    0  0.10364212852E+02  0.30927555813E+02 -0.64963808640E+02  0.72692689107E+02  0.00000000000E+00 0.  1.
         14    1    4    4    0    0  0.23984855302E+02  0.10629246592E+02 -0.48805292968E+03  0.48875752305E+03  0.00000000000E+00 0. -1.
        -13    1    3    3    0    0 -0.23248372209E+02  0.77245293611E+01  0.28429304359E+01  0.24662469821E+02  0.00000000000E+00 0.  1.
         13    1    3    3    0    0  0.24162571873E+02 -0.27215953924E+02 -0.12243085148E+03  0.12772568818E+03  0.00000000000E+00 0. -1.
         21    1    1    2  502  501 -0.35263267818E+02 -0.22065377843E+02  0.23117885751E+03  0.23489155608E+03  0.00000000000E+00 0.  1.
<scales pt_clust_5="13000.00000" pt_clust_6="13000.00000" pt_clust_7="13000.00000" pt_clust_8="13000.00000" pt_clust_9="41.59782"></scales>
<clustering>
<clus scale="   41.598">  1  9  2 -1</clus>
<clus scale="   80.573">  5  6 -1 -1</clus>
<clus scale="   92.413">  7  8 -1 -1</clus>
<clus scale="   92.740">  2  5  1 -1</clus>
<clus scale="   92.740">  2  5  1 -1</clus>
</clustering>
</event>
<event>
 9    2  0.3402837E-005  0.1017732E+03  0.7546771E-02  0.1280970E+00
          4   -1    0    0  502    0  0.00000000000E+00  0.00000000000E+00  0.21174954355E+03  0.21174954355E+03  0.00000000000E+00 0. -1.
         -3   -1    0    0    0  501 -0.00000000000E+00 -0.00000000000E+00 -0.13902568318E+03  0.13902568318E+03  0.00000000000E+00 0.  1.
         23    2    1    2    0    0  0.56103894957E+02  0.28429292734E+01 -0.80074014734E+02  0.13365073620E+03  0.91076573146E+02 0.  0.
         24    2    1    2    0    0  0.37275281700E+01  0.24131746575E+02  0.10770315157E+03  0.13749430517E+03  0.81905307736E+02 0.  0.
        -13    1    4    4    0    0  0.18618572189E+02  0.23664406301E+02  0.11640801694E+03  0.12023926880E+03  0.00000000000E+00 0.  1.
         14    1    4    4    0    0 -0.14891044019E+02  0.46734027458E+00 -0.87048653611E+01  0.17255036362E+02  0.00000000000E+00 0. -1.
        -11    1    3    3    0    0 -0.15146394689E+02 -0.17893111502E+02  0.13540850646E+01  0.23482126344E+02  0.00000000000E+00 0. -1.
         11    1    3    3    0    0  0.71250289646E+02  0.20736040775E+02 -0.81428099799E+02  0.11016860986E+03  0.00000000000E+00 0.  1.
         21    1    1    2  502  501 -0.59831423127E+02 -0.26974675849E+02  0.45094723527E+02  0.79630185360E+02  0.00000000000E+00 0. -1.
<scales pt_clust_5="13000.00000" pt_clust_6="13000.00000" pt_clust_7="13000.00000" pt_clust_8="13000.00000" pt_clust_9="65.63103"></scales>
<clustering>
<clus scale="   65.631">  1  9  2 -1</clus>
<clus scale="   81.905">  5  6 -1 -1</clus>
<clus scale="   91.077">  7  8 -1 -1</clus>
<clus scale="   93.655">  1  5  2 -1</clus>
<clus scale="   65.631">  1  5  2 -1</clus>
</clustering>
</event>
<event>
 9    2  0.3402837E-005  0.1094388E+03  0.7546771E-02  0.1265513E+00
          2   -1    0    0  502    0  0.00000000000E+00  0.00000000000E+00  0.25135943441E+03  0.25135943441E+03  0.00000000000E+00 0. -1.
         -1   -1    0    0    0  501 -0.00000000000E+00 -0.00000000000E+00 -0.21817583824E+03  0.21817583824E+03  0.00000000000E+00 0.  1.
         23    2    1    2    0    0 -0.72617010811E+02  0.23955125821E+02  0.54127635509E+02  0.13045325747E+03  0.90780907393E+02 0.  0.
         24    2    1    2    0    0  0.46126699515E+02 -0.31280438499E+02  0.14263973690E+03  0.17320540849E+03  0.80918976433E+02 0.  0.
        -11    1    4    4    0    0  0.38934424800E+02 -0.54646196085E+02  0.71828050472E+02  0.98292242907E+02  0.00000000000E+00 0.  1.
         12    1    4    4    0    0  0.71922747145E+01  0.23365757586E+02  0.70811686429E+02  0.74913165586E+02  0.00000000000E+00 0. -1.
        -13    1    3    3    0    0 -0.50937988909E+02 -0.25514539493E+02  0.45742869138E+01  0.57154129688E+02  0.00000000000E+00 0.  1.
         13    1    3    3    0    0 -0.21679021902E+02  0.49469665314E+02  0.49553348595E+02  0.73299127784E+02  0.00000000000E+00 0. -1.
         21    1    1    2  502  501  0.26490311296E+02  0.73253126773E+01 -0.16358377623E+03  0.16587660669E+03  0.00000000000E+00 0.  1.
<scales pt_clust_5="13000.00000" pt_clust_6="13000.00000" pt_clust_7="13000.00000" pt_clust_8="13000.00000" pt_clust_9="27.48448"></scales>
<clustering>
<clus scale="   27.484">  2  9  1 -1</clus>
<clus scale="   80.919">  5  6 -1 -1</clus>
<clus scale="   90.781">  7  8 -1 -1</clus>
<clus scale="  101.408">  1  5  2 -1</clus>
<clus scale="  101.408">  1  5  2 -1</clus>
</clustering>
</event>
<event>
 9    2  0.3402837E-005  0.9770593E+02  0.7546771E-02  0.1292010E+00
          2   -1    0    0  502    0  0.00000000000E+00  0.00000000000E+00  0.11384132798E+04  0.11384132798E+04  0.00000000000E+00 0. -1.
         -1   -1    0    0    0  501 -0.00000000000E+00 -0.00000000000E+00 -0.26836599924E+02  0.26836599924E+02  0.00000000000E+00 0.  1.
         23    2    1    2    0    0 -0.47893069981E+01 -0.29998385551E+02  0.81169952745E+02  0.12629096394E+03  0.91858618246E+02 0.  0.
         24    2    1    2    0    0  0.18182827897E+02  0.56157643561E+02  0.89251867210E+03  0.89797377863E+03  0.79265571870E+02 0.  0.
        -13    1    4    4    0    0  0.24177266875E+02  0.81343799613E+01  0.78988520326E+02  0.83005389670E+02  0.00000000000E+00 0.  1.
         14    1    4    4    0    0 -0.59944389781E+01  0.48023263599E+02  0.81353015178E+03  0.81496838896E+03  0.00000000000E+00 0. -1.
        -11    1    3    3    0    0  0.25535913235E+02 -0.52509210527E+02  0.56014546832E+02  0.80913098518E+02  0.00000000000E+00 0.  1.
         11    1    3    3    0    0 -0.30325220233E+02  0.22510824976E+02  0.25155405912E+02  0.45377865418E+02  0.00000000000E+00 0. -1.
         21    1    1    2  502  501 -0.13393520899E+02 -0.26159258009E+02  0.13788805503E+03  0.14098513716E+03  0.00000000000E+00 0.  1.
<scales pt_clust_5="13000.00000" pt_clust_6="13000.00000" pt_clust_7="13000.00000" pt_clust_8="13000.00000" pt_clust_9="29.38866"></scales>
<clustering>
<clus scale="   29.389">  1  9  2 -1</clus>
<clus scale="   79.266">  5  6 -1 -1</clus>
<clus scale="   85.974">  1  5  2 -1</clus>
<clus scale="   91.859">  7  8 -1 -1</clus>
<clus scale="   29.389">  1  5  2 -1</clus>
</clustering>
</event>
<event>
 9    2  0.3402837E-005  0.1032257E+03  0.7546771E-02  0.1276724E+00
         -1   -1    0    0    0  501 -0.00000000000E+00  0.00000000000E+00  0.45094514553E+02  0.45094514553E+02  0.00000000000E+00 0.  1.
          2   -1    0    0  502    0  0.00000000000E+00 -0.00000000000E+00 -0.59520955027E+03  0.59520955027E+03  0.00000000000E+00 0. -1.
         24    2    1    2    0    0  0.47828337267E+02 -0.45610204649E+02 -0.13142706055E+03  0.16779526194E+03  0.80711443249E+02 0.  0.
         23    2    1    2    0    0 -0.26667171336E+02  0.43620135750E+02 -0.43437861565E+03  0.44609003083E+03  0.87736421156E+02 0.  0.
        -13    1    3    3    0    0  0.13762997002E+02 -0.54768271667E+02 -0.11655263404E+03  0.12951254831E+03  0.00000000000E+00 0.  1.
         14    1    3    3    0    0  0.34065340265E+02  0.91580670179E+01 -0.14874426506E+02  0.38282713628E+02  0.00000000000E+00 0. -1.
        -13    1    4    4    0    0 -0.28920303514E+02  0.69639692998E+02 -0.31845875576E+03  0.32726449535E+03  0.00000000000E+00 0. -1.
         13    1    4    4    0    0  0.22531321781E+01 -0.26019557249E+02 -0.11591985989E+03  0.11882553548E+03  0.00000000000E+00 0.  1.
         21    1    1    2  502  501 -0.21161165931E+02  0.19900688992E+01  0.15690640488E+02  0.26418772052E+02  0.00000000000E+00 0.  1.
<scales pt_clust_5="13000.00000" pt_clust_6="13000.00000" pt_clust_7="13000.00000" pt_clust_8="13000.00000" pt_clust_9="21.25454"></scales>
<clustering>
<clus scale="   21.255">  1  9  2 -1</clus>
<clus scale="   80.711">  5  6 -1 -1</clus>
<clus scale="   87.736">  7  8 -1 -1</clus>
<clus scale="   97.325">  1  5  2 -1</clus>
<clus scale="  103.226">  2  5  1 -1</clus>
</clustering>
</event>
<event>
 9    2  0.3402837E-005  0.1555339E+03  0.7546771E-02  0.1207409E+00
          2   -1    0    0  502    0  0.00000000000E+00  0.00000000000E+00  0.82053918351E+03  0.82053918351E+03  0.00000000000E+00 0. -1.
         -1   -1    0    0    0  501 -0.00000000000E+00 -0.00000000000E+00 -0.59200520272E+02  0.59200520272E+02  0.00000000000E+00 0.  1.
         24    2    1    2    0    0  0.11709775246E+03  0.67254299262E+01  0.16429612789E+03  0.21699770825E+03  0.79609501354E+02 0.  0.
         23    2    1    2    0    0  0.41273619184E+02  0.59928561611E+02  0.23728124072E+03  0.26405360210E+03  0.90149727937E+02 0.  0.
        -11    1    3    3    0    0  0.11952515151E+03 -0.13574477837E+02  0.14880887001E+03  0.19134943973E+03  0.00000000000E+00 0.  1.
         12    1    3    3    0    0 -0.24273990450E+01  0.20299907763E+02  0.15487257880E+02  0.25648268518E+02  0.00000000000E+00 0. -1.
        -13    1    4    4    0    0  0.65842798932E+02  0.47213362585E+02  0.21048143771E+03  0.22553671852E+03  0.00000000000E+00 0.  1.
         13    1    4    4    0    0 -0.24569179748E+02  0.12715199026E+02  0.26799803009E+02  0.38516883585E+02  0.00000000000E+00 0. -1.
         21    1    1    2  502  501 -0.15837137165E+03 -0.66653991537E+02  0.35976129462E+03  0.39868839343E+03  0.00000000000E+00 0. -1.
<scales pt_clust_5="13000.00000" pt_clust_6="13000.00000" pt_clust_7="13000.00000" pt_clust_8="13000.00000" pt_clust_9="133.61558"></scales>
<clustering>
<clus scale="   79.610">  5  6 -1 -1</clus>
<clus scale="   90.150">  7  8 -1 -1</clus>
<clus scale="  115.853">  1  7  2 -1</clus>
<clus scale="  133.616">  1  9  2 -1</clus>
<clus scale="  115.853">  1  5  2 -1</clus>
</clustering>
</event>
<event>
 9    2  0.3402837E-005  0.2877922E+03  0.7546771E-02  0.1091773E+00
          2   -1    0    0  502    0  0.00000000000E+00  0.00000000000E+00  0.58328203368E+03  0.58328203368E+03  0.00000000000E+00 0. -1.
         -1   -1    0    0    0  501 -0.00000000000E+00 -0.00000000000E+00 -0.75368838913E+03  0.75368838913E+03  0.00000000000E+00 0.  1.
         24    2    1    2    0    0 -0.52056477683E+02 -0.31154898154E+03  0.49061717427E+02  0.33040037388E+03  0.83574578535E+02 0.  0.
         23    2    1    2    0    0  0.11307760245E+03  0.23577326414E+03  0.34022618119E+03  0.43848273606E+03  0.90209086025E+02 0.  0.
        -11    1    3    3    0    0 -0.73353818946E+02 -0.23237262102E+03  0.48244494688E+02  0.24840561391E+03  0.00000000000E+00 0.  1.
         12    1    3    3    0    0  0.21297341263E+02 -0.79176360520E+02  0.81722273898E+00  0.81994759974E+02  0.00000000000E+00 0. -1.
        -13    1    4    4    0    0  0.72777144803E+02  0.16728158188E+03  0.16457840293E+03  0.24569430427E+03  0.00000000000E+00 0.  1.
         13    1    4    4    0    0  0.40300457642E+02  0.68491682265E+02  0.17564777825E+03  0.19278843179E+03  0.00000000000E+00 0. -1.
         21    1    1    2  502  501 -0.61021124762E+02  0.75775717394E+02 -0.55969425406E+03  0.56808731287E+03  0.00000000000E+00 0.  1.
<scales pt_clust_5="13000.00000" pt_clust_6="13000.00000" pt_clust_7="13000.00000" pt_clust_8="13000.00000" pt_clust_9="97.29099"></scales>
<clustering>
<clus scale="   83.575">  5  6 -1 -1</clus>
<clus scale="   90.209">  7  8 -1 -1</clus>
<clus scale="   97.291">  2  9  1 -1</clus>
<clus scale="  285.782">  2  5  1 -1</clus>
<clus scale="  287.792">  1  5  2 -1</clus>
</clustering>
</event>
<event>
 9    2  0.3402837E-005  0.3340153E+03  0.7546771E-02  0.1105311E+00
          2   -1    0    0  502    0  0.00000000000E+00  0.00000000000E+00  0.12736108958E+04  0.12736108958E+04  0.00000000000E+00 0. -1.
         -1   -1    0    0    0  501 -0.00000000000E+00 -0.00000000000E+00 -0.15036391816E+03  0.15036391816E+03  0.00000000000E+00 0.  1.
         23    2    1    2    0    0 -0.11341228264E+02  0.27000360266E+03  0.35395029387E+03  0.45416275726E+03  0.89176401841E+02 0.  0.
         24    2    1    2    0    0  0.25721006922E+02  0.99653273316E+02  0.48919242565E+03  0.50579548439E+03  0.76990243721E+02 0.  0.
        -13    1    4    4    0    0  0.21982004615E+02  0.12245116831E+02  0.34150210474E+02  0.42419197169E+02  0.00000000000E+00 0.  1.
         14    1    4    4    0    0  0.37390023068E+01  0.87408156485E+02  0.45504221518E+03  0.46337628722E+03  0.00000000000E+00 0. -1.
        -13    1    3    3    0    0 -0.13361692134E+02  0.40878403972E+02  0.16059918233E+02  0.45907512475E+02  0.00000000000E+00 0.  1.
         13    1    3    3    0    0  0.20204638699E+01  0.22912519868E+03  0.33789037564E+03  0.40825524479E+03  0.00000000000E+00 0. -1.
         21    1    1    2  502  501 -0.14379778657E+02 -0.36965687597E+03  0.28010425815E+03  0.46401657236E+03  0.00000000000E+00 0.  1.
<scales pt_clust_5="13000.00000" pt_clust_6="13000.00000" pt_clust_7="13000.00000" pt_clust_8="13000.00000" pt_clust_9="321.89091"></scales>
<clustering>
<clus scale="   76.990">  5  6 -1 -1</clus>
<clus scale="   89.176">  7  8 -1 -1</clus>
<clus scale="  128.530">  1  5  2 -1</clus>
<clus scale="  321.891">  2  9  1 -1</clus>
<clus scale="  128.530">  1  5  2 -1</clus>
</clustering>
</event>
<event>
 9    2  0.3402837E-005  0.2981498E+03  0.7546771E-02  0.1086450E+00
         -1   -1    0    0    0  501 -0.00000000000E+00  0.00000000000E+00  0.75348911476E+02  0.75348911476E+02  0.00000000000E+00 0.  1.
          2   -1    0    0  502    0  0.00000000000E+00 -0.00000000000E+00 -0.22838953016E+04  0.22838953016E+04  0.00000000000E+00 0. -1.
         23    2    1    2    0    0 -0.19247058030E+03  0.18974233647E+03 -0.42596515299E+03  0.51206874879E+03  0.87869297227E+02 0.  0.
         24    2    1    2    0    0  0.18433081226E+03 -0.22321889847E+03 -0.17873378849E+04  0.18123967104E+04  0.80003726012E+02 0.  0.
        -11    1    4    4    0    0  0.98658594144E+02 -0.67097101173E+02 -0.59635883684E+03  0.60817711356E+03  0.00000000000E+00 0.  1.
         12    1    4    4    0    0  0.85672218116E+02 -0.15612179730E+03 -0.11909790480E+04  0.12042195968E+04  0.00000000000E+00 0. -1.
        -13    1    3    3    0    0 -0.13734256088E+03  0.18163141448E+03 -0.32660037803E+03  0.39814665224E+03  0.00000000000E+00 0.  1.
         13    1    3    3    0    0 -0.55128019426E+02  0.81109219877E+01 -0.99364774953E+02  0.11392209655E+03  0.00000000000E+00 0. -1.
         21    1    1    2  502  501  0.81397680422E+01  0.33476562002E+02  0.47566477006E+01  0.34778753925E+02  0.00000000000E+00 0. -1.
<scales pt_clust_5="13000.00000" pt_clust_6="13000.00000" pt_clust_7="13000.00000" pt_clust_8="13000.00000" pt_clust_9="34.45194"></scales>
<clustering>
<clus scale="   34.452">  1  9  2 -1</clus>
<clus scale="   80.004">  5  6 -1 -1</clus>
<clus scale="   87.869">  7  8 -1 -1</clus>
<clus scale="  295.927">  2  5  1 -1</clus>
<clus scale="  295.927">  2  5  1 -1</clus>
</clustering>
</event>
<event>
 9    2  0.3402837E-005  0.1009577E+03  0.7546771E-02  0.1286517E+00
         -1   -1    0    0    0  501 -0.00000000000E+00  0.00000000000E+00  0.59135976522E+02  0.59135976522E+02  0.00000000000E+00 0.  1.
          2   -1    0    0  502    0  0.00000000000E+00 -0.00000000000E+00 -0.94059758826E+03  0.94059758826E+03  0.00000000000E+00 0. -1.
         23    2    1    2    0    0  0.49250806105E+01  0.41454200829E+02 -0.68161497796E+02  0.12344556359E+03  0.94075024330E+02 0.  0.
         24    2    1    2    0    0  0.34456960687E+02  0.24682319681E+02 -0.79122370035E+03  0.79621083492E+03  0.78232030472E+02 0.  0.
        -11    1    4    4    0    0  0.18643404272E+02 -0.92366285795E+01 -0.51541883527E+02  0.55582889345E+02  0.00000000000E+00 0.  1.
         12    1    4    4    0    0  0.15813556415E+02  0.33918948261E+02 -0.73968181683E+03  0.74062794557E+03  0.00000000000E+00 0. -1.
        -11    1    3    3    0    0 -0.75271280064E+01 -0.28556128485E+02 -0.87973786992E+01  0.30814022815E+02  0.00000000000E+00 0.  1.
         11    1    3    3    0    0  0.12452208617E+02  0.70010329314E+02 -0.59364119096E+02  0.92631540774E+02  0.00000000000E+00 0. -1.
         21    1    1    2  502  501 -0.39382041298E+02 -0.66136520510E+02 -0.22076413588E+02  0.80077166276E+02  0.00000000000E+00 0.  1.
<scales pt_clust_5="13000.00000" pt_clust_6="13000.00000" pt_clust_7="13000.00000" pt_clust_8="13000.00000" pt_clust_9="76.97392"></scales>
<clustering>
<clus scale="   76.974">  1  9  2 -1</clus>
<clus scale="   78.232">  5  6 -1 -1</clus>
<clus scale="   86.386">  2  5  1 -1</clus>
<clus scale="   94.075">  7  8 -1 -1</clus>
<clus scale="   86.386">  2  5  1 -1</clus>
</clustering>
</event>
<event>
 9    2  0.3402837E-005  0.1076618E+03  0.7546771E-02  0.1269381E+00
          2   -1    0    0  502    0  0.00000000000E+00  0.00000000000E+00  0.30030430180E+03  0.30030430180E+03  0.00000000000E+00 0. -1.
         -1   -1    0    0    0  501 -0.00000000000E+00 -0.00000000000E+00 -0.81688521860E+02  0.81688521860E+02  0.00000000000E+00 0.  1.
         24    2    1    2    0    0  0.20535871842E+02  0.67898791208E+02  0.13467955854E+03  0.17205075481E+03  0.80192960177E+02 0.  0.
         23    2    1    2    0    0 -0.38531266734E+02 -0.30725702279E+02  0.11765614680E+03  0.15662503454E+03  0.90882920670E+02 0.  0.
        -11    1    3    3    0    0  0.27713503434E+02  0.24197553676E+02  0.77244728911E+01  0.37592916326E+02  0.00000000000E+00 0.  1.
         12    1    3    3    0    0 -0.71776315915E+01  0.43701237533E+02  0.12695508565E+03  0.13445783849E+03  0.00000000000E+00 0. -1.
        -13    1    4    4    0    0 -0.37784761913E+01 -0.34978766496E+02  0.11638876841E+03  0.12159003413E+03  0.00000000000E+00 0.  1.
         13    1    4    4    0    0 -0.34752790542E+02  0.42530642172E+01  0.12673783860E+01  0.35035000410E+02  0.00000000000E+00 0. -1.
         21    1    1    2  502  501  0.17995394891E+02 -0.37173088930E+02 -0.33719925403E+02  0.53317034305E+02  0.00000000000E+00 0.  1.
<scales pt_clust_5="13000.00000" pt_clust_6="13000.00000" pt_clust_7="13000.00000" pt_clust_8="13000.00000" pt_clust_9="41.29979"></scales>
<clustering>
<clus scale="   41.300">  2  9  1 -1</clus>
<clus scale="   80.193">  5  6 -1 -1</clus>
<clus scale="   90.883">  7  8 -1 -1</clus>
<clus scale="   98.804">  2  5  1 -1</clus>
<clus scale="  107.662">  1  5  2 -1</clus>
</clustering>
</event>
<event>
 9    2  0.3402837E-005  0.9159850E+02  0.7546771E-02  0.1308066E+00
         -1   -1    0    0    0  501 -0.00000000000E+00  0.00000000000E+00  0.95588985310E+02  0.95588985310E+02  0.00000000000E+00 0.  1.
          2   -1    0    0  502    0  0.00000000000E+00 -0.00000000000E+00 -0.31160749429E+03  0.31160749429E+03  0.00000000000E+00 0. -1.
         23    2    1    2    0    0  0.11396071637E+02  0.46224021727E+01  0.58668529671E+02  0.10793784680E+03  0.89762716917E+02 0.  0.
         24    2    1    2    0    0  0.72882854637E+01 -0.18056925451E+02 -0.26123056548E+03  0.27260027039E+03  0.75434258872E+02 0.  0.
        -13    1    4    4    0    0  0.24670628755E+02 -0.34485414436E+02 -0.87514137805E+02  0.97245092667E+02  0.00000000000E+00 0.  1.
         14    1    4    4    0    0 -0.17382343292E+02  0.16428488985E+02 -0.17371642768E+03  0.17535517772E+03  0.00000000000E+00 0. -1.
        -13    1    3    3    0    0  0.47462022889E+02 -0.12052698231E+02  0.43194457744E+02  0.65296801845E+02  0.00000000000E+00 0.  1.
         13    1    3    3    0    0 -0.36065951253E+02  0.16675100403E+02  0.15474071927E+02  0.42641044959E+02  0.00000000000E+00 0. -1.
         21    1    1    2  502  501 -0.18684357100E+02  0.13434523279E+02 -0.13456473165E+02  0.26658362403E+02  0.00000000000E+00 0. -1.
<scales pt_clust_5="13000.00000" pt_clust_6="13000.00000" pt_clust_7="13000.00000" pt_clust_8="13000.00000" pt_clust_9="23.01286"></scales>
<clustering>
<clus scale="   23.013">  1  9  2 -1</clus>
<clus scale="   75.434">  5  6 -1 -1</clus>
<clus scale="   77.610">  2  5  1 -1</clus>
<clus scale="   89.763">  7  8 -1 -1</clus>
<clus scale="   77.610">  2  5  1 -1</clus>
</clustering>
</event>
<event>
 9    2  0.3402837E-005  0.1230062E+03  0.7546771E-02  0.1241391E+00
         -1   -1    0    0    0  501 -0.00000000000E+00  0.00000000000E+00  0.26023595258E+03  0.26023595258E+03  0.00000000000E+00 0.  1.
          2   -1    0    0  502    0  0.00000000000E+00 -0.00000000000E+00 -0.67285782950E+02  0.67285782950E+02  0.00000000000E+00 0. -1.
         23    2    1    2    0    0 -0.65897890674E+02  0.29074784043E+02  0.84826690851E+02  0.14414014395E+03  0.91612982457E+02 0.  0.
         24    2    1    2    0    0  0.81045537138E+02 -0.42588728289E+02  0.71817106346E+02  0.14178555136E+03  0.81013992274E+02 0.  0.
        -13    1    4    4    0    0  0.50798651945E+02 -0.21142021161E+02  0.85992770757E+02  0.10208939573E+03  0.00000000000E+00 0.  1.
         14    1    4    4    0    0  0.30246885194E+02 -0.21446707127E+02 -0.14175664411E+02  0.39696155633E+02  0.00000000000E+00 0. -1.
        -11    1    3    3    0    0 -0.35966595814E+02 -0.26990527141E+02  0.10185078281E+02  0.46106619800E+02  0.00000000000E+00 0. -1.
         11    1    3    3    0    0 -0.29931294860E+02  0.56065311184E+02  0.74641612571E+02  0.98033524150E+02  0.00000000000E+00 0.  1.
         21    1    1    2  502  501 -0.15147646464E+02  0.13513944245E+02  0.36306372428E+02  0.41596040213E+02  0.00000000000E+00 0.  1.
<scales pt_clust_5="13000.00000" pt_clust_6="13000.00000" pt_clust_7="13000.00000" pt_clust_8="13000.00000" pt_clust_9="20.29970"></scales>
<clustering>
<clus scale="   20.300">  1  9  2 -1</clus>
<clus scale="   81.014">  5  6 -1 -1</clus>
<clus scale="   91.613">  7  8 -1 -1</clus>
<clus scale="  115.329">  2  5  1 -1</clus>
<clus scale="  115.329">  2  5  1 -1</clus>
</clustering>
</event>
<event>
 9    2  0.3402837E-005  0.1798420E+03  0.7546771E-02  0.1168030E+00
         -1   -1    0    0    0  501 -0.00000000000E+00  0.00000000000E+00  0.46273881907E+02  0.46273881907E+02  0.00000000000E+00 0.  1.
          2   -1    0    0  502    0  0.00000000000E+00 -0.00000000000E+00 -0.12119085395E+04  0.12119085395E+04  0.00000000000E+00 0. -1.
         24    2    1    2    0    0 -0.14543557770E+03  0.14437123477E+03 -0.69945807708E+03  0.73443876541E+03  0.90355618897E+02 0.  0.
         23    2    1    2    0    0  0.75858377096E+02 -0.79156999492E+02 -0.30117901769E+03  0.33317062782E+03  0.90959016082E+02 0.  0.
        -13    1    3    3    0    0 -0.80390055861E+02  0.12343571978E+03 -0.37565320078E+03  0.40350249722E+03  0.00000000000E+00 0.  1.
         14    1    3    3    0    0 -0.65045521838E+02  0.20935514989E+02 -0.32380487629E+03  0.33093626820E+03  0.00000000000E+00 0. -1.
        -11    1    4    4    0    0  0.64603631066E+02 -0.83842513570E+01 -0.97576409546E+02  0.11732467992E+03  0.00000000000E+00 0.  1.
         11    1    4    4    0    0  0.11254746030E+02 -0.70772748135E+02 -0.20360260814E+03  0.21584594791E+03  0.00000000000E+00 0. -1.
         21    1    1    2  502  501  0.69577200603E+02 -0.65214235280E+02 -0.16499756286E+03  0.19057302820E+03  0.00000000000E+00 0. -1.
<scales pt_clust_5="13000.00000" pt_clust_6="13000.00000" pt_clust_7="13000.00000" pt_clust_8="13000.00000" pt_clust_9="95.36185"></scales>
<clustering>
<clus scale="   90.356">  5  6 -1 -1</clus>
<clus scale="   90.959">  7  8 -1 -1</clus>
<clus scale="   95.362">  1  9  2 -1</clus>
<clus scale="  179.538">  1  5  2 -1</clus>
<clus scale="  179.842">  2  5  1 -1</clus>
</clustering>
</event>
<event>
 9    2  0.3402837E-005  0.1049754E+03  0.7546771E-02  0.1275570E+00
          2   -1    0    0  502    0  0.00000000000E+00  0.00000000000E+00  0.31690449565E+03  0.31690449565E+03  0.00000000000E+00 0. -1.
         -1   -1    0    0    0  501 -0.00000000000E+00 -0.00000000000E+00 -0.11485457599E+03  0.11485457599E+03  0.00000000000E+00 0.  1.
         23    2    1    2    0    0  0.16422552799E+02 -0.54442075866E+02 -0.48732813183E+02  0.11920619470E+03  0.92744756773E+02 0.  0.
         24    2    1    2    0    0 -0.34108080434E+02  0.35161350642E+02  0.26599686273E+03  0.28228748415E+03  0.80822094703E+02 0.  0.
        -11    1    4    4    0    0 -0.28187620720E+02 -0.49448721594E+01  0.25292675807E+02  0.38193103723E+02  0.00000000000E+00 0.  1.
         12    1    4    4    0    0 -0.59204597138E+01  0.40106222801E+02  0.24070418693E+03  0.24409438042E+03  0.00000000000E+00 0. -1.
        -13    1    3    3    0    0  0.39156018521E+02 -0.57634538263E+02 -0.50519357710E+01  0.69860259391E+02  0.00000000000E+00 0.  1.
         13    1    3    3    0    0 -0.22733465722E+02  0.31924623974E+01 -0.43680877412E+02  0.49345935308E+02  0.00000000000E+00 0. -1.
         21    1    1    2  502  501  0.17685527635E+02  0.19280725224E+02 -0.15214129893E+02  0.30265392799E+02  0.00000000000E+00 0.  1.
<scales pt_clust_5="13000.00000" pt_clust_6="13000.00000" pt_clust_7="13000.00000" pt_clust_8="13000.00000" pt_clust_9="26.16341"></scales>
<clustering>
<clus scale="   26.163">  2  9  1 -1</clus>
<clus scale="   80.822">  5  6 -1 -1</clus>
<clus scale="   92.745">  7  8 -1 -1</clus>
<clus scale="   94.607">  1  5  2 -1</clus>
<clus scale="   94.607">  1  5  2 -1</clus>
</clustering>
</event>
<event>
 9    2  0.3402837E-005  0.9664018E+02  0.7546771E-02  0.1292782E+00
         -1   -1    0    0    0  501 -0.00000000000E+00  0.00000000000E+00  0.26028219331E+03  0.26028219331E+03  0.00000000000E+00 0.  1.
          2   -1    0    0  502    0  0.00000000000E+00 -0.00000000000E+00 -0.79219968203E+02  0.79219968203E+02  0.00000000000E+00 0. -1.
         23    2    1    2    0    0  0.56817095736E+02 -0.80164684456E+01  0.13812707951E+03  0.17492779438E+03  0.90709409754E+02 0.  0.
         24    2    1    2    0    0 -0.11080298128E+02 -0.35328962268E+02  0.13193236026E+01  0.89059086168E+02  0.80986860865E+02 0.  0.
        -13    1    4    4    0    0 -0.36452915947E+02 -0.96994880368E+01  0.25595425093E+02  0.45585314904E+02  0.00000000000E+00 0.  1.
         14    1    4    4    0    0  0.25372617819E+02 -0.25629474231E+02 -0.24276101490E+02  0.43473771264E+02  0.00000000000E+00 0. -1.
        -13    1    3    3    0    0 -0.26815508007E+00 -0.36381390458E+02  0.22170192531E+02  0.42605104338E+02  0.00000000000E+00 0.  1.
         13    1    3    3    0    0  0.57085250816E+02  0.28364922013E+02  0.11595688698E+03  0.13232269004E+03  0.00000000000E+00 0. -1.
         21    1    1    2  502  501 -0.45736797608E+02  0.43345430713E+02  0.41615821992E+02  0.75515280965E+02  0.00000000000E+00 0. -1.
<scales pt_clust_5="13000.00000" pt_clust_6="13000.00000" pt_clust_7="13000.00000" pt_clust_8="13000.00000" pt_clust_9="63.01334"></scales>
<clustering>
<clus scale="   63.013">  1  9  2 -1</clus>
<clus scale="   80.987">  5  6 -1 -1</clus>
<clus scale="   87.579">  2  5  1 -1</clus>
<clus scale="   90.709">  7  8 -1 -1</clus>
<clus scale="   87.579">  2  5  1 -1</clus>
</clustering>
</event>
<event>
 9    2  0.3402837E-005  0.1314653E+03  0.7546771E-02  0.1226314E+00
         -1   -1    0    0    0  501 -0.00000000000E+00  0.00000000000E+00  0.10624725978E+03  0.10624725978E+03  0.00000000000E+00 0.  1.
          2   -1    0    0  502    0  0.00000000000E+00 -0.00000000000E+00 -0.57000654942E+03  0.57000654942E+03  0.00000000000E+00 0. -1.
         23    2    1    2    0    0  0.83514351874E+02 -0.48536445539E+02  0.21635027446E+02  0.13387265201E+03  0.90129789904E+02 0.  0.
         24    2    1    2    0    0 -0.62530959623E+02  0.67195453141E+02 -0.49543390586E+03  0.51256078399E+03  0.94013043664E+02 0.  0.
        -13    1    4    4    0    0 -0.67680097382E+02  0.49865519771E+01 -0.22472743198E+03  0.23475067618E+03  0.00000000000E+00 0.  1.
         14    1    4    4    0    0  0.51491377593E+01  0.62208901164E+02 -0.27070647388E+03  0.27781010782E+03  0.00000000000E+00 0. -1.
        -11    1    3    3    0    0  0.39942032643E+02 -0.18914505803E+01 -0.31433933025E+02  0.50862910872E+02  0.00000000000E+00 0. -1.
         11    1    3    3    0    0  0.43572319232E+02 -0.46644994959E+02  0.53068960471E+02  0.83009741135E+02  0.00000000000E+00 0.  1.
         21    1    1    2  502  501 -0.20983392251E+02 -0.18659007602E+02  0.10039588769E+02  0.29820373199E+02  0.00000000000E+00 0. -1.
<scales pt_clust_5="13000.00000" pt_clust_6="13000.00000" pt_clust_7="13000.00000" pt_clust_8="13000.00000" pt_clust_9="28.07955"></scales>
<clustering>
<clus scale="   28.080">  1  9  2 -1</clus>
<clus scale="   90.130">  7  8 -1 -1</clus>
<clus scale="   94.013">  5  6 -1 -1</clus>
<clus scale="  128.717">  1  7  2 -1</clus>
<clus scale="  131.465">  2  5  1 -1</clus>
</clustering>
</event>
<event>
 9    2  0.3402837E-005  0.1276073E+03  0.7546771E-02  0.1235400E+00
          2   -1    0    0  502    0  0.00000000000E+00  0.00000000000E+00  0.85692280306E+03  0.85692280306E+03  0.00000000000E+00 0. -1.
         -1   -1    0    0    0  501 -0.00000000000E+00 -0.00000000000E+00 -0.47157336539E+02  0.47157336539E+02  0.00000000000E+00 0.  1.
         24    2    1    2    0    0  0.92928546589E+02  0.47505907818E+02  0.14679632221E+03  0.19727335047E+03  0.80467934866E+02 0.  0.
         23    2    1    2    0    0 -0.91416557249E+01 -0.89411008685E+02  0.51676231820E+03  0.53316141326E+03  0.95602828089E+02 0.  0.
        -11    1    3    3    0    0  0.19858923893E+02  0.86437170409E+01 -0.68830964127E+01  0.22725926135E+02  0.00000000000E+00 0.  1.
         12    1    3    3    0    0  0.73069622696E+02  0.38862190777E+02  0.15367941862E+03  0.17454742433E+03  0.00000000000E+00 0. -1.
        -11    1    4    4    0    0  0.42923821062E+02 -0.34625812186E+02  0.24099990873E+03  0.24722936171E+03  0.00000000000E+00 0.  1.
         11    1    4    4    0    0 -0.52065476787E+02 -0.54785196499E+02  0.27576240946E+03  0.28593205155E+03  0.00000000000E+00 0. -1.
         21    1    1    2  502  501 -0.83786890864E+02  0.41905100867E+02  0.14620682612E+03  0.17364537587E+03  0.00000000000E+00 0. -1.
<scales pt_clust_5="13000.00000" pt_clust_6="13000.00000" pt_clust_7="13000.00000" pt_clust_8="13000.00000" pt_clust_9="93.68180"></scales>
<clustering>
<clus scale="   80.468">  5  6 -1 -1</clus>
<clus scale="   93.682">  2  9  1 -1</clus>
<clus scale="   95.603">  7  8 -1 -1</clus>
<clus scale="  116.700">  2  5  1 -1</clus>
<clus scale="  127.607">  1  5  2 -1</clus>
</clustering>
</event>
<event>
 9    2  0.3402837E-005  0.9382752E+02  0.7546771E-02  0.1298991E+00
         -1   -1    0    0    0  501 -0.00000000000E+00  0.00000000000E+00  0.11945717950E+03  0.11945717950E+03  0.00000000000E+00 0.  1.
          2   -1    0    0  502    0  0.00000000000E+00 -0.00000000000E+00 -0.15620565394E+03  0.15620565394E+03  0.00000000000E+00 0. -1.
         23    2    1    2    0    0  0.95450312330E+01 -0.25560149916E+01  0.56488031304E+02  0.10751022999E+03  0.90939051231E+02 0.  0.
         24    2    1    2    0    0 -0.26786640257E+01  0.26510419322E+02 -0.10872198322E+03  0.13881388332E+03  0.82090480527E+02 0.  0.
        -11    1    4    4    0    0  0.32478207324E+02  0.17928538686E+02 -0.18191737327E+02  0.41318346499E+02  0.00000000000E+00 0.  1.
         12    1    4    4    0    0 -0.35156871350E+02  0.85818806367E+01 -0.90530245897E+02  0.97495536824E+02  0.00000000000E+00 0. -1.
        -11    1    3    3    0    0 -0.19883182527E+02 -0.66405968220E+01 -0.17800550832E+02  0.27500874231E+02  0.00000000000E+00 0. -1.
         11    1    3    3    0    0  0.29428213760E+02  0.40845818303E+01  0.74288582136E+02  0.80009355763E+02  0.00000000000E+00 0.  1.
         21    1    1    2  502  501 -0.68663672073E+01 -0.23954404331E+02  0.15485477484E+02  0.29338720122E+02  0.00000000000E+00 0. -1.
<scales pt_clust_5="13000.00000" pt_clust_6="13000.00000" pt_clust_7="13000.00000" pt_clust_8="13000.00000" pt_clust_9="24.91908"></scales>
<clustering>
<clus scale="   24.919">  1  9  2 -1</clus>
<clus scale="   82.090">  5  6 -1 -1</clus>
<clus scale="   85.279">  2  5  1 -1</clus>
<clus scale="   90.939">  7  8 -1 -1</clus>
<clus scale="   85.279">  2  5  1 -1</clus>
</clustering>
</event>
<event>
 9    2  0.3402837E-005  0.9649865E+02  0.7546771E-02  0.1290163E+00
          2   -1    0    0  502    0  0.00000000000E+00  0.00000000000E+00  0.36077429623E+03  0.36077429623E+03  0.00000000000E+00 0. -1.
         -1   -1    0    0    0  501 -0.00000000000E+00 -0.00000000000E+00 -0.84332310612E+02  0.84332310612E+02  0.00000000000E+00 0.  1.
         23    2    1    2    0    0 -0.45403262663E+02  0.20890639268E+02  0.37659881373E+02  0.10756531404E+03  0.87488028039E+02 0.  0.
         24    2    1    2    0    0  0.39367455086E+02 -0.15420162013E+01  0.27834244859E+03  0.29309108433E+03  0.82919784693E+02 0.  0.
        -11    1    4    4    0    0 -0.11110862854E+02 -0.30336891352E+02  0.12495053006E+03  0.12905972731E+03  0.00000000000E+00 0.  1.
         12    1    4    4    0    0  0.50478317940E+02  0.28794875150E+02  0.15339191853E+03  0.16403135702E+03  0.00000000000E+00 0. -1.
        -11    1    3    3    0    0 -0.26802645673E+02  0.12764907857E+02 -0.26794168958E+02  0.39990651131E+02  0.00000000000E+00 0.  1.
         11    1    3    3    0    0 -0.18600616990E+02  0.81257314104E+01  0.64454050331E+02  0.67574662910E+02  0.00000000000E+00 0. -1.
         21    1    1    2  502  501  0.60358075770E+01 -0.19348623067E+02 -0.39560344349E+02  0.44450208466E+02  0.00000000000E+00 0.  1.
<scales pt_clust_5="13000.00000" pt_clust_6="13000.00000" pt_clust_7="13000.00000" pt_clust_8="13000.00000" pt_clust_9="20.26821"></scales>
<clustering>
<clus scale="   20.268">  2  9  1 -1</clus>
<clus scale="   82.920">  5  6 -1 -1</clus>
<clus scale="   87.488">  7  8 -1 -1</clus>
<clus scale="   92.377">  1  5  2 -1</clus>
<clus scale="   92.377">  1  5  2 -1</clus>
</clustering>
</event>
<event>
 9    2  0.6714176E-005  0.1202627E+03  0.7546771E-02  0.1244225E+00
          2   -1    0    0  502    0  0.00000000000E+00  0.00000000000E+00  0.86055692250E+03  0.86055692250E+03  0.00000000000E+00 0. -1.
         -1   -1    0    0    0  501 -0.00000000000E+00 -0.00000000000E+00 -0.59126000618E+03  0.59126000618E+03  0.00000000000E+00 0.  1.
         23    2    1    2    0    0 -0.69239665507E+02 -0.36202853340E+02 -0.55337050826E+03  0.56618747142E+03  0.90799534715E+02 0.  0.
         24    2    1    2    0    0  0.93566576137E+02  0.15016599334E+03  0.64101915576E+03  0.66981590481E+03  0.80269910686E+02 0.  0.
        -11    1    4    4    0    0  0.84372292397E+01  0.74671561125E+02  0.18197615323E+03  0.19688156141E+03  0.00000000000E+00 0.  1.
         12    1    4    4    0    0  0.85129346897E+02  0.75494432213E+02  0.45904300253E+03  0.47293434340E+03  0.00000000000E+00 0. -1.
        -11    1    3    3    0    0 -0.98369547053E+01 -0.55490004844E+02 -0.22665370616E+03  0.23355472342E+03  0.00000000000E+00 0. -1.
         11    1    3    3    0    0 -0.59402710802E+02  0.19287151504E+02 -0.32671680210E+03  0.33263274800E+03  0.00000000000E+00 0.  1.
         21    1    1    2  502  501 -0.24326910629E+02 -0.11396314000E+03  0.18164826883E+03  0.21581355246E+03  0.00000000000E+00 0. -1.
<scales pt_clust_5="13000.00000" pt_clust_6="13000.00000" pt_clust_7="13000.00000" pt_clust_8="13000.00000" pt_clust_9="116.53066"></scales>
<clustering>
<clus scale="   80.270">  5  6 -1 -1</clus>
<clus scale="   90.800">  7  8 -1 -1</clus>
<clus scale="  116.531">  1  9  2 -1</clus>
<clus scale="  116.531">  1  5  2 -1</clus>
<clus scale="  116.531">  1  5  2 -1</clus>
</clustering>
</event>
<event>
 9    2  0.3402837E-005  0.2471874E+03  0.7546771E-02  0.1115533E+00
         -1   -1    0    0    0  501 -0.00000000000E+00  0.00000000000E+00  0.78025612300E+03  0.78025612300E+03  0.00000000000E+00 0.  1.
          2   -1    0    0  502    0  0.00000000000E+00 -0.00000000000E+00 -0.27741618626E+03  0.27741618626E+03  0.00000000000E+00 0. -1.
         23    2    1    2    0    0 -0.16685802884E+03 -0.21697573407E+03  0.20656498034E+03  0.35392256594E+03  0.87590071412E+02 0.  0.
         24    2    1    2    0    0  0.20341844639E+03  0.98094647645E+02 -0.12102846414E+03  0.26830569223E+03  0.79614264551E+02 0.  0.
        -11    1    4    4    0    0  0.99233659491E+02  0.22595357844E+02 -0.17732899555E+02  0.10330694603E+03  0.00000000000E+00 0.  1.
         12    1    4    4    0    0  0.10418478690E+03  0.75499289801E+02 -0.10329556459E+03  0.16499874619E+03  0.00000000000E+00 0. -1.
        -13    1    3    3    0    0 -0.23460226197E+02 -0.98181490904E+02  0.65893975793E+02  0.12054875949E+03  0.00000000000E+00 0. -1.
         13    1    3    3    0    0 -0.14339780264E+03 -0.11879424317E+03  0.14067100455E+03  0.23337380644E+03  0.00000000000E+00 0.  1.
         21    1    1    2  502  501 -0.36560417548E+02  0.11888108643E+03  0.41730342054E+03  0.43544405109E+03  0.00000000000E+00 0.  1.
<scales pt_clust_5="13000.00000" pt_clust_6="13000.00000" pt_clust_7="13000.00000" pt_clust_8="13000.00000" pt_clust_9="124.37595"></scales>
<clustering>
<clus scale="   79.614">  5  6 -1 -1</clus>
<clus scale="   87.590">  7  8 -1 -1</clus>
<clus scale="  124.376">  1  9  2 -1</clus>
<clus scale="  244.475">  2  5  1 -1</clus>
<clus scale="  244.475">  2  5  1 -1</clus>
</clustering>
</event>
<event>
 9    2  0.3402837E-005  0.1787101E+03  0.7546771E-02  0.1170837E+00
          2   -1    0    0  502    0  0.00000000000E+00  0.00000000000E+00  0.82969552782E+02  0.82969552782E+02  0.00000000000E+00 0. -1.
         -1   -1    0    0    0  501 -0.00000000000E+00 -0.00000000000E+00 -0.63431179106E+03  0.63431179106E+03  0.00000000000E+00 0.  1.
         24    2    1    2    0    0  0.13635116626E+02  0.11486058174E+03 -0.28700712850E+03  0.31888074980E+03  0.77025782336E+02 0.  0.
         23    2    1    2    0    0  0.39222554222E+02 -0.17364076160E+03 -0.11906587001E+03  0.23301560398E+03  0.91815398761E+02 0.  0.
        -11    1    3    3    0    0 -0.18616379786E+02  0.57339601239E+02 -0.20481700942E+03  0.21350505103E+03  0.00000000000E+00 0.  1.
         12    1    3    3    0    0  0.32251496412E+02  0.57520980500E+02 -0.82190119073E+02  0.10537569877E+03  0.00000000000E+00 0. -1.
        -13    1    4    4    0    0  0.11905618664E+02 -0.93172621141E+02 -0.95750114309E+01  0.94416957852E+02  0.00000000000E+00 0. -1.
         13    1    4    4    0    0  0.27316935558E+02 -0.80468140457E+02 -0.10949085858E+03  0.13859864613E+03  0.00000000000E+00 0.  1.
         21    1    1    2  502  501 -0.52857670848E+02  0.58780179860E+02 -0.14526923978E+03  0.16538499006E+03  0.00000000000E+00 0.  1.
<scales pt_clust_5="13000.00000" pt_clust_6="13000.00000" pt_clust_7="13000.00000" pt_clust_8="13000.00000" pt_clust_9="79.05089"></scales>
<clustering>
<clus scale="   77.026">  5  6 -1 -1</clus>
<clus scale="   79.051">  2  9  1 -1</clus>
<clus scale="   91.815">  7  8 -1 -1</clus>
<clus scale="  171.581">  2  5  1 -1</clus>
<clus scale="  178.710">  1  5  2 -1</clus>
</clustering>
</event>
<event>
 9    2  0.3402837E-005  0.3487424E+03  0.7546771E-02  0.1078845E+00
          2   -1    0    0  502    0  0.00000000000E+00  0.00000000000E+00  0.15166642190E+04  0.15166642190E+04  0.00000000000E+00 0. -1.
         -1   -1    0    0    0  501 -0.00000000000E+00 -0.00000000000E+00 -0.20167748312E+03  0.20167748312E+03  0.00000000000E+00 0.  1.
         23    2    1    2    0    0  0.19961159056E+03 -0.55383310758E+02  0.36169742590E+02  0.22959198965E+03  0.92152771172E+02 0.  0.
         24    2    1    2    0    0 -0.25768448989E+03  0.29844982811E+03  0.11260386200E+04  0.11958418347E+04  0.81247300424E+02 0.  0.
        -13    1    4    4    0    0 -0.67658331714E+02  0.82825510475E+02  0.20828672500E+03  0.23413900753E+03  0.00000000000E+00 0.  1.
         14    1    4    4    0    0 -0.19002615817E+03  0.21562431764E+03  0.91775189497E+03  0.96170282722E+03  0.00000000000E+00 0. -1.
        -11    1    3    3    0    0  0.15743692934E+03 -0.57000937395E+02 -0.91184062684E+01  0.16768613215E+03  0.00000000000E+00 0.  1.
         11    1    3    3    0    0  0.42174661220E+02  0.16176266367E+01  0.45288148858E+02  0.61905857493E+02  0.00000000000E+00 0. -1.
         21    1    1    2  502  501  0.58072899328E+02 -0.24306651735E+03  0.15277837335E+03  0.29290787777E+03  0.00000000000E+00 0.  1.
<scales pt_clust_5="13000.00000" pt_clust_6="13000.00000" pt_clust_7="13000.00000" pt_clust_8="13000.00000" pt_clust_9="339.14619"></scales>
<clustering>
<clus scale="   81.247">  5  6 -1 -1</clus>
<clus scale="   92.153">  7  8 -1 -1</clus>
<clus scale="  226.725">  2  7  1 -1</clus>
<clus scale="  339.146">  2  9  1 -1</clus>
<clus scale="  348.742">  1  5  2 -1</clus>
</clustering>
</event>
<event>
 9    2  0.3402837E-005  0.1157897E+03  0.7546771E-02  0.1255317E+00
          2   -1    0    0  502    0  0.00000000000E+00  0.00000000000E+00  0.55627542478E+02  0.55627542478E+02  0.00000000000E+00 0. -1.
         -1   -1    0    0    0  501 -0.00000000000E+00 -0.00000000000E+00 -0.57716837130E+03  0.57716837130E+03  0.00000000000E+00 0.  1.
         23    2    1    2    0    0  0.70559270410E+02  0.40215085814E+02 -0.36482929530E+03  0.38541725632E+03  0.94075411199E+02 0.  0.
         24    2    1    2    0    0 -0.36972408168E+02 -0.55157213596E+02 -0.19988882543E+02  0.10580031240E+03  0.79905403457E+02 0.  0.
        -11    1    4    4    0    0 -0.78148932453E+01 -0.56458821678E+02 -0.40678540983E+02  0.70024387167E+02  0.00000000000E+00 0.  1.
         12    1    4    4    0    0 -0.29157514923E+02  0.13016080812E+01  0.20689658440E+02  0.35775925235E+02  0.00000000000E+00 0. -1.
        -13    1    3    3    0    0  0.68665121466E+02 -0.41394454032E+01 -0.13697297256E+03  0.15327631626E+03  0.00000000000E+00 0.  1.
         13    1    3    3    0    0  0.18941489443E+01  0.44354531218E+02 -0.22785632274E+03  0.23214094006E+03  0.00000000000E+00 0. -1.
         21    1    1    2  502  501 -0.33586862242E+02  0.14942127782E+02 -0.13672265098E+03  0.14157834505E+03  0.00000000000E+00 0.  1.
<scales pt_clust_5="13000.00000" pt_clust_6="13000.00000" pt_clust_7="13000.00000" pt_clust_8="13000.00000" pt_clust_9="36.76064"></scales>
<clustering>
<clus scale="   36.761">  2  9  1 -1</clus>
<clus scale="   79.905">  5  6 -1 -1</clus>
<clus scale="   94.075">  7  8 -1 -1</clus>
<clus scale="  104.604">  1  5  2 -1</clus>
<clus scale="  104.604">  1  5  2 -1</clus>
</clustering>
</event>
<event>
 9    2  0.3402837E-005  0.1369564E+03  0.7546771E-02  0.1218695E+00
          2   -1    0    0  502    0  0.00000000000E+00  0.00000000000E+00  0.61223445901E+03  0.61223445901E+03  0.00000000000E+00 0. -1.
         -1   -1    0    0    0  501 -0.00000000000E+00 -0.00000000000E+00 -0.67755075296E+02  0.67755075296E+02  0.00000000000E+00 0.  1.
         23    2    1    2    0    0  0.58111717147E+02  0.48285578624E+02  0.12786074267E+03  0.17417319554E+03  0.90991558707E+02 0.  0.
         24    2    1    2    0    0 -0.75822772179E+02 -0.88155209037E+02  0.43508823614E+03  0.45844129424E+03  0.85710054140E+02 0.  0.
        -13    1    4    4    0    0 -0.84943904350E+01 -0.18204264126E+02  0.10063084808E+02  0.22468101323E+02  0.00000000000E+00 0.  1.
         14    1    4    4    0    0 -0.67328381744E+02 -0.69950944912E+02  0.42502515133E+03  0.43597319292E+03  0.00000000000E+00 0. -1.
        -11    1    3    3    0    0  0.64894800024E+02  0.14374645849E+02  0.35080184715E+02  0.75157068018E+02  0.00000000000E+00 0.  1.
         11    1    3    3    0    0 -0.67830828771E+01  0.33910932775E+02  0.92780557959E+02  0.99016127526E+02  0.00000000000E+00 0. -1.
         21    1    1    2  502  501  0.17711055033E+02  0.39869630413E+02 -0.18469595101E+02  0.47375044516E+02  0.00000000000E+00 0. -1.
<scales pt_clust_5="13000.00000" pt_clust_6="13000.00000" pt_clust_7="13000.00000" pt_clust_8="13000.00000" pt_clust_9="43.62647"></scales>
<clustering>
<clus scale="   43.626">  2  9  1 -1</clus>
<clus scale="   85.710">  5  6 -1 -1</clus>
<clus scale="   90.992">  7  8 -1 -1</clus>
<clus scale="  133.506">  1  5  2 -1</clus>
<clus scale="  133.506">  1  5  2 -1</clus>
</clustering>
</event>
<event>
 9    2  0.3402837E-005  0.1151288E+03  0.7546771E-02  0.1252700E+00
         -1   -1    0    0    0  501 -0.00000000000E+00  0.00000000000E+00  0.35549070731E+03  0.35549070731E+03  0.00000000000E+00 0.  1.
          2   -1    0    0  502    0  0.00000000000E+00 -0.00000000000E+00 -0.67010524960E+02  0.67010524960E+02  0.00000000000E+00 0. -1.
         23    2    1    2    0    0  0.29227801114E+02 -0.38894863928E+02  0.19304526073E+03  0.21924979000E+03  0.91852724114E+02 0.  0.
         24    2    1    2    0    0 -0.74322869622E+02  0.12088396916E+02  0.42847929431E+02  0.12897127247E+03  0.95538608833E+02 0.  0.
        -11    1    4    4    0    0 -0.21123021250E+02 -0.70504789912E+01  0.64648273084E+02  0.68376095922E+02  0.00000000000E+00 0.  1.
         12    1    4    4    0    0 -0.53199848372E+02  0.19138875907E+02 -0.21800343653E+02  0.60595176550E+02  0.00000000000E+00 0. -1.
        -13    1    3    3    0    0 -0.12708561287E+02  0.20820145059E+02  0.20332876579E+02  0.31755500944E+02  0.00000000000E+00 0. -1.
         13    1    3    3    0    0  0.41936362401E+02 -0.59715008986E+02  0.17271238415E+03  0.18749428906E+03  0.00000000000E+00 0.  1.
         21    1    1    2  502  501  0.45095068508E+02  0.26806467012E+02  0.52586992185E+02  0.74280169793E+02  0.00000000000E+00 0. -1.
<scales pt_clust_5="13000.00000" pt_clust_6="13000.00000" pt_clust_7="13000.00000" pt_clust_8="13000.00000" pt_clust_9="52.46096"></scales>
<clustering>
<clus scale="   52.461">  1  9  2 -1</clus>
<clus scale="   91.853">  7  8 -1 -1</clus>
<clus scale="   95.539">  5  6 -1 -1</clus>
<clus scale="  112.089">  1  7  2 -1</clus>
<clus scale="  115.129">  2  5  1 -1</clus>
</clustering>
</event>
<event>
 9    2  0.3402837E-005  0.9997973E+02  0.7546771E-02  0.1283963E+00
         -1   -1    0    0    0  501 -0.00000000000E+00  0.00000000000E+00  0.44807707964E+02  0.44807707964E+02  0.00000000000E+00 0.  1.
          2   -1    0    0  502    0  0.00000000000E+00 -0.00000000000E+00 -0.42936356974E+03  0.42936356974E+03  0.00000000000E+00 0. -1.
         23    2    1    2    0    0 -0.18110865368E+02 -0.21325244000E+02 -0.43056585555E+02  0.10316064213E+03  0.89473342678E+02 0.  0.
         24    2    1    2    0    0  0.34085797316E+02  0.34193279737E+02 -0.33677992251E+03  0.34996171412E+03  0.81984530175E+02 0.  0.
        -11    1    4    4    0    0 -0.11762494184E+02  0.38926822618E+02 -0.87913507396E+02  0.96862988655E+02  0.00000000000E+00 0.  1.
         12    1    4    4    0    0  0.45848291500E+02 -0.47335428805E+01 -0.24886641511E+03  0.25309872547E+03  0.00000000000E+00 0. -1.
        -11    1    3    3    0    0 -0.41883204097E+02 -0.81560072393E+01  0.97514905321E+01  0.43770021786E+02  0.00000000000E+00 0. -1.
         11    1    3    3    0    0  0.23772338729E+02 -0.13169236760E+02 -0.52808076087E+02  0.59390620349E+02  0.00000000000E+00 0.  1.
         21    1    1    2  502  501 -0.15974931948E+02 -0.12868035737E+02 -0.47193537072E+01  0.21048921443E+02  0.00000000000E+00 0. -1.
<scales pt_clust_5="13000.00000" pt_clust_6="13000.00000" pt_clust_7="13000.00000" pt_clust_8="13000.00000" pt_clust_9="20.51304"></scales>
<clustering>
<clus scale="   20.513">  1  9  2 -1</clus>
<clus scale="   81.985">  5  6 -1 -1</clus>
<clus scale="   89.473">  7  8 -1 -1</clus>
<clus scale="   93.338">  2  5  1 -1</clus>
<clus scale="   93.338">  2  5  1 -1</clus>
</clustering>
</event>
<event>
 9    2  0.3402837E-005  0.1126826E+03  0.7546771E-02  0.1258259E+00
          2   -1    0    0  502    0  0.00000000000E+00  0.00000000000E+00  0.23024279113E+04  0.23024279113E+04  0.00000000000E+00 0. -1.
         -1   -1    0    0    0  501 -0.00000000000E+00 -0.00000000000E+00 -0.11401498927E+02  0.11401498927E+02  0.00000000000E+00 0.  1.
         23    2    1    2    0    0  0.51218143175E+01 -0.45209339635E+02  0.55770999191E+03  0.56707457923E+03  0.91994706123E+02 0.  0.
         24    2    1    2    0    0 -0.47388856428E+01  0.72630725954E+02  0.16996494571E+04  0.17033319859E+04  0.85052322157E+02 0.  0.
        -11    1    4    4    0    0 -0.58684281274E+00  0.37865712122E+02  0.21772340873E+03  0.22099239636E+03  0.00000000000E+00 0.  1.
         12    1    4    4    0    0 -0.41520428300E+01  0.34765013832E+02  0.14819260484E+04  0.14823395895E+04  0.00000000000E+00 0. -1.
        -11    1    3    3    0    0  0.38207185025E+02 -0.55780945246E+02  0.34788517556E+03  0.35439441052E+03  0.00000000000E+00 0.  1.
         11    1    3    3    0    0 -0.33085370707E+02  0.10571605611E+02  0.20982481636E+03  0.21268016870E+03  0.00000000000E+00 0. -1.
         21    1    1    2  502  501 -0.38292867473E+00 -0.27421386319E+02  0.33666963375E+02  0.43422845196E+02  0.00000000000E+00 0.  1.
<scales pt_clust_5="13000.00000" pt_clust_6="13000.00000" pt_clust_7="13000.00000" pt_clust_8="13000.00000" pt_clust_9="27.42406"></scales>
<clustering>
<clus scale="   27.424">  2  9  1 -1</clus>
<clus scale="   85.052">  5  6 -1 -1</clus>
<clus scale="   91.995">  7  8 -1 -1</clus>
<clus scale="  107.090">  1  5  2 -1</clus>
<clus scale="  107.090">  1  5  2 -1</clus>
</clustering>
</event>
<event>
 9    2  0.3402837E-005  0.1602572E+03  0.7546771E-02  0.1188933E+00
         -1   -1    0    0    0  501 -0.00000000000E+00  0.00000000000E+00  0.53845108407E+03  0.53845108407E+03  0.00000000000E+00 0.  1.
          2   -1    0    0  502    0  0.00000000000E+00 -0.00000000000E+00 -0.34193386001E+03  0.34193386001E+03  0.00000000000E+00 0. -1.
         23    2    1    2    0    0  0.98215989811E+02 -0.10918890948E+03  0.89217983103E+01  0.17030931416E+03  0.85773337322E+02 0.  0.
         24    2    1    2    0    0 -0.11680938232E+03  0.60277963990E+02 -0.23533655378E+03  0.28391902239E+03  0.89156340136E+02 0.  0.
        -11    1    4    4    0    0 -0.59692577053E+02 -0.10807153234E+02 -0.13688438656E+03  0.14972419176E+03  0.00000000000E+00 0.  1.
         12    1    4    4    0    0 -0.57116805272E+02  0.71085117225E+02 -0.98452167227E+02  0.13419483063E+03  0.00000000000E+00 0. -1.
        -13    1    3    3    0    0  0.42628134564E+02 -0.91117185083E+02 -0.23729090705E+02  0.10335651416E+03  0.00000000000E+00 0. -1.
         13    1    3    3    0    0  0.55587855247E+02 -0.18071724396E+02  0.32650889016E+02  0.66952799995E+02  0.00000000000E+00 0.  1.
         21    1    1    2  502  501  0.18593392513E+02  0.48910945489E+02  0.42293197953E+03  0.42615660754E+03  0.00000000000E+00 0.  1.
<scales pt_clust_5="13000.00000" pt_clust_6="13000.00000" pt_clust_7="13000.00000" pt_clust_8="13000.00000" pt_clust_9="52.32585"></scales>
<clustering>
<clus scale="   52.326">  1  9  2 -1</clus>
<clus scale="   85.773">  7  8 -1 -1</clus>
<clus scale="   89.156">  5  6 -1 -1</clus>
<clus scale="  158.400">  1  7  2 -1</clus>
<clus scale="  160.257">  2  5  1 -1</clus>
</clustering>
</event>
<event>
 9    2  0.3402837E-005  0.1044736E+03  0.7546771E-02  0.1278292E+00
         -1   -1    0    0    0  501 -0.00000000000E+00  0.00000000000E+00  0.44602083249E+03  0.44602083249E+03  0.00000000000E+00 0.  1.
          2   -1    0    0  502    0  0.00000000000E+00 -0.00000000000E+00 -0.30007959358E+02  0.30007959358E+02  0.00000000000E+00 0. -1.
         24    2    1    2    0    0  0.21089561232E+02  0.24962457003E+02  0.22981292964E+03  0.24577588458E+03  0.80770718454E+02 0.  0.
         23    2    1    2    0    0 -0.10791194283E+02 -0.48826775583E+02  0.13478962966E+03  0.17264576855E+03  0.95591909937E+02 0.  0.
        -13    1    3    3    0    0 -0.25229861031E+02  0.31493428187E+02  0.10620470610E+03  0.11361259395E+03  0.00000000000E+00 0.  1.
         14    1    3    3    0    0  0.46319422263E+02 -0.65309711843E+01  0.12360822354E+03  0.13216329063E+03  0.00000000000E+00 0. -1.
        -11    1    4    4    0    0 -0.48027756976E+02 -0.20851799500E+02  0.36336951614E+02  0.63732542984E+02  0.00000000000E+00 0. -1.
         11    1    4    4    0    0  0.37236562694E+02 -0.27974976082E+02  0.98452678050E+02  0.10891322557E+03  0.00000000000E+00 0.  1.
         21    1    1    2  502  501 -0.10298366949E+02  0.23864318579E+02  0.51410313827E+02  0.57607138715E+02  0.00000000000E+00 0.  1.
<scales pt_clust_5="13000.00000" pt_clust_6="13000.00000" pt_clust_7="13000.00000" pt_clust_8="13000.00000" pt_clust_9="25.99158"></scales>
<clustering>
<clus scale="   25.992">  1  9  2 -1</clus>
<clus scale="   80.771">  5  6 -1 -1</clus>
<clus scale="   91.109">  1  5  2 -1</clus>
<clus scale="   95.592">  7  8 -1 -1</clus>
<clus scale="  104.474">  2  5  1 -1</clus>
</clustering>
</event>
<event>
 9    2  0.3402837E-005  0.2125052E+03  0.7546771E-02  0.1140457E+00
         -3   -1    0    0    0  501 -0.00000000000E+00  0.00000000000E+00  0.34341828159E+03  0.34341828159E+03  0.00000000000E+00 0.  1.
          4   -1    0    0  502    0  0.00000000000E+00 -0.00000000000E+00 -0.19536697301E+03  0.19536697301E+03  0.00000000000E+00 0. -1.
         23    2    1    2    0    0  0.10858016589E+03 -0.15102534563E+03  0.14124310878E+03  0.25103292449E+03  0.92030462094E+02 0.  0.
         24    2    1    2    0    0 -0.15868306535E+03  0.11686775468E+03 -0.32184235475E+02  0.21565897700E+03  0.81452943701E+02 0.  0.
        -13    1    4    4    0    0 -0.70228530981E+02  0.88887768023E+02 -0.45216329070E+02  0.12197376063E+03  0.00000000000E+00 0.  1.
         14    1    4    4    0    0 -0.88454534367E+02  0.27979986654E+02  0.13032093595E+02  0.93685216372E+02  0.00000000000E+00 0. -1.
        -11    1    3    3    0    0  0.96056086377E+02 -0.12400279339E+03  0.66120537063E+02  0.17022159064E+03  0.00000000000E+00 0.  1.
         11    1    3    3    0    0  0.12524079515E+02 -0.27022552240E+02  0.75122571720E+02  0.80811333853E+02  0.00000000000E+00 0. -1.
         21    1    1    2  502  501  0.50102899456E+02  0.34157590955E+02  0.38992435264E+02  0.72093353103E+02  0.00000000000E+00 0.  1.
<scales pt_clust_5="13000.00000" pt_clust_6="13000.00000" pt_clust_7="13000.00000" pt_clust_8="13000.00000" pt_clust_9="60.63861"></scales>
<clustering>
<clus scale="   60.639">  1  9  2 -1</clus>
<clus scale="   81.453">  5  6 -1 -1</clus>
<clus scale="   92.030">  7  8 -1 -1</clus>
<clus scale="  208.143">  2  5  1 -1</clus>
<clus scale="  208.143">  2  5  1 -1</clus>
</clustering>
</event>
<event>
 9    2  0.3402837E-005  0.2816028E+03  0.7546771E-02  0.1095003E+00
          2   -1    0    0  502    0  0.00000000000E+00  0.00000000000E+00  0.11700089033E+04  0.11700089033E+04  0.00000000000E+00 0. -1.
         -1   -1    0    0    0  501 -0.00000000000E+00 -0.00000000000E+00 -0.15875793522E+03  0.15875793522E+03  0.00000000000E+00 0.  1.
         23    2    1    2    0    0  0.22411076043E+03 -0.19204459488E+03  0.34458698952E+03  0.46272887215E+03  0.90945348469E+02 0.  0.
         24    2    1    2    0    0 -0.23997149817E+03  0.92002693130E+02  0.70604753792E+03  0.75735949636E+03  0.95076103451E+02 0.  0.
        -13    1    4    4    0    0 -0.75383910286E+02  0.36374754102E+02  0.12149863546E+03  0.14753906291E+03  0.00000000000E+00 0.  1.
         14    1    4    4    0    0 -0.16458758788E+03  0.55627939028E+02  0.58454890246E+03  0.60982043345E+03  0.00000000000E+00 0. -1.
        -13    1    3    3    0    0  0.39075552257E+02 -0.88555609095E+02  0.11101405428E+03  0.14728582733E+03  0.00000000000E+00 0. -1.
         13    1    3    3    0    0  0.18503520817E+03 -0.10348898578E+03  0.23357293524E+03  0.31544304481E+03  0.00000000000E+00 0.  1.
         21    1    1    2  502  501  0.15860737737E+02  0.10004190175E+03 -0.39383559330E+02  0.10867847005E+03  0.00000000000E+00 0.  1.
<scales pt_clust_5="13000.00000" pt_clust_6="13000.00000" pt_clust_7="13000.00000" pt_clust_8="13000.00000" pt_clust_9="101.29139"></scales>
<clustering>
<clus scale="   90.945">  7  8 -1 -1</clus>
<clus scale="   95.076">  5  6 -1 -1</clus>
<clus scale="  101.291">  2  9  1 -1</clus>
<clus scale="  280.235">  2  7  1 -1</clus>
<clus scale="  281.603">  1  5  2 -1</clus>
</clustering>
</event>
<event>
 9    2  0.3402837E-005  0.1182159E+03  0.7546771E-02  0.1250717E+00
          2   -1    0    0  502    0  0.00000000000E+00  0.00000000000E+00  0.40164569441E+03  0.40164569441E+03  0.00000000000E+00 0. -1.
         -1   -1    0    0    0  501 -0.00000000000E+00 -0.00000000000E+00 -0.21861995180E+03  0.21861995180E+03  0.00000000000E+00 0.  1.
         23    2    1    2    0    0  0.56330775910E+02 -0.33769540710E+02 -0.17135074285E+03  0.20770028556E+03  0.97287169514E+02 0.  0.
         24    2    1    2    0    0 -0.60874227003E+02  0.82807616382E+02  0.33365302254E+03  0.35913467912E+03  0.84205732908E+02 0.  0.
        -11    1    4    4    0    0 -0.38398597904E+02  0.34716098119E+02  0.55232254994E+02  0.75698492596E+02  0.00000000000E+00 0.  1.
         12    1    4    4    0    0 -0.22475629099E+02  0.48091518264E+02  0.27842076754E+03  0.28343618652E+03  0.00000000000E+00 0. -1.
        -11    1    3    3    0    0 -0.22327331260E+02 -0.46614961747E+01 -0.81709483930E+01  0.24228158523E+02  0.00000000000E+00 0. -1.
         11    1    3    3    0    0  0.78658107171E+02 -0.29108044535E+02 -0.16317979446E+03  0.18347212704E+03  0.00000000000E+00 0.  1.
         21    1    1    2  502  501  0.45434510929E+01 -0.49038075672E+02  0.20723462928E+02  0.53430681534E+02  0.00000000000E+00 0. -1.
<scales pt_clust_5="13000.00000" pt_clust_6="13000.00000" pt_clust_7="13000.00000" pt_clust_8="13000.00000" pt_clust_9="49.24810"></scales>
<clustering>
<clus scale="   49.248">  1  9  2 -1</clus>
<clus scale="   84.206">  5  6 -1 -1</clus>
<clus scale="   97.287">  7  8 -1 -1</clus>
<clus scale="  107.707">  1  5  2 -1</clus>
<clus scale="   49.248">  1  5  2 -1</clus>
</clustering>
</event>
<event>
 9    2  0.3402837E-005  0.1410760E+03  0.7546771E-02  0.1214316E+00
          2   -1    0    0  502    0  0.00000000000E+00  0.00000000000E+00  0.14302110698E+03  0.14302110698E+03  0.00000000000E+00 0. -1.
         -1   -1    0    0    0  501 -0.00000000000E+00 -0.00000000000E+00 -0.26038275011E+03  0.26038275011E+03  0.00000000000E+00 0.  1.
         23    2    1    2    0    0  0.17909151198E+02  0.12141225820E+03 -0.81535113274E+02  0.17289708306E+03  0.90464095078E+02 0.  0.
         24    2    1    2    0    0 -0.77325439998E+01 -0.10303564875E+03  0.52114797329E+02  0.14009139847E+03  0.78952584972E+02 0.  0.
        -11    1    4    4    0    0 -0.25782864566E+02 -0.44896306824E+02 -0.10427865548E+02  0.52812639127E+02  0.00000000000E+00 0.  1.
         12    1    4    4    0    0  0.18050320567E+02 -0.58139341927E+02  0.62542662877E+02  0.87278759341E+02  0.00000000000E+00 0. -1.
        -13    1    3    3    0    0 -0.35181103027E+02  0.42093322007E+02 -0.16096825715E+02  0.57172244716E+02  0.00000000000E+00 0.  1.
         13    1    3    3    0    0  0.53090254225E+02  0.79318936191E+02 -0.65438287559E+02  0.11572483835E+03  0.00000000000E+00 0. -1.
         21    1    1    2  502  501 -0.10176607199E+02 -0.18376609446E+02 -0.87941327193E+02  0.90415375557E+02  0.00000000000E+00 0.  1.
<scales pt_clust_5="13000.00000" pt_clust_6="13000.00000" pt_clust_7="13000.00000" pt_clust_8="13000.00000" pt_clust_9="21.00626"></scales>
<clustering>
<clus scale="   21.006">  2  9  1 -1</clus>
<clus scale="   78.953">  5  6 -1 -1</clus>
<clus scale="   90.464">  7  8 -1 -1</clus>
<clus scale="  133.986">  1  5  2 -1</clus>
<clus scale="  133.986">  1  5  2 -1</clus>
</clustering>
</event>
<event>
 9    2  0.3402837E-005  0.1098206E+03  0.7546771E-02  0.1266546E+00
         -1   -1    0    0    0  501 -0.00000000000E+00  0.00000000000E+00  0.14005671708E+03  0.14005671708E+03  0.00000000000E+00 0.  1.
          2   -1    0    0  502    0  0.00000000000E+00 -0.00000000000E+00 -0.12974365496E+03  0.12974365496E+03  0.00000000000E+00 0. -1.
         23    2    1    2    0    0  0.42039932235E+02  0.86384214159E+00  0.67371611294E+02  0.12252478566E+03  0.93302127351E+02 0.  0.
         24    2    1    2    0    0 -0.62085236971E+02  0.68609423026E+01 -0.69283835675E+02  0.12255830160E+03  0.79489862415E+02 0.  0.
        -11    1    4    4    0    0 -0.46455490687E+02 -0.20977414360E+02 -0.55476375068E+01  0.51273197776E+02  0.00000000000E+00 0.  1.
         12    1    4    4    0    0 -0.15629746283E+02  0.27838356663E+02 -0.63736198169E+02  0.71285103826E+02  0.00000000000E+00 0. -1.
        -13    1    3    3    0    0  0.67561036503E+02  0.18370748567E+02  0.37114721394E+02  0.79243173841E+02  0.00000000000E+00 0. -1.
         13    1    3    3    0    0 -0.25521104268E+02 -0.17506906425E+02  0.30256889899E+02  0.43281611823E+02  0.00000000000E+00 0.  1.
         21    1    1    2  502  501  0.20045304736E+02 -0.77247844442E+01  0.12225286505E+02  0.24717284778E+02  0.00000000000E+00 0. -1.
<scales pt_clust_5="13000.00000" pt_clust_6="13000.00000" pt_clust_7="13000.00000" pt_clust_8="13000.00000" pt_clust_9="21.48224"></scales>
<clustering>
<clus scale="   21.482">  1  9  2 -1</clus>
<clus scale="   79.490">  5  6 -1 -1</clus>
<clus scale="   93.302">  7  8 -1 -1</clus>
<clus scale="   98.356">  2  5  1 -1</clus>
<clus scale="   98.356">  2  5  1 -1</clus>
</clustering>
</event>
<event>
 9    2  0.3402837E-005  0.1012933E+03  0.7546771E-02  0.1281911E+00
         -1   -1    0    0    0  501 -0.00000000000E+00  0.00000000000E+00  0.41131971072E+02  0.41131971072E+02  0.00000000000E+00 0.  1.
          2   -1    0    0  502    0  0.00000000000E+00 -0.00000000000E+00 -0.89215859162E+03  0.89215859162E+03  0.00000000000E+00 0. -1.
         23    2    1    2    0    0 -0.33951201097E+02 -0.93956834857E+01 -0.12069071181E+03  0.15491202867E+03  0.90501523672E+02 0.  0.
         24    2    1    2    0    0  0.46881278228E+02 -0.98058637686E+01 -0.74500361611E+03  0.75097364483E+03  0.81467895505E+02 0.  0.
        -13    1    4    4    0    0 -0.20095225260E+02 -0.58342923230E+01 -0.83734370115E+02  0.86309337755E+02  0.00000000000E+00 0.  1.
         14    1    4    4    0    0  0.66976503487E+02 -0.39715714456E+01 -0.66126924600E+03  0.66466430707E+03  0.00000000000E+00 0. -1.
        -11    1    3    3    0    0 -0.20248607728E+01 -0.44356198040E+02 -0.33233364476E+02  0.55461958856E+02  0.00000000000E+00 0.  1.
         11    1    3    3    0    0 -0.31926340324E+02  0.34960514554E+02 -0.87457347334E+02  0.99450069819E+02  0.00000000000E+00 0. -1.
         21    1    1    2  502  501 -0.12930077131E+02  0.19201547254E+02  0.14667707376E+02  0.27404889185E+02  0.00000000000E+00 0. -1.
<scales pt_clust_5="13000.00000" pt_clust_6="13000.00000" pt_clust_7="13000.00000" pt_clust_8="13000.00000" pt_clust_9="23.14922"></scales>
<clustering>
<clus scale="   23.149">  1  9  2 -1</clus>
<clus scale="   81.468">  5  6 -1 -1</clus>
<clus scale="   90.502">  7  8 -1 -1</clus>
<clus scale="   93.310">  2  5  1 -1</clus>
<clus scale="   93.310">  2  5  1 -1</clus>
</clustering>
</event>
<event>
 9    2  0.3402837E-005  0.1131931E+03  0.7546771E-02  0.1258502E+00
          2   -1    0    0  502    0  0.00000000000E+00  0.00000000000E+00  0.45584669875E+03  0.45584669875E+03  0.00000000000E+00 0. -1.
         -1   -1    0    0    0  501 -0.00000000000E+00 -0.00000000000E+00 -0.40349822208E+02  0.40349822208E+02  0.00000000000E+00 0.  1.
         24    2    1    2    0    0  0.63769137961E+02 -0.23036559739E+01  0.84991699752E+02  0.13385278592E+03  0.81370568910E+02 0.  0.
         23    2    1    2    0    0 -0.64740003365E+02 -0.24990654390E+02  0.30082096053E+03  0.32200672160E+03  0.91538394241E+02 0.  0.
        -11    1    3    3    0    0  0.39082467789E+02 -0.29601234909E+02  0.96018072765E+01  0.49958653901E+02  0.00000000000E+00 0.  1.
         12    1    3    3    0    0  0.24686670172E+02  0.27297578935E+02  0.75389892475E+02  0.83894132020E+02  0.00000000000E+00 0. -1.
        -13    1    4    4    0    0 -0.39385595707E+02 -0.28256793248E+02  0.29037139582E+03  0.29438957016E+03  0.00000000000E+00 0. -1.
         13    1    4    4    0    0 -0.25354407658E+02  0.32661388581E+01  0.10449564712E+02  0.27617151435E+02  0.00000000000E+00 0.  1.
         21    1    1    2  502  501  0.97086540427E+00  0.27294310364E+02  0.29684216260E+02  0.40337013435E+02  0.00000000000E+00 0. -1.
<scales pt_clust_5="13000.00000" pt_clust_6="13000.00000" pt_clust_7="13000.00000" pt_clust_8="13000.00000" pt_clust_9="27.31157"></scales>
<clustering>
<clus scale="   27.312">  2  9  1 -1</clus>
<clus scale="   81.371">  5  6 -1 -1</clus>
<clus scale="   91.538">  7  8 -1 -1</clus>
<clus scale="  105.141">  2  5  1 -1</clus>
<clus scale="  113.193">  1  5  2 -1</clus>
</clustering>
</event>
<event>
 9    2  0.3402837E-005  0.1027033E+03  0.7546771E-02  0.1280046E+00
          2   -1    0    0  502    0  0.00000000000E+00  0.00000000000E+00  0.28326237396E+03  0.28326237396E+03  0.00000000000E+00 0. -1.
         -1   -1    0    0    0  501 -0.00000000000E+00 -0.00000000000E+00 -0.69950427109E+02  0.69950427109E+02  0.00000000000E+00 0.  1.
         23    2    1    2    0    0  0.12328935295E+02  0.37166167769E+02  0.37892555867E+01  0.10165321279E+03  0.93732014496E+02 0.  0.
         24    2    1    2    0    0 -0.36192322088E+02 -0.24994936593E+02  0.20361268614E+03  0.22412733977E+03  0.82706151175E+02 0.  0.
        -13    1    4    4    0    0 -0.74215643033E+01 -0.47232810399E+02  0.64184846137E+02  0.80035694965E+02  0.00000000000E+00 0.  1.
         14    1    4    4    0    0 -0.28770757785E+02  0.22237873806E+02  0.13942784000E+03  0.14409164480E+03  0.00000000000E+00 0. -1.
        -13    1    3    3    0    0 -0.37859209270E+02  0.12479529731E+02  0.18311466860E+02  0.43867621401E+02  0.00000000000E+00 0. -1.
         13    1    3    3    0    0  0.50188144564E+02  0.24686638039E+02 -0.14522211273E+02  0.57785591394E+02  0.00000000000E+00 0.  1.
         21    1    1    2  502  501  0.23863386793E+02 -0.12171231176E+02  0.59100051297E+01  0.27432248508E+02  0.00000000000E+00 0.  1.
<scales pt_clust_5="13000.00000" pt_clust_6="13000.00000" pt_clust_7="13000.00000" pt_clust_8="13000.00000" pt_clust_9="26.78806"></scales>
<clustering>
<clus scale="   26.788">  2  9  1 -1</clus>
<clus scale="   82.706">  5  6 -1 -1</clus>
<clus scale="   92.750">  1  5  2 -1</clus>
<clus scale="   93.732">  7  8 -1 -1</clus>
<clus scale="   92.750">  1  5  2 -1</clus>
</clustering>
</event>
<event>
 9    2  0.3402837E-005  0.1446267E+03  0.7546771E-02  0.1209331E+00
          4   -1    0    0  502    0  0.00000000000E+00  0.00000000000E+00  0.69240517759E+03  0.69240517759E+03  0.00000000000E+00 0. -1.
         -3   -1    0    0    0  501 -0.00000000000E+00 -0.00000000000E+00 -0.91129842382E+02  0.91129842382E+02  0.00000000000E+00 0.  1.
         24    2    1    2    0    0  0.10774626736E+03  0.31656243056E+01  0.16507963761E+03  0.21285828387E+03  0.80237665400E+02 0.  0.
         23    2    1    2    0    0 -0.11241124239E+03  0.29583950219E+02  0.48767654869E+03  0.50948380634E+03  0.90740482989E+02 0.  0.
        -13    1    3    3    0    0  0.44316031583E+02  0.71907370545E+01  0.11056864337E+02  0.46237123652E+02  0.00000000000E+00 0.  1.
         14    1    3    3    0    0  0.63430235777E+02 -0.40251127489E+01  0.15402277328E+03  0.16662116022E+03  0.00000000000E+00 0. -1.
        -11    1    4    4    0    0 -0.98827021824E+02  0.56628294505E+02  0.33492603949E+03  0.35376403988E+03  0.00000000000E+00 0.  1.
         11    1    4    4    0    0 -0.13584220562E+02 -0.27044344285E+02  0.15275050920E+03  0.15571976646E+03  0.00000000000E+00 0. -1.
         21    1    1    2  502  501  0.46649750261E+01 -0.32749574525E+02 -0.51480851097E+02  0.61192929765E+02  0.00000000000E+00 0.  1.
<scales pt_clust_5="13000.00000" pt_clust_6="13000.00000" pt_clust_7="13000.00000" pt_clust_8="13000.00000" pt_clust_9="33.08015"></scales>
<clustering>
<clus scale="   33.080">  2  9  1 -1</clus>
<clus scale="   80.238">  5  6 -1 -1</clus>
<clus scale="   90.740">  7  8 -1 -1</clus>
<clus scale="  138.279">  2  5  1 -1</clus>
<clus scale="  144.627">  1  5  2 -1</clus>
</clustering>
</event>
<event>
 9    2  0.3402837E-005  0.1409371E+03  0.7546771E-02  0.1214903E+00
         -1   -1    0    0    0  501 -0.00000000000E+00  0.00000000000E+00  0.36770721387E+02  0.36770721387E+02  0.00000000000E+00 0.  1.
          2   -1    0    0  502    0  0.00000000000E+00 -0.00000000000E+00 -0.80530726372E+03  0.80530726372E+03  0.00000000000E+00 0. -1.
         23    2    1    2    0    0  0.48910540360E+02  0.60179599219E+02 -0.19752379038E+03  0.23158761818E+03  0.92754255996E+02 0.  0.
         24    2    1    2    0    0 -0.69220584124E+02 -0.10174950109E+03 -0.52556892958E+03  0.54563903225E+03  0.79717021562E+02 0.  0.
        -13    1    4    4    0    0 -0.77163494255E+02 -0.88823476862E+02 -0.51180196213E+03  0.52515241914E+03  0.00000000000E+00 0.  1.
         14    1    4    4    0    0  0.79429101308E+01 -0.12926024225E+02 -0.13766967450E+02  0.20486613102E+02  0.00000000000E+00 0. -1.
        -13    1    3    3    0    0  0.37721811682E+01  0.40806386211E+02 -0.17084241110E+03  0.17568870179E+03  0.00000000000E+00 0. -1.
         13    1    3    3    0    0  0.45138359192E+02  0.19373213008E+02 -0.26681379283E+02  0.55898916387E+02  0.00000000000E+00 0.  1.
         21    1    1    2  502  501  0.20310043764E+02  0.41569901868E+02 -0.45443822361E+02  0.64851334680E+02  0.00000000000E+00 0.  1.
<scales pt_clust_5="13000.00000" pt_clust_6="13000.00000" pt_clust_7="13000.00000" pt_clust_8="13000.00000" pt_clust_9="46.26613"></scales>
<clustering>
<clus scale="   46.266">  1  9  2 -1</clus>
<clus scale="   79.717">  5  6 -1 -1</clus>
<clus scale="   92.754">  7  8 -1 -1</clus>
<clus scale="  132.720">  2  5  1 -1</clus>
<clus scale="  132.720">  2  5  1 -1</clus>
</clustering>
</event>
<event>
 9    2  0.3402837E-005  0.1050544E+03  0.7546771E-02  0.1276138E+00
         -1   -1    0    0    0  501 -0.00000000000E+00  0.00000000000E+00  0.18010096714E+03  0.18010096714E+03  0.00000000000E+00 0.  1.
          2   -1    0    0  502    0  0.00000000000E+00 -0.00000000000E+00 -0.16319334438E+03  0.16319334438E+03  0.00000000000E+00 0. -1.
         24    2    1    2    0    0  0.45551317379E+02  0.24944372610E+02  0.10389340160E+03  0.13994993135E+03  0.78070481933E+02 0.  0.
         23    2    1    2    0    0 -0.88184990583E+01 -0.71587902968E+02 -0.84229196998E+02  0.14390939376E+03  0.91721111031E+02 0.  0.
        -13    1    3    3    0    0  0.34877512846E+02  0.27787865189E+02  0.11557080390E+03  0.12387581309E+03  0.00000000000E+00 0.  1.
         14    1    3    3    0    0  0.10673804533E+02 -0.28434925793E+01 -0.11677402304E+02  0.16074118260E+02  0.00000000000E+00 0. -1.
        -13    1    4    4    0    0  0.29891307018E+02 -0.59247929956E+02 -0.22621713578E+02  0.70110978916E+02  0.00000000000E+00 0.  1.
         13    1    4    4    0    0 -0.38709806077E+02 -0.12339973013E+02 -0.61607483419E+02  0.73798414845E+02  0.00000000000E+00 0. -1.
         21    1    1    2  502  501 -0.36732818321E+02  0.46643530358E+02 -0.27565818308E+01  0.59434986409E+02  0.00000000000E+00 0. -1.
<scales pt_clust_5="13000.00000" pt_clust_6="13000.00000" pt_clust_7="13000.00000" pt_clust_8="13000.00000" pt_clust_9="59.37103"></scales>
<clustering>
<clus scale="   59.371">  2  9  1 -1</clus>
<clus scale="   78.070">  5  6 -1 -1</clus>
<clus scale="   91.721">  7  8 -1 -1</clus>
<clus scale="   93.374">  1  5  2 -1</clus>
<clus scale="   59.371">  2  5  1 -1</clus>
</clustering>
</event>
<event>
 9    2  0.3402837E-005  0.1016833E+03  0.7546771E-02  0.1279647E+00
         -1   -1    0    0    0  501 -0.00000000000E+00  0.00000000000E+00  0.30065639268E+03  0.30065639268E+03  0.00000000000E+00 0.  1.
          2   -1    0    0  502    0  0.00000000000E+00 -0.00000000000E+00 -0.13223798114E+03  0.13223798114E+03  0.00000000000E+00 0. -1.
         23    2    1    2    0    0 -0.18712464676E+02  0.51197388829E+02  0.24339444441E+03  0.26370753431E+03  0.85612377162E+02 0.  0.
         24    2    1    2    0    0  0.45031993527E+02 -0.32621277618E+02 -0.91357570276E+02  0.13304622145E+03  0.79139517311E+02 0.  0.
        -11    1    4    4    0    0 -0.39788092615E+01  0.20676869270E+02 -0.77347449241E+01  0.22431899719E+02  0.00000000000E+00 0.  1.
         12    1    4    4    0    0  0.49010802789E+02 -0.53298146888E+02 -0.83622825352E+02  0.11061432173E+03  0.00000000000E+00 0. -1.
        -13    1    3    3    0    0  0.25477467831E+02  0.49623077038E+02  0.15774939613E+03  0.16732131700E+03  0.00000000000E+00 0.  1.
         13    1    3    3    0    0 -0.44189932507E+02  0.15743117906E+01  0.85645048278E+02  0.96386217309E+02  0.00000000000E+00 0. -1.
         21    1    1    2  502  501 -0.26319528852E+02 -0.18576111211E+02  0.16381537403E+02  0.36140618069E+02  0.00000000000E+00 0.  1.
<scales pt_clust_5="13000.00000" pt_clust_6="13000.00000" pt_clust_7="13000.00000" pt_clust_8="13000.00000" pt_clust_9="32.21474"></scales>
<clustering>
<clus scale="   32.215">  1  9  2 -1</clus>
<clus scale="   79.140">  5  6 -1 -1</clus>
<clus scale="   85.612">  7  8 -1 -1</clus>
<clus scale="   96.297">  2  5  1 -1</clus>
<clus scale="   96.297">  2  5  1 -1</clus>
</clustering>
</event>
<event>
 9    2  0.3402837E-005  0.1698015E+03  0.7546771E-02  0.1182462E+00
          2   -1    0    0  502    0  0.00000000000E+00  0.00000000000E+00  0.11008746819E+04  0.11008746819E+04  0.00000000000E+00 0. -1.
         -1   -1    0    0    0  501 -0.00000000000E+00 -0.00000000000E+00 -0.53668028246E+02  0.53668028246E+02  0.00000000000E+00 0.  1.
         23    2    1    2    0    0  0.47256304581E+02 -0.59598253077E+02  0.17306308688E+03  0.21774061016E+03  0.10805105820E+03 0.  0.
         24    2    1    2    0    0 -0.10607474879E+03  0.11031909593E+03  0.82924312163E+03  0.84708998678E+03  0.80592404620E+02 0.  0.
        -11    1    4    4    0    0 -0.21316218614E+02  0.78490833917E+02  0.44020968524E+03  0.44766031672E+03  0.00000000000E+00 0.  1.
         12    1    4    4    0    0 -0.84758530172E+02  0.31828262013E+02  0.38903343639E+03  0.39942967007E+03  0.00000000000E+00 0. -1.
        -13    1    3    3    0    0  0.79782414054E+02 -0.24433467519E+02  0.98173457436E+02  0.12884197946E+03  0.00000000000E+00 0.  1.
         13    1    3    3    0    0 -0.32526109473E+02 -0.35164785557E+02  0.74889629443E+02  0.88898630692E+02  0.00000000000E+00 0. -1.
         21    1    1    2  502  501  0.58818444205E+02 -0.50720842854E+02  0.44900445109E+02  0.89712113171E+02  0.00000000000E+00 0.  1.
<scales pt_clust_5="13000.00000" pt_clust_6="13000.00000" pt_clust_7="13000.00000" pt_clust_8="13000.00000" pt_clust_9="77.66732"></scales>
<clustering>
<clus scale="   77.667">  2  9  1 -1</clus>
<clus scale="   80.592">  5  6 -1 -1</clus>
<clus scale="  108.051">  7  8 -1 -1</clus>
<clus scale="  153.794">  1  5  2 -1</clus>
<clus scale="  153.794">  1  5  2 -1</clus>
</clustering>
</event>
<event>
 9    2  0.3402837E-005  0.9792881E+02  0.7546771E-02  0.1291706E+00
          2   -1    0    0  502    0  0.00000000000E+00  0.00000000000E+00  0.90731900363E+03  0.90731900363E+03  0.00000000000E+00 0. -1.
         -1   -1    0    0    0  501 -0.00000000000E+00 -0.00000000000E+00 -0.63998480755E+02  0.63998480755E+02  0.00000000000E+00 0.  1.
         23    2    1    2    0    0  0.12287870293E+02 -0.62723038248E+01  0.22325597136E+03  0.24245926578E+03  0.93557112312E+02 0.  0.
         24    2    1    2    0    0 -0.33846975774E+02 -0.38598797278E+01  0.66884347922E+03  0.67457341445E+03  0.80852800490E+02 0.  0.
        -13    1    4    4    0    0 -0.66569995499E+01 -0.33248600761E+02  0.13364843344E+03  0.13788288094E+03  0.00000000000E+00 0.  1.
         14    1    4    4    0    0 -0.27189976224E+02  0.29388721033E+02  0.53519504578E+03  0.53669053351E+03  0.00000000000E+00 0. -1.
        -13    1    3    3    0    0  0.49108804609E+02  0.44879142941E+00  0.17275413254E+03  0.17959918267E+03  0.00000000000E+00 0.  1.
         13    1    3    3    0    0 -0.36820934317E+02 -0.67210952543E+01  0.50501838816E+02  0.62860083115E+02  0.00000000000E+00 0. -1.
         21    1    1    2  502  501  0.21559105482E+02  0.10132183553E+02 -0.48778927711E+02  0.54284804147E+02  0.00000000000E+00 0.  1.
<scales pt_clust_5="13000.00000" pt_clust_6="13000.00000" pt_clust_7="13000.00000" pt_clust_8="13000.00000" pt_clust_9="23.82134"></scales>
<clustering>
<clus scale="   23.821">  2  9  1 -1</clus>
<clus scale="   80.853">  5  6 -1 -1</clus>
<clus scale="   85.874">  1  5  2 -1</clus>
<clus scale="   93.557">  7  8 -1 -1</clus>
<clus scale="   85.874">  1  5  2 -1</clus>
</clustering>
</event>
<event>
 9    2  0.3402837E-005  0.9625108E+02  0.7546771E-02  0.1297687E+00
          2   -1    0    0  502    0  0.00000000000E+00  0.00000000000E+00  0.17351096809E+03  0.17351096809E+03  0.00000000000E+00 0. -1.
         -1   -1    0    0    0  501 -0.00000000000E+00 -0.00000000000E+00 -0.16375647774E+03  0.16375647774E+03  0.00000000000E+00 0.  1.
         23    2    1    2    0    0  0.16269253224E+02 -0.43440440933E+02 -0.98372816466E+02  0.13859552538E+03  0.85905460397E+02 0.  0.
         24    2    1    2    0    0 -0.34521871298E+02  0.26828613483E+02  0.13791430858E+03  0.15998889638E+03  0.68297557473E+02 0.  0.
        -13    1    4    4    0    0 -0.38312126171E+02 -0.13474169982E+02  0.69118874216E+02  0.80167269140E+02  0.00000000000E+00 0.  1.
         14    1    4    4    0    0  0.37902548737E+01  0.40302783465E+02  0.68795434360E+02  0.79821627244E+02  0.00000000000E+00 0. -1.
        -11    1    3    3    0    0 -0.35549185766E+02 -0.18806503528E+02 -0.38682893077E+02  0.55801392459E+02  0.00000000000E+00 0. -1.
         11    1    3    3    0    0  0.51818438989E+02 -0.24633937405E+02 -0.59689923389E+02  0.82794132917E+02  0.00000000000E+00 0.  1.
         21    1    1    2  502  501  0.18252618074E+02  0.16611827450E+02 -0.29787001757E+02  0.38683024073E+02  0.00000000000E+00 0. -1.
<scales pt_clust_5="13000.00000" pt_clust_6="13000.00000" pt_clust_7="13000.00000" pt_clust_8="13000.00000" pt_clust_9="24.68017"></scales>
<clustering>
<clus scale="   24.680">  2  9  1 -1</clus>
<clus scale="   68.298">  5  6 -1 -1</clus>
<clus scale="   80.926">  1  5  2 -1</clus>
<clus scale="   85.905">  7  8 -1 -1</clus>
<clus scale="   80.926">  1  5  2 -1</clus>
</clustering>
</event>
<event>
 9    2  0.3402837E-005  0.1073184E+03  0.7546771E-02  0.1270743E+00
         -1   -1    0    0    0  501 -0.00000000000E+00  0.00000000000E+00  0.29409956290E+03  0.29409956290E+03  0.00000000000E+00 0.  1.
          2   -1    0    0  502    0  0.00000000000E+00 -0.00000000000E+00 -0.52348622530E+02  0.52348622530E+02  0.00000000000E+00 0. -1.
         23    2    1    2    0    0  0.10259130083E+02  0.54899765586E+02  0.17467041440E+03  0.20562258343E+03  0.93014295352E+02 0.  0.
         24    2    1    2    0    0 -0.28922373650E+02 -0.45321736471E+02  0.36865906013E+02  0.10404274510E+03  0.81087818369E+02 0.  0.
        -11    1    4    4    0    0 -0.56875168569E+02 -0.33466311708E+02  0.31825742112E+02  0.73264293350E+02  0.00000000000E+00 0.  1.
         12    1    4    4    0    0  0.27952794919E+02 -0.11855424763E+02  0.50401639017E+01  0.30778451752E+02  0.00000000000E+00 0. -1.
        -13    1    3    3    0    0 -0.32575908619E+02 -0.12416871428E+01  0.87888201610E+02  0.93739359885E+02  0.00000000000E+00 0.  1.
         13    1    3    3    0    0  0.42835038702E+02  0.56141452729E+02  0.86782212789E+02  0.11188322355E+03  0.00000000000E+00 0. -1.
         21    1    1    2  502  501  0.18663243567E+02 -0.95780291146E+01  0.30214619957E+02  0.36782856894E+02  0.00000000000E+00 0. -1.
<scales pt_clust_5="13000.00000" pt_clust_6="13000.00000" pt_clust_7="13000.00000" pt_clust_8="13000.00000" pt_clust_9="20.97750"></scales>
<clustering>
<clus scale="   20.977">  1  9  2 -1</clus>
<clus scale="   81.088">  5  6 -1 -1</clus>
<clus scale="   93.014">  7  8 -1 -1</clus>
<clus scale="   97.164">  2  5  1 -1</clus>
<clus scale="   97.164">  2  5  1 -1</clus>
</clustering>
</event>
<event>
 9    2  0.3402837E-005  0.1310186E+03  0.7546771E-02  0.1228711E+00
         -1   -1    0    0    0  501 -0.00000000000E+00  0.00000000000E+00  0.24021726541E+03  0.24021726541E+03  0.00000000000E+00 0.  1.
          2   -1    0    0  502    0  0.00000000000E+00 -0.00000000000E+00 -0.16812407359E+03  0.16812407359E+03  0.00000000000E+00 0. -1.
         24    2    1    2    0    0 -0.36125521381E+02  0.73546778169E+02  0.66298162850E+02  0.13274281928E+03  0.80690939998E+02 0.  0.
         23    2    1    2    0    0 -0.43513538738E+02 -0.13820272592E+03  0.18006985218E+02  0.17229361494E+03  0.91473584864E+02 0.  0.
        -11    1    3    3    0    0 -0.29788292419E+01  0.28697952755E+02  0.71136493773E+02  0.76764879094E+02  0.00000000000E+00 0.  1.
         12    1    3    3    0    0 -0.33146692140E+02  0.44848825414E+02 -0.48383309232E+01  0.55977940181E+02  0.00000000000E+00 0. -1.
        -11    1    4    4    0    0  0.25046247738E+02 -0.66260465153E+02 -0.22475615925E+01  0.70871823041E+02  0.00000000000E+00 0. -1.
         11    1    4    4    0    0 -0.68559786476E+02 -0.71942260764E+02  0.20254546811E+02  0.10142179190E+03  0.00000000000E+00 0.  1.
         21    1    1    2  502  501  0.79639060120E+02  0.64655947748E+02 -0.12211956250E+02  0.10330490478E+03  0.00000000000E+00 0. -1.
<scales pt_clust_5="13000.00000" pt_clust_6="13000.00000" pt_clust_7="13000.00000" pt_clust_8="13000.00000" pt_clust_9="102.58056"></scales>
<clustering>
<clus scale="   80.691">  5  6 -1 -1</clus>
<clus scale="   91.474">  7  8 -1 -1</clus>
<clus scale="  102.581">  2  9  1 -1</clus>
<clus scale="  123.732">  1  5  2 -1</clus>
<clus scale="  102.581">  2  5  1 -1</clus>
</clustering>
</event>
<event>
 9    2  0.3402837E-005  0.1223538E+03  0.7546771E-02  0.1241878E+00
         -3   -1    0    0    0  501 -0.00000000000E+00  0.00000000000E+00  0.79965482396E+02  0.79965482396E+02  0.00000000000E+00 0.  1.
          4   -1    0    0  502    0  0.00000000000E+00 -0.00000000000E+00 -0.90067625788E+03  0.90067625788E+03  0.00000000000E+00 0. -1.
         23    2    1    2    0    0  0.10582816498E+03 -0.87957510847E+01  0.12690328603E+01  0.13955273703E+03  0.90533917545E+02 0.  0.
         24    2    1    2    0    0 -0.79621922650E+02  0.14465682691E+02 -0.79415977566E+03  0.80245133406E+03  0.81789288532E+02 0.  0.
        -11    1    4    4    0    0 -0.34640612396E+02 -0.10216948145E+02 -0.98678064125E+02  0.10507958125E+03  0.00000000000E+00 0.  1.
         12    1    4    4    0    0 -0.44981310253E+02  0.24682630836E+02 -0.69548171154E+03  0.69737175281E+03  0.00000000000E+00 0. -1.
        -13    1    3    3    0    0  0.54317894595E+02  0.18832175044E+02 -0.38199208674E+02  0.69023648363E+02  0.00000000000E+00 0. -1.
         13    1    3    3    0    0  0.51510270390E+02 -0.27627926129E+02  0.39468241534E+02  0.70529088663E+02  0.00000000000E+00 0.  1.
         21    1    1    2  502  501 -0.26206242335E+02 -0.56699316061E+01 -0.27820032683E+02  0.38637669187E+02  0.00000000000E+00 0. -1.
<scales pt_clust_5="13000.00000" pt_clust_6="13000.00000" pt_clust_7="13000.00000" pt_clust_8="13000.00000" pt_clust_9="26.81260"></scales>
<clustering>
<clus scale="   26.813">  1  9  2 -1</clus>
<clus scale="   81.789">  5  6 -1 -1</clus>
<clus scale="   90.534">  7  8 -1 -1</clus>
<clus scale="  116.033">  2  5  1 -1</clus>
<clus scale="  116.033">  2  5  1 -1</clus>
</clustering>
</event>
<event>
 9    2  0.3402837E-005  0.9244410E+02  0.7546771E-02  0.1301065E+00
          2   -1    0    0  502    0  0.00000000000E+00  0.00000000000E+00  0.43904285037E+02  0.43904285037E+02  0.00000000000E+00 0. -1.
         -1   -1    0    0    0  501 -0.00000000000E+00 -0.00000000000E+00 -0.47521580371E+03  0.47521580371E+03  0.00000000000E+00 0.  1.
         23    2    1    2    0    0  0.10241606546E+02 -0.11546410737E+02 -0.34469128103E+03  0.35692995279E+03  0.91371231123E+02 0.  0.
         24    2    1    2    0    0  0.41125668934E+00 -0.17988802369E+02 -0.20435392565E+02  0.88935470394E+02  0.84664907029E+02 0.  0.
        -11    1    4    4    0    0 -0.27018211757E+02 -0.42106869964E+02 -0.12059699050E+02  0.51462691398E+02  0.00000000000E+00 0.  1.
         12    1    4    4    0    0  0.27429468447E+02  0.24118067595E+02 -0.83756935155E+01  0.37472778996E+02  0.00000000000E+00 0. -1.
        -13    1    3    3    0    0  0.33857708849E+02  0.28722553970E+02 -0.13533646927E+03  0.14243345628E+03  0.00000000000E+00 0. -1.
         13    1    3    3    0    0 -0.23616102303E+02 -0.40268964707E+02 -0.20935481176E+03  0.21449649651E+03  0.00000000000E+00 0.  1.
         21    1    1    2  502  501 -0.10652863235E+02  0.29535213106E+02 -0.66184845076E+02  0.73254665558E+02  0.00000000000E+00 0. -1.
<scales pt_clust_5="13000.00000" pt_clust_6="13000.00000" pt_clust_7="13000.00000" pt_clust_8="13000.00000" pt_clust_9="31.39765"></scales>
<clustering>
<clus scale="   31.398">  2  9  1 -1</clus>
<clus scale="   84.665">  5  6 -1 -1</clus>
<clus scale="   85.822">  1  5  2 -1</clus>
<clus scale="   91.371">  7  8 -1 -1</clus>
<clus scale="   85.822">  1  5  2 -1</clus>
</clustering>
</event>
<event>
 9    2  0.3402837E-005  0.1068084E+03  0.7546771E-02  0.1270972E+00
         -1   -1    0    0    0  501 -0.00000000000E+00  0.00000000000E+00  0.24937077832E+03  0.24937077832E+03  0.00000000000E+00 0.  1.
          2   -1    0    0  502    0  0.00000000000E+00 -0.00000000000E+00 -0.20409495566E+03  0.20409495566E+03  0.00000000000E+00 0. -1.
         23    2    1    2    0    0  0.15518591848E+01 -0.79110675655E+02  0.13276521815E+03  0.17912843123E+03  0.90551004707E+02 0.  0.
         24    2    1    2    0    0  0.12514744044E+01  0.54739274306E+02 -0.16588798003E+03  0.19219010597E+03  0.80126528547E+02 0.  0.
        -11    1    4    4    0    0 -0.25142344278E+02  0.64059164715E+02 -0.11162295601E+03  0.13113122575E+03  0.00000000000E+00 0.  1.
         12    1    4    4    0    0  0.26393818683E+02 -0.93198904088E+01 -0.54265024017E+02  0.61058880218E+02  0.00000000000E+00 0. -1.
        -13    1    3    3    0    0  0.84504327042E+01 -0.98632868497E+02  0.10289624301E+03  0.14278476595E+03  0.00000000000E+00 0.  1.
         13    1    3    3    0    0 -0.68985735194E+01  0.19522192842E+02  0.29868975143E+02  0.36343665281E+02  0.00000000000E+00 0. -1.
         21    1    1    2  502  501 -0.28033335892E+01  0.24371401349E+02  0.78398584528E+02  0.82147196781E+02  0.00000000000E+00 0.  1.
<scales pt_clust_5="13000.00000" pt_clust_6="13000.00000" pt_clust_7="13000.00000" pt_clust_8="13000.00000" pt_clust_9="24.53210"></scales>
<clustering>
<clus scale="   24.532">  1  9  2 -1</clus>
<clus scale="   80.127">  5  6 -1 -1</clus>
<clus scale="   90.551">  7  8 -1 -1</clus>
<clus scale="   98.127">  2  5  1 -1</clus>
<clus scale="   98.127">  2  5  1 -1</clus>
</clustering>
</event>
<event>
 9    2  0.3402837E-005  0.1150096E+03  0.7546771E-02  0.1251729E+00
          2   -1    0    0  502    0  0.00000000000E+00  0.00000000000E+00  0.40456010316E+03  0.40456010316E+03  0.00000000000E+00 0. -1.
         -1   -1    0    0    0  501 -0.00000000000E+00 -0.00000000000E+00 -0.18138124038E+03  0.18138124038E+03  0.00000000000E+00 0.  1.
         24    2    1    2    0    0 -0.53159315304E+02 -0.10340105628E+03 -0.11856326400E+03  0.18996479043E+03  0.92258781641E+02 0.  0.
         23    2    1    2    0    0  0.28304225681E+02  0.59306804768E+02  0.32273517088E+03  0.34190860634E+03  0.91788225172E+02 0.  0.
        -13    1    3    3    0    0 -0.46539963779E+02 -0.10592256498E+03 -0.58795106227E+02  0.12977835920E+03  0.00000000000E+00 0.  1.
         14    1    3    3    0    0 -0.66193515255E+01  0.25215087032E+01 -0.59768157770E+02  0.60186431228E+02  0.00000000000E+00 0. -1.
        -13    1    4    4    0    0 -0.16784582885E+02  0.18886978867E+02  0.17526433776E+02  0.30750871114E+02  0.00000000000E+00 0.  1.
         13    1    4    4    0    0  0.45088808566E+02  0.40419825901E+02  0.30520873711E+03  0.31115773522E+03  0.00000000000E+00 0. -1.
         21    1    1    2  502  501  0.24855089623E+02  0.44094251507E+02  0.19006955901E+02  0.54067946778E+02  0.00000000000E+00 0. -1.
<scales pt_clust_5="13000.00000" pt_clust_6="13000.00000" pt_clust_7="13000.00000" pt_clust_8="13000.00000" pt_clust_9="50.61698"></scales>
<clustering>
<clus scale="   50.617">  2  9  1 -1</clus>
<clus scale="   91.788">  7  8 -1 -1</clus>
<clus scale="   92.259">  5  6 -1 -1</clus>
<clus scale="  114.632">  1  7  2 -1</clus>
<clus scale="  114.632">  1  5  2 -1</clus>
</clustering>
</event>
<event>
 9    2  0.3402837E-005  0.1261019E+03  0.7546771E-02  0.1236593E+00
          2   -1    0    0  502    0  0.00000000000E+00  0.00000000000E+00  0.30105737424E+03  0.30105737424E+03  0.00000000000E+00 0. -1.
         -1   -1    0    0    0  501 -0.00000000000E+00 -0.00000000000E+00 -0.73313954621E+02  0.73313954621E+02  0.00000000000E+00 0.  1.
         24    2    1    2    0    0  0.16929482521E+02  0.10068488648E+03  0.68695237810E+02  0.14682844058E+03  0.80096825919E+02 0.  0.
         23    2    1    2    0    0 -0.20783238875E+02 -0.76136395577E+02  0.16240475951E+03  0.20246807108E+03  0.91593231976E+02 0.  0.
        -13    1    3    3    0    0  0.42355229025E+01  0.27480153899E+02 -0.17638018167E+02  0.32927165038E+02  0.00000000000E+00 0.  1.
         14    1    3    3    0    0  0.12693959619E+02  0.73204732581E+02  0.86333255977E+02  0.11390127554E+03  0.00000000000E+00 0. -1.
        -11    1    4    4    0    0  0.27118102387E+01 -0.67961097736E+02  0.42928881045E+02  0.80429805097E+02  0.00000000000E+00 0.  1.
         11    1    4    4    0    0 -0.23495049114E+02 -0.81752978405E+01  0.11947587847E+03  0.12203826598E+03  0.00000000000E+00 0. -1.
         21    1    1    2  502  501  0.38537563535E+01 -0.24548490904E+02 -0.33565777053E+01  0.25074817199E+02  0.00000000000E+00 0.  1.
<scales pt_clust_5="13000.00000" pt_clust_6="13000.00000" pt_clust_7="13000.00000" pt_clust_8="13000.00000" pt_clust_9="24.84914"></scales>
<clustering>
<clus scale="   24.849">  2  9  1 -1</clus>
<clus scale="   80.097">  5  6 -1 -1</clus>
<clus scale="   91.593">  7  8 -1 -1</clus>
<clus scale="  118.016">  2  5  1 -1</clus>
<clus scale="  126.102">  1  5  2 -1</clus>
</clustering>
</event>
<event>
 9    2  0.3402837E-005  0.9998861E+02  0.7546771E-02  0.1287132E+00
          2   -1    0    0  502    0  0.00000000000E+00  0.00000000000E+00  0.46754375067E+03  0.46754375067E+03  0.00000000000E+00 0. -1.
         -1   -1    0    0    0  501 -0.00000000000E+00 -0.00000000000E+00 -0.57413469551E+02  0.57413469551E+02  0.00000000000E+00 0.  1.
         24    2    1    2    0    0 -0.19353951587E+02  0.19793145203E+02  0.13399619978E+03  0.15876651266E+03  0.80532477588E+02 0.  0.
         23    2    1    2    0    0  0.42075988899E+02 -0.76182011216E+01  0.30827412468E+03  0.32498994751E+03  0.93579400548E+02 0.  0.
        -11    1    3    3    0    0 -0.11230040587E+02 -0.28819384957E+02  0.79414058459E+02  0.85224781852E+02  0.00000000000E+00 0.  1.
         12    1    3    3    0    0 -0.81239110000E+01  0.48612530159E+02  0.54582141323E+02  0.73541730805E+02  0.00000000000E+00 0. -1.
        -13    1    4    4    0    0  0.52240354873E+02 -0.40442534910E+02  0.16690658716E+03  0.17950616186E+03  0.00000000000E+00 0.  1.
         13    1    4    4    0    0 -0.10164365974E+02  0.32824333788E+02  0.14136753752E+03  0.14548378566E+03  0.00000000000E+00 0. -1.
         21    1    1    2  502  501 -0.22722037312E+02 -0.12174944081E+02 -0.32140043340E+02  0.41200760052E+02  0.00000000000E+00 0.  1.
<scales pt_clust_5="13000.00000" pt_clust_6="13000.00000" pt_clust_7="13000.00000" pt_clust_8="13000.00000" pt_clust_9="25.77829"></scales>
<clustering>
<clus scale="   25.778">  2  9  1 -1</clus>
<clus scale="   80.532">  5  6 -1 -1</clus>
<clus scale="   87.898">  2  5  1 -1</clus>
<clus scale="   93.579">  7  8 -1 -1</clus>
<clus scale="   99.989">  1  5  2 -1</clus>
</clustering>
</event>
<event>
 9    2  0.3402837E-005  0.9812683E+02  0.7546771E-02  0.1291022E+00
         -1   -1    0    0    0  501 -0.00000000000E+00  0.00000000000E+00  0.16575269650E+03  0.16575269650E+03  0.00000000000E+00 0.  1.
          2   -1    0    0  502    0  0.00000000000E+00 -0.00000000000E+00 -0.14669883404E+03  0.14669883404E+03  0.00000000000E+00 0. -1.
         24    2    1    2    0    0 -0.60140282426E+02  0.11229996742E+02  0.61543520619E+02  0.11784959625E+03  0.79736792064E+02 0.  0.
         23    2    1    2    0    0  0.10384615824E+02 -0.30290491120E+02 -0.82601205171E+02  0.12790961833E+03  0.92263520791E+02 0.  0.
        -11    1    3    3    0    0 -0.73670818913E+02  0.23233753408E+02  0.63032046974E+02  0.99700731203E+02  0.00000000000E+00 0.  1.
         12    1    3    3    0    0  0.13530536487E+02 -0.12003756666E+02 -0.14885263547E+01  0.18148865045E+02  0.00000000000E+00 0. -1.
        -11    1    4    4    0    0  0.39615632923E+02 -0.48873909512E+02 -0.50325612578E+02  0.80565033881E+02  0.00000000000E+00 0. -1.
         11    1    4    4    0    0 -0.29231017099E+02  0.18583418393E+02 -0.32275592593E+02  0.47344584453E+02  0.00000000000E+00 0.  1.
         21    1    1    2  502  501  0.49755666602E+02  0.19060494378E+02  0.40111547011E+02  0.66692315963E+02  0.00000000000E+00 0. -1.
<scales pt_clust_5="13000.00000" pt_clust_6="13000.00000" pt_clust_7="13000.00000" pt_clust_8="13000.00000" pt_clust_9="53.28160"></scales>
<clustering>
<clus scale="   53.282">  1  9  2 -1</clus>
<clus scale="   79.737">  5  6 -1 -1</clus>
<clus scale="   86.454">  1  5  2 -1</clus>
<clus scale="   92.264">  7  8 -1 -1</clus>
<clus scale="   98.127">  2  5  1 -1</clus>
</clustering>
</event>
<event>
 9    2  0.3402837E-005  0.1254445E+03  0.7546771E-02  0.1236509E+00
         -1   -1    0    0    0  501 -0.00000000000E+00  0.00000000000E+00  0.86247001632E+02  0.86247001632E+02  0.00000000000E+00 0.  1.
          2   -1    0    0  502    0  0.00000000000E+00 -0.00000000000E+00 -0.37581706060E+03  0.37581706060E+03  0.00000000000E+00 0. -1.
         23    2    1    2    0    0  0.69831880174E+02 -0.82086652545E+02 -0.16463808792E+02  0.14019429541E+03  0.88140078568E+02 0.  0.
         24    2    1    2    0    0 -0.56766172994E+02  0.64172732320E+02 -0.27557640567E+03  0.29956006243E+03  0.80332668777E+02 0.  0.
        -11    1    4    4    0    0 -0.17741459426E+02 -0.13250635702E+02 -0.20593885495E+02  0.30239822235E+02  0.00000000000E+00 0.  1.
         12    1    4    4    0    0 -0.39024713568E+02  0.77423368022E+02 -0.25498252017E+03  0.26932024020E+03  0.00000000000E+00 0. -1.
        -13    1    3    3    0    0  0.14773931092E+02 -0.68696076257E+02  0.19697979819E+02  0.72975546192E+02  0.00000000000E+00 0.  1.
         13    1    3    3    0    0  0.55057949083E+02 -0.13390576287E+02 -0.36161788611E+02  0.67218749215E+02  0.00000000000E+00 0. -1.
         21    1    1    2  502  501 -0.13065707180E+02  0.17913920225E+02  0.24701554923E+01  0.22309704393E+02  0.00000000000E+00 0. -1.
<scales pt_clust_5="13000.00000" pt_clust_6="13000.00000" pt_clust_7="13000.00000" pt_clust_8="13000.00000" pt_clust_9="22.17253"></scales>
<clustering>
<clus scale="   22.173">  1  9  2 -1</clus>
<clus scale="   80.333">  5  6 -1 -1</clus>
<clus scale="   88.140">  7  8 -1 -1</clus>
<clus scale="  120.087">  2  5  1 -1</clus>
<clus scale="  120.087">  2  5  1 -1</clus>
</clustering>
</event>
<event>
 9    2  0.3402837E-005  0.1375892E+03  0.7546771E-02  0.1221502E+00
          2   -1    0    0  502    0  0.00000000000E+00  0.00000000000E+00  0.32109552742E+03  0.32109552742E+03  0.00000000000E+00 0. -1.
         -1   -1    0    0    0  501 -0.00000000000E+00 -0.00000000000E+00 -0.25497023492E+03  0.25497023492E+03  0.00000000000E+00 0.  1.
         23    2    1    2    0    0  0.19083890423E+02 -0.11695390515E+03 -0.19389674293E+03  0.24795695082E+03  0.99218404243E+02 0.  0.
         24    2    1    2    0    0 -0.92754516553E+01  0.93489184956E+02  0.27306723115E+03  0.29952602481E+03  0.79522733264E+02 0.  0.
        -13    1    4    4    0    0  0.19301992106E+02  0.55992427071E+01  0.14069432279E+02  0.24532984792E+02  0.00000000000E+00 0.  1.
         14    1    4    4    0    0 -0.28577443761E+02  0.87889942249E+02  0.25899779887E+03  0.27499304002E+03  0.00000000000E+00 0. -1.
        -13    1    3    3    0    0 -0.37038392800E+02 -0.60382011360E+02 -0.63463161223E+02  0.95107321850E+02  0.00000000000E+00 0.  1.
         13    1    3    3    0    0  0.56122283223E+02 -0.56571893786E+02 -0.13043358170E+03  0.15284962897E+03  0.00000000000E+00 0. -1.
         21    1    1    2  502  501 -0.98084387678E+01  0.23464720189E+02 -0.13045195716E+02  0.28582786706E+02  0.00000000000E+00 0. -1.
<scales pt_clust_5="13000.00000" pt_clust_6="13000.00000" pt_clust_7="13000.00000" pt_clust_8="13000.00000" pt_clust_9="25.43223"></scales>
<clustering>
<clus scale="   25.432">  2  9  1 -1</clus>
<clus scale="   79.523">  5  6 -1 -1</clus>
<clus scale="   99.218">  7  8 -1 -1</clus>
<clus scale="  124.138">  1  5  2 -1</clus>
<clus scale="  124.138">  1  5  2 -1</clus>
</clustering>
</event>
<event>
 9    2  0.3402837E-005  0.9301442E+02  0.7546771E-02  0.1302356E+00
          2   -1    0    0  502    0  0.00000000000E+00  0.00000000000E+00  0.65785728208E+02  0.65785728208E+02  0.00000000000E+00 0. -1.
         -1   -1    0    0    0  501 -0.00000000000E+00 -0.00000000000E+00 -0.18712027486E+03  0.18712027486E+03  0.00000000000E+00 0.  1.
         23    2    1    2    0    0 -0.13779058204E+02 -0.17127618320E+02 -0.10199221352E+03  0.13967622673E+03  0.92864519264E+02 0.  0.
         24    2    1    2    0    0 -0.44415048466E+01  0.12452731359E+01  0.58768998266E-01  0.82235574141E+02  0.82106080956E+02 0.  0.
        -11    1    4    4    0    0 -0.20008652215E+02  0.15024928879E+02 -0.34071194001E+02  0.42272223882E+02  0.00000000000E+00 0.  1.
         12    1    4    4    0    0  0.15567147369E+02 -0.13779655743E+02  0.34129962999E+02  0.39963350259E+02  0.00000000000E+00 0. -1.
        -13    1    3    3    0    0 -0.11070913350E+02  0.38006041431E+02 -0.34711651585E+02  0.52649055674E+02  0.00000000000E+00 0.  1.
         13    1    3    3    0    0 -0.27081448543E+01 -0.55133659751E+02 -0.67280561940E+02  0.87027171051E+02  0.00000000000E+00 0. -1.
         21    1    1    2  502  501  0.18220563051E+02  0.15882345184E+02 -0.19401102125E+02  0.30994202201E+02  0.00000000000E+00 0.  1.
<scales pt_clust_5="13000.00000" pt_clust_6="13000.00000" pt_clust_7="13000.00000" pt_clust_8="13000.00000" pt_clust_9="24.17101"></scales>
<clustering>
<clus scale="   24.171">  2  9  1 -1</clus>
<clus scale="   82.106">  5  6 -1 -1</clus>
<clus scale="   82.276">  1  5  2 -1</clus>
<clus scale="   92.865">  7  8 -1 -1</clus>
<clus scale="   82.276">  1  5  2 -1</clus>
</clustering>
</event>
<event>
 9    2  0.3402837E-005  0.1011181E+03  0.7546771E-02  0.1283286E+00
         -1   -1    0    0    0  501 -0.00000000000E+00  0.00000000000E+00  0.87525845056E+03  0.87525845056E+03  0.00000000000E+00 0.  1.
          2   -1    0    0  502    0  0.00000000000E+00 -0.00000000000E+00 -0.19084581576E+02  0.19084581576E+02  0.00000000000E+00 0. -1.
         24    2    1    2    0    0  0.32751328513E+02 -0.54297171214E+02  0.26199490504E+03  0.28126961659E+03  0.80314597847E+02 0.  0.
         23    2    1    2    0    0 -0.24974757471E+02  0.93572395576E+01  0.28221262304E+03  0.29779089086E+03  0.91236799785E+02 0.  0.
        -11    1    3    3    0    0  0.17381758292E+02  0.17094491179E+02  0.10962899257E+03  0.11230700407E+03  0.00000000000E+00 0.  1.
         12    1    3    3    0    0  0.15369570221E+02 -0.71391662393E+02  0.15236591247E+03  0.16896261252E+03  0.00000000000E+00 0. -1.
        -11    1    4    4    0    0 -0.51366458654E+02  0.28557693827E+02  0.21768546831E+03  0.22547952915E+03  0.00000000000E+00 0.  1.
         11    1    4    4    0    0  0.26391701184E+02 -0.19200454269E+02  0.64527154726E+02  0.72311361711E+02  0.00000000000E+00 0. -1.
         21    1    1    2  502  501 -0.77765710429E+01  0.44939931656E+02  0.31196634090E+03  0.31528252468E+03  0.00000000000E+00 0.  1.
<scales pt_clust_5="13000.00000" pt_clust_6="13000.00000" pt_clust_7="13000.00000" pt_clust_8="13000.00000" pt_clust_9="45.60781"></scales>
<clustering>
<clus scale="   45.608">  1  9  2 -1</clus>
<clus scale="   80.315">  5  6 -1 -1</clus>
<clus scale="   91.237">  7  8 -1 -1</clus>
<clus scale="   91.385">  1  5  2 -1</clus>
<clus scale="  101.118">  2  5  1 -1</clus>
</clustering>
</event>
<event>
 9    2  0.3402837E-005  0.1149971E+03  0.7546771E-02  0.1254615E+00
          2   -1    0    0  502    0  0.00000000000E+00  0.00000000000E+00  0.17709012415E+03  0.17709012415E+03  0.00000000000E+00 0. -1.
         -1   -1    0    0    0  501 -0.00000000000E+00 -0.00000000000E+00 -0.15742288141E+03  0.15742288141E+03  0.00000000000E+00 0.  1.
         23    2    1    2    0    0  0.94444047059E+02 -0.29966101013E+02 -0.31296535716E+02  0.13688715090E+03  0.89112141143E+02 0.  0.
         24    2    1    2    0    0 -0.66457941476E+02 -0.52541864179E+01  0.90213020088E+02  0.13792498599E+03  0.80253649798E+02 0.  0.
        -11    1    4    4    0    0 -0.37734684424E+02  0.98721411577E+01 -0.30987940838E+01  0.39127587510E+02  0.00000000000E+00 0.  1.
         12    1    4    4    0    0 -0.28723257052E+02 -0.15126327576E+02  0.93311814172E+02  0.98797398477E+02  0.00000000000E+00 0. -1.
        -13    1    3    3    0    0  0.75108369813E+02  0.76849000182E+01  0.11874818976E+02  0.76428634882E+02  0.00000000000E+00 0. -1.
         13    1    3    3    0    0  0.19335677245E+02 -0.37651001031E+02 -0.43171354692E+02  0.60458516018E+02  0.00000000000E+00 0.  1.
         21    1    1    2  502  501 -0.27986105583E+02  0.35220287431E+02 -0.39249241625E+02  0.59700868675E+02  0.00000000000E+00 0.  1.
<scales pt_clust_5="13000.00000" pt_clust_6="13000.00000" pt_clust_7="13000.00000" pt_clust_8="13000.00000" pt_clust_9="44.98545"></scales>
<clustering>
<clus scale="   44.985">  2  9  1 -1</clus>
<clus scale="   80.254">  5  6 -1 -1</clus>
<clus scale="   89.112">  7  8 -1 -1</clus>
<clus scale="  108.277">  1  5  2 -1</clus>
<clus scale="  108.277">  1  5  2 -1</clus>
</clustering>
</event>
<event>
 9    2  0.3402837E-005  0.1500921E+03  0.7546771E-02  0.1202425E+00
         -1   -1    0    0    0  501 -0.00000000000E+00  0.00000000000E+00  0.27515812029E+03  0.27515812029E+03  0.00000000000E+00 0.  1.
          2   -1    0    0  502    0  0.00000000000E+00 -0.00000000000E+00 -0.25909763420E+03  0.25909763420E+03  0.00000000000E+00 0. -1.
         23    2    1    2    0    0  0.98658003018E+02  0.66778615596E+02  0.14278357000E+03  0.20764456044E+03  0.92392264597E+02 0.  0.
         24    2    1    2    0    0 -0.15073467680E+03  0.35546888101E+02 -0.11897426530E+03  0.21153498953E+03  0.81287464877E+02 0.  0.
        -11    1    4    4    0    0 -0.65239654458E+02  0.11825105028E+02 -0.10129628752E+03  0.12106602946E+03  0.00000000000E+00 0.  1.
         12    1    4    4    0    0 -0.85495022347E+02  0.23721783073E+02 -0.17677977780E+02  0.90468960073E+02  0.00000000000E+00 0. -1.
        -11    1    3    3    0    0  0.14218693861E+02 -0.18143880303E+02  0.53540872855E+02  0.58292338379E+02  0.00000000000E+00 0. -1.
         11    1    3    3    0    0  0.84439309157E+02  0.84922495899E+02  0.89242697142E+02  0.14935222206E+03  0.00000000000E+00 0.  1.
         21    1    1    2  502  501  0.52076673787E+02 -0.10232550370E+03 -0.77488186061E+01  0.11507620453E+03  0.00000000000E+00 0. -1.
<scales pt_clust_5="13000.00000" pt_clust_6="13000.00000" pt_clust_7="13000.00000" pt_clust_8="13000.00000" pt_clust_9="114.81502"></scales>
<clustering>
<clus scale="   81.287">  5  6 -1 -1</clus>
<clus scale="   92.392">  7  8 -1 -1</clus>
<clus scale="  114.815">  2  9  1 -1</clus>
<clus scale="  143.523">  2  5  1 -1</clus>
<clus scale="  114.815">  2  5  1 -1</clus>
</clustering>
</event>
<event>
 9    2  0.3402837E-005  0.9500597E+02  0.7546771E-02  0.1296895E+00
          2   -1    0    0  502    0  0.00000000000E+00  0.00000000000E+00  0.22400287128E+03  0.22400287128E+03  0.00000000000E+00 0. -1.
         -1   -1    0    0    0  501 -0.00000000000E+00 -0.00000000000E+00 -0.17363128917E+03  0.17363128917E+03  0.00000000000E+00 0.  1.
         24    2    1    2    0    0 -0.47934190898E+00 -0.13765480753E+02 -0.12839594928E+03  0.15227985671E+03  0.80708839289E+02 0.  0.
         23    2    1    2    0    0  0.21374711710E+02  0.20046991613E+02  0.19570522743E+03  0.21773258394E+03  0.90819501733E+02 0.  0.
        -13    1    3    3    0    0 -0.30492280914E+02 -0.19903692387E+02 -0.24317697920E+02  0.43786831332E+02  0.00000000000E+00 0.  1.
         14    1    3    3    0    0  0.30012939005E+02  0.61382116334E+01 -0.10407825136E+03  0.10849302538E+03  0.00000000000E+00 0. -1.
        -11    1    4    4    0    0  0.29381997734E+02  0.43476315569E+02  0.59662475695E+02  0.79455036419E+02  0.00000000000E+00 0. -1.
         11    1    4    4    0    0 -0.80072860238E+01 -0.23429323956E+02  0.13604275173E+03  0.13827754753E+03  0.00000000000E+00 0.  1.
         21    1    1    2  502  501 -0.20895369801E+02 -0.62815108597E+01 -0.16937696042E+02  0.27621719806E+02  0.00000000000E+00 0.  1.
<scales pt_clust_5="13000.00000" pt_clust_6="13000.00000" pt_clust_7="13000.00000" pt_clust_8="13000.00000" pt_clust_9="21.81912"></scales>
<clustering>
<clus scale="   21.819">  2  9  1 -1</clus>
<clus scale="   80.709">  5  6 -1 -1</clus>
<clus scale="   85.392">  2  5  1 -1</clus>
<clus scale="   90.820">  7  8 -1 -1</clus>
<clus scale="   95.006">  1  5  2 -1</clus>
</clustering>
</event>
<event>
 9    2  0.3402837E-005  0.1379604E+03  0.7546771E-02  0.1241633E+00
          2   -1    0    0  502    0  0.00000000000E+00  0.00000000000E+00  0.46086251232E+03  0.46086251232E+03  0.00000000000E+00 0. -1.
         -1   -1    0    0    0  501 -0.00000000000E+00 -0.00000000000E+00 -0.15055753146E+03  0.15055753146E+03  0.00000000000E+00 0.  1.
         23    2    1    2    0    0 -0.92570472176E+02 -0.32394083723E+01  0.49811969621E+02  0.13973110219E+03  0.91998709314E+02 0.  0.
         24    2    1    2    0    0 -0.13232563514E+02  0.55792339514E+01  0.33339848191E+03  0.34317837860E+03  0.80066367544E+02 0.  0.
        -11    1    4    4    0    0  0.98384463523E+01  0.39228852339E+02  0.15741757237E+03  0.16252996638E+03  0.00000000000E+00 0.  1.
         12    1    4    4    0    0 -0.23071009866E+02 -0.33649618388E+02  0.17598090955E+03  0.18064841222E+03  0.00000000000E+00 0. -1.
        -13    1    3    3    0    0 -0.45103753851E+02  0.39497907902E+02  0.46322868403E+02  0.75764381322E+02  0.00000000000E+00 0. -1.
         13    1    3    3    0    0 -0.47466718325E+02 -0.42737316274E+02  0.34891012183E+01  0.63966720865E+02  0.00000000000E+00 0.  1.
         21    1    1    2  502  501  0.10580303569E+03 -0.23398255791E+01 -0.72905470681E+02  0.12851056299E+03  0.00000000000E+00 0.  1.
<scales pt_clust_5="13000.00000" pt_clust_6="13000.00000" pt_clust_7="13000.00000" pt_clust_8="13000.00000" pt_clust_9="102.80721"></scales>
<clustering>
<clus scale="   80.066">  5  6 -1 -1</clus>
<clus scale="   81.344">  1  5  2 -1</clus>
<clus scale="   91.999">  7  8 -1 -1</clus>
<clus scale="  102.807">  2  9  1 -1</clus>
<clus scale="   81.344">  1  5  2 -1</clus>
</clustering>
</event>
<event>
 9    2  0.3402837E-005  0.1951270E+03  0.7546771E-02  0.1162618E+00
          2   -1    0    0  502    0  0.00000000000E+00  0.00000000000E+00  0.12901455578E+04  0.12901455578E+04  0.00000000000E+00 0. -1.
         -1   -1    0    0    0  501 -0.00000000000E+00 -0.00000000000E+00 -0.77529938898E+02  0.77529938898E+02  0.00000000000E+00 0.  1.
         24    2    1    2    0    0  0.12703554069E+03 -0.82017430117E+02  0.17282892705E+03  0.24316545413E+03  0.79966947017E+02 0.  0.
         23    2    1    2    0    0  0.44027438316E+02 -0.12371722559E+03  0.43278323078E+03  0.46115305490E+03  0.90091331254E+02 0.  0.
        -13    1    3    3    0    0  0.12603337287E+03 -0.62074042799E+02  0.17342238590E+03  0.22318808615E+03  0.00000000000E+00 0.  1.
         14    1    3    3    0    0  0.10021678143E+01 -0.19943387318E+02 -0.59345884828E+00  0.19977367981E+02  0.00000000000E+00 0. -1.
        -13    1    4    4    0    0  0.25261348146E+02 -0.13438227173E+03  0.35475960246E+03  0.38019877197E+03  0.00000000000E+00 0.  1.
         13    1    4    4    0    0  0.18766090170E+02  0.10665046141E+02  0.78023628323E+02  0.80954282939E+02  0.00000000000E+00 0. -1.
         21    1    1    2  502  501 -0.17106297900E+03  0.20573465570E+03  0.60700346110E+03  0.66335698770E+03  0.00000000000E+00 0. -1.
<scales pt_clust_5="13000.00000" pt_clust_6="13000.00000" pt_clust_7="13000.00000" pt_clust_8="13000.00000" pt_clust_9="177.98827"></scales>
<clustering>
<clus scale="   79.967">  5  6 -1 -1</clus>
<clus scale="   90.091">  7  8 -1 -1</clus>
<clus scale="  159.251">  1  7  2 -1</clus>
<clus scale="  177.988">  1  9  2 -1</clus>
<clus scale="  159.251">  1  5  2 -1</clus>
</clustering>
</event>
<event>
 9    2  0.3402837E-005  0.1045843E+03  0.7546771E-02  0.1277940E+00
         -1   -1    0    0    0  501 -0.00000000000E+00  0.00000000000E+00  0.86548566893E+02  0.86548566893E+02  0.00000000000E+00 0.  1.
          2   -1    0    0  502    0  0.00000000000E+00 -0.00000000000E+00 -0.21198847857E+03  0.21198847857E+03  0.00000000000E+00 0. -1.
         23    2    1    2    0    0  0.24962340489E+02  0.25826943491E+02  0.24023867066E+02  0.10578918858E+03  0.96561155641E+02 0.  0.
         24    2    1    2    0    0 -0.42193179682E+02 -0.36906415747E+02 -0.13500034978E+03  0.16767102889E+03  0.82134837638E+02 0.  0.
        -13    1    4    4    0    0 -0.21626933082E+02  0.17457823468E+01  0.38898874747E+01  0.22043212450E+02  0.00000000000E+00 0.  1.
         14    1    4    4    0    0 -0.20566246600E+02 -0.38652198093E+02 -0.13889023726E+03  0.14562781644E+03  0.00000000000E+00 0. -1.
        -13    1    3    3    0    0  0.75219383614E+01  0.45326261279E+02 -0.23449987861E+02  0.51584410910E+02  0.00000000000E+00 0. -1.
         13    1    3    3    0    0  0.17440402127E+02 -0.19499317788E+02  0.47473854927E+02  0.54204777670E+02  0.00000000000E+00 0.  1.
         21    1    1    2  502  501  0.17230839194E+02  0.11079472255E+02 -0.14463428961E+02  0.25076827991E+02  0.00000000000E+00 0. -1.
<scales pt_clust_5="13000.00000" pt_clust_6="13000.00000" pt_clust_7="13000.00000" pt_clust_8="13000.00000" pt_clust_9="20.48552"></scales>
<clustering>
<clus scale="   20.486">  2  9  1 -1</clus>
<clus scale="   82.135">  5  6 -1 -1</clus>
<clus scale="   91.433">  2  5  1 -1</clus>
<clus scale="   96.561">  7  8 -1 -1</clus>
<clus scale="   20.486">  2  5  1 -1</clus>
</clustering>
</event>
<event>
 9    2  0.3402837E-005  0.1688198E+03  0.7546771E-02  0.1183709E+00
          2   -1    0    0  502    0  0.00000000000E+00  0.00000000000E+00  0.63642603947E+03  0.63642603947E+03  0.00000000000E+00 0. -1.
         -1   -1    0    0    0  501 -0.00000000000E+00 -0.00000000000E+00 -0.47195423162E+02  0.47195423162E+02  0.00000000000E+00 0.  1.
         24    2    1    2    0    0 -0.10460534958E+03  0.66135045333E+02  0.23493262704E+03  0.27809437489E+03  0.82625775116E+02 0.  0.
         23    2    1    2    0    0  0.99334257142E+02 -0.87792500191E+02  0.33131285272E+03  0.37350918231E+03  0.11029997806E+03 0.  0.
        -13    1    3    3    0    0  0.43991955644E+01  0.35207785450E+02  0.54240971356E+02  0.64815307231E+02  0.00000000000E+00 0.  1.
         14    1    3    3    0    0 -0.10900454514E+03  0.30927259883E+02  0.18069165569E+03  0.21327906766E+03  0.00000000000E+00 0. -1.
        -13    1    4    4    0    0  0.94985920660E+02 -0.52929186049E+02  0.31776392621E+03  0.33585374296E+03  0.00000000000E+00 0. -1.
         13    1    4    4    0    0  0.43483364815E+01 -0.34863314142E+02  0.13548926510E+02  0.37655439350E+02  0.00000000000E+00 0.  1.
         21    1    1    2  502  501  0.52710924353E+01  0.21657454858E+02  0.22985136543E+02  0.32017905432E+02  0.00000000000E+00 0.  1.
<scales pt_clust_5="13000.00000" pt_clust_6="13000.00000" pt_clust_7="13000.00000" pt_clust_8="13000.00000" pt_clust_9="22.28968"></scales>
<clustering>
<clus scale="   22.290">  2  9  1 -1</clus>
<clus scale="   82.626">  5  6 -1 -1</clus>
<clus scale="  110.300">  7  8 -1 -1</clus>
<clus scale="  152.188">  2  5  1 -1</clus>
<clus scale="  168.820">  1  5  2 -1</clus>
</clustering>
</event>
<event>
 9    2  0.3402837E-005  0.1314540E+03  0.7546771E-02  0.1227549E+00
         -1   -1    0    0    0  501 -0.00000000000E+00  0.00000000000E+00  0.30163370370E+02  0.30163370370E+02  0.00000000000E+00 0.  1.
          2   -1    0    0  502    0  0.00000000000E+00 -0.00000000000E+00 -0.90239010944E+03  0.90239010944E+03  0.00000000000E+00 0. -1.
         23    2    1    2    0    0  0.57178172535E+02  0.48959526469E+02 -0.18470714787E+03  0.21828993732E+03  0.88698295432E+02 0.  0.
         24    2    1    2    0    0 -0.96482669373E+02 -0.45858911727E+02 -0.63367981818E+03  0.64753140299E+03  0.79591837655E+02 0.  0.
        -13    1    4    4    0    0 -0.13550089449E+02  0.21824630594E+02 -0.14583400138E+03  0.14807928749E+03  0.00000000000E+00 0.  1.
         14    1    4    4    0    0 -0.82932579924E+02 -0.67683542321E+02 -0.48784581680E+03  0.49945211551E+03  0.00000000000E+00 0. -1.
        -11    1    3    3    0    0  0.19556264463E+02  0.66904010594E+02 -0.83084266892E+02  0.10845086223E+03  0.00000000000E+00 0.  1.
         11    1    3    3    0    0  0.37621908072E+02 -0.17944484126E+02 -0.10162288098E+03  0.10983907509E+03  0.00000000000E+00 0. -1.
         21    1    1    2  502  501  0.39304496838E+02 -0.31006147416E+01 -0.53839773023E+02  0.66732139503E+02  0.00000000000E+00 0. -1.
<scales pt_clust_5="13000.00000" pt_clust_6="13000.00000" pt_clust_7="13000.00000" pt_clust_8="13000.00000" pt_clust_9="39.42661"></scales>
<clustering>
<clus scale="   39.427">  1  9  2 -1</clus>
<clus scale="   79.592">  5  6 -1 -1</clus>
<clus scale="   88.698">  7  8 -1 -1</clus>
<clus scale="  125.490">  2  5  1 -1</clus>
<clus scale="  125.490">  2  5  1 -1</clus>
</clustering>
</event>
<event>
 9    2  0.3402837E-005  0.1626005E+03  0.7546771E-02  0.1187598E+00
          2   -1    0    0  502    0  0.00000000000E+00  0.00000000000E+00  0.98345683205E+03  0.98345683205E+03  0.00000000000E+00 0. -1.
         -1   -1    0    0    0  501 -0.00000000000E+00 -0.00000000000E+00 -0.36693520824E+02  0.36693520824E+02  0.00000000000E+00 0.  1.
         23    2    1    2    0    0 -0.97337834635E+02 -0.85657688309E+02  0.29907871199E+03  0.33871397638E+03  0.92017325630E+02 0.  0.
         24    2    1    2    0    0  0.74761774181E+02  0.12372469011E+03  0.46638280937E+03  0.49481077765E+03  0.80172682276E+02 0.  0.
        -11    1    4    4    0    0  0.75281339119E+02  0.47597205200E+02  0.26029066384E+03  0.27510725844E+03  0.00000000000E+00 0.  1.
         12    1    4    4    0    0 -0.51956493755E+00  0.76127484910E+02  0.20609214553E+03  0.21970351921E+03  0.00000000000E+00 0. -1.
        -11    1    3    3    0    0 -0.80247826744E+02 -0.12110888258E+02  0.12589968163E+03  0.14979024383E+03  0.00000000000E+00 0. -1.
         11    1    3    3    0    0 -0.17090007891E+02 -0.73546800052E+02  0.17317903036E+03  0.18892373256E+03  0.00000000000E+00 0.  1.
         21    1    1    2  502  501  0.22576060454E+02 -0.38067001800E+02  0.18130178987E+03  0.18662559884E+03  0.00000000000E+00 0. -1.
<scales pt_clust_5="13000.00000" pt_clust_6="13000.00000" pt_clust_7="13000.00000" pt_clust_8="13000.00000" pt_clust_9="44.25805"></scales>
<clustering>
<clus scale="   44.258">  1  9  2 -1</clus>
<clus scale="   80.173">  5  6 -1 -1</clus>
<clus scale="   92.017">  7  8 -1 -1</clus>
<clus scale="  156.203">  1  5  2 -1</clus>
<clus scale="   44.258">  1  5  2 -1</clus>
</clustering>
</event>
<event>
 9    2  0.3402837E-005  0.1013902E+03  0.7546771E-02  0.1283719E+00
          2   -1    0    0  502    0  0.00000000000E+00  0.00000000000E+00  0.18167073636E+03  0.18167073636E+03  0.00000000000E+00 0. -1.
         -1   -1    0    0    0  501 -0.00000000000E+00 -0.00000000000E+00 -0.15993498725E+03  0.15993498725E+03  0.00000000000E+00 0.  1.
         23    2    1    2    0    0  0.50174957984E+02  0.69500062543E+01 -0.11473999094E+03  0.15503781033E+03  0.91135218857E+02 0.  0.
         24    2    1    2    0    0 -0.80750105689E+01  0.73365112213E+01  0.10803354320E+03  0.13379037340E+03  0.78163849488E+02 0.  0.
        -11    1    4    4    0    0  0.14016697095E+02 -0.31197369089E+02  0.41247442441E+02  0.53582601126E+02  0.00000000000E+00 0.  1.
         12    1    4    4    0    0 -0.22091707664E+02  0.38533880310E+02  0.66786100758E+02  0.80207772278E+02  0.00000000000E+00 0. -1.
        -11    1    3    3    0    0  0.75504692543E+02  0.13906355501E+02 -0.95195053508E+02  0.12229653933E+03  0.00000000000E+00 0.  1.
         11    1    3    3    0    0 -0.25329734560E+02 -0.69563492469E+01 -0.19544937432E+02  0.32741271003E+02  0.00000000000E+00 0. -1.
         21    1    1    2  502  501 -0.42099947415E+02 -0.14286517476E+02  0.28442196848E+02  0.52777539877E+02  0.00000000000E+00 0. -1.
<scales pt_clust_5="13000.00000" pt_clust_6="13000.00000" pt_clust_7="13000.00000" pt_clust_8="13000.00000" pt_clust_9="44.45796"></scales>
<clustering>
<clus scale="   44.458">  1  9  2 -1</clus>
<clus scale="   78.164">  5  6 -1 -1</clus>
<clus scale="   89.911">  1  5  2 -1</clus>
<clus scale="   91.135">  7  8 -1 -1</clus>
<clus scale="   44.458">  1  5  2 -1</clus>
</clustering>
</event>
<event>
 9    2  0.3402837E-005  0.8911087E+02  0.7546771E-02  0.1307841E+00
         -1   -1    0    0    0  501 -0.00000000000E+00  0.00000000000E+00  0.92619013974E+02  0.92619013974E+02  0.00000000000E+00 0.  1.
          2   -1    0    0  502    0  0.00000000000E+00 -0.00000000000E+00 -0.17498176843E+03  0.17498176843E+03  0.00000000000E+00 0. -1.
         24    2    1    2    0    0  0.39480304181E+02 -0.17126611832E+02  0.26150733028E+02  0.94725288874E+02  0.80230943303E+02 0.  0.
         23    2    1    2    0    0 -0.23789287228E+02 -0.13232199455E+01 -0.11759884120E+03  0.14700759919E+03  0.84935656058E+02 0.  0.
        -13    1    3    3    0    0  0.36523427682E+02  0.26715217078E+02  0.37574442416E+01  0.45406849488E+02  0.00000000000E+00 0.  1.
         14    1    3    3    0    0  0.29568764988E+01 -0.43841828911E+02  0.22393288786E+02  0.49318439386E+02  0.00000000000E+00 0. -1.
        -11    1    4    4    0    0 -0.69135050728E+01  0.23587779857E+02  0.10504594036E+01  0.24602507513E+02  0.00000000000E+00 0.  1.
         11    1    4    4    0    0 -0.16875782155E+02 -0.24910999803E+02 -0.11864930060E+03  0.12240509168E+03  0.00000000000E+00 0. -1.
         21    1    1    2  502  501 -0.15691016953E+02  0.18449831778E+02  0.90853537134E+01  0.25867894343E+02  0.00000000000E+00 0. -1.
<scales pt_clust_5="13000.00000" pt_clust_6="13000.00000" pt_clust_7="13000.00000" pt_clust_8="13000.00000" pt_clust_9="24.21992"></scales>
<clustering>
<clus scale="   24.220">  1  9  2 -1</clus>
<clus scale="   80.231">  5  6 -1 -1</clus>
<clus scale="   84.639">  1  5  2 -1</clus>
<clus scale="   84.936">  7  8 -1 -1</clus>
<clus scale="   89.111">  2  5  1 -1</clus>
</clustering>
</event>
<event>
 9    2  0.3402837E-005  0.9916992E+02  0.7546771E-02  0.1292219E+00
         -1   -1    0    0    0  501 -0.00000000000E+00  0.00000000000E+00  0.65803799009E+02  0.65803799009E+02  0.00000000000E+00 0.  1.
          2   -1    0    0  502    0  0.00000000000E+00 -0.00000000000E+00 -0.30225901701E+03  0.30225901701E+03  0.00000000000E+00 0. -1.
         23    2    1    2    0    0  0.11476991699E+02  0.37735036614E+02 -0.19426146408E+02  0.10679590852E+03  0.97325929665E+02 0.  0.
         24    2    1    2    0    0 -0.90087007420E+01 -0.13084923076E+02 -0.22165122290E+03  0.23606601783E+03  0.79658824137E+02 0.  0.
        -13    1    4    4    0    0  0.10562246308E+02 -0.43289318321E+02 -0.10729020268E+03  0.11617535762E+03  0.00000000000E+00 0.  1.
         14    1    4    4    0    0 -0.19570947050E+02  0.30204395245E+02 -0.11436102022E+03  0.11989066021E+03  0.00000000000E+00 0. -1.
        -11    1    3    3    0    0 -0.24213166701E+02 -0.23393810595E+02 -0.11454627860E+02  0.35563412593E+02  0.00000000000E+00 0.  1.
         11    1    3    3    0    0  0.35690158400E+02  0.61128847209E+02 -0.79715185481E+01  0.71232495925E+02  0.00000000000E+00 0. -1.
         21    1    1    2  502  501 -0.24682909566E+01 -0.24650113538E+02  0.46221512986E+01  0.25200889673E+02  0.00000000000E+00 0.  1.
<scales pt_clust_5="13000.00000" pt_clust_6="13000.00000" pt_clust_7="13000.00000" pt_clust_8="13000.00000" pt_clust_9="24.77338"></scales>
<clustering>
<clus scale="   24.773">  1  9  2 -1</clus>
<clus scale="   79.659">  5  6 -1 -1</clus>
<clus scale="   81.902">  2  5  1 -1</clus>
<clus scale="   97.326">  7  8 -1 -1</clus>
<clus scale="   81.902">  2  5  1 -1</clus>
</clustering>
</event>
<event>
 9    2  0.3402837E-005  0.1114964E+03  0.7546771E-02  0.1261798E+00
          4   -1    0    0  502    0  0.00000000000E+00  0.00000000000E+00  0.17040871922E+03  0.17040871922E+03  0.00000000000E+00 0. -1.
         -3   -1    0    0    0  501 -0.00000000000E+00 -0.00000000000E+00 -0.33364443366E+03  0.33364443366E+03  0.00000000000E+00 0.  1.
         23    2    1    2    0    0  0.40317260027E+02 -0.14921519423E+02 -0.26097922531E+03  0.28035179953E+03  0.92945372437E+02 0.  0.
         24    2    1    2    0    0 -0.57253779875E+02  0.25700707178E+02  0.14153335657E+03  0.17552888009E+03  0.82705350875E+02 0.  0.
        -13    1    4    4    0    0  0.21448349640E+02  0.89022414305E+01  0.35353010071E+02  0.42297954157E+02  0.00000000000E+00 0.  1.
         14    1    4    4    0    0 -0.78702129515E+02  0.16798465747E+02  0.10618034650E+03  0.13323092593E+03  0.00000000000E+00 0. -1.
        -13    1    3    3    0    0  0.34109436874E+02  0.30734113981E+02 -0.68707072035E+02  0.82635955817E+02  0.00000000000E+00 0. -1.
         13    1    3    3    0    0  0.62078231532E+01 -0.45655633405E+02 -0.19227215327E+03  0.19771584371E+03  0.00000000000E+00 0.  1.
         21    1    1    2  502  501  0.16936519848E+02 -0.10779187755E+02 -0.43789845707E+02  0.48172473263E+02  0.00000000000E+00 0. -1.
<scales pt_clust_5="13000.00000" pt_clust_6="13000.00000" pt_clust_7="13000.00000" pt_clust_8="13000.00000" pt_clust_9="20.07577"></scales>
<clustering>
<clus scale="   20.076">  2  9  1 -1</clus>
<clus scale="   82.705">  5  6 -1 -1</clus>
<clus scale="   92.945">  7  8 -1 -1</clus>
<clus scale="  103.115">  1  5  2 -1</clus>
<clus scale="  103.115">  1  5  2 -1</clus>
</clustering>
</event>
<event>
 9    2  0.3402837E-005  0.1354505E+03  0.7546771E-02  0.1223287E+00
          2   -1    0    0  502    0  0.00000000000E+00  0.00000000000E+00  0.42064058873E+03  0.42064058873E+03  0.00000000000E+00 0. -1.
         -1   -1    0    0    0  501 -0.00000000000E+00 -0.00000000000E+00 -0.75868683628E+02  0.75868683628E+02  0.00000000000E+00 0.  1.
         23    2    1    2    0    0  0.68866003604E+02 -0.60185773454E+02  0.55454815482E+02  0.14349229342E+03  0.95655360185E+02 0.  0.
         24    2    1    2    0    0 -0.31489036075E+02  0.95658151710E+02  0.26760208848E+03  0.29709856877E+03  0.80713322492E+02 0.  0.
        -11    1    4    4    0    0  0.10216430738E+02  0.63922728257E+02  0.83332618194E+02  0.10552163712E+03  0.00000000000E+00 0.  1.
         12    1    4    4    0    0 -0.41705466813E+02  0.31735423453E+02  0.18426947029E+03  0.19157693166E+03  0.00000000000E+00 0. -1.
        -11    1    3    3    0    0  0.71269207327E+02 -0.83001884413E+02  0.45869959121E+02  0.11862826762E+03  0.00000000000E+00 0.  1.
         11    1    3    3    0    0 -0.24032037228E+01  0.22816110960E+02  0.95848563613E+01  0.24864025799E+02  0.00000000000E+00 0. -1.
         21    1    1    2  502  501 -0.37376967529E+02 -0.35472378256E+02  0.21715001143E+02  0.55918410166E+02  0.00000000000E+00 0.  1.
<scales pt_clust_5="13000.00000" pt_clust_6="13000.00000" pt_clust_7="13000.00000" pt_clust_8="13000.00000" pt_clust_9="51.52987"></scales>
<clustering>
<clus scale="   51.530">  2  9  1 -1</clus>
<clus scale="   80.713">  5  6 -1 -1</clus>
<clus scale="   95.655">  7  8 -1 -1</clus>
<clus scale="  125.346">  1  5  2 -1</clus>
<clus scale="  125.346">  1  5  2 -1</clus>
</clustering>
</event>
<event>
 9    2  0.3402837E-005  0.1242337E+03  0.7546771E-02  0.1252718E+00
          2   -1    0    0  502    0  0.00000000000E+00  0.00000000000E+00  0.48055456369E+03  0.48055456369E+03  0.00000000000E+00 0. -1.
         -1   -1    0    0    0  501 -0.00000000000E+00 -0.00000000000E+00 -0.14759693954E+03  0.14759693954E+03  0.00000000000E+00 0.  1.
         23    2    1    2    0    0 -0.85045648767E+02  0.15644734560E+02 -0.96578707555E+02  0.15651561469E+03  0.87705021495E+02 0.  0.
         24    2    1    2    0    0 -0.50473456785E+01  0.31565122663E+02  0.24802421633E+03  0.26356819212E+03  0.83248707754E+02 0.  0.
        -11    1    4    4    0    0  0.19528149099E+02  0.53043699584E+02  0.15513031195E+03  0.16510722685E+03  0.00000000000E+00 0.  1.
         12    1    4    4    0    0 -0.24575494777E+02 -0.21478576922E+02  0.92893904383E+02  0.98460965268E+02  0.00000000000E+00 0. -1.
        -11    1    3    3    0    0 -0.90123272476E+02  0.39447139819E+02 -0.71876837655E+02  0.12183825702E+03  0.00000000000E+00 0.  1.
         11    1    3    3    0    0  0.50776237092E+01 -0.23802405260E+02 -0.24701869900E+02  0.34677357674E+02  0.00000000000E+00 0. -1.
         21    1    1    2  502  501  0.90092994446E+02 -0.47209857222E+02  0.18151211537E+03  0.20806769642E+03  0.00000000000E+00 0. -1.
<scales pt_clust_5="13000.00000" pt_clust_6="13000.00000" pt_clust_7="13000.00000" pt_clust_8="13000.00000" pt_clust_9="87.98777"></scales>
<clustering>
<clus scale="   83.249">  5  6 -1 -1</clus>
<clus scale="   87.705">  7  8 -1 -1</clus>
<clus scale="   89.175">  1  5  2 -1</clus>
<clus scale="   87.988">  1  9  2 -1</clus>
<clus scale="   89.175">  1  5  2 -1</clus>
</clustering>
</event>
<event>
 9    2  0.3402837E-005  0.1029057E+03  0.7546771E-02  0.1278763E+00
          2   -1    0    0  502    0  0.00000000000E+00  0.00000000000E+00  0.46296591286E+03  0.46296591286E+03  0.00000000000E+00 0. -1.
         -1   -1    0    0    0  501 -0.00000000000E+00 -0.00000000000E+00 -0.14687740067E+03  0.14687740067E+03  0.00000000000E+00 0.  1.
         23    2    1    2    0    0 -0.42593010532E+02  0.37105984743E+02 -0.39423704257E+02  0.11389350952E+03  0.90699969148E+02 0.  0.
         24    2    1    2    0    0  0.45672958497E+02 -0.15813358472E+02  0.41870152984E+03  0.42919838949E+03  0.81019781569E+02 0.  0.
        -11    1    4    4    0    0 -0.10092761453E+02 -0.29310378840E+02  0.82412345332E+02  0.88049740514E+02  0.00000000000E+00 0.  1.
         12    1    4    4    0    0  0.55765719950E+02  0.13497020367E+02  0.33628918451E+03  0.34114864898E+03  0.00000000000E+00 0. -1.
        -11    1    3    3    0    0 -0.50656924423E+02 -0.11153109330E+02 -0.39113299237E+02  0.64964344197E+02  0.00000000000E+00 0.  1.
         11    1    3    3    0    0  0.80639138903E+01  0.48259094073E+02 -0.31040501973E+00  0.48929165324E+02  0.00000000000E+00 0. -1.
         21    1    1    2  502  501 -0.30799479648E+01 -0.21292626271E+02 -0.63189313390E+02  0.66751414515E+02  0.00000000000E+00 0.  1.
<scales pt_clust_5="13000.00000" pt_clust_6="13000.00000" pt_clust_7="13000.00000" pt_clust_8="13000.00000" pt_clust_9="21.51423"></scales>
<clustering>
<clus scale="   21.514">  2  9  1 -1</clus>
<clus scale="   81.020">  5  6 -1 -1</clus>
<clus scale="   90.700">  7  8 -1 -1</clus>
<clus scale="   94.484">  1  5  2 -1</clus>
<clus scale="   94.484">  1  5  2 -1</clus>
</clustering>
</event>
<event>
 9    2  0.3402837E-005  0.1047934E+03  0.7546771E-02  0.1273346E+00
         -1   -1    0    0    0  501 -0.00000000000E+00  0.00000000000E+00  0.38576287187E+03  0.38576287187E+03  0.00000000000E+00 0.  1.
          2   -1    0    0  502    0  0.00000000000E+00 -0.00000000000E+00 -0.22568431706E+03  0.22568431706E+03  0.00000000000E+00 0. -1.
         24    2    1    2    0    0  0.22608791277E+01  0.57975469524E+02  0.35094805054E+03  0.36496160117E+03  0.81646613567E+02 0.  0.
         23    2    1    2    0    0  0.34382854745E+01 -0.13572423462E+02 -0.17913434436E+03  0.20020573518E+03  0.88301702041E+02 0.  0.
        -13    1    3    3    0    0 -0.26399149816E+02  0.52460591631E+02  0.13735100241E+03  0.14937980669E+03  0.00000000000E+00 0.  1.
         14    1    3    3    0    0  0.28660028943E+02  0.55148778925E+01  0.21359704814E+03  0.21558179448E+03  0.00000000000E+00 0. -1.
        -13    1    4    4    0    0  0.28040694343E+02  0.24226803428E+02 -0.12148278292E+03  0.12700899610E+03  0.00000000000E+00 0. -1.
         13    1    4    4    0    0 -0.24602408869E+02 -0.37799226891E+02 -0.57651561442E+02  0.73196739083E+02  0.00000000000E+00 0.  1.
         21    1    1    2  502  501 -0.56991646023E+01 -0.44403046061E+02 -0.11735151374E+02  0.46279852576E+02  0.00000000000E+00 0. -1.
<scales pt_clust_5="13000.00000" pt_clust_6="13000.00000" pt_clust_7="13000.00000" pt_clust_8="13000.00000" pt_clust_9="44.76730"></scales>
<clustering>
<clus scale="   44.767">  2  9  1 -1</clus>
<clus scale="   81.647">  5  6 -1 -1</clus>
<clus scale="   88.302">  7  8 -1 -1</clus>
<clus scale="   99.250">  1  5  2 -1</clus>
<clus scale="   44.767">  2  5  1 -1</clus>
</clustering>
</event>
<event>
 9    2  0.3402837E-005  0.3367551E+03  0.7546771E-02  0.1068485E+00
         -1   -1    0    0    0  501 -0.00000000000E+00  0.00000000000E+00  0.23869697012E+03  0.23869697012E+03  0.00000000000E+00 0.  1.
          2   -1    0    0  502    0  0.00000000000E+00 -0.00000000000E+00 -0.17760350233E+04  0.17760350233E+04  0.00000000000E+00 0. -1.
         24    2    1    2    0    0 -0.18701323211E+03  0.25777167842E+03 -0.16109581223E+03  0.36587714712E+03  0.80585599756E+02 0.  0.
         23    2    1    2    0    0  0.16858836781E+03 -0.27826106475E+03 -0.14920371552E+04  0.15298264769E+04  0.91339580599E+02 0.  0.
        -13    1    3    3    0    0 -0.13371939308E+03  0.19611496967E+03 -0.78916722279E+02  0.25013957398E+03  0.00000000000E+00 0.  1.
         14    1    3    3    0    0 -0.53293839026E+02  0.61656708755E+02 -0.82179089948E+02  0.11573757314E+03  0.00000000000E+00 0. -1.
        -11    1    4    4    0    0  0.43242417904E+02 -0.94901940979E+02 -0.30912926000E+03  0.32624712182E+03  0.00000000000E+00 0.  1.
         11    1    4    4    0    0  0.12534594991E+03 -0.18335912377E+03 -0.11829078952E+04  0.12035793551E+04  0.00000000000E+00 0. -1.
         21    1    1    2  502  501  0.18424864292E+02  0.20489386324E+02  0.11579491421E+03  0.11902836945E+03  0.00000000000E+00 0.  1.
<scales pt_clust_5="13000.00000" pt_clust_6="13000.00000" pt_clust_7="13000.00000" pt_clust_8="13000.00000" pt_clust_9="27.55523"></scales>
<clustering>
<clus scale="   27.555">  1  9  2 -1</clus>
<clus scale="   80.586">  5  6 -1 -1</clus>
<clus scale="   91.340">  7  8 -1 -1</clus>
<clus scale="  333.999">  1  5  2 -1</clus>
<clus scale="  336.755">  2  5  1 -1</clus>
</clustering>
</event>
<event>
 9    2  0.3402837E-005  0.1443431E+03  0.7546771E-02  0.1210059E+00
         -1   -1    0    0    0  501 -0.00000000000E+00  0.00000000000E+00  0.34475243490E+03  0.34475243490E+03  0.00000000000E+00 0.  1.
          2   -1    0    0  502    0  0.00000000000E+00 -0.00000000000E+00 -0.10858699404E+03  0.10858699404E+03  0.00000000000E+00 0. -1.
         24    2    1    2    0    0 -0.52009550536E+02 -0.10639963256E+03  0.19615252860E+03  0.24320436898E+03  0.81527145525E+02 0.  0.
         23    2    1    2    0    0  0.61812869665E+02  0.88568728502E+02 -0.22348467563E+02  0.14453789615E+03  0.93415731530E+02 0.  0.
        -11    1    3    3    0    0 -0.62831383473E+02 -0.11289800401E+03  0.18820841110E+03  0.22828961446E+03  0.00000000000E+00 0.  1.
         12    1    3    3    0    0  0.10821832938E+02  0.64983714497E+01  0.79441174984E+01  0.14914754522E+02  0.00000000000E+00 0. -1.
        -13    1    4    4    0    0  0.27087557162E+01  0.63753721193E+02 -0.43280980369E+02  0.77104588613E+02  0.00000000000E+00 0. -1.
         13    1    4    4    0    0  0.59104113949E+02  0.24815007309E+02  0.20932512806E+02  0.67433307540E+02  0.00000000000E+00 0.  1.
         21    1    1    2  502  501 -0.98033191296E+01  0.17830904059E+02  0.62361379824E+02  0.65597163804E+02  0.00000000000E+00 0. -1.
<scales pt_clust_5="13000.00000" pt_clust_6="13000.00000" pt_clust_7="13000.00000" pt_clust_8="13000.00000" pt_clust_9="20.34813"></scales>
<clustering>
<clus scale="   20.348">  1  9  2 -1</clus>
<clus scale="   81.527">  5  6 -1 -1</clus>
<clus scale="   93.416">  7  8 -1 -1</clus>
<clus scale="  136.949">  1  5  2 -1</clus>
<clus scale="  144.343">  2  5  1 -1</clus>
</clustering>
</event>
<event>
 9    2  0.3402837E-005  0.1020599E+03  0.7546771E-02  0.1285650E+00
         -1   -1    0    0    0  501 -0.00000000000E+00  0.00000000000E+00  0.50826934136E+03  0.50826934136E+03  0.00000000000E+00 0.  1.
          2   -1    0    0  502    0  0.00000000000E+00 -0.00000000000E+00 -0.72834566365E+02  0.72834566365E+02  0.00000000000E+00 0. -1.
         23    2    1    2    0    0 -0.55642762907E+02 -0.62438912709E+02  0.21217612846E+03  0.24866281854E+03  0.99094666608E+02 0.  0.
         24    2    1    2    0    0  0.18573310327E+02 -0.21854064855E+01 -0.13160033976E+02  0.84561603468E+02  0.81410898710E+02 0.  0.
        -13    1    4    4    0    0  0.23975625813E+01 -0.40477272793E+02  0.12472084692E+01  0.40567393902E+02  0.00000000000E+00 0.  1.
         14    1    4    4    0    0  0.16175747745E+02  0.38291866307E+02 -0.14407242446E+02  0.43994209566E+02  0.00000000000E+00 0. -1.
        -11    1    3    3    0    0 -0.23185862301E+02 -0.53789092703E+02  0.20643760310E+03  0.21458642706E+03  0.00000000000E+00 0.  1.
         11    1    3    3    0    0 -0.32456900606E+02 -0.86498200058E+01  0.57385253653E+01  0.34076391482E+02  0.00000000000E+00 0. -1.
         21    1    1    2  502  501  0.37069452581E+02  0.64624319194E+02  0.23641868051E+03  0.24787948571E+03  0.00000000000E+00 0.  1.
<scales pt_clust_5="13000.00000" pt_clust_6="13000.00000" pt_clust_7="13000.00000" pt_clust_8="13000.00000" pt_clust_9="74.50132"></scales>
<clustering>
<clus scale="   74.501">  1  9  2 -1</clus>
<clus scale="   81.411">  5  6 -1 -1</clus>
<clus scale="   84.995">  2  5  1 -1</clus>
<clus scale="   99.095">  7  8 -1 -1</clus>
<clus scale="   84.995">  2  5  1 -1</clus>
</clustering>
</event>
<event>
 9    2  0.3402837E-005  0.9455532E+02  0.7546771E-02  0.1299931E+00
          4   -1    0    0  502    0  0.00000000000E+00  0.00000000000E+00  0.86280410935E+02  0.86280410935E+02  0.00000000000E+00 0. -1.
         -3   -1    0    0    0  501 -0.00000000000E+00 -0.00000000000E+00 -0.17990923293E+03  0.17990923293E+03  0.00000000000E+00 0.  1.
         23    2    1    2    0    0  0.24505668886E+01  0.11140629734E+02 -0.79286246997E+02  0.12290180355E+03  0.93211723752E+02 0.  0.
         24    2    1    2    0    0  0.18030987708E+02  0.14284193077E+02  0.29503677145E+02  0.88621493070E+02  0.80337708327E+02 0.  0.
        -11    1    4    4    0    0  0.35331015947E+02 -0.13688165797E+02 -0.80142533976E+01  0.38728217468E+02  0.00000000000E+00 0.  1.
         12    1    4    4    0    0 -0.17300028239E+02  0.27972358874E+02  0.37517930543E+02  0.49893275602E+02  0.00000000000E+00 0. -1.
        -11    1    3    3    0    0 -0.20658523101E+02  0.40042791596E+02 -0.72378681796E+02  0.85257687712E+02  0.00000000000E+00 0. -1.
         11    1    3    3    0    0  0.23109089990E+02 -0.28902161862E+02 -0.69075652013E+01  0.37644115841E+02  0.00000000000E+00 0.  1.
         21    1    1    2  502  501 -0.20481554597E+02 -0.25424822811E+02 -0.43846252142E+02  0.54666347240E+02  0.00000000000E+00 0.  1.
<scales pt_clust_5="13000.00000" pt_clust_6="13000.00000" pt_clust_7="13000.00000" pt_clust_8="13000.00000" pt_clust_9="32.64836"></scales>
<clustering>
<clus scale="   32.648">  2  9  1 -1</clus>
<clus scale="   80.338">  5  6 -1 -1</clus>
<clus scale="   81.893">  1  5  2 -1</clus>
<clus scale="   93.212">  7  8 -1 -1</clus>
<clus scale="   81.893">  1  5  2 -1</clus>
</clustering>
</event>
<event>
 9    2  0.3402837E-005  0.4576434E+03  0.7546771E-02  0.1025467E+00
          2   -1    0    0  502    0  0.00000000000E+00  0.00000000000E+00  0.14972559996E+04  0.14972559996E+04  0.00000000000E+00 0. -1.
         -1   -1    0    0    0  501 -0.00000000000E+00 -0.00000000000E+00 -0.12945110860E+03  0.12945110860E+03  0.00000000000E+00 0.  1.
         24    2    1    2    0    0  0.40028843864E+02  0.18054892173E+03  0.19081434265E+03  0.27703245911E+03  0.78336763784E+02 0.  0.
         23    2    1    2    0    0  0.11301000999E+03  0.20003626294E+03  0.39219086382E+03  0.46413723123E+03  0.93935759462E+02 0.  0.
        -11    1    3    3    0    0  0.37479148480E+02  0.18633632128E+03  0.19246429817E+03  0.27049661231E+03  0.00000000000E+00 0.  1.
         12    1    3    3    0    0  0.25496953844E+01 -0.57873995509E+01 -0.16499555276E+01  0.65358467974E+01  0.00000000000E+00 0. -1.
        -11    1    4    4    0    0  0.12610087505E+03  0.14795516327E+03  0.31289029402E+03  0.36836462522E+03  0.00000000000E+00 0.  1.
         11    1    4    4    0    0 -0.13090865064E+02  0.52081099665E+02  0.79300569805E+02  0.95772606010E+02  0.00000000000E+00 0. -1.
         21    1    1    2  502  501 -0.15303885385E+03 -0.38058518466E+03  0.78479968455E+03  0.88553741786E+03  0.00000000000E+00 0. -1.
<scales pt_clust_5="13000.00000" pt_clust_6="13000.00000" pt_clust_7="13000.00000" pt_clust_8="13000.00000" pt_clust_9="410.20236"></scales>
<clustering>
<clus scale="   78.337">  5  6 -1 -1</clus>
<clus scale="   93.936">  7  8 -1 -1</clus>
<clus scale="  134.405">  5  7 -1 -1</clus>
<clus scale="  410.202">  1  9  2 -1</clus>
<clus scale="  410.202">  1  5  2 -1</clus>
</clustering>
</event>
<event>
 9    2  0.3402837E-005  0.1575392E+03  0.7546771E-02  0.1193448E+00
         -1   -1    0    0    0  501 -0.00000000000E+00  0.00000000000E+00  0.82257822224E+02  0.82257822224E+02  0.00000000000E+00 0.  1.
          2   -1    0    0  502    0  0.00000000000E+00 -0.00000000000E+00 -0.34657343029E+03  0.34657343029E+03  0.00000000000E+00 0. -1.
         23    2    1    2    0    0  0.12331342521E+03 -0.29098441575E+02 -0.10145100298E+03  0.18642639290E+03  0.91703728519E+02 0.  0.
         24    2    1    2    0    0 -0.11918768594E+03  0.54743776276E+02 -0.13799025743E+03  0.20644045933E+03  0.79835872791E+02 0.  0.
        -11    1    4    4    0    0  0.19631407504E+01  0.28075686893E+02 -0.36946169749E+02  0.46444779849E+02  0.00000000000E+00 0.  1.
         12    1    4    4    0    0 -0.12115082669E+03  0.26668089383E+02 -0.10104408768E+03  0.15999567948E+03  0.00000000000E+00 0. -1.
        -13    1    3    3    0    0  0.73340928965E+02  0.12692248813E+02 -0.95402280118E+02  0.12100239705E+03  0.00000000000E+00 0. -1.
         13    1    3    3    0    0  0.49972496242E+02 -0.41790690388E+02 -0.60487228663E+01  0.65423995844E+02  0.00000000000E+00 0.  1.
         21    1    1    2  502  501 -0.41257392685E+01 -0.25645334701E+02 -0.24874347650E+02  0.35964400280E+02  0.00000000000E+00 0. -1.
<scales pt_clust_5="13000.00000" pt_clust_6="13000.00000" pt_clust_7="13000.00000" pt_clust_8="13000.00000" pt_clust_9="25.97508"></scales>
<clustering>
<clus scale="   25.975">  2  9  1 -1</clus>
<clus scale="   79.836">  5  6 -1 -1</clus>
<clus scale="   91.704">  7  8 -1 -1</clus>
<clus scale="  150.940">  2  5  1 -1</clus>
<clus scale="   25.975">  2  5  1 -1</clus>
</clustering>
</event>
<event>
 9    2  0.3402837E-005  0.9211367E+02  0.7546771E-02  0.1303748E+00
          2   -1    0    0  502    0  0.00000000000E+00  0.00000000000E+00  0.51589312811E+03  0.51589312811E+03  0.00000000000E+00 0. -1.
         -1   -1    0    0    0  501 -0.00000000000E+00 -0.00000000000E+00 -0.12803099424E+03  0.12803099424E+03  0.00000000000E+00 0.  1.
         23    2    1    2    0    0  0.27971801790E+02 -0.57329239262E+01 -0.39807763618E+02  0.10391138868E+03  0.91638586529E+02 0.  0.
         24    2    1    2    0    0 -0.75226096990E+01  0.38336269774E+01  0.47830860537E+03  0.48536792127E+03  0.82046393426E+02 0.  0.
        -11    1    4    4    0    0  0.30282255132E+02 -0.17875208195E+02  0.14412296060E+03  0.14835082007E+03  0.00000000000E+00 0.  1.
         12    1    4    4    0    0 -0.37804864831E+02  0.21708835172E+02  0.33418564477E+03  0.33701710120E+03  0.00000000000E+00 0. -1.
        -13    1    3    3    0    0  0.58007205029E+02 -0.14587847463E+02 -0.41096978433E+02  0.72571363259E+02  0.00000000000E+00 0.  1.
         13    1    3    3    0    0 -0.30035403239E+02  0.88549235370E+01  0.12892148150E+01  0.31340025422E+02  0.00000000000E+00 0. -1.
         21    1    1    2  502  501 -0.20449192091E+02  0.18992969488E+01 -0.50638707884E+02  0.54644812400E+02  0.00000000000E+00 0.  1.
<scales pt_clust_5="13000.00000" pt_clust_6="13000.00000" pt_clust_7="13000.00000" pt_clust_8="13000.00000" pt_clust_9="20.53720"></scales>
<clustering>
<clus scale="   20.537">  2  9  1 -1</clus>
<clus scale="   82.046">  5  6 -1 -1</clus>
<clus scale="   82.577">  1  5  2 -1</clus>
<clus scale="   91.639">  7  8 -1 -1</clus>
<clus scale="   82.577">  1  5  2 -1</clus>
</clustering>
</event>
<event>
 9    2  0.3402837E-005  0.9651832E+02  0.7546771E-02  0.1296598E+00
          2   -1    0    0  502    0  0.00000000000E+00  0.00000000000E+00  0.18282326850E+03  0.18282326850E+03  0.00000000000E+00 0. -1.
         -1   -1    0    0    0  501 -0.00000000000E+00 -0.00000000000E+00 -0.17454571251E+03  0.17454571251E+03  0.00000000000E+00 0.  1.
         24    2    1    2    0    0 -0.36051100808E+02  0.40228291367E+02 -0.10405160749E+03  0.14181165879E+03  0.79786040449E+02 0.  0.
         23    2    1    2    0    0 -0.23693706511E+01 -0.15598881244E+02  0.13413763419E+03  0.16497718912E+03  0.94739796345E+02 0.  0.
        -11    1    3    3    0    0 -0.85077881595E+01  0.60817987949E+02 -0.59245441567E+02  0.85330138076E+02  0.00000000000E+00 0.  1.
         12    1    3    3    0    0 -0.27543312648E+02 -0.20589696583E+02 -0.44806165924E+02  0.56481520711E+02  0.00000000000E+00 0. -1.
        -13    1    4    4    0    0  0.40770541659E+02  0.48433039238E+01  0.94118082716E+02  0.10268353400E+03  0.00000000000E+00 0.  1.
         13    1    4    4    0    0 -0.43139912311E+02 -0.20442185168E+02  0.40019551469E+02  0.62293655121E+02  0.00000000000E+00 0. -1.
         21    1    1    2  502  501  0.38420471459E+02 -0.24629410122E+02 -0.21808470701E+02  0.50580133100E+02  0.00000000000E+00 0.  1.
<scales pt_clust_5="13000.00000" pt_clust_6="13000.00000" pt_clust_7="13000.00000" pt_clust_8="13000.00000" pt_clust_9="45.63705"></scales>
<clustering>
<clus scale="   45.637">  2  9  1 -1</clus>
<clus scale="   79.786">  5  6 -1 -1</clus>
<clus scale="   81.890">  2  5  1 -1</clus>
<clus scale="   94.740">  7  8 -1 -1</clus>
<clus scale="   96.518">  1  5  2 -1</clus>
</clustering>
</event>
<event>
 9    2  0.3402837E-005  0.4226730E+03  0.7546771E-02  0.1036483E+00
         -3   -1    0    0    0  501 -0.00000000000E+00  0.00000000000E+00  0.17989046226E+03  0.17989046226E+03  0.00000000000E+00 0.  1.
          4   -1    0    0  502    0  0.00000000000E+00 -0.00000000000E+00 -0.11853776007E+04  0.11853776007E+04  0.00000000000E+00 0. -1.
         23    2    1    2    0    0  0.74102782699E+02  0.42520438063E+03 -0.54264163971E+03  0.70004745741E+03  0.96522048099E+02 0.  0.
         24    2    1    2    0    0 -0.39103633434E+02 -0.39112188173E+03 -0.46768484586E+03  0.61612909450E+03  0.79878191827E+02 0.  0.
        -11    1    4    4    0    0 -0.79956398565E+01 -0.25252147979E+03 -0.35001658578E+03  0.43167422709E+03  0.00000000000E+00 0.  1.
         12    1    4    4    0    0 -0.31107993578E+02 -0.13860040194E+03 -0.11766826008E+03  0.18445486741E+03  0.00000000000E+00 0. -1.
        -13    1    3    3    0    0  0.22013414846E+02  0.27419867046E+03 -0.27910217492E+03  0.39187692629E+03  0.00000000000E+00 0. -1.
         13    1    3    3    0    0  0.52089367853E+02  0.15100571016E+03 -0.26353946479E+03  0.30817053112E+03  0.00000000000E+00 0.  1.
         21    1    1    2  502  501 -0.34999149265E+02 -0.34082498896E+02  0.48393470942E+01  0.49091511084E+02  0.00000000000E+00 0. -1.
<scales pt_clust_5="13000.00000" pt_clust_6="13000.00000" pt_clust_7="13000.00000" pt_clust_8="13000.00000" pt_clust_9="48.85240"></scales>
<clustering>
<clus scale="   48.852">  1  9  2 -1</clus>
<clus scale="   79.878">  5  6 -1 -1</clus>
<clus scale="   96.522">  7  8 -1 -1</clus>
<clus scale="  419.185">  2  5  1 -1</clus>
<clus scale="  419.185">  2  5  1 -1</clus>
</clustering>
</event>
<event>
 9    2  0.3402837E-005  0.1426147E+03  0.7546771E-02  0.1211519E+00
         -1   -1    0    0    0  501 -0.00000000000E+00  0.00000000000E+00  0.67939838063E+02  0.67939838063E+02  0.00000000000E+00 0.  1.
          2   -1    0    0  502    0  0.00000000000E+00 -0.00000000000E+00 -0.79943343082E+03  0.79943343082E+03  0.00000000000E+00 0. -1.
         23    2    1    2    0    0 -0.51365188300E+02  0.93580093889E+02 -0.31968889153E+02  0.14434676314E+03  0.91751630034E+02 0.  0.
         24    2    1    2    0    0  0.71786176568E+02 -0.83011269835E+02 -0.67663751379E+03  0.69058362885E+03  0.83805114980E+02 0.  0.
        -13    1    4    4    0    0  0.38322636271E+02 -0.74058251253E+02 -0.27271386819E+03  0.28517731840E+03  0.00000000000E+00 0.  1.
         14    1    4    4    0    0  0.33463540297E+02 -0.89530185819E+01 -0.40392364560E+03  0.40540631044E+03  0.00000000000E+00 0. -1.
        -11    1    3    3    0    0  0.17770552088E+01  0.54467695715E+02 -0.52065358717E+02  0.75370348149E+02  0.00000000000E+00 0. -1.
         11    1    3    3    0    0 -0.53142243509E+02  0.39112398174E+02  0.20096469565E+02  0.68976414991E+02  0.00000000000E+00 0.  1.
         21    1    1    2  502  501 -0.20420988268E+02 -0.10568824055E+02 -0.22887189817E+02  0.32442876898E+02  0.00000000000E+00 0. -1.
<scales pt_clust_5="13000.00000" pt_clust_6="13000.00000" pt_clust_7="13000.00000" pt_clust_8="13000.00000" pt_clust_9="22.99384"></scales>
<clustering>
<clus scale="   22.994">  1  9  2 -1</clus>
<clus scale="   83.805">  5  6 -1 -1</clus>
<clus scale="   91.752">  7  8 -1 -1</clus>
<clus scale="  137.637">  2  5  1 -1</clus>
<clus scale="  137.637">  2  5  1 -1</clus>
</clustering>
</event>
<event>
 9    2  0.3402837E-005  0.4759426E+03  0.7546771E-02  0.1020256E+00
         -1   -1    0    0    0  501 -0.00000000000E+00  0.00000000000E+00  0.37528089521E+03  0.37528089521E+03  0.00000000000E+00 0.  1.
          2   -1    0    0  502    0  0.00000000000E+00 -0.00000000000E+00 -0.73111625125E+03  0.73111625125E+03  0.00000000000E+00 0. -1.
         24    2    1    2    0    0 -0.15160600667E+03  0.22775704290E+03 -0.29929802601E+03  0.41343438305E+03  0.80566921641E+02 0.  0.
         23    2    1    2    0    0  0.47639057388E+02  0.15934505883E+03 -0.19130215870E+03  0.27009313487E+03  0.93238715251E+02 0.  0.
        -13    1    3    3    0    0 -0.31052056607E+02  0.13850839217E+02 -0.68395852066E+02  0.76381074530E+02  0.00000000000E+00 0.  1.
         14    1    3    3    0    0 -0.12055395006E+03  0.21390620368E+03 -0.23090217394E+03  0.33705330852E+03  0.00000000000E+00 0. -1.
        -13    1    4    4    0    0  0.73487575256E+01  0.65691271936E+02 -0.17144530239E+02  0.68288230046E+02  0.00000000000E+00 0.  1.
         13    1    4    4    0    0  0.40290299862E+02  0.93653786891E+02 -0.17415762846E+03  0.20180490483E+03  0.00000000000E+00 0. -1.
         21    1    1    2  502  501  0.10396694928E+03 -0.38710210173E+03  0.13476482867E+03  0.42286962855E+03  0.00000000000E+00 0.  1.
<scales pt_clust_5="13000.00000" pt_clust_6="13000.00000" pt_clust_7="13000.00000" pt_clust_8="13000.00000" pt_clust_9="400.82061"></scales>
<clustering>
<clus scale="   80.567">  5  6 -1 -1</clus>
<clus scale="   93.239">  7  8 -1 -1</clus>
<clus scale="  169.357">  5  7 -1 -1</clus>
<clus scale="  400.821">  1  9  2 -1</clus>
<clus scale="  475.943">  2  5  1 -1</clus>
</clustering>
</event>
<event>
 9    2  0.3402837E-005  0.1619007E+03  0.7546771E-02  0.1188654E+00
         -1   -1    0    0    0  501 -0.00000000000E+00  0.00000000000E+00  0.37333847919E+03  0.37333847919E+03  0.00000000000E+00 0.  1.
          2   -1    0    0  502    0  0.00000000000E+00 -0.00000000000E+00 -0.48595128556E+03  0.48595128556E+03  0.00000000000E+00 0. -1.
         24    2    1    2    0    0  0.16887599464E+03 -0.27550404114E+02  0.26623347887E+03  0.32669087342E+03  0.81046500028E+02 0.  0.
         23    2    1    2    0    0 -0.10935836581E+03 -0.73676686718E+02 -0.38217069742E+03  0.41512411202E+03  0.94266006986E+02 0.  0.
        -11    1    3    3    0    0  0.94557087637E+02  0.11059001662E+02  0.19397431736E+03  0.21607725502E+03  0.00000000000E+00 0.  1.
         12    1    3    3    0    0  0.74318907006E+02 -0.38609405775E+02  0.72259161514E+02  0.11061361840E+03  0.00000000000E+00 0. -1.
        -13    1    4    4    0    0  0.27471405125E+01 -0.30341458175E+02 -0.28996081008E+02  0.42058573193E+02  0.00000000000E+00 0.  1.
         13    1    4    4    0    0 -0.11210550633E+03 -0.43335228543E+02 -0.35317461641E+03  0.37306553882E+03  0.00000000000E+00 0. -1.
         21    1    1    2  502  501 -0.59517628828E+02  0.10122709083E+03  0.33244121791E+01  0.11747477932E+03  0.00000000000E+00 0.  1.
<scales pt_clust_5="13000.00000" pt_clust_6="13000.00000" pt_clust_7="13000.00000" pt_clust_8="13000.00000" pt_clust_9="117.42773"></scales>
<clustering>
<clus scale="   81.047">  5  6 -1 -1</clus>
<clus scale="   94.266">  7  8 -1 -1</clus>
<clus scale="  117.428">  1  9  2 -1</clus>
<clus scale="  154.578">  1  5  2 -1</clus>
<clus scale="  161.901">  2  5  1 -1</clus>
</clustering>
</event>
<event>
 9    2  0.3402837E-005  0.1062018E+03  0.7546771E-02  0.1273368E+00
          2   -1    0    0  502    0  0.00000000000E+00  0.00000000000E+00  0.95922634425E+02  0.95922634425E+02  0.00000000000E+00 0. -1.
         -1   -1    0    0    0  501 -0.00000000000E+00 -0.00000000000E+00 -0.24861212822E+03  0.24861212822E+03  0.00000000000E+00 0.  1.
         23    2    1    2    0    0 -0.13825998768E+02 -0.65985527124E+02 -0.50280660375E+02  0.12507569870E+03  0.92577197877E+02 0.  0.
         24    2    1    2    0    0 -0.16934186942E+02  0.45057678111E+02  0.16658862668E+02  0.94714203763E+02  0.79851747915E+02 0.  0.
        -13    1    4    4    0    0 -0.44558999276E+02  0.36388234275E+02 -0.61485215448E+01  0.57856826109E+02  0.00000000000E+00 0.  1.
         14    1    4    4    0    0  0.27624812335E+02  0.86694438357E+01  0.22807384213E+02  0.36857377655E+02  0.00000000000E+00 0. -1.
        -13    1    3    3    0    0 -0.13956992310E+02 -0.23686117803E+02 -0.72326817651E+02  0.77375696200E+02  0.00000000000E+00 0.  1.
         13    1    3    3    0    0  0.13099354170E+00 -0.42299409321E+02  0.22046157276E+02  0.47700002504E+02  0.00000000000E+00 0. -1.
         21    1    1    2  502  501  0.30760185709E+02  0.20927849013E+02 -0.11906769609E+03  0.12474486018E+03  0.00000000000E+00 0. -1.
<scales pt_clust_5="13000.00000" pt_clust_6="13000.00000" pt_clust_7="13000.00000" pt_clust_8="13000.00000" pt_clust_9="37.20435"></scales>
<clustering>
<clus scale="   37.204">  2  9  1 -1</clus>
<clus scale="   79.852">  5  6 -1 -1</clus>
<clus scale="   92.577">  7  8 -1 -1</clus>
<clus scale="   95.313">  1  5  2 -1</clus>
<clus scale="   95.313">  1  5  2 -1</clus>
</clustering>
</event>
<event>
 9    2  0.3402837E-005  0.1528892E+03  0.7546771E-02  0.1199183E+00
         -1   -1    0    0    0  501 -0.00000000000E+00  0.00000000000E+00  0.32451016757E+03  0.32451016757E+03  0.00000000000E+00 0.  1.
          2   -1    0    0  502    0  0.00000000000E+00 -0.00000000000E+00 -0.12050997525E+03  0.12050997525E+03  0.00000000000E+00 0. -1.
         23    2    1    2    0    0 -0.11664266891E+03  0.10909979548E+03  0.45836315989E+02  0.19028774415E+03  0.92737156122E+02 0.  0.
         24    2    1    2    0    0  0.50222678933E+02 -0.73520401449E+02  0.70325258204E+02  0.13900370223E+03  0.80304547713E+02 0.  0.
        -11    1    4    4    0    0 -0.19286970546E+01 -0.55660099754E+02  0.87812294655E+01  0.56381526831E+02  0.00000000000E+00 0.  1.
         12    1    4    4    0    0  0.52151375988E+02 -0.17860301696E+02  0.61544028739E+02  0.82622175398E+02  0.00000000000E+00 0. -1.
        -13    1    3    3    0    0 -0.36412019146E+02 -0.12689912792E+02  0.53362500759E+01  0.38927427218E+02  0.00000000000E+00 0.  1.
         13    1    3    3    0    0 -0.80230649764E+02  0.12178970827E+03  0.40500065913E+02  0.15136031693E+03  0.00000000000E+00 0. -1.
         21    1    1    2  502  501  0.66419989978E+02 -0.35579394027E+02  0.87838618123E+02  0.11572869645E+03  0.00000000000E+00 0.  1.
<scales pt_clust_5="13000.00000" pt_clust_6="13000.00000" pt_clust_7="13000.00000" pt_clust_8="13000.00000" pt_clust_9="75.34924"></scales>
<clustering>
<clus scale="   75.349">  1  9  2 -1</clus>
<clus scale="   80.305">  5  6 -1 -1</clus>
<clus scale="   92.737">  7  8 -1 -1</clus>
<clus scale="  145.684">  2  5  1 -1</clus>
<clus scale="  145.684">  2  5  1 -1</clus>
</clustering>
</event>
<event>
 9    2  0.3402837E-005  0.1692080E+03  0.7546771E-02  0.1201320E+00
         -1   -1    0    0    0  501 -0.00000000000E+00  0.00000000000E+00  0.80672560563E+02  0.80672560563E+02  0.00000000000E+00 0.  1.
          2   -1    0    0  502    0  0.00000000000E+00 -0.00000000000E+00 -0.74471414300E+03  0.74471414300E+03  0.00000000000E+00 0. -1.
         24    2    1    2    0    0 -0.64616600748E+02 -0.15370301328E+01 -0.37418501545E+02  0.10920448916E+03  0.79673136256E+02 0.  0.
         23    2    1    2    0    0 -0.10975568709E+03 -0.55496142952E+02 -0.37365676167E+03  0.40369151653E+03  0.90671562480E+02 0.  0.
        -13    1    3    3    0    0 -0.76362488557E+02 -0.67772664806E+01 -0.49746513351E+02  0.91388602080E+02  0.00000000000E+00 0.  1.
         14    1    3    3    0    0  0.11745887809E+02  0.52402363477E+01  0.12328011805E+02  0.17815887080E+02  0.00000000000E+00 0. -1.
        -13    1    4    4    0    0 -0.40267459933E+02  0.16947155607E+02 -0.59025918317E+02  0.73435233001E+02  0.00000000000E+00 0.  1.
         13    1    4    4    0    0 -0.69488227158E+02 -0.72443298559E+02 -0.31463084335E+03  0.33025628352E+03  0.00000000000E+00 0. -1.
         21    1    1    2  502  501  0.17437228784E+03  0.57033173085E+02 -0.25296631922E+03  0.31249069787E+03  0.00000000000E+00 0.  1.
<scales pt_clust_5="13000.00000" pt_clust_6="13000.00000" pt_clust_7="13000.00000" pt_clust_8="13000.00000" pt_clust_9="142.86358"></scales>
<clustering>
<clus scale="   79.673">  5  6 -1 -1</clus>
<clus scale="   90.672">  7  8 -1 -1</clus>
<clus scale="  102.594">  1  5  2 -1</clus>
<clus scale="  142.864">  1  9  2 -1</clus>
<clus scale="  169.208">  2  5  1 -1</clus>
</clustering>
</event>
<event>
 9    2  0.3402837E-005  0.1312988E+03  0.7546771E-02  0.1228279E+00
         -1   -1    0    0    0  501 -0.00000000000E+00  0.00000000000E+00  0.43835651136E+03  0.43835651136E+03  0.00000000000E+00 0.  1.
          2   -1    0    0  502    0  0.00000000000E+00 -0.00000000000E+00 -0.36385704175E+03  0.36385704175E+03  0.00000000000E+00 0. -1.
         23    2    1    2    0    0 -0.10973877024E+03  0.28488999229E+02  0.37467654432E+03  0.40186984248E+03  0.90899046502E+02 0.  0.
         24    2    1    2    0    0  0.86025774524E+02 -0.38526469741E+02 -0.33496239243E+03  0.35706467057E+03  0.80066546541E+02 0.  0.
        -13    1    4    4    0    0  0.17674536220E+02 -0.37082171960E+02 -0.53687723636E+02  0.67600653673E+02  0.00000000000E+00 0.  1.
         14    1    4    4    0    0  0.68351238304E+02 -0.14442977807E+01 -0.28127466879E+03  0.28946401690E+03  0.00000000000E+00 0. -1.
        -13    1    3    3    0    0 -0.43520143422E+02  0.15131630645E+02  0.41809526150E+02  0.62217405975E+02  0.00000000000E+00 0. -1.
         13    1    3    3    0    0 -0.66218626819E+02  0.13357368584E+02  0.33286701817E+03  0.33965243650E+03  0.00000000000E+00 0.  1.
         21    1    1    2  502  501  0.23712995717E+02  0.10037470512E+02  0.34785317719E+02  0.43279040065E+02  0.00000000000E+00 0. -1.
<scales pt_clust_5="13000.00000" pt_clust_6="13000.00000" pt_clust_7="13000.00000" pt_clust_8="13000.00000" pt_clust_9="25.74989"></scales>
<clustering>
<clus scale="   25.750">  1  9  2 -1</clus>
<clus scale="   80.067">  5  6 -1 -1</clus>
<clus scale="   90.899">  7  8 -1 -1</clus>
<clus scale="  124.046">  2  5  1 -1</clus>
<clus scale="  124.046">  2  5  1 -1</clus>
</clustering>
</event>
<event>
 9    2  0.3402837E-005  0.9874946E+02  0.7546771E-02  0.1287378E+00
         -3   -1    0    0    0  501 -0.00000000000E+00  0.00000000000E+00  0.24301517531E+03  0.24301517531E+03  0.00000000000E+00 0.  1.
          4   -1    0    0  502    0  0.00000000000E+00 -0.00000000000E+00 -0.10738337097E+03  0.10738337097E+03  0.00000000000E+00 0. -1.
         24    2    1    2    0    0  0.56829667579E+02 -0.69991258949E+02  0.61146959846E+02  0.13666991555E+03  0.82530768027E+02 0.  0.
         23    2    1    2    0    0 -0.29602041526E+01  0.19186129422E+02 -0.18320240881E+02  0.95002626214E+02  0.91175640337E+02 0.  0.
        -13    1    3    3    0    0  0.62119855146E+02 -0.18480262693E+02  0.54076048252E+02  0.84407437511E+02  0.00000000000E+00 0.  1.
         14    1    3    3    0    0 -0.52901875667E+01 -0.51510996257E+02  0.70709115934E+01  0.52262478037E+02  0.00000000000E+00 0. -1.
        -13    1    4    4    0    0  0.28168285767E+02 -0.25534084321E+02 -0.13326067646E+02  0.40286795157E+02  0.00000000000E+00 0. -1.
         13    1    4    4    0    0 -0.31128489919E+02  0.44720213743E+02 -0.49941732352E+01  0.54715831056E+02  0.00000000000E+00 0.  1.
         21    1    1    2  502  501 -0.53869463427E+02  0.50805129527E+02  0.92805085380E+02  0.11872600452E+03  0.00000000000E+00 0.  1.
<scales pt_clust_5="13000.00000" pt_clust_6="13000.00000" pt_clust_7="13000.00000" pt_clust_8="13000.00000" pt_clust_9="74.04782"></scales>
<clustering>
<clus scale="   74.048">  1  9  2 -1</clus>
<clus scale="   82.531">  5  6 -1 -1</clus>
<clus scale="   90.828">  1  5  2 -1</clus>
<clus scale="   91.176">  7  8 -1 -1</clus>
<clus scale="   98.749">  2  5  1 -1</clus>
</clustering>
</event>
<event>
 9    2  0.3402837E-005  0.1188510E+03  0.7546771E-02  0.1246409E+00
          2   -1    0    0  502    0  0.00000000000E+00  0.00000000000E+00  0.70805353475E+03  0.70805353475E+03  0.00000000000E+00 0. -1.
         -1   -1    0    0    0  501 -0.00000000000E+00 -0.00000000000E+00 -0.30463528126E+02  0.30463528126E+02  0.00000000000E+00 0.  1.
         24    2    1    2    0    0 -0.71564338604E+02  0.45542257783E+02  0.13220056209E+03  0.17750607943E+03  0.82679307063E+02 0.  0.
         23    2    1    2    0    0  0.62698256857E+02 -0.27523193742E+02  0.47768922749E+03  0.49039502588E+03  0.87244975435E+02 0.  0.
        -11    1    3    3    0    0 -0.66352560475E+02 -0.50197968106E+01  0.62924224922E+02  0.91582305734E+02  0.00000000000E+00 0.  1.
         12    1    3    3    0    0 -0.52117781296E+01  0.50562054594E+02  0.69276337163E+02  0.85923773699E+02  0.00000000000E+00 0. -1.
        -11    1    4    4    0    0  0.61907875589E+02  0.16297769121E+02  0.33737960410E+03  0.34339947525E+03  0.00000000000E+00 0. -1.
         11    1    4    4    0    0  0.79038126800E+00 -0.43820962864E+02  0.14030962339E+03  0.14699555063E+03  0.00000000000E+00 0.  1.
         21    1    1    2  502  501  0.88660817478E+01 -0.18019064041E+02  0.67700217048E+02  0.70615957565E+02  0.00000000000E+00 0. -1.
<scales pt_clust_5="13000.00000" pt_clust_6="13000.00000" pt_clust_7="13000.00000" pt_clust_8="13000.00000" pt_clust_9="20.08218"></scales>
<clustering>
<clus scale="   20.082">  1  9  2 -1</clus>
<clus scale="   82.679">  5  6 -1 -1</clus>
<clus scale="   87.245">  7  8 -1 -1</clus>
<clus scale="  115.541">  2  5  1 -1</clus>
<clus scale="   20.082">  1  5  2 -1</clus>
</clustering>
</event>
<event>
 9    2  0.3402837E-005  0.1231925E+03  0.7546771E-02  0.1242828E+00
          2   -1    0    0  502    0  0.00000000000E+00  0.00000000000E+00  0.12227689463E+03  0.12227689463E+03  0.00000000000E+00 0. -1.
         -1   -1    0    0    0  501 -0.00000000000E+00 -0.00000000000E+00 -0.33918085765E+03  0.33918085765E+03  0.00000000000E+00 0.  1.
         23    2    1    2    0    0 -0.90356705546E+01  0.43376326041E+02 -0.18579295967E+03  0.21300107954E+03  0.94272408594E+02 0.  0.
         24    2    1    2    0    0  0.29900019991E+02 -0.55045973452E+02  0.71055035953E+02  0.14353097838E+03  0.10783437871E+03 0.  0.
        -13    1    4    4    0    0  0.33835368722E+01  0.31322547549E+02  0.56823399198E+01  0.32013111278E+02  0.00000000000E+00 0.  1.
         14    1    4    4    0    0  0.26516483118E+02 -0.86368521002E+02  0.65372696033E+02  0.11151786710E+03  0.00000000000E+00 0. -1.
        -13    1    3    3    0    0 -0.20278811101E+02 -0.34557547254E+01  0.50580844804E+00  0.20577372587E+02  0.00000000000E+00 0. -1.
         13    1    3    3    0    0  0.11243140546E+02  0.46832080767E+02 -0.18629876811E+03  0.19242370696E+03  0.00000000000E+00 0.  1.
         21    1    1    2  502  501 -0.20864349436E+02  0.11669647411E+02 -0.10216603931E+03  0.10492569436E+03  0.00000000000E+00 0.  1.
<scales pt_clust_5="13000.00000" pt_clust_6="13000.00000" pt_clust_7="13000.00000" pt_clust_8="13000.00000" pt_clust_9="23.90610"></scales>
<clustering>
<clus scale="   23.906">  2  9  1 -1</clus>
<clus scale="   94.272">  7  8 -1 -1</clus>
<clus scale="  107.834">  5  6 -1 -1</clus>
<clus scale="  111.514">  2  7  1 -1</clus>
<clus scale="  123.192">  1  5  2 -1</clus>
</clustering>
</event>
<event>
 9    2  0.3402837E-005  0.8895015E+02  0.7546771E-02  0.1310836E+00
         -1   -1    0    0    0  501 -0.00000000000E+00  0.00000000000E+00  0.14836195326E+03  0.14836195326E+03  0.00000000000E+00 0.  1.
          2   -1    0    0  502    0  0.00000000000E+00 -0.00000000000E+00 -0.15467589514E+03  0.15467589514E+03  0.00000000000E+00 0. -1.
         24    2    1    2    0    0 -0.11000527157E+02 -0.23681117535E+02 -0.26187302205E+02  0.88487807622E+02  0.80389740487E+02 0.  0.
         23    2    1    2    0    0 -0.11392420972E+02 -0.75120299674E+01 -0.71914264611E+02  0.11505418825E+03  0.88767037406E+02 0.  0.
        -13    1    3    3    0    0  0.40014159486E+01 -0.50975099950E+02 -0.25953980567E+02  0.57341793239E+02  0.00000000000E+00 0.  1.
         14    1    3    3    0    0 -0.15001943105E+02  0.27293982415E+02 -0.23332163808E+00  0.31146014384E+02  0.00000000000E+00 0. -1.
        -13    1    4    4    0    0  0.29271624744E+02 -0.26947839260E+02 -0.15151681604E+02  0.42574493671E+02  0.00000000000E+00 0.  1.
         13    1    4    4    0    0 -0.40664045716E+02  0.19435809293E+02 -0.56762583007E+02  0.72479694581E+02  0.00000000000E+00 0. -1.
         21    1    1    2  502  501  0.22392948129E+02  0.31193147503E+02  0.91787624938E+02  0.99495852520E+02  0.00000000000E+00 0.  1.
<scales pt_clust_5="13000.00000" pt_clust_6="13000.00000" pt_clust_7="13000.00000" pt_clust_8="13000.00000" pt_clust_9="38.39865"></scales>
<clustering>
<clus scale="   38.399">  1  9  2 -1</clus>
<clus scale="   80.390">  5  6 -1 -1</clus>
<clus scale="   80.592">  1  5  2 -1</clus>
<clus scale="   88.767">  7  8 -1 -1</clus>
<clus scale="   88.950">  2  5  1 -1</clus>
</clustering>
</event>
<event>
 9    2  0.3402837E-005  0.1388308E+03  0.7546771E-02  0.1217607E+00
         -1   -1    0    0    0  501 -0.00000000000E+00  0.00000000000E+00  0.94203759094E+02  0.94203759094E+02  0.00000000000E+00 0.  1.
          2   -1    0    0  502    0  0.00000000000E+00 -0.00000000000E+00 -0.47723980036E+03  0.47723980036E+03  0.00000000000E+00 0. -1.
         23    2    1    2    0    0  0.10834925695E+03  0.87247322596E+02 -0.68206974714E+02  0.18095829225E+03  0.93498959101E+02 0.  0.
         24    2    1    2    0    0 -0.98359393543E+02 -0.36423093000E+01 -0.26072919954E+03  0.29040334461E+03  0.81648945796E+02 0.  0.
        -13    1    4    4    0    0 -0.55889628846E+02 -0.23535471424E+02 -0.22026850826E+03  0.22846396818E+03  0.00000000000E+00 0.  1.
         14    1    4    4    0    0 -0.42469764696E+02  0.19893162124E+02 -0.40460691288E+02  0.61939376427E+02  0.00000000000E+00 0. -1.
        -11    1    3    3    0    0  0.24740205444E+02  0.78687495716E+02 -0.23531054797E+02  0.85775930699E+02  0.00000000000E+00 0.  1.
         11    1    3    3    0    0  0.83609051510E+02  0.85598268804E+01 -0.44675919917E+02  0.95182361554E+02  0.00000000000E+00 0. -1.
         21    1    1    2  502  501 -0.99898634115E+01 -0.83605013296E+02 -0.54099867006E+02  0.10008192259E+03  0.00000000000E+00 0. -1.
<scales pt_clust_5="13000.00000" pt_clust_6="13000.00000" pt_clust_7="13000.00000" pt_clust_8="13000.00000" pt_clust_9="84.19974"></scales>
<clustering>
<clus scale="   81.649">  5  6 -1 -1</clus>
<clus scale="   84.200">  1  9  2 -1</clus>
<clus scale="   93.499">  7  8 -1 -1</clus>
<clus scale="  131.143">  2  5  1 -1</clus>
<clus scale="  131.143">  2  5  1 -1</clus>
</clustering>
</event>
<event>
 9    2  0.3402837E-005  0.1100992E+03  0.7546771E-02  0.1266985E+00
          2   -1    0    0  502    0  0.00000000000E+00  0.00000000000E+00  0.54206200126E+03  0.54206200126E+03  0.00000000000E+00 0. -1.
         -1   -1    0    0    0  501 -0.00000000000E+00 -0.00000000000E+00 -0.58186565362E+02  0.58186565362E+02  0.00000000000E+00 0.  1.
         24    2    1    2    0    0 -0.54815348896E+02  0.69968725417E+02  0.86400153783E+02  0.14596339833E+03  0.77071279137E+02 0.  0.
         23    2    1    2    0    0 -0.55859074678E+01 -0.55046952532E+02  0.37126204540E+03  0.38677143002E+03  0.93248396121E+02 0.  0.
        -13    1    3    3    0    0 -0.46733709610E+02  0.86577492231E+02  0.66156768454E+02  0.11855977306E+03  0.00000000000E+00 0.  1.
         14    1    3    3    0    0 -0.80816392869E+01 -0.16608766814E+02  0.20243385330E+02  0.27403625276E+02  0.00000000000E+00 0. -1.
        -13    1    4    4    0    0 -0.21480270765E+02 -0.74215736051E+02  0.32682268315E+03  0.33583097494E+03  0.00000000000E+00 0. -1.
         13    1    4    4    0    0  0.15894363297E+02  0.19168783518E+02  0.44439362250E+02  0.50940455076E+02  0.00000000000E+00 0.  1.
         21    1    1    2  502  501  0.60401256364E+02 -0.14921772884E+02  0.26213236716E+02  0.67513738273E+02  0.00000000000E+00 0. -1.
<scales pt_clust_5="13000.00000" pt_clust_6="13000.00000" pt_clust_7="13000.00000" pt_clust_8="13000.00000" pt_clust_9="62.21713"></scales>
<clustering>
<clus scale="   62.217">  2  9  1 -1</clus>
<clus scale="   77.071">  5  6 -1 -1</clus>
<clus scale="   93.248">  7  8 -1 -1</clus>
<clus scale="   96.781">  2  5  1 -1</clus>
<clus scale="  110.099">  1  5  2 -1</clus>
</clustering>
</event>
<event>
 9    2  0.3402837E-005  0.1384360E+03  0.7546771E-02  0.1218767E+00
          2   -1    0    0  502    0  0.00000000000E+00  0.00000000000E+00  0.47293222709E+03  0.47293222709E+03  0.00000000000E+00 0. -1.
         -1   -1    0    0    0  501 -0.00000000000E+00 -0.00000000000E+00 -0.47204762915E+02  0.47204762915E+02  0.00000000000E+00 0.  1.
         23    2    1    2    0    0  0.27917686532E+02 -0.10929559594E+03  0.17891628964E+03  0.23139380480E+03  0.93846308881E+02 0.  0.
         24    2    1    2    0    0 -0.38639498394E+02  0.82269193361E+02  0.20291830214E+03  0.23609370341E+03  0.79392496087E+02 0.  0.
        -11    1    4    4    0    0 -0.38751706235E+02  0.18195965730E+02  0.31672304084E+02  0.53253382531E+02  0.00000000000E+00 0.  1.
         12    1    4    4    0    0  0.11220784064E+00  0.64073227631E+02  0.17124599806E+03  0.18284032088E+03  0.00000000000E+00 0. -1.
        -11    1    3    3    0    0 -0.23775694243E+02 -0.84469954623E+02  0.90912335259E+02  0.12635469747E+03  0.00000000000E+00 0.  1.
         11    1    3    3    0    0  0.51693380775E+02 -0.24825641313E+02  0.88003954377E+02  0.10503910733E+03  0.00000000000E+00 0. -1.
         21    1    1    2  502  501  0.10721811863E+02  0.27026402575E+02  0.43892872401E+02  0.52649481795E+02  0.00000000000E+00 0. -1.
<scales pt_clust_5="13000.00000" pt_clust_6="13000.00000" pt_clust_7="13000.00000" pt_clust_8="13000.00000" pt_clust_9="29.07548"></scales>
<clustering>
<clus scale="   29.075">  1  9  2 -1</clus>
<clus scale="   79.392">  5  6 -1 -1</clus>
<clus scale="   93.846">  7  8 -1 -1</clus>
<clus scale="  129.076">  1  5  2 -1</clus>
<clus scale="   29.075">  1  5  2 -1</clus>
</clustering>
</event>
<event>
 9    2  0.3402837E-005  0.1066251E+03  0.7546771E-02  0.1267279E+00
          2   -1    0    0  502    0  0.00000000000E+00  0.00000000000E+00  0.58777658563E+03  0.58777658563E+03  0.00000000000E+00 0. -1.
         -1   -1    0    0    0  501 -0.00000000000E+00 -0.00000000000E+00 -0.11740459010E+03  0.11740459010E+03  0.00000000000E+00 0.  1.
         23    2    1    2    0    0  0.68011505013E+02  0.16905956950E+02 -0.26408553724E+02  0.11121917008E+03  0.82224788773E+02 0.  0.
         24    2    1    2    0    0 -0.66477085549E+02  0.71793784488E+01  0.53676460276E+03  0.54725887557E+03  0.83098085070E+02 0.  0.
        -13    1    4    4    0    0  0.17199148803E+02  0.14189102658E+02  0.94632742183E+02  0.97223954080E+02  0.00000000000E+00 0.  1.
         14    1    4    4    0    0 -0.83676234352E+02 -0.70097242089E+01  0.44213186057E+03  0.45003492149E+03  0.00000000000E+00 0. -1.
        -11    1    3    3    0    0 -0.60401367383E+01  0.24783298615E+02  0.11120992973E+02  0.27827533609E+02  0.00000000000E+00 0.  1.
         11    1    3    3    0    0  0.74051641752E+02 -0.78773416648E+01 -0.37529546697E+02  0.83391636470E+02  0.00000000000E+00 0. -1.
         21    1    1    2  502  501 -0.15344194643E+01 -0.24085335399E+02 -0.39984053502E+02  0.46703130076E+02  0.00000000000E+00 0. -1.
<scales pt_clust_5="13000.00000" pt_clust_6="13000.00000" pt_clust_7="13000.00000" pt_clust_8="13000.00000" pt_clust_9="24.13416"></scales>
<clustering>
<clus scale="   24.134">  2  9  1 -1</clus>
<clus scale="   82.225">  7  8 -1 -1</clus>
<clus scale="   83.098">  5  6 -1 -1</clus>
<clus scale="  105.946">  2  7  1 -1</clus>
<clus scale="  106.625">  1  5  2 -1</clus>
</clustering>
</event>
<event>
 9    2  0.3402837E-005  0.1272378E+03  0.7546771E-02  0.1237991E+00
         -1   -1    0    0    0  501 -0.00000000000E+00  0.00000000000E+00  0.11644476248E+03  0.11644476248E+03  0.00000000000E+00 0.  1.
          2   -1    0    0  502    0  0.00000000000E+00 -0.00000000000E+00 -0.20120854300E+03  0.20120854300E+03  0.00000000000E+00 0. -1.
         24    2    1    2    0    0 -0.66344161999E+02 -0.54869793951E+02  0.39245713260E+02  0.12054855665E+03  0.74695959607E+02 0.  0.
         23    2    1    2    0    0  0.38657803871E+02  0.66086707922E+02 -0.10360795143E+03  0.16093049673E+03  0.96447594124E+02 0.  0.
        -13    1    3    3    0    0 -0.81918317507E+02 -0.53523469994E+02  0.37603402443E+02  0.10483028407E+03  0.00000000000E+00 0.  1.
         14    1    3    3    0    0  0.15574155509E+02 -0.13463239567E+01  0.16423108173E+01  0.15718272578E+02  0.00000000000E+00 0. -1.
        -13    1    4    4    0    0 -0.17753587217E+02  0.55184235785E+02 -0.23969657526E+02  0.62729851109E+02  0.00000000000E+00 0.  1.
         13    1    4    4    0    0  0.56411391088E+02  0.10902472137E+02 -0.79638293909E+02  0.98200645618E+02  0.00000000000E+00 0. -1.
         21    1    1    2  502  501  0.27686358128E+02 -0.11216913972E+02 -0.20401542346E+02  0.36174252107E+02  0.00000000000E+00 0.  1.
<scales pt_clust_5="13000.00000" pt_clust_6="13000.00000" pt_clust_7="13000.00000" pt_clust_8="13000.00000" pt_clust_9="29.87229"></scales>
<clustering>
<clus scale="   29.872">  2  9  1 -1</clus>
<clus scale="   74.696">  5  6 -1 -1</clus>
<clus scale="   96.448">  7  8 -1 -1</clus>
<clus scale="  111.655">  1  5  2 -1</clus>
<clus scale="   29.872">  2  5  1 -1</clus>
</clustering>
</event>
<event>
 9    2  0.3402837E-005  0.1019857E+03  0.7546771E-02  0.1276635E+00
         -1   -1    0    0    0  501 -0.00000000000E+00  0.00000000000E+00  0.48074378780E+02  0.48074378780E+02  0.00000000000E+00 0.  1.
          2   -1    0    0  502    0  0.00000000000E+00 -0.00000000000E+00 -0.35034587695E+03  0.35034587695E+03  0.00000000000E+00 0. -1.
         23    2    1    2    0    0 -0.67825490887E+02 -0.46832180315E+01 -0.45318451126E+02  0.11526245854E+03  0.81298478408E+02 0.  0.
         24    2    1    2    0    0  0.43293593829E+02 -0.16232680315E+01 -0.22212654071E+03  0.24009422461E+03  0.80175222719E+02 0.  0.
        -13    1    4    4    0    0  0.35814857310E+01 -0.20319409350E+02 -0.90264907058E+01  0.22520723142E+02  0.00000000000E+00 0.  1.
         14    1    4    4    0    0  0.39712108098E+02  0.18696141319E+02 -0.21310005000E+03  0.21757350146E+03  0.00000000000E+00 0. -1.
        -13    1    3    3    0    0  0.10474761795E+02  0.21030603657E+02 -0.11815630485E+02  0.26298594042E+02  0.00000000000E+00 0. -1.
         13    1    3    3    0    0 -0.78300252681E+02 -0.25713821688E+02 -0.33502820641E+02  0.88963864499E+02  0.00000000000E+00 0.  1.
         21    1    1    2  502  501  0.24531897057E+02  0.63064860630E+01 -0.34826506340E+02  0.43063572582E+02  0.00000000000E+00 0. -1.
<scales pt_clust_5="13000.00000" pt_clust_6="13000.00000" pt_clust_7="13000.00000" pt_clust_8="13000.00000" pt_clust_9="25.32954"></scales>
<clustering>
<clus scale="   25.330">  2  9  1 -1</clus>
<clus scale="   80.175">  5  6 -1 -1</clus>
<clus scale="   81.298">  7  8 -1 -1</clus>
<clus scale="  101.093">  2  5  1 -1</clus>
<clus scale="   25.330">  2  5  1 -1</clus>
</clustering>
</event>
<event>
 9    2  0.3402837E-005  0.1494626E+03  0.7546771E-02  0.1202229E+00
          2   -1    0    0  502    0  0.00000000000E+00  0.00000000000E+00  0.87935734585E+03  0.87935734585E+03  0.00000000000E+00 0. -1.
         -1   -1    0    0    0  501 -0.00000000000E+00 -0.00000000000E+00 -0.88106000878E+02  0.88106000878E+02  0.00000000000E+00 0.  1.
         23    2    1    2    0    0 -0.97858278127E+02  0.89039560165E+02  0.27006212757E+03  0.31334507863E+03  0.88018746190E+02 0.  0.
         24    2    1    2    0    0  0.11241317336E+03 -0.39146407045E+02  0.56682327837E+03  0.58495441031E+03  0.81938211508E+02 0.  0.
        -11    1    4    4    0    0  0.31018382286E+02 -0.47513829306E+02  0.15448854142E+03  0.16457950494E+03  0.00000000000E+00 0.  1.
         12    1    4    4    0    0  0.81394791076E+02  0.83674222610E+01  0.41233473695E+03  0.42037490537E+03  0.00000000000E+00 0. -1.
        -13    1    3    3    0    0 -0.84474678765E+02  0.54595347847E+02  0.10991418173E+03  0.14898909593E+03  0.00000000000E+00 0.  1.
         13    1    3    3    0    0 -0.13383599362E+02  0.34444212318E+02  0.16014794584E+03  0.16435598270E+03  0.00000000000E+00 0. -1.
         21    1    1    2  502  501 -0.14554895235E+02 -0.49893153121E+02 -0.45634060970E+02  0.69163857789E+02  0.00000000000E+00 0.  1.
<scales pt_clust_5="13000.00000" pt_clust_6="13000.00000" pt_clust_7="13000.00000" pt_clust_8="13000.00000" pt_clust_9="51.97280"></scales>
<clustering>
<clus scale="   51.973">  2  9  1 -1</clus>
<clus scale="   81.938">  5  6 -1 -1</clus>
<clus scale="   88.019">  7  8 -1 -1</clus>
<clus scale="  145.964">  1  5  2 -1</clus>
<clus scale="  145.964">  1  5  2 -1</clus>
</clustering>
</event>
<event>
 9    2  0.3402837E-005  0.1123161E+03  0.7546771E-02  0.1261039E+00
         -1   -1    0    0    0  501 -0.00000000000E+00  0.00000000000E+00  0.29140168719E+03  0.29140168719E+03  0.00000000000E+00 0.  1.
          2   -1    0    0  502    0  0.00000000000E+00 -0.00000000000E+00 -0.28071102195E+03  0.28071102195E+03  0.00000000000E+00 0. -1.
         23    2    1    2    0    0 -0.35146076377E+02 -0.93091236428E+01  0.23477267400E+03  0.25445604571E+03  0.91146937829E+02 0.  0.
         24    2    1    2    0    0  0.65952408083E+02  0.10855135299E+02 -0.25432804052E+03  0.27445663261E+03  0.78588401788E+02 0.  0.
        -11    1    4    4    0    0  0.33058317681E+02  0.51253018719E+01 -0.22684691579E+02  0.40419256787E+02  0.00000000000E+00 0.  1.
         12    1    4    4    0    0  0.32894090402E+02  0.57298334268E+01 -0.23164334894E+03  0.23403737583E+03  0.00000000000E+00 0. -1.
        -11    1    3    3    0    0 -0.45294975821E+02 -0.34322531378E+02  0.84855372062E+02  0.10212788631E+03  0.00000000000E+00 0.  1.
         11    1    3    3    0    0  0.10148899444E+02  0.25013407735E+02  0.14991730194E+03  0.15232815940E+03  0.00000000000E+00 0. -1.
         21    1    1    2  502  501 -0.30806331706E+02 -0.15460116560E+01  0.30246031766E+02  0.43200030820E+02  0.00000000000E+00 0.  1.
<scales pt_clust_5="13000.00000" pt_clust_6="13000.00000" pt_clust_7="13000.00000" pt_clust_8="13000.00000" pt_clust_9="30.84510"></scales>
<clustering>
<clus scale="   30.845">  1  9  2 -1</clus>
<clus scale="   78.588">  5  6 -1 -1</clus>
<clus scale="   91.147">  7  8 -1 -1</clus>
<clus scale="  102.388">  2  5  1 -1</clus>
<clus scale="  102.388">  2  5  1 -1</clus>
</clustering>
</event>
<event>
 9    2  0.3402837E-005  0.3660674E+03  0.7546771E-02  0.1056532E+00
          2   -1    0    0  502    0  0.00000000000E+00  0.00000000000E+00  0.15689620621E+04  0.15689620621E+04  0.00000000000E+00 0. -1.
         -1   -1    0    0    0  501 -0.00000000000E+00 -0.00000000000E+00 -0.19135806233E+03  0.19135806233E+03  0.00000000000E+00 0.  1.
         24    2    1    2    0    0  0.34311250082E+03  0.44830359455E+02  0.93704243850E+02  0.36650433646E+03  0.76216756578E+02 0.  0.
         23    2    1    2    0    0 -0.35606628286E+03 -0.16029946630E+02  0.13049953020E+04  0.13558383432E+04  0.90800427681E+02 0.  0.
        -11    1    3    3    0    0  0.22270089474E+03  0.47975938425E+02  0.28642957286E+02  0.22960356746E+03  0.00000000000E+00 0.  1.
         12    1    3    3    0    0  0.12041160607E+03 -0.31455789698E+01  0.65061286564E+02  0.13690076900E+03  0.00000000000E+00 0. -1.
        -13    1    4    4    0    0 -0.17342194780E+03 -0.49290371082E+02  0.71134784763E+03  0.73383954172E+03  0.00000000000E+00 0.  1.
         13    1    4    4    0    0 -0.18264433506E+03  0.33260424452E+02  0.59364745435E+03  0.62199880146E+03  0.00000000000E+00 0. -1.
         21    1    1    2  502  501  0.12953782042E+02 -0.28800412825E+02 -0.21095546066E+02  0.37977444778E+02  0.00000000000E+00 0. -1.
<scales pt_clust_5="13000.00000" pt_clust_6="13000.00000" pt_clust_7="13000.00000" pt_clust_8="13000.00000" pt_clust_9="31.57949"></scales>
<clustering>
<clus scale="   31.579">  2  9  1 -1</clus>
<clus scale="   76.217">  5  6 -1 -1</clus>
<clus scale="   90.800">  7  8 -1 -1</clus>
<clus scale="  362.725">  2  5  1 -1</clus>
<clus scale="  366.067">  1  5  2 -1</clus>
</clustering>
</event>
<event>
 9    2  0.3402837E-005  0.8956719E+02  0.7546771E-02  0.1310513E+00
          2   -1    0    0  502    0  0.00000000000E+00  0.00000000000E+00  0.14504619329E+03  0.14504619329E+03  0.00000000000E+00 0. -1.
         -1   -1    0    0    0  501 -0.00000000000E+00 -0.00000000000E+00 -0.86587705408E+02  0.86587705408E+02  0.00000000000E+00 0.  1.
         23    2    1    2    0    0 -0.98754934256E+01  0.14353421750E+02 -0.23895387383E+02  0.94311452734E+02  0.89555091939E+02 0.  0.
         24    2    1    2    0    0 -0.90029322109E+00  0.45026426445E+01  0.83840247718E+02  0.11555370587E+03  0.79387577645E+02 0.  0.
        -11    1    4    4    0    0  0.20675765258E+02  0.30937506906E+02  0.68895897573E+02  0.78302371005E+02  0.00000000000E+00 0.  1.
         12    1    4    4    0    0 -0.21576058480E+02 -0.26434864261E+02  0.14944350144E+02  0.37251334865E+02  0.00000000000E+00 0. -1.
        -11    1    3    3    0    0 -0.15581898009E+02  0.51269252818E+02 -0.17795025835E+02  0.56462330580E+02  0.00000000000E+00 0.  1.
         11    1    3    3    0    0  0.57064045833E+01 -0.36915831069E+02 -0.61003615481E+01  0.37849122153E+02  0.00000000000E+00 0. -1.
         21    1    1    2  502  501  0.10775786647E+02 -0.18856064394E+02 -0.14863724513E+01  0.21768740096E+02  0.00000000000E+00 0. -1.
<scales pt_clust_5="13000.00000" pt_clust_6="13000.00000" pt_clust_7="13000.00000" pt_clust_8="13000.00000" pt_clust_9="21.71794"></scales>
<clustering>
<clus scale="   21.718">  2  9  1 -1</clus>
<clus scale="   79.388">  5  6 -1 -1</clus>
<clus scale="   79.401">  1  5  2 -1</clus>
<clus scale="   89.555">  7  8 -1 -1</clus>
<clus scale="   79.401">  1  5  2 -1</clus>
</clustering>
</event>
<event>
 9    2  0.3402837E-005  0.1749963E+03  0.7546771E-02  0.1179585E+00
          2   -1    0    0  502    0  0.00000000000E+00  0.00000000000E+00  0.38146592049E+03  0.38146592049E+03  0.00000000000E+00 0. -1.
         -1   -1    0    0    0  501 -0.00000000000E+00 -0.00000000000E+00 -0.32644156497E+03  0.32644156497E+03  0.00000000000E+00 0.  1.
         23    2    1    2    0    0 -0.95433766475E+02  0.97697780278E+02 -0.24344668722E+03  0.30420007757E+03  0.12090879877E+03 0.  0.
         24    2    1    2    0    0  0.65725011507E+02 -0.10762404440E+03  0.32811483517E+03  0.36058090477E+03  0.80352546646E+02 0.  0.
        -13    1    4    4    0    0  0.24015499626E+02  0.74688557592E+01  0.80852539145E+02  0.84673851423E+02  0.00000000000E+00 0.  1.
         14    1    4    4    0    0  0.41709511881E+02 -0.11509290016E+03  0.24726229603E+03  0.27590705335E+03  0.00000000000E+00 0. -1.
        -13    1    3    3    0    0 -0.11112244412E+02  0.43794279619E+02 -0.18027691592E+03  0.18585259567E+03  0.00000000000E+00 0.  1.
         13    1    3    3    0    0 -0.84321522063E+02  0.53903500659E+02 -0.63169771301E+02  0.11834748190E+03  0.00000000000E+00 0. -1.
         21    1    1    2  502  501  0.29708754968E+02  0.99262641271E+01 -0.29643792433E+02  0.43126503117E+02  0.00000000000E+00 0.  1.
<scales pt_clust_5="13000.00000" pt_clust_6="13000.00000" pt_clust_7="13000.00000" pt_clust_8="13000.00000" pt_clust_9="31.32317"></scales>
<clustering>
<clus scale="   31.323">  2  9  1 -1</clus>
<clus scale="   80.353">  5  6 -1 -1</clus>
<clus scale="  120.909">  7  8 -1 -1</clus>
<clus scale="  149.871">  1  5  2 -1</clus>
<clus scale="  149.871">  1  5  2 -1</clus>
</clustering>
</event>
<event>
 9    2  0.3402837E-005  0.9756426E+02  0.7546771E-02  0.1290392E+00
         -3   -1    0    0    0  501 -0.00000000000E+00  0.00000000000E+00  0.23100019829E+02  0.23100019829E+02  0.00000000000E+00 0.  1.
          4   -1    0    0  502    0  0.00000000000E+00 -0.00000000000E+00 -0.55851089891E+03  0.55851089891E+03  0.00000000000E+00 0. -1.
         23    2    1    2    0    0 -0.19479721131E+02 -0.29622597126E+02 -0.19314523676E+03  0.21644616279E+03  0.91032417891E+02 0.  0.
         24    2    1    2    0    0 -0.95394948674E+01  0.38247195200E+02 -0.29809904086E+03  0.31161863308E+03  0.81788045717E+02 0.  0.
        -11    1    4    4    0    0 -0.21820159443E+02  0.60218837841E+02 -0.18569503792E+03  0.19643083999E+03  0.00000000000E+00 0.  1.
         12    1    4    4    0    0  0.12280664576E+02 -0.21971642642E+02 -0.11240400293E+03  0.11518779309E+03  0.00000000000E+00 0. -1.
        -13    1    3    3    0    0  0.34888517069E+02 -0.24064375592E+02 -0.72083529532E+02  0.83620201062E+02  0.00000000000E+00 0. -1.
         13    1    3    3    0    0 -0.54368238200E+02 -0.55582215342E+01 -0.12106170722E+03  0.13282596172E+03  0.00000000000E+00 0.  1.
         21    1    1    2  502  501  0.29019215998E+02 -0.86245980735E+01 -0.44166601469E+02  0.53546122870E+02  0.00000000000E+00 0. -1.
<scales pt_clust_5="13000.00000" pt_clust_6="13000.00000" pt_clust_7="13000.00000" pt_clust_8="13000.00000" pt_clust_9="30.27373"></scales>
<clustering>
<clus scale="   30.274">  1  9  2 -1</clus>
<clus scale="   81.788">  5  6 -1 -1</clus>
<clus scale="   89.001">  2  5  1 -1</clus>
<clus scale="   91.032">  7  8 -1 -1</clus>
<clus scale="   89.001">  2  5  1 -1</clus>
</clustering>
</event>
<event>
 9    2  0.3402837E-005  0.1239240E+03  0.7546771E-02  0.1258585E+00
         -1   -1    0    0    0  501 -0.00000000000E+00  0.00000000000E+00  0.62462401273E+02  0.62462401273E+02  0.00000000000E+00 0.  1.
          2   -1    0    0  502    0  0.00000000000E+00 -0.00000000000E+00 -0.78207042391E+03  0.78207042391E+03  0.00000000000E+00 0. -1.
         23    2    1    2    0    0 -0.82017448534E+02 -0.19727408540E+02 -0.12536189282E+03  0.17479732475E+03  0.87877574252E+02 0.  0.
         24    2    1    2    0    0 -0.49429427257E+01  0.31284301613E+01 -0.57317726606E+03  0.57873257328E+03  0.79780908026E+02 0.  0.
        -11    1    4    4    0    0  0.11141999225E+02  0.26766478133E+02 -0.86768603893E+02  0.91484310786E+02  0.00000000000E+00 0.  1.
         12    1    4    4    0    0 -0.16084941951E+02 -0.23638047972E+02 -0.48640866217E+03  0.48724826249E+03  0.00000000000E+00 0. -1.
        -11    1    3    3    0    0 -0.88619995071E+02 -0.39628579948E+02 -0.11747504865E+03  0.15239525888E+03  0.00000000000E+00 0. -1.
         11    1    3    3    0    0  0.66025465368E+01  0.19901171408E+02 -0.78868441762E+01  0.22402065870E+02  0.00000000000E+00 0.  1.
         21    1    1    2  502  501  0.86960391260E+02  0.16598978379E+02 -0.21068863758E+02  0.91002927158E+02  0.00000000000E+00 0.  1.
<scales pt_clust_5="13000.00000" pt_clust_6="13000.00000" pt_clust_7="13000.00000" pt_clust_8="13000.00000" pt_clust_9="87.37667"></scales>
<clustering>
<clus scale="   79.781">  5  6 -1 -1</clus>
<clus scale="   79.995">  2  5  1 -1</clus>
<clus scale="   87.377">  1  9  2 -1</clus>
<clus scale="   87.878">  7  8 -1 -1</clus>
<clus scale="   79.995">  2  5  1 -1</clus>
</clustering>
</event>
<event>
 9    2  0.3402837E-005  0.2443690E+03  0.7546771E-02  0.1135733E+00
          2   -1    0    0  502    0  0.00000000000E+00  0.00000000000E+00  0.80001823539E+03  0.80001823539E+03  0.00000000000E+00 0. -1.
         -1   -1    0    0    0  501 -0.00000000000E+00 -0.00000000000E+00 -0.23079113192E+03  0.23079113192E+03  0.00000000000E+00 0.  1.
         23    2    1    2    0    0  0.12684578641E+02  0.11961900616E+03 -0.36994664100E+02  0.15785477125E+03  0.95288606167E+02 0.  0.
         24    2    1    2    0    0 -0.15080692758E+03 -0.20221976353E+03  0.65415706459E+03  0.70503062191E+03  0.74237123544E+02 0.  0.
        -11    1    4    4    0    0 -0.40883231955E+02 -0.20250068059E+02  0.71661578267E+02  0.84952255480E+02  0.00000000000E+00 0.  1.
         12    1    4    4    0    0 -0.10992369562E+03 -0.18196969547E+03  0.58249548632E+03  0.62007836643E+03  0.00000000000E+00 0. -1.
        -13    1    3    3    0    0  0.22028745371E+02  0.49357414394E+00 -0.31234875078E+02  0.38224686515E+02  0.00000000000E+00 0.  1.
         13    1    3    3    0    0 -0.93441667299E+01  0.11912543201E+03 -0.57597890223E+01  0.11963008474E+03  0.00000000000E+00 0. -1.
         21    1    1    2  502  501  0.13812234893E+03  0.82600757377E+02 -0.47935297022E+02  0.16792397415E+03  0.00000000000E+00 0.  1.
<scales pt_clust_5="13000.00000" pt_clust_6="13000.00000" pt_clust_7="13000.00000" pt_clust_8="13000.00000" pt_clust_9="232.81976"></scales>
<clustering>
<clus scale="   74.237">  5  6 -1 -1</clus>
<clus scale="   95.289">  7  8 -1 -1</clus>
<clus scale="  153.459">  2  7  1 -1</clus>
<clus scale="  232.820">  2  9  1 -1</clus>
<clus scale="  244.369">  1  5  2 -1</clus>
</clustering>
</event>
<event>
 9    2  0.3402837E-005  0.1024832E+03  0.7546771E-02  0.1281463E+00
         -3   -1    0    0    0  501 -0.00000000000E+00  0.00000000000E+00  0.53604996748E+02  0.53604996748E+02  0.00000000000E+00 0.  1.
          4   -1    0    0  502    0  0.00000000000E+00 -0.00000000000E+00 -0.42502516341E+03  0.42502516341E+03  0.00000000000E+00 0. -1.
         23    2    1    2    0    0 -0.20716248833E+01  0.21820840265E+02 -0.37831516121E+02  0.10408760356E+03  0.94459329357E+02 0.  0.
         24    2    1    2    0    0  0.23805641585E+02 -0.36482750129E+02 -0.33570348935E+03  0.34824024442E+03  0.81711293220E+02 0.  0.
        -11    1    4    4    0    0  0.37356546118E+02 -0.27598181766E+02 -0.83752585929E+02  0.95768819688E+02  0.00000000000E+00 0.  1.
         12    1    4    4    0    0 -0.13550904533E+02 -0.88845683637E+01 -0.25195090342E+03  0.25247142473E+03  0.00000000000E+00 0. -1.
        -11    1    3    3    0    0  0.31895572606E+02 -0.23925118907E+02 -0.13037093157E+02  0.41948833888E+02  0.00000000000E+00 0. -1.
         11    1    3    3    0    0 -0.33967197489E+02  0.45745959172E+02 -0.24794422964E+02  0.62138769669E+02  0.00000000000E+00 0.  1.
         21    1    1    2  502  501 -0.21734016702E+02  0.14661909864E+02  0.21148388160E+01  0.26302312181E+02  0.00000000000E+00 0.  1.
<scales pt_clust_5="13000.00000" pt_clust_6="13000.00000" pt_clust_7="13000.00000" pt_clust_8="13000.00000" pt_clust_9="26.21715"></scales>
<clustering>
<clus scale="   26.217">  1  9  2 -1</clus>
<clus scale="   81.711">  5  6 -1 -1</clus>
<clus scale="   90.868">  2  5  1 -1</clus>
<clus scale="   94.459">  7  8 -1 -1</clus>
<clus scale="   90.868">  2  5  1 -1</clus>
</clustering>
</event>
<event>
 9    2  0.3402837E-005  0.9395094E+02  0.7546771E-02  0.1300945E+00
          2   -1    0    0  502    0  0.00000000000E+00  0.00000000000E+00  0.23805598054E+03  0.23805598054E+03  0.00000000000E+00 0. -1.
         -1   -1    0    0    0  501 -0.00000000000E+00 -0.00000000000E+00 -0.96669547767E+02  0.96669547767E+02  0.00000000000E+00 0.  1.
         23    2    1    2    0    0  0.91396504534E+01  0.33875173029E+02  0.14352393998E+01  0.97993563875E+02  0.91485616851E+02 0.  0.
         24    2    1    2    0    0 -0.18102986149E+02 -0.95186484913E+01  0.17499288695E+03  0.19312574970E+03  0.79099443344E+02 0.  0.
        -11    1    4    4    0    0 -0.24027517797E+02  0.23666222085E+02  0.32994671137E+02  0.47181140329E+02  0.00000000000E+00 0.  1.
         12    1    4    4    0    0  0.59245316484E+01 -0.33184870576E+02  0.14199821581E+03  0.14594460937E+03  0.00000000000E+00 0. -1.
        -11    1    3    3    0    0  0.30217590639E+02  0.45446246135E+02  0.28682728783E+02  0.61653572502E+02  0.00000000000E+00 0.  1.
         11    1    3    3    0    0 -0.21077940185E+02 -0.11571073106E+02 -0.27247489383E+02  0.36339991373E+02  0.00000000000E+00 0. -1.
         21    1    1    2  502  501  0.89633356952E+01 -0.24356524538E+02 -0.35041693578E+02  0.43606214731E+02  0.00000000000E+00 0.  1.
<scales pt_clust_5="13000.00000" pt_clust_6="13000.00000" pt_clust_7="13000.00000" pt_clust_8="13000.00000" pt_clust_9="25.95345"></scales>
<clustering>
<clus scale="   25.953">  2  9  1 -1</clus>
<clus scale="   79.099">  5  6 -1 -1</clus>
<clus scale="   81.938">  1  5  2 -1</clus>
<clus scale="   91.486">  7  8 -1 -1</clus>
<clus scale="   81.938">  1  5  2 -1</clus>
</clustering>
</event>
<event>
 9    2  0.3402837E-005  0.1837703E+03  0.7546771E-02  0.1165507E+00
         -3   -1    0    0    0  501 -0.00000000000E+00  0.00000000000E+00  0.41932374256E+02  0.41932374256E+02  0.00000000000E+00 0.  1.
          4   -1    0    0  502    0  0.00000000000E+00 -0.00000000000E+00 -0.12479877342E+04  0.12479877342E+04  0.00000000000E+00 0. -1.
         23    2    1    2    0    0 -0.14654229316E+03 -0.20227881511E+02 -0.26157668146E+03  0.31406837428E+03  0.91284021429E+02 0.  0.
         24    2    1    2    0    0  0.16387222881E+03 -0.18293481618E+02 -0.87935923234E+03  0.89823237864E+03  0.79749530934E+02 0.  0.
        -11    1    4    4    0    0  0.47915665512E+02 -0.22300986001E+02 -0.13663869370E+03  0.14650384839E+03  0.00000000000E+00 0.  1.
         12    1    4    4    0    0  0.11595656330E+03  0.40075043827E+01 -0.74272053864E+03  0.75172853024E+03  0.00000000000E+00 0. -1.
        -11    1    3    3    0    0 -0.13640111393E+03  0.78152496844E+01 -0.17200724741E+03  0.21966527984E+03  0.00000000000E+00 0.  1.
         11    1    3    3    0    0 -0.10141179229E+02 -0.28043131195E+02 -0.89569434052E+02  0.94403094440E+02  0.00000000000E+00 0. -1.
         21    1    1    2  502  501 -0.17329935650E+02  0.38521363129E+02 -0.65119446128E+02  0.77619355518E+02  0.00000000000E+00 0.  1.
<scales pt_clust_5="13000.00000" pt_clust_6="13000.00000" pt_clust_7="13000.00000" pt_clust_8="13000.00000" pt_clust_9="42.24005"></scales>
<clustering>
<clus scale="   42.240">  1  9  2 -1</clus>
<clus scale="   79.750">  5  6 -1 -1</clus>
<clus scale="   91.284">  7  8 -1 -1</clus>
<clus scale="  178.322">  2  5  1 -1</clus>
<clus scale="  178.322">  2  5  1 -1</clus>
</clustering>
</event>
<event>
 9    2  0.3402837E-005  0.1572818E+03  0.7546771E-02  0.1193231E+00
          2   -1    0    0  502    0  0.00000000000E+00  0.00000000000E+00  0.73394219144E+03  0.73394219144E+03  0.00000000000E+00 0. -1.
         -1   -1    0    0    0  501 -0.00000000000E+00 -0.00000000000E+00 -0.20100677655E+03  0.20100677655E+03  0.00000000000E+00 0.  1.
         23    2    1    2    0    0  0.17084791803E+03 -0.13465099220E+02 -0.11926353636E+03  0.22691811250E+03  0.88869109844E+02 0.  0.
         24    2    1    2    0    0 -0.12399105273E+03  0.30848989516E+02  0.63873057666E+03  0.65627022777E+03  0.79927598436E+02 0.  0.
        -11    1    4    4    0    0 -0.22561898090E+02  0.39353996489E+02  0.13685633356E+03  0.14417847384E+03  0.00000000000E+00 0.  1.
         12    1    4    4    0    0 -0.10142915464E+03 -0.85050069721E+01  0.50187424310E+03  0.51209175393E+03  0.00000000000E+00 0. -1.
        -11    1    3    3    0    0  0.14354760037E+03 -0.24951852304E+02 -0.13014723029E+03  0.19536327715E+03  0.00000000000E+00 0.  1.
         11    1    3    3    0    0  0.27300317653E+02  0.11486753084E+02  0.10883693931E+02  0.31554835350E+02  0.00000000000E+00 0. -1.
         21    1    1    2  502  501 -0.46856865295E+02 -0.17383890297E+02  0.13468374601E+02  0.51760627716E+02  0.00000000000E+00 0. -1.
<scales pt_clust_5="13000.00000" pt_clust_6="13000.00000" pt_clust_7="13000.00000" pt_clust_8="13000.00000" pt_clust_9="49.97765"></scales>
<clustering>
<clus scale="   49.978">  2  9  1 -1</clus>
<clus scale="   79.928">  5  6 -1 -1</clus>
<clus scale="   88.869">  7  8 -1 -1</clus>
<clus scale="  152.408">  1  5  2 -1</clus>
<clus scale="  152.408">  1  5  2 -1</clus>
</clustering>
</event>
<event>
 9    2  0.3402837E-005  0.1352989E+03  0.7546771E-02  0.1222750E+00
         -1   -1    0    0    0  501 -0.00000000000E+00  0.00000000000E+00  0.86122738013E+03  0.86122738013E+03  0.00000000000E+00 0.  1.
          2   -1    0    0  502    0  0.00000000000E+00 -0.00000000000E+00 -0.58823429315E+02  0.58823429315E+02  0.00000000000E+00 0. -1.
         23    2    1    2    0    0 -0.10630712658E+03  0.12123561202E+02  0.74556430362E+03  0.75880362786E+03  0.92025153797E+02 0.  0.
         24    2    1    2    0    0  0.62009328371E+02  0.82035761215E+01  0.46526274432E+02  0.11142898114E+03  0.79619521224E+02 0.  0.
        -13    1    4    4    0    0  0.19596922315E+02 -0.31019138681E+02 -0.87600303713E+00  0.36701412916E+02  0.00000000000E+00 0.  1.
         14    1    4    4    0    0  0.42412406056E+02  0.39222714802E+02  0.47402277470E+02  0.74727568228E+02  0.00000000000E+00 0. -1.
        -13    1    3    3    0    0 -0.98537641391E+02  0.42190473823E+02  0.63401832205E+03  0.64301550179E+03  0.00000000000E+00 0.  1.
         13    1    3    3    0    0 -0.77694851863E+01 -0.30066912621E+02  0.11154598157E+03  0.11578812607E+03  0.00000000000E+00 0. -1.
         21    1    1    2  502  501  0.44297798206E+02 -0.20327137323E+02  0.10313372771E+02  0.49818200445E+02  0.00000000000E+00 0.  1.
<scales pt_clust_5="13000.00000" pt_clust_6="13000.00000" pt_clust_7="13000.00000" pt_clust_8="13000.00000" pt_clust_9="48.73897"></scales>
<clustering>
<clus scale="   48.739">  2  9  1 -1</clus>
<clus scale="   79.620">  5  6 -1 -1</clus>
<clus scale="   92.025">  7  8 -1 -1</clus>
<clus scale="  127.187">  2  5  1 -1</clus>
<clus scale="   48.739">  2  5  1 -1</clus>
</clustering>
</event>
<event>
 9    2  0.3402837E-005  0.1056632E+03  0.7546771E-02  0.1282405E+00
          2   -1    0    0  502    0  0.00000000000E+00  0.00000000000E+00  0.58117771963E+03  0.58117771963E+03  0.00000000000E+00 0. -1.
         -1   -1    0    0    0  501 -0.00000000000E+00 -0.00000000000E+00 -0.36250410622E+02  0.36250410622E+02  0.00000000000E+00 0.  1.
         23    2    1    2    0    0  0.86352372416E+01  0.32595723005E+02  0.87133777153E+02  0.14022102573E+03  0.10455903813E+03 0.  0.
         24    2    1    2    0    0  0.58396563388E+01 -0.12168987226E+02  0.43755807599E+03  0.44501630222E+03  0.80001584623E+02 0.  0.
        -13    1    4    4    0    0  0.19502502357E+02 -0.36241570777E+02  0.13347325452E+03  0.13967429514E+03  0.00000000000E+00 0.  1.
         14    1    4    4    0    0 -0.13662846018E+02  0.24072583551E+02  0.30408482147E+03  0.30534200708E+03  0.00000000000E+00 0. -1.
        -11    1    3    3    0    0 -0.20712880225E+02  0.63162398444E+02  0.62311750018E+02  0.91111284563E+02  0.00000000000E+00 0. -1.
         11    1    3    3    0    0  0.29348117467E+02 -0.30566675439E+02  0.24822027135E+02  0.49109741165E+02  0.00000000000E+00 0.  1.
         21    1    1    2  502  501 -0.14474893580E+02 -0.20426735779E+02  0.20235455862E+02  0.32190802300E+02  0.00000000000E+00 0.  1.
<scales pt_clust_5="13000.00000" pt_clust_6="13000.00000" pt_clust_7="13000.00000" pt_clust_8="13000.00000" pt_clust_9="25.03546"></scales>
<clustering>
<clus scale="   25.035">  2  9  1 -1</clus>
<clus scale="   80.002">  5  6 -1 -1</clus>
<clus scale="   81.439">  1  5  2 -1</clus>
<clus scale="  104.559">  7  8 -1 -1</clus>
<clus scale="   81.439">  1  5  2 -1</clus>
</clustering>
</event>
<event>
 9    2  0.3402837E-005  0.9396075E+02  0.7546771E-02  0.1295339E+00
          2   -1    0    0  502    0  0.00000000000E+00  0.00000000000E+00  0.19050180800E+03  0.19050180800E+03  0.00000000000E+00 0. -1.
         -1   -1    0    0    0  501 -0.00000000000E+00 -0.00000000000E+00 -0.15601075473E+03  0.15601075473E+03  0.00000000000E+00 0.  1.
         23    2    1    2    0    0  0.31528011144E+02 -0.12888095177E+02 -0.58530833851E+02  0.10964748682E+03  0.86235690819E+02 0.  0.
         24    2    1    2    0    0  0.59535529261E-01  0.40959519429E+02  0.14371684332E+03  0.17086692026E+03  0.82844961259E+02 0.  0.
        -11    1    4    4    0    0 -0.30494574926E+02 -0.10723167332E+01  0.19482051151E+02  0.36202476160E+02  0.00000000000E+00 0.  1.
         12    1    4    4    0    0  0.30554110455E+02  0.42031836163E+02  0.12423479217E+03  0.13466444409E+03  0.00000000000E+00 0. -1.
        -13    1    3    3    0    0  0.26972137047E+02 -0.49175734040E+02 -0.37332202892E+02  0.67375383992E+02  0.00000000000E+00 0.  1.
         13    1    3    3    0    0  0.45558740971E+01  0.36287638864E+02 -0.21198630959E+02  0.42272102830E+02  0.00000000000E+00 0. -1.
         21    1    1    2  502  501 -0.31587546674E+02 -0.28071424253E+02 -0.50694956211E+02  0.65998155653E+02  0.00000000000E+00 0.  1.
<scales pt_clust_5="13000.00000" pt_clust_6="13000.00000" pt_clust_7="13000.00000" pt_clust_8="13000.00000" pt_clust_9="42.25847"></scales>
<clustering>
<clus scale="   42.258">  2  9  1 -1</clus>
<clus scale="   82.845">  5  6 -1 -1</clus>
<clus scale="   86.236">  7  8 -1 -1</clus>
<clus scale="   90.859">  1  5  2 -1</clus>
<clus scale="   90.859">  1  5  2 -1</clus>
</clustering>
</event>
<event>
 9    2  0.3402837E-005  0.9370556E+02  0.7546771E-02  0.1296283E+00
         -1   -1    0    0    0  501 -0.00000000000E+00  0.00000000000E+00  0.65945079597E+02  0.65945079597E+02  0.00000000000E+00 0.  1.
          2   -1    0    0  502    0  0.00000000000E+00 -0.00000000000E+00 -0.24987975150E+03  0.24987975150E+03  0.00000000000E+00 0. -1.
         23    2    1    2    0    0  0.72552456252E+00  0.18102309379E+02 -0.68715162902E+01  0.91361122077E+02  0.89282791737E+02 0.  0.
         24    2    1    2    0    0 -0.13612214940E+02  0.30079156719E+00 -0.17872550395E+03  0.20193585259E+03  0.93004838195E+02 0.  0.
        -11    1    4    4    0    0 -0.19417694802E+02 -0.31135470146E+02 -0.23777508317E+02  0.43724527149E+02  0.00000000000E+00 0.  1.
         12    1    4    4    0    0  0.58054798621E+01  0.31436261713E+02 -0.15494799564E+03  0.15821132544E+03  0.00000000000E+00 0. -1.
        -13    1    3    3    0    0  0.35708620913E+02  0.23625958736E+01  0.23173742293E+02  0.42634607992E+02  0.00000000000E+00 0.  1.
         13    1    3    3    0    0 -0.34983096351E+02  0.15739713505E+02 -0.30045258583E+02  0.48726514085E+02  0.00000000000E+00 0. -1.
         21    1    1    2  502  501  0.12886690377E+02 -0.18403100946E+02  0.16623483393E+01  0.22527856429E+02  0.00000000000E+00 0. -1.
<scales pt_clust_5="13000.00000" pt_clust_6="13000.00000" pt_clust_7="13000.00000" pt_clust_8="13000.00000" pt_clust_9="22.46644"></scales>
<clustering>
<clus scale="   22.466">  1  9  2 -1</clus>
<clus scale="   89.283">  7  8 -1 -1</clus>
<clus scale="   90.012">  1  7  2 -1</clus>
<clus scale="   93.005">  5  6 -1 -1</clus>
<clus scale="   93.706">  2  5  1 -1</clus>
</clustering>
</event>
<event>
 9    2  0.3402837E-005  0.1403339E+03  0.7546771E-02  0.1215177E+00
         -1   -1    0    0    0  501 -0.00000000000E+00  0.00000000000E+00  0.94027662940E+02  0.94027662940E+02  0.00000000000E+00 0.  1.
          2   -1    0    0  502    0  0.00000000000E+00 -0.00000000000E+00 -0.26329463508E+03  0.26329463508E+03  0.00000000000E+00 0. -1.
         23    2    1    2    0    0 -0.38466735102E+02 -0.10437211614E+03 -0.44950432924E+02  0.15058469251E+03  0.91005383695E+02 0.  0.
         24    2    1    2    0    0  0.60574730415E+02  0.86550406828E+02 -0.11812670387E+03  0.17767403999E+03  0.80336015774E+02 0.  0.
        -11    1    4    4    0    0  0.11539075960E+02  0.39972535296E+02 -0.55316024064E-01  0.41604770301E+02  0.00000000000E+00 0.  1.
         12    1    4    4    0    0  0.49035654455E+02  0.46577871532E+02 -0.11807138785E+03  0.13606926968E+03  0.00000000000E+00 0. -1.
        -11    1    3    3    0    0  0.10070759079E+02 -0.90995522246E+02 -0.17390812773E+02  0.93188226864E+02  0.00000000000E+00 0. -1.
         11    1    3    3    0    0 -0.48537494182E+02 -0.13376593890E+02 -0.27559620151E+02  0.57396465644E+02  0.00000000000E+00 0.  1.
         21    1    1    2  502  501 -0.22107995313E+02  0.17821709308E+02 -0.61898353440E+01  0.29063565525E+02  0.00000000000E+00 0. -1.
<scales pt_clust_5="13000.00000" pt_clust_6="13000.00000" pt_clust_7="13000.00000" pt_clust_8="13000.00000" pt_clust_9="28.39677"></scales>
<clustering>
<clus scale="   28.397">  1  9  2 -1</clus>
<clus scale="   80.336">  5  6 -1 -1</clus>
<clus scale="   91.005">  7  8 -1 -1</clus>
<clus scale="  133.662">  2  5  1 -1</clus>
<clus scale="  133.662">  2  5  1 -1</clus>
</clustering>
</event>
<event>
 9    2  0.3402837E-005  0.1078449E+03  0.7546771E-02  0.1269028E+00
          2   -1    0    0  502    0  0.00000000000E+00  0.00000000000E+00  0.26008540142E+03  0.26008540142E+03  0.00000000000E+00 0. -1.
         -1   -1    0    0    0  501 -0.00000000000E+00 -0.00000000000E+00 -0.91571737076E+02  0.91571737076E+02  0.00000000000E+00 0.  1.
         24    2    1    2    0    0 -0.19773077394E+02  0.36988918321E+02 -0.36358175462E+02  0.96747420388E+02  0.79240089352E+02 0.  0.
         23    2    1    2    0    0  0.18781870177E+02 -0.60203722810E+02  0.20389416279E+03  0.23165320307E+03  0.90072914831E+02 0.  0.
        -13    1    3    3    0    0  0.45419455119E+00  0.55109627849E+02 -0.51105543487E+01  0.55347946123E+02  0.00000000000E+00 0.  1.
         14    1    3    3    0    0 -0.20227271945E+02 -0.18120709528E+02 -0.31247621113E+02  0.41399474264E+02  0.00000000000E+00 0. -1.
        -13    1    4    4    0    0  0.29294483569E+02  0.22371884187E+01  0.16165575092E+02  0.33533529454E+02  0.00000000000E+00 0.  1.
         13    1    4    4    0    0 -0.10512613392E+02 -0.62440911229E+02  0.18772858770E+03  0.19811967362E+03  0.00000000000E+00 0. -1.
         21    1    1    2  502  501  0.99120721677E+00  0.23214804489E+02  0.97767701456E+00  0.23256515035E+02  0.00000000000E+00 0.  1.
<scales pt_clust_5="13000.00000" pt_clust_6="13000.00000" pt_clust_7="13000.00000" pt_clust_8="13000.00000" pt_clust_9="23.23596"></scales>
<clustering>
<clus scale="   23.236">  2  9  1 -1</clus>
<clus scale="   79.240">  5  6 -1 -1</clus>
<clus scale="   90.073">  7  8 -1 -1</clus>
<clus scale="   98.977">  2  5  1 -1</clus>
<clus scale="  107.845">  1  5  2 -1</clus>
</clustering>
</event>
<event>
 9    2  0.3402837E-005  0.1621892E+03  0.7546771E-02  0.1205616E+00
         -1   -1    0    0    0  501 -0.00000000000E+00  0.00000000000E+00  0.39805725229E+02  0.39805725229E+02  0.00000000000E+00 0.  1.
          2   -1    0    0  502    0  0.00000000000E+00 -0.00000000000E+00 -0.14383183239E+04  0.14383183239E+04  0.00000000000E+00 0. -1.
         23    2    1    2    0    0 -0.83999478009E+02  0.89115279321E+02 -0.40802671812E+03  0.43654982096E+03  0.95354591745E+02 0.  0.
         24    2    1    2    0    0  0.50760950554E+01  0.21542875624E+02 -0.80307664386E+03  0.81006537385E+03  0.10384580763E+03 0.  0.
        -11    1    4    4    0    0  0.29925715086E+02  0.26863336134E+01 -0.68178966517E+02  0.74505947997E+02  0.00000000000E+00 0.  1.
         12    1    4    4    0    0 -0.24849620031E+02  0.18856542010E+02 -0.73489767735E+03  0.73555942585E+03  0.00000000000E+00 0. -1.
        -13    1    3    3    0    0 -0.50063838271E+02  0.78306310959E+02 -0.38007962354E+03  0.39127840021E+03  0.00000000000E+00 0. -1.
         13    1    3    3    0    0 -0.33935639738E+02  0.10808968363E+02 -0.27947094577E+02  0.45271420751E+02  0.00000000000E+00 0.  1.
         21    1    1    2  502  501  0.78923382954E+02 -0.11065815495E+03 -0.18740923670E+03  0.23150885433E+03  0.00000000000E+00 0.  1.
<scales pt_clust_5="13000.00000" pt_clust_6="13000.00000" pt_clust_7="13000.00000" pt_clust_8="13000.00000" pt_clust_9="131.19775"></scales>
<clustering>
<clus scale="   95.355">  7  8 -1 -1</clus>
<clus scale="  103.846">  5  6 -1 -1</clus>
<clus scale="  106.178">  2  5  1 -1</clus>
<clus scale="  131.198">  1  9  2 -1</clus>
<clus scale="  106.178">  2  5  1 -1</clus>
</clustering>
</event>
<event>
 9    2  0.3402837E-005  0.9555033E+02  0.7546771E-02  0.1298244E+00
         -1   -1    0    0    0  501 -0.00000000000E+00  0.00000000000E+00  0.42450633965E+02  0.42450633965E+02  0.00000000000E+00 0.  1.
          2   -1    0    0  502    0  0.00000000000E+00 -0.00000000000E+00 -0.61931930436E+03  0.61931930436E+03  0.00000000000E+00 0. -1.
         23    2    1    2    0    0  0.46296562695E+02 -0.10747853994E+02 -0.44068873417E+02  0.11180819037E+03  0.91104982005E+02 0.  0.
         24    2    1    2    0    0 -0.26275912903E+02 -0.82584599362E+01 -0.50215888033E+03  0.50871938915E+03  0.76637132258E+02 0.  0.
        -11    1    4    4    0    0 -0.10738815555E+02 -0.35842926192E+02 -0.13175617404E+03  0.13696615244E+03  0.00000000000E+00 0.  1.
         12    1    4    4    0    0 -0.15537097348E+02  0.27584466256E+02 -0.37040270629E+03  0.37175323671E+03  0.00000000000E+00 0. -1.
        -11    1    3    3    0    0 -0.65419441134E+01  0.24200069246E+02 -0.41404068937E+02  0.48401831669E+02  0.00000000000E+00 0. -1.
         11    1    3    3    0    0  0.52838506808E+02 -0.34947923240E+02 -0.26648044800E+01  0.63406358699E+02  0.00000000000E+00 0.  1.
         21    1    1    2  502  501 -0.20020649792E+02  0.19006313930E+02 -0.30640916648E+02  0.41242358811E+02  0.00000000000E+00 0. -1.
<scales pt_clust_5="13000.00000" pt_clust_6="13000.00000" pt_clust_7="13000.00000" pt_clust_8="13000.00000" pt_clust_9="27.60555"></scales>
<clustering>
<clus scale="   27.606">  1  9  2 -1</clus>
<clus scale="   76.637">  5  6 -1 -1</clus>
<clus scale="   81.872">  2  5  1 -1</clus>
<clus scale="   91.105">  7  8 -1 -1</clus>
<clus scale="   81.872">  2  5  1 -1</clus>
</clustering>
</event>
<event>
 9    2  0.3402837E-005  0.1899562E+03  0.7546771E-02  0.1160371E+00
         -1   -1    0    0    0  501 -0.00000000000E+00  0.00000000000E+00  0.35351545566E+03  0.35351545566E+03  0.00000000000E+00 0.  1.
          2   -1    0    0  502    0  0.00000000000E+00 -0.00000000000E+00 -0.27232079585E+03  0.27232079585E+03  0.00000000000E+00 0. -1.
         23    2    1    2    0    0 -0.10640258972E+03 -0.12427653942E+03  0.72880001999E+02  0.20442342082E+03  0.98545780924E+02 0.  0.
         24    2    1    2    0    0  0.75248849746E+02  0.14459537893E+03 -0.16390353078E+03  0.24522396829E+03  0.81854836304E+02 0.  0.
        -13    1    4    4    0    0  0.39659862517E+02  0.76685354724E+02 -0.30886391019E+02  0.91692515912E+02  0.00000000000E+00 0.  1.
         14    1    4    4    0    0  0.35588987229E+02  0.67910024206E+02 -0.13301713976E+03  0.15353145238E+03  0.00000000000E+00 0. -1.
        -11    1    3    3    0    0 -0.12032878777E+02 -0.73041656618E+02 -0.10842919757E+01  0.74034110126E+02  0.00000000000E+00 0.  1.
         11    1    3    3    0    0 -0.94369710943E+02 -0.51234882802E+02  0.73964293975E+02  0.13038931069E+03  0.00000000000E+00 0. -1.
         21    1    1    2  502  501  0.31153739973E+02 -0.20318839511E+02  0.17221818859E+03  0.17618886241E+03  0.00000000000E+00 0.  1.
<scales pt_clust_5="13000.00000" pt_clust_6="13000.00000" pt_clust_7="13000.00000" pt_clust_8="13000.00000" pt_clust_9="37.19423"></scales>
<clustering>
<clus scale="   37.194">  1  9  2 -1</clus>
<clus scale="   81.855">  5  6 -1 -1</clus>
<clus scale="   98.546">  7  8 -1 -1</clus>
<clus scale="  181.858">  2  5  1 -1</clus>
<clus scale="  181.858">  2  5  1 -1</clus>
</clustering>
</event>
<event>
 9    2  0.3402837E-005  0.9289471E+02  0.7546771E-02  0.1301173E+00
         -1   -1    0    0    0  501 -0.00000000000E+00  0.00000000000E+00  0.38381394184E+03  0.38381394184E+03  0.00000000000E+00 0.  1.
          2   -1    0    0  502    0  0.00000000000E+00 -0.00000000000E+00 -0.12814822852E+03  0.12814822852E+03  0.00000000000E+00 0. -1.
         23    2    1    2    0    0  0.11622312854E+02 -0.37866568827E+02  0.33352396737E+03  0.34752690724E+03  0.89262305897E+02 0.  0.
         24    2    1    2    0    0  0.11925029641E+02  0.22635096745E+02 -0.98441270797E+02  0.12964825895E+03  0.80395480692E+02 0.  0.
        -13    1    4    4    0    0  0.44117537011E+02  0.20739509403E+02 -0.40672911817E+02  0.63488346000E+02  0.00000000000E+00 0.  1.
         14    1    4    4    0    0 -0.32192507370E+02  0.18955873422E+01 -0.57768358980E+02  0.66159912949E+02  0.00000000000E+00 0. -1.
        -13    1    3    3    0    0 -0.65683876057E+01  0.19613196334E+02  0.21896671724E+02  0.30121178907E+02  0.00000000000E+00 0. -1.
         13    1    3    3    0    0  0.18190700460E+02 -0.57479765161E+02  0.31162729565E+03  0.31740572834E+03  0.00000000000E+00 0.  1.
         21    1    1    2  502  501 -0.23547342495E+02  0.15231472083E+02  0.20583016741E+02  0.34787004162E+02  0.00000000000E+00 0.  1.
<scales pt_clust_5="13000.00000" pt_clust_6="13000.00000" pt_clust_7="13000.00000" pt_clust_8="13000.00000" pt_clust_9="28.04416"></scales>
<clustering>
<clus scale="   28.044">  1  9  2 -1</clus>
<clus scale="   80.395">  5  6 -1 -1</clus>
<clus scale="   84.410">  2  5  1 -1</clus>
<clus scale="   89.262">  7  8 -1 -1</clus>
<clus scale="   84.410">  2  5  1 -1</clus>
</clustering>
</event>
<event>
 9    2  0.3402837E-005  0.9202308E+02  0.7546771E-02  0.1304610E+00
         -3   -1    0    0    0  501 -0.00000000000E+00  0.00000000000E+00  0.18716323921E+03  0.18716323921E+03  0.00000000000E+00 0.  1.
          4   -1    0    0  502    0  0.00000000000E+00 -0.00000000000E+00 -0.22388044595E+03  0.22388044595E+03  0.00000000000E+00 0. -1.
         23    2    1    2    0    0  0.37176753814E+02  0.12157109985E+02 -0.39769194689E+02  0.10494580240E+03  0.88893904449E+02 0.  0.
         24    2    1    2    0    0 -0.19355840631E+02  0.50127893417E+01 -0.13969152035E+03  0.16122518157E+03  0.77974750347E+02 0.  0.
        -13    1    4    4    0    0 -0.28824762317E+02  0.37096746331E+02 -0.84797275055E+02  0.96941288251E+02  0.00000000000E+00 0.  1.
         14    1    4    4    0    0  0.94689216859E+01 -0.32083956990E+02 -0.54894245296E+02  0.64283893322E+02  0.00000000000E+00 0. -1.
        -13    1    3    3    0    0 -0.71489168449E+00  0.40488178597E+02  0.37431328954E+01  0.40667120873E+02  0.00000000000E+00 0.  1.
         13    1    3    3    0    0  0.37891645498E+02 -0.28331068612E+02 -0.43512327585E+02  0.64278681529E+02  0.00000000000E+00 0. -1.
         21    1    1    2  502  501 -0.17820913183E+02 -0.17169899326E+02  0.14274350829E+03  0.14487270119E+03  0.00000000000E+00 0.  1.
<scales pt_clust_5="13000.00000" pt_clust_6="13000.00000" pt_clust_7="13000.00000" pt_clust_8="13000.00000" pt_clust_9="24.74652"></scales>
<clustering>
<clus scale="   24.747">  1  9  2 -1</clus>
<clus scale="   77.975">  5  6 -1 -1</clus>
<clus scale="   81.524">  2  5  1 -1</clus>
<clus scale="   88.894">  7  8 -1 -1</clus>
<clus scale="   81.524">  2  5  1 -1</clus>
</clustering>
</event>
<event>
 9    2  0.3402837E-005  0.1632851E+03  0.7546771E-02  0.1186658E+00
         -1   -1    0    0    0  501 -0.00000000000E+00  0.00000000000E+00  0.35168773088E+03  0.35168773088E+03  0.00000000000E+00 0.  1.
          2   -1    0    0  502    0  0.00000000000E+00 -0.00000000000E+00 -0.15707654823E+03  0.15707654823E+03  0.00000000000E+00 0. -1.
         23    2    1    2    0    0  0.73363350596E+02  0.13599409913E+03  0.24576888409E+03  0.30454205198E+03  0.92015981366E+02 0.  0.
         24    2    1    2    0    0 -0.78274289335E+02 -0.10570693645E+03 -0.68331624922E+02  0.16906012835E+03  0.81309871767E+02 0.  0.
        -11    1    4    4    0    0  0.13788040938E+02 -0.37682202234E+02 -0.16011872421E+02  0.43202297352E+02  0.00000000000E+00 0.  1.
         12    1    4    4    0    0 -0.92062330272E+02 -0.68024734221E+02 -0.52319752501E+02  0.12585783099E+03  0.00000000000E+00 0. -1.
        -13    1    3    3    0    0  0.38120868636E+02  0.27026691094E+01  0.30447166345E+02  0.48862408704E+02  0.00000000000E+00 0. -1.
         13    1    3    3    0    0  0.35242481960E+02  0.13329143003E+03  0.21532171775E+03  0.25567964328E+03  0.00000000000E+00 0.  1.
         21    1    1    2  502  501  0.49109387387E+01 -0.30287162680E+02  0.17173923476E+02  0.35162098772E+02  0.00000000000E+00 0.  1.
<scales pt_clust_5="13000.00000" pt_clust_6="13000.00000" pt_clust_7="13000.00000" pt_clust_8="13000.00000" pt_clust_9="30.68272"></scales>
<clustering>
<clus scale="   30.683">  1  9  2 -1</clus>
<clus scale="   81.310">  5  6 -1 -1</clus>
<clus scale="   92.016">  7  8 -1 -1</clus>
<clus scale="  157.500">  2  5  1 -1</clus>
<clus scale="  157.500">  2  5  1 -1</clus>
</clustering>
</event>
<event>
 9    2  0.3402837E-005  0.9159537E+02  0.7546771E-02  0.1305240E+00
          4   -1    0    0  502    0  0.00000000000E+00  0.00000000000E+00  0.33947519827E+03  0.33947519827E+03  0.00000000000E+00 0. -1.
         -3   -1    0    0    0  501 -0.00000000000E+00 -0.00000000000E+00 -0.55593857434E+02  0.55593857434E+02  0.00000000000E+00 0.  1.
         24    2    1    2    0    0 -0.86425999649E+01 -0.36750623473E+01 -0.71828096440E+01  0.81698005198E+02  0.80837928484E+02 0.  0.
         23    2    1    2    0    0  0.29096781446E+02  0.57279170123E+01  0.23655682338E+03  0.25511612402E+03  0.90805695432E+02 0.  0.
        -11    1    3    3    0    0 -0.23889310121E+02  0.31698573598E+02 -0.14929109198E+02  0.42407275409E+02  0.00000000000E+00 0.  1.
         12    1    3    3    0    0  0.15246710156E+02 -0.35373635945E+02  0.77462995542E+01  0.39290729789E+02  0.00000000000E+00 0. -1.
        -11    1    4    4    0    0  0.51799168994E+02  0.21957830759E+02  0.91606100085E+02  0.10750338512E+03  0.00000000000E+00 0.  1.
         11    1    4    4    0    0 -0.22702387548E+02 -0.16229913747E+02  0.14495072329E+03  0.14761273889E+03  0.00000000000E+00 0. -1.
         21    1    1    2  502  501 -0.20454181481E+02 -0.20528546650E+01  0.54507327102E+02  0.58254926488E+02  0.00000000000E+00 0. -1.
<scales pt_clust_5="13000.00000" pt_clust_6="13000.00000" pt_clust_7="13000.00000" pt_clust_8="13000.00000" pt_clust_9="20.55694"></scales>
<clustering>
<clus scale="   20.557">  1  9  2 -1</clus>
<clus scale="   80.838">  5  6 -1 -1</clus>
<clus scale="   81.724">  2  5  1 -1</clus>
<clus scale="   90.806">  7  8 -1 -1</clus>
<clus scale="   20.557">  1  5  2 -1</clus>
</clustering>
</event>
<event>
 9    2  0.3402837E-005  0.1446754E+03  0.7546771E-02  0.1209443E+00
         -3   -1    0    0    0  501 -0.00000000000E+00  0.00000000000E+00  0.32493009587E+02  0.32493009587E+02  0.00000000000E+00 0.  1.
          4   -1    0    0  502    0  0.00000000000E+00 -0.00000000000E+00 -0.77722794517E+03  0.77722794517E+03  0.00000000000E+00 0. -1.
         24    2    1    2    0    0  0.89982197407E+02  0.58024744722E+02 -0.23250973371E+03  0.26813765294E+03  0.79833312617E+02 0.  0.
         23    2    1    2    0    0 -0.11064606802E+03 -0.51606698126E+02 -0.41803559819E+03  0.44494030770E+03  0.91171883833E+02 0.  0.
        -11    1    3    3    0    0  0.66483480004E+02  0.62679565262E+02 -0.10856118362E+03  0.14189542488E+03  0.00000000000E+00 0.  1.
         12    1    3    3    0    0  0.23498717403E+02 -0.46548205398E+01 -0.12394855009E+03  0.12624222805E+03  0.00000000000E+00 0. -1.
        -11    1    4    4    0    0 -0.11793019625E+03 -0.26620192411E+02 -0.38064726611E+03  0.39938516125E+03  0.00000000000E+00 0. -1.
         11    1    4    4    0    0  0.72841282364E+01 -0.24986505714E+02 -0.37388332085E+02  0.45555146450E+02  0.00000000000E+00 0.  1.
         21    1    1    2  502  501  0.20663870608E+02 -0.64180465965E+01 -0.94189603685E+02  0.96642994123E+02  0.00000000000E+00 0.  1.
<scales pt_clust_5="13000.00000" pt_clust_6="13000.00000" pt_clust_7="13000.00000" pt_clust_8="13000.00000" pt_clust_9="21.63763"></scales>
<clustering>
<clus scale="   21.638">  2  9  1 -1</clus>
<clus scale="   79.833">  5  6 -1 -1</clus>
<clus scale="   91.172">  7  8 -1 -1</clus>
<clus scale="  137.811">  1  5  2 -1</clus>
<clus scale="   21.638">  2  5  1 -1</clus>
</clustering>
</event>
<event>
 9    2  0.3402837E-005  0.1073577E+03  0.7546771E-02  0.1271360E+00
         -1   -1    0    0    0  501 -0.00000000000E+00  0.00000000000E+00  0.25993484850E+03  0.25993484850E+03  0.00000000000E+00 0.  1.
          2   -1    0    0  502    0  0.00000000000E+00 -0.00000000000E+00 -0.10167005907E+03  0.10167005907E+03  0.00000000000E+00 0. -1.
         24    2    1    2    0    0 -0.46416066996E+02 -0.11085283318E+01  0.11774042063E+03  0.14842641089E+03  0.77536524866E+02 0.  0.
         23    2    1    2    0    0  0.55769733005E+02  0.21198713308E+02 -0.49989299214E+02  0.11999142302E+03  0.91320112775E+02 0.  0.
        -13    1    3    3    0    0 -0.29398089567E+02 -0.38947842365E+02  0.60374792036E+02  0.77629231662E+02  0.00000000000E+00 0.  1.
         14    1    3    3    0    0 -0.17017977429E+02  0.37839314033E+02  0.57365628593E+02  0.70797179225E+02  0.00000000000E+00 0. -1.
        -13    1    4    4    0    0  0.76383764454E+02  0.69596361474E+01 -0.55076584699E+02  0.94426406209E+02  0.00000000000E+00 0. -1.
         13    1    4    4    0    0 -0.20614031449E+02  0.14239077161E+02  0.50872854850E+01  0.25565016811E+02  0.00000000000E+00 0.  1.
         21    1    1    2  502  501 -0.93536660086E+01 -0.20090184976E+02  0.90513668016E+02  0.93187073664E+02  0.00000000000E+00 0.  1.
<scales pt_clust_5="13000.00000" pt_clust_6="13000.00000" pt_clust_7="13000.00000" pt_clust_8="13000.00000" pt_clust_9="22.16093"></scales>
<clustering>
<clus scale="   22.161">  1  9  2 -1</clus>
<clus scale="   77.537">  5  6 -1 -1</clus>
<clus scale="   91.320">  7  8 -1 -1</clus>
<clus scale="   95.907">  1  5  2 -1</clus>
<clus scale="  107.358">  2  5  1 -1</clus>
</clustering>
</event>
<event>
 9    2  0.3402837E-005  0.9638608E+02  0.7546771E-02  0.1293461E+00
          2   -1    0    0  502    0  0.00000000000E+00  0.00000000000E+00  0.44262842311E+03  0.44262842311E+03  0.00000000000E+00 0. -1.
         -1   -1    0    0    0  501 -0.00000000000E+00 -0.00000000000E+00 -0.53891254067E+02  0.53891254067E+02  0.00000000000E+00 0.  1.
         24    2    1    2    0    0 -0.33838643483E+02  0.12074667458E+02 -0.26463794651E+01  0.87955421304E+02  0.80239026823E+02 0.  0.
         23    2    1    2    0    0  0.21605375390E+02  0.60778122870E+01  0.34466640052E+03  0.35697300385E+03  0.90172422516E+02 0.  0.
        -13    1    3    3    0    0 -0.58863209393E+02  0.19026511390E+02 -0.35915079993E+01  0.61965994589E+02  0.00000000000E+00 0.  1.
         14    1    3    3    0    0  0.25024565910E+02 -0.69518439319E+01  0.94512853419E+00  0.25989426715E+02  0.00000000000E+00 0. -1.
        -13    1    4    4    0    0  0.43010316124E+02  0.34739651989E+02  0.24257144202E+03  0.24879235358E+03  0.00000000000E+00 0. -1.
         13    1    4    4    0    0 -0.21404940735E+02 -0.28661839702E+02  0.10209495850E+03  0.10818065028E+03  0.00000000000E+00 0.  1.
         21    1    1    2  502  501  0.12233268093E+02 -0.18152479745E+02  0.46717147988E+02  0.51591252022E+02  0.00000000000E+00 0. -1.
<scales pt_clust_5="13000.00000" pt_clust_6="13000.00000" pt_clust_7="13000.00000" pt_clust_8="13000.00000" pt_clust_9="21.88985"></scales>
<clustering>
<clus scale="   21.890">  1  9  2 -1</clus>
<clus scale="   80.239">  5  6 -1 -1</clus>
<clus scale="   87.164">  2  5  1 -1</clus>
<clus scale="   90.172">  7  8 -1 -1</clus>
<clus scale="   21.890">  1  5  2 -1</clus>
</clustering>
</event>
<event>
 9    2  0.3402837E-005  0.1066231E+03  0.7546771E-02  0.1270787E+00
          2   -1    0    0  502    0  0.00000000000E+00  0.00000000000E+00  0.66071673697E+02  0.66071673697E+02  0.00000000000E+00 0. -1.
         -1   -1    0    0    0  501 -0.00000000000E+00 -0.00000000000E+00 -0.29906458711E+03  0.29906458711E+03  0.00000000000E+00 0.  1.
         23    2    1    2    0    0 -0.56441722017E+01 -0.49831947350E+02 -0.16178833048E+03  0.19265355075E+03  0.91786965734E+02 0.  0.
         24    2    1    2    0    0  0.30246763419E+02  0.55309941994E+02 -0.92692048856E+02  0.13936161237E+03  0.82799678146E+02 0.  0.
        -11    1    4    4    0    0  0.20746060543E+02  0.53068491397E+02 -0.10747582778E+03  0.12164586867E+03  0.00000000000E+00 0.  1.
         12    1    4    4    0    0  0.95007028765E+01  0.22414505969E+01  0.14783778920E+02  0.17715743707E+02  0.00000000000E+00 0. -1.
        -11    1    3    3    0    0  0.41818501023E+02 -0.18360541446E+02 -0.90853518662E+02  0.10168706094E+03  0.00000000000E+00 0.  1.
         11    1    3    3    0    0 -0.47462673225E+02 -0.31471405904E+02 -0.70934811820E+02  0.90966489803E+02  0.00000000000E+00 0. -1.
         21    1    1    2  502  501 -0.24602591218E+02 -0.54779946442E+01  0.21487465928E+02  0.33121097686E+02  0.00000000000E+00 0.  1.
<scales pt_clust_5="13000.00000" pt_clust_6="13000.00000" pt_clust_7="13000.00000" pt_clust_8="13000.00000" pt_clust_9="25.20508"></scales>
<clustering>
<clus scale="   25.205">  1  9  2 -1</clus>
<clus scale="   82.800">  5  6 -1 -1</clus>
<clus scale="   91.787">  7  8 -1 -1</clus>
<clus scale="   98.992">  1  5  2 -1</clus>
<clus scale="   25.205">  1  5  2 -1</clus>
</clustering>
</event>
<event>
 9    2  0.3402837E-005  0.1308963E+03  0.7546771E-02  0.1244445E+00
         -1   -1    0    0    0  501 -0.00000000000E+00  0.00000000000E+00  0.18981039236E+03  0.18981039236E+03  0.00000000000E+00 0.  1.
          2   -1    0    0  502    0  0.00000000000E+00 -0.00000000000E+00 -0.39517345041E+03  0.39517345041E+03  0.00000000000E+00 0. -1.
         23    2    1    2    0    0  0.22745449628E+02 -0.89475836545E+00  0.43611787327E+02  0.99988945832E+02  0.87049671012E+02 0.  0.
         24    2    1    2    0    0 -0.46883838779E+02 -0.92411492816E+02 -0.33239753699E+03  0.35752700367E+03  0.81237044571E+02 0.  0.
        -11    1    4    4    0    0 -0.39428939853E+02 -0.32224135686E+02 -0.61120750354E+02  0.79553644433E+02  0.00000000000E+00 0.  1.
         12    1    4    4    0    0 -0.74548989258E+01 -0.60187357129E+02 -0.27127678664E+03  0.27797335924E+03  0.00000000000E+00 0. -1.
        -13    1    3    3    0    0  0.28923976943E+02  0.33861465650E+02  0.46728685785E+02  0.64550487011E+02  0.00000000000E+00 0.  1.
         13    1    3    3    0    0 -0.61785273147E+01 -0.34756224016E+02 -0.31168984579E+01  0.35438458821E+02  0.00000000000E+00 0. -1.
         21    1    1    2  502  501  0.24138389151E+02  0.93306251181E+02  0.83422691613E+02  0.12746789328E+03  0.00000000000E+00 0.  1.
<scales pt_clust_5="13000.00000" pt_clust_6="13000.00000" pt_clust_7="13000.00000" pt_clust_8="13000.00000" pt_clust_9="102.63712"></scales>
<clustering>
<clus scale="   81.237">  5  6 -1 -1</clus>
<clus scale="   87.050">  7  8 -1 -1</clus>
<clus scale="   89.977">  1  7  2 -1</clus>
<clus scale="  102.637">  1  9  2 -1</clus>
<clus scale="  130.896">  2  5  1 -1</clus>
</clustering>
</event>
<event>
 9    2  0.3402837E-005  0.1043313E+03  0.7546771E-02  0.1276265E+00
          2   -1    0    0  502    0  0.00000000000E+00  0.00000000000E+00  0.42258335129E+03  0.42258335129E+03  0.00000000000E+00 0. -1.
         -1   -1    0    0    0  501 -0.00000000000E+00 -0.00000000000E+00 -0.12268437264E+03  0.12268437264E+03  0.00000000000E+00 0.  1.
         24    2    1    2    0    0 -0.15583166628E+02 -0.27522402963E+02 -0.13810710208E+02  0.87028407770E+02  0.79892992781E+02 0.  0.
         23    2    1    2    0    0  0.21113753686E+01  0.54923060338E+02  0.37503157596E+03  0.38973633067E+03  0.90690264156E+02 0.  0.
        -11    1    3    3    0    0 -0.36963443079E+02  0.12811851375E+02 -0.13475519535E+02  0.41376675635E+02  0.00000000000E+00 0.  1.
         12    1    3    3    0    0  0.21380276450E+02 -0.40334254339E+02 -0.33519067299E+00  0.45651732135E+02  0.00000000000E+00 0. -1.
        -13    1    4    4    0    0  0.16509688197E+01  0.78444893457E+02  0.32660426205E+03  0.33589681600E+03  0.00000000000E+00 0. -1.
         13    1    4    4    0    0  0.46040654887E+00 -0.23521833119E+02  0.48427313904E+02  0.53839514666E+02  0.00000000000E+00 0.  1.
         21    1    1    2  502  501  0.13471791260E+02 -0.27400657375E+02 -0.61321887097E+02  0.68502985493E+02  0.00000000000E+00 0.  1.
<scales pt_clust_5="13000.00000" pt_clust_6="13000.00000" pt_clust_7="13000.00000" pt_clust_8="13000.00000" pt_clust_9="30.53335"></scales>
<clustering>
<clus scale="   30.533">  2  9  1 -1</clus>
<clus scale="   79.893">  5  6 -1 -1</clus>
<clus scale="   90.690">  7  8 -1 -1</clus>
<clus scale="   95.096">  2  5  1 -1</clus>
<clus scale="  104.331">  1  5  2 -1</clus>
</clustering>
</event>
<event>
 9    2  0.3402837E-005  0.1492686E+03  0.7546771E-02  0.1203729E+00
          2   -1    0    0  502    0  0.00000000000E+00  0.00000000000E+00  0.34942694214E+03  0.34942694214E+03  0.00000000000E+00 0. -1.
         -1   -1    0    0    0  501 -0.00000000000E+00 -0.00000000000E+00 -0.48757715168E+03  0.48757715168E+03  0.00000000000E+00 0.  1.
         24    2    1    2    0    0  0.89551075968E+02  0.50216957235E+02 -0.39157094238E+03  0.41267265594E+03  0.80185909262E+02 0.  0.
         23    2    1    2    0    0 -0.93242909806E+02 -0.71757752859E+02  0.32050818817E+03  0.35377392818E+03  0.92666489374E+02 0.  0.
        -11    1    3    3    0    0  0.59812202253E+02  0.42642494526E+02 -0.36425581857E+03  0.37158872862E+03  0.00000000000E+00 0.  1.
         12    1    3    3    0    0  0.29738873716E+02  0.75744627089E+01 -0.27315123813E+02  0.41083927321E+02  0.00000000000E+00 0. -1.
        -11    1    4    4    0    0 -0.61819806263E+02 -0.20373968337E+02  0.67800619653E+02  0.93987823985E+02  0.00000000000E+00 0.  1.
         11    1    4    4    0    0 -0.31423103544E+02 -0.51383784522E+02  0.25270756852E+03  0.25978610420E+03  0.00000000000E+00 0. -1.
         21    1    1    2  502  501  0.36918338379E+01  0.21540795624E+02 -0.67087455329E+02  0.70557509704E+02  0.00000000000E+00 0.  1.
<scales pt_clust_5="13000.00000" pt_clust_6="13000.00000" pt_clust_7="13000.00000" pt_clust_8="13000.00000" pt_clust_9="21.85487"></scales>
<clustering>
<clus scale="   21.855">  2  9  1 -1</clus>
<clus scale="   80.186">  5  6 -1 -1</clus>
<clus scale="   92.666">  7  8 -1 -1</clus>
<clus scale="  141.858">  2  5  1 -1</clus>
<clus scale="  149.269">  1  5  2 -1</clus>
</clustering>
</event>
<event>
 9    2  0.5791135E-005  0.2579472E+03  0.7546771E-02  0.1108903E+00
          2   -1    0    0  502    0  0.00000000000E+00  0.00000000000E+00  0.12237072952E+04  0.12237072952E+04  0.00000000000E+00 0. -1.
         -1   -1    0    0    0  501 -0.00000000000E+00 -0.00000000000E+00 -0.17402786130E+03  0.17402786130E+03  0.00000000000E+00 0.  1.
         23    2    1    2    0    0 -0.61171876588E+02  0.21833609970E+03 -0.57122127335E+02  0.25110418850E+03  0.91529913872E+02 0.  0.
         24    2    1    2    0    0  0.82145658325E+02 -0.22827661469E+03  0.10850518809E+04  0.11148227622E+04  0.81449892495E+02 0.  0.
        -11    1    4    4    0    0  0.23485752697E+02 -0.36857522553E+01  0.97217261989E+02  0.10008177346E+03  0.00000000000E+00 0.  1.
         12    1    4    4    0    0  0.58659905628E+02 -0.22459086243E+03  0.98783461889E+03  0.10147409888E+04  0.00000000000E+00 0. -1.
        -13    1    3    3    0    0 -0.46013064613E+02  0.15801508523E+03 -0.82294961744E+02  0.18400660315E+03  0.00000000000E+00 0.  1.
         13    1    3    3    0    0 -0.15158811975E+02  0.60321014473E+02  0.25172834410E+02  0.67097585350E+02  0.00000000000E+00 0. -1.
         21    1    1    2  502  501 -0.20973781738E+02  0.99405149868E+01  0.21749680335E+02  0.31808205753E+02  0.00000000000E+00 0.  1.
<scales pt_clust_5="13000.00000" pt_clust_6="13000.00000" pt_clust_7="13000.00000" pt_clust_8="13000.00000" pt_clust_9="23.21020"></scales>
<clustering>
<clus scale="   23.210">  2  9  1 -1</clus>
<clus scale="   81.450">  5  6 -1 -1</clus>
<clus scale="   91.530">  7  8 -1 -1</clus>
<clus scale="  254.545">  1  5  2 -1</clus>
<clus scale="  254.545">  1  5  2 -1</clus>
</clustering>
</event>
<event>
 9    2  0.3402837E-005  0.9718227E+02  0.7546771E-02  0.1289260E+00
          2   -1    0    0  502    0  0.00000000000E+00  0.00000000000E+00  0.13988028699E+03  0.13988028699E+03  0.00000000000E+00 0. -1.
         -1   -1    0    0    0  501 -0.00000000000E+00 -0.00000000000E+00 -0.24556647043E+03  0.24556647043E+03  0.00000000000E+00 0.  1.
         23    2    1    2    0    0  0.16439421397E+02 -0.41481145226E+02 -0.16704777584E+03  0.19519277073E+03  0.90577692329E+02 0.  0.
         24    2    1    2    0    0 -0.37312772704E+02 -0.11735256255E+02 -0.15129747043E+02  0.94762588170E+02  0.84976935841E+02 0.  0.
        -13    1    4    4    0    0 -0.28846852698E+02 -0.27828646392E+02 -0.44706031314E+02  0.60043348562E+02  0.00000000000E+00 0.  1.
         14    1    4    4    0    0 -0.84659200063E+01  0.16093390137E+02  0.29576284272E+02  0.34719239608E+02  0.00000000000E+00 0. -1.
        -11    1    3    3    0    0 -0.22069897493E+02 -0.13219879376E+02 -0.49431112684E+01  0.26196945148E+02  0.00000000000E+00 0. -1.
         11    1    3    3    0    0  0.38509318890E+02 -0.28261265851E+02 -0.16210466457E+03  0.16899582558E+03  0.00000000000E+00 0.  1.
         21    1    1    2  502  501  0.20873351307E+02  0.53216401481E+02  0.76491339446E+02  0.95491398521E+02  0.00000000000E+00 0. -1.
<scales pt_clust_5="13000.00000" pt_clust_6="13000.00000" pt_clust_7="13000.00000" pt_clust_8="13000.00000" pt_clust_9="57.16364"></scales>
<clustering>
<clus scale="   57.164">  1  9  2 -1</clus>
<clus scale="   84.977">  5  6 -1 -1</clus>
<clus scale="   90.578">  7  8 -1 -1</clus>
<clus scale="   91.985">  1  5  2 -1</clus>
<clus scale="   57.164">  1  5  2 -1</clus>
</clustering>
</event>
<event>
 9    2  0.3402837E-005  0.9270324E+02  0.7546771E-02  0.1305046E+00
         -1   -1    0    0    0  501 -0.00000000000E+00  0.00000000000E+00  0.28985523021E+02  0.28985523021E+02  0.00000000000E+00 0.  1.
          2   -1    0    0  502    0  0.00000000000E+00 -0.00000000000E+00 -0.68230483355E+03  0.68230483355E+03  0.00000000000E+00 0. -1.
         23    2    1    2    0    0  0.11046204445E+00 -0.28539322726E+02 -0.89638760805E+02  0.13135039689E+03  0.91669592457E+02 0.  0.
         24    2    1    2    0    0  0.11953498836E+02  0.62705074394E+01 -0.53833667137E+03  0.54411048220E+03  0.77895055680E+02 0.  0.
        -11    1    4    4    0    0 -0.80049472772E+01 -0.33302065488E+02 -0.20526111046E+03  0.20809908749E+03  0.00000000000E+00 0.  1.
         12    1    4    4    0    0  0.19958446113E+02  0.39572572927E+02 -0.33307556092E+03  0.33601139472E+03  0.00000000000E+00 0. -1.
        -11    1    3    3    0    0  0.19001616379E+02  0.29191595044E+02 -0.26764125130E+02  0.43926404818E+02  0.00000000000E+00 0. -1.
         11    1    3    3    0    0 -0.18891154334E+02 -0.57730917770E+02 -0.62874635675E+02  0.87423992073E+02  0.00000000000E+00 0.  1.
         21    1    1    2  502  501 -0.12063960881E+02  0.22268815287E+02 -0.25343878347E+02  0.35829477474E+02  0.00000000000E+00 0.  1.
<scales pt_clust_5="13000.00000" pt_clust_6="13000.00000" pt_clust_7="13000.00000" pt_clust_8="13000.00000" pt_clust_9="25.32665"></scales>
<clustering>
<clus scale="   25.327">  1  9  2 -1</clus>
<clus scale="   77.895">  5  6 -1 -1</clus>
<clus scale="   79.109">  2  5  1 -1</clus>
<clus scale="   91.670">  7  8 -1 -1</clus>
<clus scale="   79.109">  2  5  1 -1</clus>
</clustering>
</event>
<event>
 9    2  0.3402837E-005  0.9677934E+02  0.7546771E-02  0.1294414E+00
          4   -1    0    0  502    0  0.00000000000E+00  0.00000000000E+00  0.30533825800E+03  0.30533825800E+03  0.00000000000E+00 0. -1.
         -3   -1    0    0    0  501 -0.00000000000E+00 -0.00000000000E+00 -0.65204980242E+02  0.65204980242E+02  0.00000000000E+00 0.  1.
         24    2    1    2    0    0  0.51024484806E+02  0.25834788848E+02  0.84346746303E+02  0.12928414701E+03  0.79555532131E+02 0.  0.
         23    2    1    2    0    0 -0.65979014278E+01 -0.14260802836E+02  0.16920007112E+03  0.19343021388E+03  0.92410393196E+02 0.  0.
        -13    1    3    3    0    0  0.47899793054E+02  0.52407798734E+02  0.65069836168E+02  0.96307066832E+02  0.00000000000E+00 0.  1.
         14    1    3    3    0    0  0.31246917525E+01 -0.26573009887E+02  0.19276910135E+02  0.32977080182E+02  0.00000000000E+00 0. -1.
        -11    1    4    4    0    0 -0.48369009938E+02 -0.11011034140E+02  0.11230512539E+03  0.12277314520E+03  0.00000000000E+00 0. -1.
         11    1    4    4    0    0  0.41771108510E+02 -0.32497686958E+01  0.56894945738E+02  0.70657068672E+02  0.00000000000E+00 0.  1.
         21    1    1    2  502  501 -0.44426583379E+02 -0.11573986012E+02 -0.13413539665E+02  0.47828877357E+02  0.00000000000E+00 0. -1.
<scales pt_clust_5="13000.00000" pt_clust_6="13000.00000" pt_clust_7="13000.00000" pt_clust_8="13000.00000" pt_clust_9="45.90946"></scales>
<clustering>
<clus scale="   45.909">  2  9  1 -1</clus>
<clus scale="   79.556">  5  6 -1 -1</clus>
<clus scale="   84.591">  2  5  1 -1</clus>
<clus scale="   92.410">  7  8 -1 -1</clus>
<clus scale="   96.779">  1  5  2 -1</clus>
</clustering>
</event>
<event>
 9    2  0.3402837E-005  0.1499131E+03  0.7546771E-02  0.1216778E+00
          2   -1    0    0  502    0  0.00000000000E+00  0.00000000000E+00  0.22162318831E+03  0.22162318831E+03  0.00000000000E+00 0. -1.
         -1   -1    0    0    0  501 -0.00000000000E+00 -0.00000000000E+00 -0.65779065232E+03  0.65779065232E+03  0.00000000000E+00 0.  1.
         23    2    1    2    0    0  0.51283596666E+02  0.84627613936E+01 -0.89010127551E+02  0.13840998475E+03  0.92373672954E+02 0.  0.
         24    2    1    2    0    0  0.87349038144E+02 -0.88946275303E+02  0.15453144750E+03  0.21432725737E+03  0.80714996320E+02 0.  0.
        -13    1    4    4    0    0 -0.10791262144E+02 -0.25835071975E+02  0.12913229700E+02  0.30832673966E+02  0.00000000000E+00 0.  1.
         14    1    4    4    0    0  0.98140300288E+02 -0.63111203328E+02  0.14161821781E+03  0.18349458341E+03  0.00000000000E+00 0. -1.
        -13    1    3    3    0    0 -0.39381993236E+01  0.41200088997E+02 -0.40894483290E+02  0.58183464239E+02  0.00000000000E+00 0.  1.
         13    1    3    3    0    0  0.55221795990E+02 -0.32737327604E+02 -0.48115644261E+02  0.80226520513E+02  0.00000000000E+00 0. -1.
         21    1    1    2  502  501 -0.13863263481E+03  0.80483513909E+02 -0.50168878397E+03  0.52667659850E+03  0.00000000000E+00 0.  1.
<scales pt_clust_5="13000.00000" pt_clust_6="13000.00000" pt_clust_7="13000.00000" pt_clust_8="13000.00000" pt_clust_9="126.32910"></scales>
<clustering>
<clus scale="   80.715">  5  6 -1 -1</clus>
<clus scale="   92.374">  7  8 -1 -1</clus>
<clus scale="  105.993">  2  7  1 -1</clus>
<clus scale="  126.329">  2  9  1 -1</clus>
<clus scale="  149.913">  1  5  2 -1</clus>
</clustering>
</event>
<event>
 9    2  0.3402837E-005  0.1142260E+03  0.7546771E-02  0.1255972E+00
          2   -1    0    0  502    0  0.00000000000E+00  0.00000000000E+00  0.32894492231E+03  0.32894492231E+03  0.00000000000E+00 0. -1.
         -1   -1    0    0    0  501 -0.00000000000E+00 -0.00000000000E+00 -0.29465074807E+03  0.29465074807E+03  0.00000000000E+00 0.  1.
         24    2    1    2    0    0  0.11658866781E+02 -0.73861299971E+02 -0.23296434284E+03  0.25744958848E+03  0.80102963502E+02 0.  0.
         23    2    1    2    0    0  0.20052816837E+02  0.69087022814E+02  0.29955589936E+03  0.32063184785E+03  0.88858949069E+02 0.  0.
        -11    1    3    3    0    0  0.41931416196E+02 -0.29630880653E+02 -0.77141085255E+02  0.92665958079E+02  0.00000000000E+00 0.  1.
         12    1    3    3    0    0 -0.30272549415E+02 -0.44230419318E+02 -0.15582325759E+03  0.16478363040E+03  0.00000000000E+00 0. -1.
        -11    1    4    4    0    0  0.55012749096E+02  0.38996818857E+02  0.19575208923E+03  0.20704114297E+03  0.00000000000E+00 0.  1.
         11    1    4    4    0    0 -0.34959932259E+02  0.30090203957E+02  0.10380381013E+03  0.11359070488E+03  0.00000000000E+00 0. -1.
         21    1    1    2  502  501 -0.31711683618E+02  0.47742771570E+01 -0.32297382268E+02  0.45514234055E+02  0.00000000000E+00 0.  1.
<scales pt_clust_5="13000.00000" pt_clust_6="13000.00000" pt_clust_7="13000.00000" pt_clust_8="13000.00000" pt_clust_9="32.06906"></scales>
<clustering>
<clus scale="   32.069">  2  9  1 -1</clus>
<clus scale="   80.103">  5  6 -1 -1</clus>
<clus scale="   88.859">  7  8 -1 -1</clus>
<clus scale="  107.555">  2  5  1 -1</clus>
<clus scale="  114.226">  1  5  2 -1</clus>
</clustering>
</event>
<event>
 9    2  0.3402837E-005  0.9060007E+02  0.7546771E-02  0.1309002E+00
          2   -1    0    0  502    0  0.00000000000E+00  0.00000000000E+00  0.17353642070E+03  0.17353642070E+03  0.00000000000E+00 0. -1.
         -1   -1    0    0    0  501 -0.00000000000E+00 -0.00000000000E+00 -0.16784663414E+03  0.16784663414E+03  0.00000000000E+00 0.  1.
         24    2    1    2    0    0 -0.15434778835E+02  0.56309533245E+01 -0.51690604720E+02  0.92874432555E+02  0.75390991325E+02 0.  0.
         23    2    1    2    0    0  0.20581410623E+02  0.15299625886E+02  0.13777684188E+03  0.16527301553E+03  0.87607297009E+02 0.  0.
        -11    1    3    3    0    0  0.31277001610E+01  0.25086378481E+02 -0.59687345775E+02  0.64820429953E+02  0.00000000000E+00 0.  1.
         12    1    3    3    0    0 -0.18562478996E+02 -0.19455425156E+02  0.79967410552E+01  0.28054002602E+02  0.00000000000E+00 0. -1.
        -13    1    4    4    0    0  0.21131173690E+02  0.39633460773E+02  0.13311806516E+03  0.14049112778E+03  0.00000000000E+00 0. -1.
         13    1    4    4    0    0 -0.54976306735E+00 -0.24333834887E+02  0.46587767181E+01  0.24781887746E+02  0.00000000000E+00 0.  1.
         21    1    1    2  502  501 -0.51466317877E+01 -0.20930579210E+02 -0.80396450591E+02  0.83235606759E+02  0.00000000000E+00 0. -1.
<scales pt_clust_5="13000.00000" pt_clust_6="13000.00000" pt_clust_7="13000.00000" pt_clust_8="13000.00000" pt_clust_9="21.55405"></scales>
<clustering>
<clus scale="   21.554">  2  9  1 -1</clus>
<clus scale="   75.391">  5  6 -1 -1</clus>
<clus scale="   78.849">  2  5  1 -1</clus>
<clus scale="   87.607">  7  8 -1 -1</clus>
<clus scale="   90.600">  1  5  2 -1</clus>
</clustering>
</event>
<event>
 9    2  0.3402837E-005  0.1376469E+03  0.7546771E-02  0.1218395E+00
         -1   -1    0    0    0  501 -0.00000000000E+00  0.00000000000E+00  0.65241861241E+03  0.65241861241E+03  0.00000000000E+00 0.  1.
          2   -1    0    0  502    0  0.00000000000E+00 -0.00000000000E+00 -0.37419087465E+02  0.37419087465E+02  0.00000000000E+00 0. -1.
         24    2    1    2    0    0  0.10647564100E+03  0.53311086051E+02  0.38515701734E+03  0.41108033802E+03  0.80386455821E+02 0.  0.
         23    2    1    2    0    0 -0.92169684346E+02 -0.34093068396E+02  0.18046314282E+03  0.22387280788E+03  0.88850999801E+02 0.  0.
        -13    1    3    3    0    0  0.13048389595E+02  0.37562640384E+02  0.19030153146E+03  0.19441163880E+03  0.00000000000E+00 0.  1.
         14    1    3    3    0    0  0.93427251408E+02  0.15748445667E+02  0.19485548588E+03  0.21666869923E+03  0.00000000000E+00 0. -1.
        -13    1    4    4    0    0 -0.49085397716E+02 -0.42170463008E+02  0.16525648226E+03  0.17747515079E+03  0.00000000000E+00 0.  1.
         13    1    4    4    0    0 -0.43084286630E+02  0.80773946115E+01  0.15206660566E+02  0.46397657092E+02  0.00000000000E+00 0. -1.
         21    1    1    2  502  501 -0.14305956657E+02 -0.19218017654E+02  0.49379364775E+02  0.54884553965E+02  0.00000000000E+00 0. -1.
<scales pt_clust_5="13000.00000" pt_clust_6="13000.00000" pt_clust_7="13000.00000" pt_clust_8="13000.00000" pt_clust_9="23.95814"></scales>
<clustering>
<clus scale="   23.958">  1  9  2 -1</clus>
<clus scale="   80.386">  5  6 -1 -1</clus>
<clus scale="   88.851">  7  8 -1 -1</clus>
<clus scale="  132.341">  1  5  2 -1</clus>
<clus scale="  137.647">  2  5  1 -1</clus>
</clustering>
</event>
<event>
 9    2  0.3402837E-005  0.2140523E+03  0.7546771E-02  0.1163417E+00
         -1   -1    0    0    0  501 -0.00000000000E+00  0.00000000000E+00  0.75005782817E+02  0.75005782817E+02  0.00000000000E+00 0.  1.
          2   -1    0    0  502    0  0.00000000000E+00 -0.00000000000E+00 -0.15769350208E+04  0.15769350208E+04  0.00000000000E+00 0. -1.
         24    2    1    2    0    0  0.16996504774E+03 -0.85430724015E+02 -0.16470829161E+03  0.26401681593E+03  0.79934546392E+02 0.  0.
         23    2    1    2    0    0  0.70400888639E+02  0.35271958330E+02 -0.31225254056E+03  0.33395438753E+03  0.88450481643E+02 0.  0.
        -13    1    3    3    0    0  0.15265090366E+03 -0.10057123674E+03 -0.13995019633E+03  0.23022365105E+03  0.00000000000E+00 0.  1.
         14    1    3    3    0    0  0.17314144081E+02  0.15140512723E+02 -0.24758095280E+02  0.33793164881E+02  0.00000000000E+00 0. -1.
        -13    1    4    4    0    0  0.70242100658E+02  0.52128921266E+01 -0.28433936201E+03  0.29293343909E+03  0.00000000000E+00 0. -1.
         13    1    4    4    0    0  0.15878798151E+00  0.30059066204E+02 -0.27913178552E+02  0.41020948447E+02  0.00000000000E+00 0.  1.
         21    1    1    2  502  501 -0.24036593638E+03  0.50158765684E+02 -0.10249684058E+04  0.10539696002E+04  0.00000000000E+00 0. -1.
<scales pt_clust_5="13000.00000" pt_clust_6="13000.00000" pt_clust_7="13000.00000" pt_clust_8="13000.00000" pt_clust_9="198.56703"></scales>
<clustering>
<clus scale="   79.935">  5  6 -1 -1</clus>
<clus scale="   88.450">  7  8 -1 -1</clus>
<clus scale="  118.422">  2  7  1 -1</clus>
<clus scale="  198.567">  2  9  1 -1</clus>
<clus scale="  118.422">  2  5  1 -1</clus>
</clustering>
</event>
<event>
 9    2  0.3402837E-005  0.1473491E+03  0.7546771E-02  0.1205643E+00
         -1   -1    0    0    0  501 -0.00000000000E+00  0.00000000000E+00  0.44694173046E+02  0.44694173046E+02  0.00000000000E+00 0.  1.
          2   -1    0    0  502    0  0.00000000000E+00 -0.00000000000E+00 -0.79964468330E+03  0.79964468330E+03  0.00000000000E+00 0. -1.
         23    2    1    2    0    0  0.62846027722E+02  0.61468120622E+02 -0.11345130797E+03  0.16989487333E+03  0.90912681468E+02 0.  0.
         24    2    1    2    0    0 -0.89419511170E+02 -0.87317739905E+02 -0.60244062786E+03  0.62059303060E+03  0.81121901196E+02 0.  0.
        -11    1    4    4    0    0 -0.33945067932E+02  0.10984534136E+02 -0.12508485705E+03  0.13007362950E+03  0.00000000000E+00 0.  1.
         12    1    4    4    0    0 -0.55474443239E+02 -0.98302274041E+02 -0.47735577081E+03  0.49051940110E+03  0.00000000000E+00 0. -1.
        -13    1    3    3    0    0  0.23654683615E+02 -0.60918935100E+01 -0.82230095397E+02  0.85781372176E+02  0.00000000000E+00 0. -1.
         13    1    3    3    0    0  0.39191344107E+02  0.67560014132E+02 -0.31221212573E+02  0.84113501157E+02  0.00000000000E+00 0.  1.
         21    1    1    2  502  501  0.26573483448E+02  0.25849619283E+02 -0.39058574427E+02  0.53850952414E+02  0.00000000000E+00 0.  1.
<scales pt_clust_5="13000.00000" pt_clust_6="13000.00000" pt_clust_7="13000.00000" pt_clust_8="13000.00000" pt_clust_9="37.07227"></scales>
<clustering>
<clus scale="   37.072">  1  9  2 -1</clus>
<clus scale="   81.122">  5  6 -1 -1</clus>
<clus scale="   90.913">  7  8 -1 -1</clus>
<clus scale="  141.518">  2  5  1 -1</clus>
<clus scale="  141.518">  2  5  1 -1</clus>
</clustering>
</event>
<event>
 9    2  0.3402837E-005  0.1106645E+03  0.7546771E-02  0.1263290E+00
          2   -1    0    0  502    0  0.00000000000E+00  0.00000000000E+00  0.45748928834E+03  0.45748928834E+03  0.00000000000E+00 0. -1.
         -1   -1    0    0    0  501 -0.00000000000E+00 -0.00000000000E+00 -0.50082905462E+02  0.50082905462E+02  0.00000000000E+00 0.  1.
         24    2    1    2    0    0 -0.22177593215E+02  0.40537950226E+02  0.37389792943E+02  0.10073417203E+03  0.81327767389E+02 0.  0.
         23    2    1    2    0    0  0.86869485138E+00 -0.68213154495E+02  0.34629733647E+03  0.36461730333E+03  0.91488488707E+02 0.  0.
        -13    1    3    3    0    0 -0.36370676947E+01  0.63733962121E+02  0.26014180995E+02  0.68934634270E+02  0.00000000000E+00 0.  1.
         14    1    3    3    0    0 -0.18540525520E+02 -0.23196011895E+02  0.11375611948E+02  0.31799537758E+02  0.00000000000E+00 0. -1.
        -11    1    4    4    0    0  0.42929661657E+02 -0.18411507327E+02  0.18100965797E+03  0.18693965800E+03  0.00000000000E+00 0.  1.
         11    1    4    4    0    0 -0.42060966806E+02 -0.49801647167E+02  0.16528767849E+03  0.17767764533E+03  0.00000000000E+00 0. -1.
         21    1    1    2  502  501  0.21308898364E+02  0.27675204269E+02  0.23719253466E+02  0.42220718442E+02  0.00000000000E+00 0.  1.
<scales pt_clust_5="13000.00000" pt_clust_6="13000.00000" pt_clust_7="13000.00000" pt_clust_8="13000.00000" pt_clust_9="34.92830"></scales>
<clustering>
<clus scale="   34.928">  2  9  1 -1</clus>
<clus scale="   81.328">  5  6 -1 -1</clus>
<clus scale="   91.488">  7  8 -1 -1</clus>
<clus scale="  102.424">  2  5  1 -1</clus>
<clus scale="  110.665">  1  5  2 -1</clus>
</clustering>
</event>
<event>
 9    2  0.3402837E-005  0.8591906E+02  0.7546771E-02  0.1313717E+00
          2   -1    0    0  502    0  0.00000000000E+00  0.00000000000E+00  0.10915240110E+03  0.10915240110E+03  0.00000000000E+00 0. -1.
         -1   -1    0    0    0  501 -0.00000000000E+00 -0.00000000000E+00 -0.13208442900E+03  0.13208442900E+03  0.00000000000E+00 0.  1.
         23    2    1    2    0    0  0.15953020774E+02  0.11271471652E+02 -0.65560784810E+02  0.10753407780E+03  0.82968767850E+02 0.  0.
         24    2    1    2    0    0  0.10279284435E+02 -0.24733341321E+02  0.54458140184E+02  0.10193342621E+03  0.81898305753E+02 0.  0.
        -13    1    4    4    0    0  0.30095085616E+02  0.20749337884E+02  0.23226992679E+02  0.43309841719E+02  0.00000000000E+00 0.  1.
         14    1    4    4    0    0 -0.19815801181E+02 -0.45482679205E+02  0.31231147505E+02  0.58623584491E+02  0.00000000000E+00 0. -1.
        -13    1    3    3    0    0  0.23499626986E+02 -0.31514934429E+02 -0.44092490806E+02  0.59072593527E+02  0.00000000000E+00 0.  1.
         13    1    3    3    0    0 -0.75466062111E+01  0.42786406081E+02 -0.21468294004E+02  0.48461484274E+02  0.00000000000E+00 0. -1.
         21    1    1    2  502  501 -0.26232305209E+02  0.13461869669E+02 -0.11829383275E+02  0.31769326090E+02  0.00000000000E+00 0. -1.
<scales pt_clust_5="13000.00000" pt_clust_6="13000.00000" pt_clust_7="13000.00000" pt_clust_8="13000.00000" pt_clust_9="29.48484"></scales>
<clustering>
<clus scale="   29.485">  2  9  1 -1</clus>
<clus scale="   81.898">  5  6 -1 -1</clus>
<clus scale="   82.969">  7  8 -1 -1</clus>
<clus scale="   84.886">  1  5  2 -1</clus>
<clus scale="   84.886">  1  5  2 -1</clus>
</clustering>
</event>
<event>
 9    2  0.3402837E-005  0.1378741E+03  0.7546771E-02  0.1236436E+00
          2   -1    0    0  502    0  0.00000000000E+00  0.00000000000E+00  0.45933457023E+03  0.45933457023E+03  0.00000000000E+00 0. -1.
         -1   -1    0    0    0  501 -0.00000000000E+00 -0.00000000000E+00 -0.25299117733E+03  0.25299117733E+03  0.00000000000E+00 0.  1.
         23    2    1    2    0    0  0.48186730215E+00  0.92639757967E+01 -0.11292252215E+03  0.14476501426E+03  0.90107490824E+02 0.  0.
         24    2    1    2    0    0 -0.10059447406E+03  0.48311450239E+02  0.40239045993E+03  0.42526823990E+03  0.80509311185E+02 0.  0.
        -13    1    4    4    0    0 -0.72773005199E+02  0.38527921889E+02  0.14960921768E+03  0.17077244821E+03  0.00000000000E+00 0.  1.
         14    1    4    4    0    0 -0.27821468862E+02  0.97835283501E+01  0.25278124225E+03  0.25449579170E+03  0.00000000000E+00 0. -1.
        -11    1    3    3    0    0  0.37669516824E+02 -0.13861183403E+02 -0.27145556587E+02  0.48456229171E+02  0.00000000000E+00 0.  1.
         11    1    3    3    0    0 -0.37187649521E+02  0.23125159200E+02 -0.85776965562E+02  0.96308785092E+02  0.00000000000E+00 0. -1.
         21    1    1    2  502  501  0.10011260676E+03 -0.57575426036E+02 -0.83124544882E+02  0.14229249340E+03  0.00000000000E+00 0.  1.
<scales pt_clust_5="13000.00000" pt_clust_6="13000.00000" pt_clust_7="13000.00000" pt_clust_8="13000.00000" pt_clust_9="111.92639"></scales>
<clustering>
<clus scale="   80.509">  5  6 -1 -1</clus>
<clus scale="   90.107">  7  8 -1 -1</clus>
<clus scale="   90.584">  2  7  1 -1</clus>
<clus scale="  111.926">  2  9  1 -1</clus>
<clus scale="  137.874">  1  5  2 -1</clus>
</clustering>
</event>
<event>
 9    2  0.3402837E-005  0.1020750E+03  0.7546771E-02  0.1284133E+00
          2   -1    0    0  502    0  0.00000000000E+00  0.00000000000E+00  0.94976340853E+03  0.94976340853E+03  0.00000000000E+00 0. -1.
         -1   -1    0    0    0  501 -0.00000000000E+00 -0.00000000000E+00 -0.25881457805E+02  0.25881457805E+02  0.00000000000E+00 0.  1.
         23    2    1    2    0    0  0.35344652919E+02  0.29088842205E+02  0.12510193159E+03  0.16252072876E+03  0.93097200583E+02 0.  0.
         24    2    1    2    0    0 -0.85347305913E+01 -0.41685022978E+02  0.75607778638E+03  0.76115379616E+03  0.76752847403E+02 0.  0.
        -13    1    4    4    0    0 -0.11207623881E+02  0.19552822821E+02  0.11757246641E+03  0.11971302590E+03  0.00000000000E+00 0.  1.
         14    1    4    4    0    0  0.26728932897E+01 -0.61237845799E+02  0.63850531997E+03  0.64144077026E+03  0.00000000000E+00 0. -1.
        -11    1    3    3    0    0 -0.57806238941E+01  0.51052062126E+02  0.38629249054E+02  0.64280226683E+02  0.00000000000E+00 0.  1.
         11    1    3    3    0    0  0.41125276813E+02 -0.21963219921E+02  0.86472682539E+02  0.98240502074E+02  0.00000000000E+00 0. -1.
         21    1    1    2  502  501 -0.26809922328E+02  0.12596180773E+02  0.42702232755E+02  0.51970341422E+02  0.00000000000E+00 0.  1.
<scales pt_clust_5="13000.00000" pt_clust_6="13000.00000" pt_clust_7="13000.00000" pt_clust_8="13000.00000" pt_clust_9="29.62154"></scales>
<clustering>
<clus scale="   29.622">  2  9  1 -1</clus>
<clus scale="   76.753">  5  6 -1 -1</clus>
<clus scale="   87.426">  1  5  2 -1</clus>
<clus scale="   93.097">  7  8 -1 -1</clus>
<clus scale="   87.426">  1  5  2 -1</clus>
</clustering>
</event>
<event>
 9    2  0.3402837E-005  0.9372656E+02  0.7546771E-02  0.1299888E+00
          2   -1    0    0  502    0  0.00000000000E+00  0.00000000000E+00  0.19110081798E+03  0.19110081798E+03  0.00000000000E+00 0. -1.
         -1   -1    0    0    0  501 -0.00000000000E+00 -0.00000000000E+00 -0.14909055452E+03  0.14909055452E+03  0.00000000000E+00 0.  1.
         23    2    1    2    0    0 -0.25078912399E+02  0.44655277213E+02 -0.32236207379E+02  0.10920288178E+03  0.90901323936E+02 0.  0.
         24    2    1    2    0    0  0.25899272272E+01 -0.18381118909E+02  0.13648370015E+03  0.15978765814E+03  0.80992110923E+02 0.  0.
        -11    1    4    4    0    0  0.27207643105E+02 -0.34728168124E+02  0.11523231194E+03  0.12338876456E+03  0.00000000000E+00 0.  1.
         12    1    4    4    0    0 -0.24617715878E+02  0.16347049215E+02  0.21251388213E+02  0.36398893583E+02  0.00000000000E+00 0. -1.
        -11    1    3    3    0    0 -0.49809157573E+02  0.24385398044E+01 -0.33811870511E+02  0.60250653457E+02  0.00000000000E+00 0. -1.
         11    1    3    3    0    0  0.24730245174E+02  0.42216737408E+02  0.15756631319E+01  0.48952228326E+02  0.00000000000E+00 0.  1.
         21    1    1    2  502  501  0.22488985172E+02 -0.26274158304E+02 -0.62237229302E+02  0.71200832578E+02  0.00000000000E+00 0.  1.
<scales pt_clust_5="13000.00000" pt_clust_6="13000.00000" pt_clust_7="13000.00000" pt_clust_8="13000.00000" pt_clust_9="34.58447"></scales>
<clustering>
<clus scale="   34.584">  2  9  1 -1</clus>
<clus scale="   80.992">  5  6 -1 -1</clus>
<clus scale="   84.151">  1  5  2 -1</clus>
<clus scale="   90.901">  7  8 -1 -1</clus>
<clus scale="   84.151">  1  5  2 -1</clus>
</clustering>
</event>
<event>
 9    2  0.3402837E-005  0.1100011E+03  0.7546771E-02  0.1265288E+00
         -1   -1    0    0    0  501 -0.00000000000E+00  0.00000000000E+00  0.51850436282E+02  0.51850436282E+02  0.00000000000E+00 0.  1.
          2   -1    0    0  502    0  0.00000000000E+00 -0.00000000000E+00 -0.80305417508E+03  0.80305417508E+03  0.00000000000E+00 0. -1.
         23    2    1    2    0    0 -0.72702700666E+02 -0.16120940099E+02 -0.48374034892E+02  0.12599337278E+03  0.89379613666E+02 0.  0.
         24    2    1    2    0    0  0.62955112957E+02 -0.87159836974E+01 -0.69347245043E+03  0.70063675464E+03  0.77126570139E+02 0.  0.
        -11    1    4    4    0    0  0.16238703540E+02 -0.38840276636E+02 -0.22768840555E+03  0.23154756014E+03  0.00000000000E+00 0.  1.
         12    1    4    4    0    0  0.46716409418E+02  0.30124292938E+02 -0.46578404488E+03  0.46908919450E+03  0.00000000000E+00 0. -1.
        -11    1    3    3    0    0  0.17445833236E+02  0.11636505625E+02 -0.15599820584E+02  0.26136559887E+02  0.00000000000E+00 0. -1.
         11    1    3    3    0    0 -0.90148533902E+02 -0.27757445724E+02 -0.32774214308E+02  0.99856812893E+02  0.00000000000E+00 0.  1.
         21    1    1    2  502  501  0.97475877084E+01  0.24836923796E+02 -0.93572534770E+01  0.28274483946E+02  0.00000000000E+00 0.  1.
<scales pt_clust_5="13000.00000" pt_clust_6="13000.00000" pt_clust_7="13000.00000" pt_clust_8="13000.00000" pt_clust_9="26.68123"></scales>
<clustering>
<clus scale="   26.681">  1  9  2 -1</clus>
<clus scale="   77.127">  5  6 -1 -1</clus>
<clus scale="   89.380">  7  8 -1 -1</clus>
<clus scale="  100.300">  2  5  1 -1</clus>
<clus scale="  100.300">  2  5  1 -1</clus>
</clustering>
</event>
<event>
 9    2  0.3402837E-005  0.1091137E+03  0.7546771E-02  0.1267758E+00
          2   -1    0    0  502    0  0.00000000000E+00  0.00000000000E+00  0.44348969194E+03  0.44348969194E+03  0.00000000000E+00 0. -1.
         -1   -1    0    0    0  501 -0.00000000000E+00 -0.00000000000E+00 -0.37942432246E+02  0.37942432246E+02  0.00000000000E+00 0.  1.
         23    2    1    2    0    0 -0.23699003744E-01 -0.39702218811E+02  0.94249034955E+02  0.13734440888E+03  0.91675183775E+02 0.  0.
         24    2    1    2    0    0 -0.24278630503E+02  0.64227304319E+02  0.27499377110E+03  0.29398685311E+03  0.78051887482E+02 0.  0.
        -11    1    4    4    0    0  0.15451091134E+02  0.18941987036E+02  0.18889419318E+02  0.30892478895E+02  0.00000000000E+00 0.  1.
         12    1    4    4    0    0 -0.39729721637E+02  0.45285317282E+02  0.25610435178E+03  0.26309437422E+03  0.00000000000E+00 0. -1.
        -13    1    3    3    0    0  0.38673701550E+02 -0.20577371662E+02  0.13599262615E+02  0.45869634397E+02  0.00000000000E+00 0.  1.
         13    1    3    3    0    0 -0.38697400553E+02 -0.19124847149E+02  0.80649772340E+02  0.91474774482E+02  0.00000000000E+00 0. -1.
         21    1    1    2  502  501  0.24302329507E+02 -0.24525085508E+02  0.36304453639E+02  0.50100862195E+02  0.00000000000E+00 0. -1.
<scales pt_clust_5="13000.00000" pt_clust_6="13000.00000" pt_clust_7="13000.00000" pt_clust_8="13000.00000" pt_clust_9="34.52656"></scales>
<clustering>
<clus scale="   34.527">  2  9  1 -1</clus>
<clus scale="   78.052">  5  6 -1 -1</clus>
<clus scale="   91.675">  7  8 -1 -1</clus>
<clus scale="   97.947">  1  5  2 -1</clus>
<clus scale="   97.947">  1  5  2 -1</clus>
</clustering>
</event>
<event>
 9    2  0.3402837E-005  0.1613117E+03  0.7546771E-02  0.1196067E+00
          2   -1    0    0  502    0  0.00000000000E+00  0.00000000000E+00  0.35590239828E+03  0.35590239828E+03  0.00000000000E+00 0. -1.
         -1   -1    0    0    0  501 -0.00000000000E+00 -0.00000000000E+00 -0.15224072872E+03  0.15224072872E+03  0.00000000000E+00 0.  1.
         24    2    1    2    0    0  0.10486522023E+03  0.72147382997E+02 -0.73800702652E+02  0.16666168576E+03  0.78279080864E+02 0.  0.
         23    2    1    2    0    0 -0.76540418328E+02 -0.70054612535E+02  0.26783685674E+03  0.31149269937E+03  0.12051985544E+03 0.  0.
        -13    1    3    3    0    0  0.89471387176E+02  0.73302405840E+02 -0.88273546337E+02  0.14550117116E+03  0.00000000000E+00 0.  1.
         14    1    3    3    0    0  0.15393833049E+02 -0.11550228439E+01  0.14472843686E+02  0.21160514598E+02  0.00000000000E+00 0. -1.
        -13    1    4    4    0    0  0.85074606691E+00  0.31404452604E+02  0.54291264358E+02  0.62725631107E+02  0.00000000000E+00 0.  1.
         13    1    4    4    0    0 -0.77391164395E+02 -0.10145906514E+03  0.21354559239E+03  0.24876706826E+03  0.00000000000E+00 0. -1.
         21    1    1    2  502  501 -0.28324801897E+02 -0.20927704619E+01  0.96255154707E+01  0.29988741868E+02  0.00000000000E+00 0. -1.
<scales pt_clust_5="13000.00000" pt_clust_6="13000.00000" pt_clust_7="13000.00000" pt_clust_8="13000.00000" pt_clust_9="28.40201"></scales>
<clustering>
<clus scale="   28.402">  2  9  1 -1</clus>
<clus scale="   78.279">  5  6 -1 -1</clus>
<clus scale="  120.520">  7  8 -1 -1</clus>
<clus scale="  132.756">  2  5  1 -1</clus>
<clus scale="  161.312">  1  5  2 -1</clus>
</clustering>
</event>
<event>
 9    2  0.9462954E-005  0.1348198E+03  0.7546771E-02  0.1222790E+00
         -1   -1    0    0    0  501 -0.00000000000E+00  0.00000000000E+00  0.75349682576E+03  0.75349682576E+03  0.00000000000E+00 0.  1.
          2   -1    0    0  502    0  0.00000000000E+00 -0.00000000000E+00 -0.53263043915E+03  0.53263043915E+03  0.00000000000E+00 0. -1.
         24    2    1    2    0    0 -0.53850130050E+02  0.16664974040E+03  0.66725670431E+03  0.69469316005E+03  0.81823619458E+02 0.  0.
         23    2    1    2    0    0  0.40172876897E+01 -0.97978362350E+02 -0.48133364211E+03  0.49967296787E+03  0.91515581744E+02 0.  0.
        -11    1    3    3    0    0 -0.47430001455E+02  0.14278057125E+03  0.64184648849E+03  0.65924412121E+03  0.00000000000E+00 0.  1.
         12    1    3    3    0    0 -0.64201285958E+01  0.23869169147E+02  0.25410215818E+02  0.35449038843E+02  0.00000000000E+00 0. -1.
        -11    1    4    4    0    0 -0.25012951811E+02 -0.10180512765E+03 -0.37942680409E+03  0.39364277135E+03  0.00000000000E+00 0. -1.
         11    1    4    4    0    0  0.29030239500E+02  0.38267653049E+01 -0.10190683802E+03  0.10603019651E+03  0.00000000000E+00 0.  1.
         21    1    1    2  502  501  0.49832842361E+02 -0.68671378045E+02  0.34943324415E+02  0.91761136989E+02  0.00000000000E+00 0. -1.
<scales pt_clust_5="13000.00000" pt_clust_6="13000.00000" pt_clust_7="13000.00000" pt_clust_8="13000.00000" pt_clust_9="84.84734"></scales>
<clustering>
<clus scale="   81.824">  5  6 -1 -1</clus>
<clus scale="   84.847">  1  9  2 -1</clus>
<clus scale="   91.516">  7  8 -1 -1</clus>
<clus scale="  128.438">  1  5  2 -1</clus>
<clus scale="  134.820">  2  5  1 -1</clus>
</clustering>
</event>
<event>
 9    2  0.3402837E-005  0.1474920E+03  0.7546771E-02  0.1206541E+00
          4   -1    0    0  502    0  0.00000000000E+00  0.00000000000E+00  0.58340853231E+03  0.58340853231E+03  0.00000000000E+00 0. -1.
         -3   -1    0    0    0  501 -0.00000000000E+00 -0.00000000000E+00 -0.67099635840E+02  0.67099635840E+02  0.00000000000E+00 0.  1.
         24    2    1    2    0    0  0.86090458564E+02  0.71617098427E+02  0.80445575630E+02  0.15900316748E+03  0.79182957681E+02 0.  0.
         23    2    1    2    0    0 -0.69355477803E+02 -0.91337730728E+02  0.44085936739E+03  0.46516257480E+03  0.94161965878E+02 0.  0.
        -11    1    3    3    0    0  0.32993601241E+02  0.73618925944E+02  0.31012702470E+02  0.86429807905E+02  0.00000000000E+00 0.  1.
         12    1    3    3    0    0  0.53096857323E+02 -0.20018275175E+01  0.49432873161E+02  0.72573359574E+02  0.00000000000E+00 0. -1.
        -13    1    4    4    0    0  0.11448373875E+02 -0.60080425481E+02  0.16234633975E+03  0.17348503342E+03  0.00000000000E+00 0. -1.
         13    1    4    4    0    0 -0.80803851677E+02 -0.31257305247E+02  0.27851302764E+03  0.29167754138E+03  0.00000000000E+00 0.  1.
         21    1    1    2  502  501 -0.16734980761E+02  0.19720632301E+02 -0.49960465584E+01  0.26342425868E+02  0.00000000000E+00 0.  1.
<scales pt_clust_5="13000.00000" pt_clust_6="13000.00000" pt_clust_7="13000.00000" pt_clust_8="13000.00000" pt_clust_9="25.86432"></scales>
<clustering>
<clus scale="   25.864">  2  9  1 -1</clus>
<clus scale="   79.183">  5  6 -1 -1</clus>
<clus scale="   94.162">  7  8 -1 -1</clus>
<clus scale="  138.410">  2  5  1 -1</clus>
<clus scale="  147.492">  1  5  2 -1</clus>
</clustering>
</event>
<event>
 9    2  0.3402837E-005  0.9933251E+02  0.7546771E-02  0.1287818E+00
          4   -1    0    0  502    0  0.00000000000E+00  0.00000000000E+00  0.54825454001E+03  0.54825454001E+03  0.00000000000E+00 0. -1.
         -3   -1    0    0    0  501 -0.00000000000E+00 -0.00000000000E+00 -0.16665452203E+03  0.16665452203E+03  0.00000000000E+00 0.  1.
         23    2    1    2    0    0  0.28211819480E+02 -0.51130433350E+01 -0.45821200358E+02  0.10578715618E+03  0.90935636797E+02 0.  0.
         24    2    1    2    0    0 -0.24418624892E+02  0.32837096917E+02  0.51218998553E+03  0.51985402047E+03  0.78962504704E+02 0.  0.
        -11    1    4    4    0    0  0.13220847074E+02 -0.18956047887E+02  0.94473165258E+02  0.97258940477E+02  0.00000000000E+00 0.  1.
         12    1    4    4    0    0 -0.37639471966E+02  0.51793144804E+02  0.41771682027E+03  0.42259507999E+03  0.00000000000E+00 0. -1.
        -11    1    3    3    0    0 -0.28411133437E+02 -0.22111254543E+02 -0.13824166013E+02  0.38564331274E+02  0.00000000000E+00 0.  1.
         11    1    3    3    0    0  0.56622952917E+02  0.16998211208E+02 -0.31997034345E+02  0.67222824905E+02  0.00000000000E+00 0. -1.
         21    1    1    2  502  501 -0.37931945880E+01 -0.27724053582E+02 -0.84768767189E+02  0.89267885396E+02  0.00000000000E+00 0.  1.
<scales pt_clust_5="13000.00000" pt_clust_6="13000.00000" pt_clust_7="13000.00000" pt_clust_8="13000.00000" pt_clust_9="27.98234"></scales>
<clustering>
<clus scale="   27.982">  2  9  1 -1</clus>
<clus scale="   78.963">  5  6 -1 -1</clus>
<clus scale="   88.503">  1  5  2 -1</clus>
<clus scale="   90.936">  7  8 -1 -1</clus>
<clus scale="   88.503">  1  5  2 -1</clus>
</clustering>
</event>
<event>
 9    2  0.3402837E-005  0.1994838E+03  0.7546771E-02  0.1175620E+00
          4   -1    0    0  502    0  0.00000000000E+00  0.00000000000E+00  0.16743920548E+03  0.16743920548E+03  0.00000000000E+00 0. -1.
         -3   -1    0    0    0  501 -0.00000000000E+00 -0.00000000000E+00 -0.54283057467E+03  0.54283057467E+03  0.00000000000E+00 0.  1.
         23    2    1    2    0    0 -0.52430284879E+02  0.22515266746E+03 -0.10331053484E+03  0.26908359692E+03  0.91050848887E+02 0.  0.
         24    2    1    2    0    0  0.41081890561E+02 -0.61623233438E+02  0.13939290429E+02  0.11152245514E+03  0.82205897308E+02 0.  0.
        -11    1    4    4    0    0  0.45533786292E+01 -0.21708856799E+02  0.44254556034E+02  0.49502257022E+02  0.00000000000E+00 0.  1.
         12    1    4    4    0    0  0.36528511932E+02 -0.39914376639E+02 -0.30315265605E+02  0.62020198123E+02  0.00000000000E+00 0. -1.
        -11    1    3    3    0    0  0.23938115539E+02  0.27576589604E+02 -0.18217581835E+02  0.40809091606E+02  0.00000000000E+00 0.  1.
         11    1    3    3    0    0 -0.76368400418E+02  0.19757607785E+03 -0.85092953007E+02  0.22827450531E+03  0.00000000000E+00 0. -1.
         21    1    1    2  502  501  0.11348394318E+02 -0.16352943402E+03 -0.28602012477E+03  0.32966372809E+03  0.00000000000E+00 0.  1.
<scales pt_clust_5="13000.00000" pt_clust_6="13000.00000" pt_clust_7="13000.00000" pt_clust_8="13000.00000" pt_clust_9="177.49230"></scales>
<clustering>
<clus scale="   82.206">  5  6 -1 -1</clus>
<clus scale="   91.051">  7  8 -1 -1</clus>
<clus scale="  110.648">  1  5  2 -1</clus>
<clus scale="  177.492">  2  9  1 -1</clus>
<clus scale="  110.648">  1  5  2 -1</clus>
</clustering>
</event>
<event>
 9    2  0.3402837E-005  0.2529183E+03  0.7546771E-02  0.1150584E+00
         -1   -1    0    0    0  501 -0.00000000000E+00  0.00000000000E+00  0.14829773732E+03  0.14829773732E+03  0.00000000000E+00 0.  1.
          2   -1    0    0  502    0  0.00000000000E+00 -0.00000000000E+00 -0.19190218380E+04  0.19190218380E+04  0.00000000000E+00 0. -1.
         23    2    1    2    0    0  0.34391633700E+02 -0.16553275294E+01  0.68902851506E+02  0.11892897227E+03  0.90614418953E+02 0.  0.
         24    2    1    2    0    0  0.23485255246E+03  0.31307569884E+02 -0.14676055436E+04  0.14882041021E+04  0.68916851218E+02 0.  0.
        -11    1    4    4    0    0  0.72415669297E+02  0.41069476769E+02 -0.44261561085E+03  0.45037685337E+03  0.00000000000E+00 0.  1.
         12    1    4    4    0    0  0.16243688317E+03 -0.97619068858E+01 -0.10249899328E+04  0.10378272487E+04  0.00000000000E+00 0. -1.
        -13    1    3    3    0    0 -0.28086826174E+02  0.15230615493E+02  0.18702976398E+02  0.37022193060E+02  0.00000000000E+00 0. -1.
         13    1    3    3    0    0  0.62478459874E+02 -0.16885943023E+02  0.50199875108E+02  0.81906779211E+02  0.00000000000E+00 0.  1.
         21    1    1    2  502  501 -0.26924418616E+03 -0.29652242354E+02 -0.37202140857E+03  0.46018650099E+03  0.00000000000E+00 0.  1.
<scales pt_clust_5="13000.00000" pt_clust_6="13000.00000" pt_clust_7="13000.00000" pt_clust_8="13000.00000" pt_clust_9="243.34778"></scales>
<clustering>
<clus scale="   68.917">  5  6 -1 -1</clus>
<clus scale="   90.614">  7  8 -1 -1</clus>
<clus scale="   96.936">  1  7  2 -1</clus>
<clus scale="  243.348">  1  9  2 -1</clus>
<clus scale="  252.918">  2  5  1 -1</clus>
</clustering>
</event>
<event>
 9    2  0.3402837E-005  0.1132593E+03  0.7546771E-02  0.1260973E+00
         -1   -1    0    0    0  501 -0.00000000000E+00  0.00000000000E+00  0.52786818757E+02  0.52786818757E+02  0.00000000000E+00 0.  1.
          2   -1    0    0  502    0  0.00000000000E+00 -0.00000000000E+00 -0.30458008383E+03  0.30458008383E+03  0.00000000000E+00 0. -1.
         24    2    1    2    0    0  0.54458574524E+02  0.22326722825E+02 -0.10417008081E+03  0.14277272784E+03  0.77900110316E+02 0.  0.
         23    2    1    2    0    0 -0.67500251876E+02 -0.67182219029E+01 -0.15432560440E+03  0.19317845425E+03  0.94340365179E+02 0.  0.
        -13    1    3    3    0    0  0.22733597294E+02 -0.27951974251E+02 -0.25387146415E+02  0.44075350408E+02  0.00000000000E+00 0.  1.
         14    1    3    3    0    0  0.31724977230E+02  0.50278697076E+02 -0.78782934392E+02  0.98697377429E+02  0.00000000000E+00 0. -1.
        -13    1    4    4    0    0 -0.79168699115E+02 -0.32291214167E+02 -0.13204653143E+03  0.15731081302E+03  0.00000000000E+00 0.  1.
         13    1    4    4    0    0  0.11668447239E+02  0.25572992264E+02 -0.22279072972E+02  0.35867641221E+02  0.00000000000E+00 0. -1.
         21    1    1    2  502  501  0.13041677352E+02 -0.15608500922E+02  0.67024201320E+01  0.21415720507E+02  0.00000000000E+00 0.  1.
<scales pt_clust_5="13000.00000" pt_clust_6="13000.00000" pt_clust_7="13000.00000" pt_clust_8="13000.00000" pt_clust_9="20.33988"></scales>
<clustering>
<clus scale="   20.340">  1  9  2 -1</clus>
<clus scale="   77.900">  5  6 -1 -1</clus>
<clus scale="   94.340">  7  8 -1 -1</clus>
<clus scale="   99.980">  1  5  2 -1</clus>
<clus scale="  113.259">  2  5  1 -1</clus>
</clustering>
</event>
<event>
 9    2  0.3402837E-005  0.9181495E+02  0.7546771E-02  0.1302229E+00
         -1   -1    0    0    0  501 -0.00000000000E+00  0.00000000000E+00  0.18405986188E+03  0.18405986188E+03  0.00000000000E+00 0.  1.
          2   -1    0    0  502    0  0.00000000000E+00 -0.00000000000E+00 -0.47319148732E+03  0.47319148732E+03  0.00000000000E+00 0. -1.
         24    2    1    2    0    0 -0.19335802140E+02 -0.27832879954E+02  0.15937742506E+02  0.92610019128E+02  0.84699832088E+02 0.  0.
         23    2    1    2    0    0  0.73659355340E+01  0.88364048579E+01 -0.42901505735E+03  0.43867832879E+03  0.90842818422E+02 0.  0.
        -11    1    3    3    0    0 -0.72841357313E+01 -0.56645777276E+02  0.21235006137E+02  0.60932160656E+02  0.00000000000E+00 0.  1.
         12    1    3    3    0    0 -0.12051666409E+02  0.28812897323E+02 -0.52972636314E+01  0.31677858471E+02  0.00000000000E+00 0. -1.
        -11    1    4    4    0    0  0.44493001462E+02 -0.12438039583E+02 -0.27392162767E+03  0.27779019081E+03  0.00000000000E+00 0. -1.
         11    1    4    4    0    0 -0.37127065928E+02  0.21274444441E+02 -0.15509342968E+03  0.16088813798E+03  0.00000000000E+00 0.  1.
         21    1    1    2  502  501  0.11969866606E+02  0.18996475096E+02  0.12394568940E+03  0.12596300129E+03  0.00000000000E+00 0.  1.
<scales pt_clust_5="13000.00000" pt_clust_6="13000.00000" pt_clust_7="13000.00000" pt_clust_8="13000.00000" pt_clust_9="22.45315"></scales>
<clustering>
<clus scale="   22.453">  1  9  2 -1</clus>
<clus scale="   84.700">  5  6 -1 -1</clus>
<clus scale="   85.742">  1  5  2 -1</clus>
<clus scale="   90.843">  7  8 -1 -1</clus>
<clus scale="   91.815">  2  5  1 -1</clus>
</clustering>
</event>
<event>
 9    2  0.3402837E-005  0.1093311E+03  0.7546771E-02  0.1266720E+00
          2   -1    0    0  502    0  0.00000000000E+00  0.00000000000E+00  0.24706492871E+03  0.24706492871E+03  0.00000000000E+00 0. -1.
         -1   -1    0    0    0  501 -0.00000000000E+00 -0.00000000000E+00 -0.25954435409E+03  0.25954435409E+03  0.00000000000E+00 0.  1.
         23    2    1    2    0    0 -0.62745642117E+02 -0.54628650720E+02 -0.18432667451E+03  0.22179262170E+03  0.91073261831E+02 0.  0.
         24    2    1    2    0    0  0.60038923851E+02 -0.96064438956E+01  0.19298173831E+03  0.21713992700E+03  0.78808885518E+02 0.  0.
        -11    1    4    4    0    0  0.10739773672E+02  0.32421973309E+02  0.55646702283E+02  0.65292285660E+02  0.00000000000E+00 0.  1.
         12    1    4    4    0    0  0.49299150179E+02 -0.42028417204E+02  0.13733503603E+03  0.15184764134E+03  0.00000000000E+00 0. -1.
        -13    1    3    3    0    0 -0.20361666290E+02 -0.27572373039E+02 -0.16402055010E+03  0.16756364183E+03  0.00000000000E+00 0.  1.
         13    1    3    3    0    0 -0.42383975827E+02 -0.27056277682E+02 -0.20306124411E+02  0.54228979868E+02  0.00000000000E+00 0. -1.
         21    1    1    2  502  501  0.27067182660E+01  0.64235094616E+02 -0.21134489180E+02  0.67676734089E+02  0.00000000000E+00 0. -1.
<scales pt_clust_5="13000.00000" pt_clust_6="13000.00000" pt_clust_7="13000.00000" pt_clust_8="13000.00000" pt_clust_9="64.29210"></scales>
<clustering>
<clus scale="   64.292">  2  9  1 -1</clus>
<clus scale="   78.809">  5  6 -1 -1</clus>
<clus scale="   91.073">  7  8 -1 -1</clus>
<clus scale="   99.347">  1  5  2 -1</clus>
<clus scale="   99.347">  1  5  2 -1</clus>
</clustering>
</event>
<event>
 9    2  0.3402837E-005  0.9134638E+02  0.7546771E-02  0.1304470E+00
          4   -1    0    0  502    0  0.00000000000E+00  0.00000000000E+00  0.49883288553E+02  0.49883288553E+02  0.00000000000E+00 0. -1.
         -3   -1    0    0    0  501 -0.00000000000E+00 -0.00000000000E+00 -0.31461388401E+03  0.31461388401E+03  0.00000000000E+00 0.  1.
         24    2    1    2    0    0  0.83676803452E+01 -0.21586781502E+02 -0.19838984487E+03  0.21474559380E+03  0.78874154829E+02 0.  0.
         23    2    1    2    0    0  0.99704635861E+01  0.49446996709E+02 -0.45664394952E+02  0.11050886228E+03  0.87077873476E+02 0.  0.
        -13    1    3    3    0    0 -0.34751696642E+02 -0.20005534660E+01 -0.87077382881E+02  0.93777146699E+02  0.00000000000E+00 0.  1.
         14    1    3    3    0    0  0.43119376987E+02 -0.19586228036E+02 -0.11131246199E+03  0.12096844710E+03  0.00000000000E+00 0. -1.
        -13    1    4    4    0    0 -0.27302156923E+02  0.54869681683E+02 -0.37877993247E+02  0.72047429608E+02  0.00000000000E+00 0.  1.
         13    1    4    4    0    0  0.37272620509E+02 -0.54226849736E+01 -0.77864017055E+01  0.38461432676E+02  0.00000000000E+00 0. -1.
         21    1    1    2  502  501 -0.18338143931E+02 -0.27860215208E+02 -0.20676355638E+02  0.39242716480E+02  0.00000000000E+00 0.  1.
<scales pt_clust_5="13000.00000" pt_clust_6="13000.00000" pt_clust_7="13000.00000" pt_clust_8="13000.00000" pt_clust_9="33.35385"></scales>
<clustering>
<clus scale="   33.354">  1  9  2 -1</clus>
<clus scale="   78.874">  5  6 -1 -1</clus>
<clus scale="   83.563">  2  5  1 -1</clus>
<clus scale="   87.078">  7  8 -1 -1</clus>
<clus scale="   33.354">  1  5  2 -1</clus>
</clustering>
</event>
<event>
 9    2  0.4287874E-005  0.1560670E+03  0.7546771E-02  0.1194811E+00
         -1   -1    0    0    0  501 -0.00000000000E+00  0.00000000000E+00  0.53927514639E+02  0.53927514639E+02  0.00000000000E+00 0.  1.
          2   -1    0    0  502    0  0.00000000000E+00 -0.00000000000E+00 -0.14540614428E+04  0.14540614428E+04  0.00000000000E+00 0. -1.
         23    2    1    2    0    0 -0.20063886220E+02  0.10787816119E+03 -0.59918086270E+02  0.15426958308E+03  0.90380694892E+02 0.  0.
         24    2    1    2    0    0  0.14972480486E+02 -0.12803298918E+03 -0.12956150702E+04  0.13045119731E+04  0.80724570854E+02 0.  0.
        -11    1    4    4    0    0  0.10498220787E+02 -0.20822886808E+02 -0.62026493311E+02  0.66265308625E+02  0.00000000000E+00 0.  1.
         12    1    4    4    0    0  0.44742596997E+01 -0.10721010237E+03 -0.12335885769E+04  0.12382466645E+04  0.00000000000E+00 0. -1.
        -11    1    3    3    0    0  0.17644470088E+02  0.10228328409E+03 -0.39777900338E+02  0.11115520178E+03  0.00000000000E+00 0.  1.
         11    1    3    3    0    0 -0.37708356309E+02  0.55948771063E+01 -0.20140185932E+02  0.43114381298E+02  0.00000000000E+00 0. -1.
         21    1    1    2  502  501  0.50914057342E+01  0.20154827983E+02 -0.44600771705E+02  0.49207401273E+02  0.00000000000E+00 0.  1.
<scales pt_clust_5="13000.00000" pt_clust_6="13000.00000" pt_clust_7="13000.00000" pt_clust_8="13000.00000" pt_clust_9="20.78797"></scales>
<clustering>
<clus scale="   20.788">  1  9  2 -1</clus>
<clus scale="   80.725">  5  6 -1 -1</clus>
<clus scale="   90.381">  7  8 -1 -1</clus>
<clus scale="  150.681">  2  5  1 -1</clus>
<clus scale="  150.681">  2  5  1 -1</clus>
</clustering>
</event>
<event>
 9    2  0.3402837E-005  0.1607444E+03  0.7546771E-02  0.1189240E+00
         -1   -1    0    0    0  501 -0.00000000000E+00  0.00000000000E+00  0.16187843821E+02  0.16187843821E+02  0.00000000000E+00 0.  1.
          2   -1    0    0  502    0  0.00000000000E+00 -0.00000000000E+00 -0.26395282020E+04  0.26395282020E+04  0.00000000000E+00 0. -1.
         23    2    1    2    0    0 -0.10465476347E+03  0.92655058649E+02 -0.57262144497E+03  0.59617848874E+03  0.89419750488E+02 0.  0.
         24    2    1    2    0    0  0.11115659360E+03 -0.71745302034E+02 -0.19641788570E+04  0.19702701328E+04  0.80390528768E+02 0.  0.
        -13    1    4    4    0    0  0.26403792855E+02 -0.13616132276E+02 -0.13609405289E+03  0.13929878165E+03  0.00000000000E+00 0.  1.
         14    1    4    4    0    0  0.84752800745E+02 -0.58129169758E+02 -0.18280848042E+04  0.18309713512E+04  0.00000000000E+00 0. -1.
        -13    1    3    3    0    0 -0.10869999816E+03  0.48460083224E+02 -0.36671664701E+03  0.38554528717E+03  0.00000000000E+00 0.  1.
         13    1    3    3    0    0  0.40452346896E+01  0.44194975424E+02 -0.20590479796E+03  0.21063320156E+03  0.00000000000E+00 0. -1.
         21    1    1    2  502  501 -0.65018301250E+01 -0.20909756614E+02 -0.86540056183E+02  0.89267424298E+02  0.00000000000E+00 0.  1.
<scales pt_clust_5="13000.00000" pt_clust_6="13000.00000" pt_clust_7="13000.00000" pt_clust_8="13000.00000" pt_clust_9="21.89730"></scales>
<clustering>
<clus scale="   21.897">  1  9  2 -1</clus>
<clus scale="   80.391">  5  6 -1 -1</clus>
<clus scale="   89.420">  7  8 -1 -1</clus>
<clus scale="  155.902">  2  5  1 -1</clus>
<clus scale="  155.902">  2  5  1 -1</clus>
</clustering>
</event>
<event>
 9    2  0.3402837E-005  0.9415161E+02  0.7546771E-02  0.1299421E+00
         -1   -1    0    0    0  501 -0.00000000000E+00  0.00000000000E+00  0.66174186435E+02  0.66174186435E+02  0.00000000000E+00 0.  1.
          2   -1    0    0  502    0  0.00000000000E+00 -0.00000000000E+00 -0.47306803126E+03  0.47306803126E+03  0.00000000000E+00 0. -1.
         23    2    1    2    0    0  0.18236304084E+02 -0.42486973223E+02  0.92844448781E+01  0.10230540533E+03  0.90788156508E+02 0.  0.
         24    2    1    2    0    0 -0.11240139762E+02  0.20432695621E+02 -0.40031658949E+03  0.40888452174E+03  0.79933375424E+02 0.  0.
        -11    1    4    4    0    0  0.21505229205E+02 -0.98234826720E+01 -0.45481810565E+02  0.51259836005E+02  0.00000000000E+00 0.  1.
         12    1    4    4    0    0 -0.32745368967E+02  0.30256178293E+02 -0.35483477892E+03  0.35762468573E+03  0.00000000000E+00 0. -1.
        -13    1    3    3    0    0 -0.14650571616E+02 -0.46308783011E+02 -0.25014480195E+02  0.54633934986E+02  0.00000000000E+00 0. -1.
         13    1    3    3    0    0  0.32886875699E+02  0.38218097874E+01  0.34298925074E+02  0.47671470341E+02  0.00000000000E+00 0.  1.
         21    1    1    2  502  501 -0.69961643214E+01  0.22054277602E+02 -0.15861700213E+02  0.28052290627E+02  0.00000000000E+00 0. -1.
<scales pt_clust_5="13000.00000" pt_clust_6="13000.00000" pt_clust_7="13000.00000" pt_clust_8="13000.00000" pt_clust_9="23.13736"></scales>
<clustering>
<clus scale="   23.137">  1  9  2 -1</clus>
<clus scale="   79.933">  5  6 -1 -1</clus>
<clus scale="   83.734">  2  5  1 -1</clus>
<clus scale="   90.788">  7  8 -1 -1</clus>
<clus scale="   83.734">  2  5  1 -1</clus>
</clustering>
</event>
<event>
 9    2  0.3402837E-005  0.1886659E+03  0.7546771E-02  0.1183965E+00
          2   -1    0    0  502    0  0.00000000000E+00  0.00000000000E+00  0.74989955347E+03  0.74989955347E+03  0.00000000000E+00 0. -1.
         -1   -1    0    0    0  501 -0.00000000000E+00 -0.00000000000E+00 -0.97349132464E+02  0.97349132464E+02  0.00000000000E+00 0.  1.
         23    2    1    2    0    0  0.63233289542E+02  0.11386562400E+03  0.32956726050E+03  0.36645352837E+03  0.93326202245E+02 0.  0.
         24    2    1    2    0    0  0.69879100370E+02  0.28625960032E+01  0.27761133813E+03  0.29803031422E+03  0.82841595926E+02 0.  0.
        -11    1    4    4    0    0 -0.10182009823E+02  0.21811023770E+02  0.90177789760E+02  0.93335030123E+02  0.00000000000E+00 0.  1.
         12    1    4    4    0    0  0.80061110193E+02 -0.18948427767E+02  0.18743354837E+03  0.20469528410E+03  0.00000000000E+00 0. -1.
        -13    1    3    3    0    0  0.34412767873E+02  0.34005023134E+02  0.34516799720E+02  0.59430544789E+02  0.00000000000E+00 0.  1.
         13    1    3    3    0    0  0.28820521670E+02  0.79860600867E+02  0.29505046078E+03  0.30702298358E+03  0.00000000000E+00 0. -1.
         21    1    1    2  502  501 -0.13311238991E+03 -0.11672822000E+03  0.45371822374E+02  0.18276484333E+03  0.00000000000E+00 0.  1.
<scales pt_clust_5="13000.00000" pt_clust_6="13000.00000" pt_clust_7="13000.00000" pt_clust_8="13000.00000" pt_clust_9="163.96655"></scales>
<clustering>
<clus scale="   82.842">  5  6 -1 -1</clus>
<clus scale="   93.326">  7  8 -1 -1</clus>
<clus scale="  108.416">  1  5  2 -1</clus>
<clus scale="  163.967">  2  9  1 -1</clus>
<clus scale="  108.416">  1  5  2 -1</clus>
</clustering>
</event>
<event>
 9    2  0.3402837E-005  0.1101016E+03  0.7546771E-02  0.1266227E+00
         -1   -1    0    0    0  501 -0.00000000000E+00  0.00000000000E+00  0.67043875737E+02  0.67043875737E+02  0.00000000000E+00 0.  1.
          2   -1    0    0  502    0  0.00000000000E+00 -0.00000000000E+00 -0.83061513146E+03  0.83061513146E+03  0.00000000000E+00 0. -1.
         23    2    1    2    0    0  0.63249441963E+01  0.45674435597E+02  0.20008849277E+00  0.96129856160E+02  0.84348978796E+02 0.  0.
         24    2    1    2    0    0  0.24466996229E+02 -0.68544250695E+02 -0.75581206507E+03  0.76235617359E+03  0.68103667265E+02 0.  0.
        -13    1    4    4    0    0  0.31764941621E+02 -0.36307973356E+02 -0.20689263235E+03  0.21244256109E+03  0.00000000000E+00 0.  1.
         14    1    4    4    0    0 -0.72979453925E+01 -0.32236277339E+02 -0.54891943272E+03  0.54991361249E+03  0.00000000000E+00 0. -1.
        -11    1    3    3    0    0  0.14001591709E+02 -0.21952590521E+02  0.88955661165E+01  0.27515302969E+02  0.00000000000E+00 0. -1.
         11    1    3    3    0    0 -0.76766475125E+01  0.67627026118E+02 -0.86954776237E+01  0.68614553191E+02  0.00000000000E+00 0.  1.
         21    1    1    2  502  501 -0.30791940425E+02  0.22869815098E+02 -0.79592791489E+01  0.39172977450E+02  0.00000000000E+00 0.  1.
<scales pt_clust_5="13000.00000" pt_clust_6="13000.00000" pt_clust_7="13000.00000" pt_clust_8="13000.00000" pt_clust_9="38.35586"></scales>
<clustering>
<clus scale="   38.356">  1  9  2 -1</clus>
<clus scale="   68.104">  5  6 -1 -1</clus>
<clus scale="   84.349">  7  8 -1 -1</clus>
<clus scale="   98.213">  2  5  1 -1</clus>
<clus scale="   98.213">  2  5  1 -1</clus>
</clustering>
</event>
<event>
 9    2  0.3402837E-005  0.1603568E+03  0.7546771E-02  0.1213169E+00
          2   -1    0    0  502    0  0.00000000000E+00  0.00000000000E+00  0.75259937022E+03  0.75259937022E+03  0.00000000000E+00 0. -1.
         -1   -1    0    0    0  501 -0.00000000000E+00 -0.00000000000E+00 -0.60970347604E+02  0.60970347604E+02  0.00000000000E+00 0.  1.
         24    2    1    2    0    0 -0.16754382673E+02 -0.14950841066E+03  0.36100106584E+03  0.39926422354E+03  0.80353447137E+02 0.  0.
         23    2    1    2    0    0 -0.15664416411E+02  0.18655141770E+02  0.22300452710E+03  0.24180517796E+03  0.90251519261E+02 0.  0.
        -13    1    3    3    0    0 -0.23554197495E+02 -0.14627910439E+03  0.36248076613E+03  0.39159249535E+03  0.00000000000E+00 0.  1.
         14    1    3    3    0    0  0.67998148213E+01 -0.32293062735E+01 -0.14797002849E+01  0.76717281981E+01  0.00000000000E+00 0. -1.
        -13    1    4    4    0    0 -0.48259608144E+02  0.63057921579E+01  0.17991956653E+03  0.18638616690E+03  0.00000000000E+00 0.  1.
         13    1    4    4    0    0  0.32595191733E+02  0.12349349612E+02  0.43084960572E+02  0.55419011065E+02  0.00000000000E+00 0. -1.
         21    1    1    2  502  501  0.32418799084E+02  0.13085326889E+03  0.10762342968E+03  0.17250031631E+03  0.00000000000E+00 0. -1.
<scales pt_clust_5="13000.00000" pt_clust_6="13000.00000" pt_clust_7="13000.00000" pt_clust_8="13000.00000" pt_clust_9="138.77188"></scales>
<clustering>
<clus scale="   80.353">  5  6 -1 -1</clus>
<clus scale="   90.252">  7  8 -1 -1</clus>
<clus scale="   93.481">  1  7  2 -1</clus>
<clus scale="  138.772">  2  9  1 -1</clus>
<clus scale="   93.481">  1  5  2 -1</clus>
</clustering>
</event>
<event>
 9    2  0.3402837E-005  0.1041776E+03  0.7546771E-02  0.1275205E+00
         -1   -1    0    0    0  501 -0.00000000000E+00  0.00000000000E+00  0.86677763744E+02  0.86677763744E+02  0.00000000000E+00 0.  1.
          2   -1    0    0  502    0  0.00000000000E+00 -0.00000000000E+00 -0.32434174104E+03  0.32434174104E+03  0.00000000000E+00 0. -1.
         24    2    1    2    0    0  0.60604036741E+02 -0.18993301154E+02  0.16124855234E+01  0.10585954656E+03  0.84676140264E+02 0.  0.
         23    2    1    2    0    0 -0.45725567391E+02  0.21693424472E+01 -0.25678270585E+03  0.27668395110E+03  0.92309897718E+02 0.  0.
        -11    1    3    3    0    0  0.65572884147E+02 -0.14203095737E+02  0.32258778277E+02  0.74445683823E+02  0.00000000000E+00 0.  1.
         12    1    3    3    0    0 -0.49688474059E+01 -0.47902054169E+01 -0.30646292754E+02  0.31413862736E+02  0.00000000000E+00 0. -1.
        -13    1    4    4    0    0 -0.22519433107E+02 -0.44922420584E+02 -0.13591612620E+03  0.14490804705E+03  0.00000000000E+00 0. -1.
         13    1    4    4    0    0 -0.23206134284E+02  0.47091763031E+02 -0.12086657965E+03  0.13177590405E+03  0.00000000000E+00 0.  1.
         21    1    1    2  502  501 -0.14878469350E+02  0.16823958706E+02  0.17506243026E+02  0.28476007123E+02  0.00000000000E+00 0.  1.
<scales pt_clust_5="13000.00000" pt_clust_6="13000.00000" pt_clust_7="13000.00000" pt_clust_8="13000.00000" pt_clust_9="22.45917"></scales>
<clustering>
<clus scale="   22.459">  1  9  2 -1</clus>
<clus scale="   84.676">  5  6 -1 -1</clus>
<clus scale="   92.310">  7  8 -1 -1</clus>
<clus scale="   97.478">  1  5  2 -1</clus>
<clus scale="  104.178">  2  5  1 -1</clus>
</clustering>
</event>
<event>
 9    2  0.3402837E-005  0.2365182E+03  0.7546771E-02  0.1122899E+00
         -1   -1    0    0    0  501 -0.00000000000E+00  0.00000000000E+00  0.11899460978E+03  0.11899460978E+03  0.00000000000E+00 0.  1.
          2   -1    0    0  502    0  0.00000000000E+00 -0.00000000000E+00 -0.98612540481E+03  0.98612540481E+03  0.00000000000E+00 0. -1.
         24    2    1    2    0    0 -0.15849759769E+03  0.15120457165E+03 -0.56090251659E+02  0.23987047003E+03  0.80046330954E+02 0.  0.
         23    2    1    2    0    0  0.17872140987E+03 -0.12480307753E+03 -0.79268561145E+03  0.82726342871E+03  0.92179994460E+02 0.  0.
        -13    1    3    3    0    0 -0.81809243323E+02  0.10255011880E+03  0.35257163904E+01  0.13123151236E+03  0.00000000000E+00 0.  1.
         14    1    3    3    0    0 -0.76688354371E+02  0.48654452849E+02 -0.59615968049E+02  0.10863895767E+03  0.00000000000E+00 0. -1.
        -13    1    4    4    0    0  0.14573315727E+03 -0.12246985400E+03 -0.74694280122E+03  0.77081811510E+03  0.00000000000E+00 0. -1.
         13    1    4    4    0    0  0.32988252596E+02 -0.23332235333E+01 -0.45742810227E+02  0.56445313613E+02  0.00000000000E+00 0.  1.
         21    1    1    2  502  501 -0.20223812172E+02 -0.26401494122E+02 -0.18354931927E+02  0.37986115841E+02  0.00000000000E+00 0.  1.
<scales pt_clust_5="13000.00000" pt_clust_6="13000.00000" pt_clust_7="13000.00000" pt_clust_8="13000.00000" pt_clust_9="33.25720"></scales>
<clustering>
<clus scale="   33.257">  1  9  2 -1</clus>
<clus scale="   80.046">  5  6 -1 -1</clus>
<clus scale="   92.180">  7  8 -1 -1</clus>
<clus scale="  232.058">  1  5  2 -1</clus>
<clus scale="  236.518">  2  5  1 -1</clus>
</clustering>
</event>
<event>
 9    2  0.3402837E-005  0.9535753E+02  0.7546771E-02  0.1296487E+00
         -1   -1    0    0    0  501 -0.00000000000E+00  0.00000000000E+00  0.13778702042E+03  0.13778702042E+03  0.00000000000E+00 0.  1.
          2   -1    0    0  502    0  0.00000000000E+00 -0.00000000000E+00 -0.30280173456E+03  0.30280173456E+03  0.00000000000E+00 0. -1.
         23    2    1    2    0    0 -0.19833344103E+02 -0.34186946053E+02  0.66355036263E+02  0.11937908532E+03  0.91028931424E+02 0.  0.
         24    2    1    2    0    0 -0.54094255489E+01  0.27727425841E+02 -0.26520406235E+03  0.27850506233E+03  0.80210990687E+02 0.  0.
        -11    1    4    4    0    0 -0.34321902100E+02  0.40280740255E+02 -0.14975011567E+03  0.15882577921E+03  0.00000000000E+00 0.  1.
         12    1    4    4    0    0  0.28912476552E+02 -0.12553314414E+02 -0.11545394668E+03  0.11967928312E+03  0.00000000000E+00 0. -1.
        -13    1    3    3    0    0 -0.46023386533E+02  0.88499208032E+01  0.43921514975E+02  0.64230621077E+02  0.00000000000E+00 0.  1.
         13    1    3    3    0    0  0.26190042430E+02 -0.43036866856E+02  0.22433521288E+02  0.55148464246E+02  0.00000000000E+00 0. -1.
         21    1    1    2  502  501  0.25242769651E+02  0.64595202119E+01  0.33834311952E+02  0.42704607319E+02  0.00000000000E+00 0. -1.
<scales pt_clust_5="13000.00000" pt_clust_6="13000.00000" pt_clust_7="13000.00000" pt_clust_8="13000.00000" pt_clust_9="26.05615"></scales>
<clustering>
<clus scale="   26.056">  1  9  2 -1</clus>
<clus scale="   80.211">  5  6 -1 -1</clus>
<clus scale="   85.092">  2  5  1 -1</clus>
<clus scale="   91.029">  7  8 -1 -1</clus>
<clus scale="   85.092">  2  5  1 -1</clus>
</clustering>
</event>
<event>
 9    2  0.3402837E-005  0.1131213E+03  0.7546771E-02  0.1261707E+00
          2   -1    0    0  502    0  0.00000000000E+00  0.00000000000E+00  0.43199508800E+03  0.43199508800E+03  0.00000000000E+00 0. -1.
         -1   -1    0    0    0  501 -0.00000000000E+00 -0.00000000000E+00 -0.83501614180E+02  0.83501614180E+02  0.00000000000E+00 0.  1.
         23    2    1    2    0    0 -0.32885737698E+02 -0.10098673506E+02  0.24017850207E+02  0.10624511636E+03  0.97610002925E+02 0.  0.
         24    2    1    2    0    0  0.60143630898E+02 -0.15002531959E+02  0.34984328332E+03  0.36434522307E+03  0.80714226665E+02 0.  0.
        -11    1    4    4    0    0  0.31872518897E+02  0.33073038287E+02  0.15145798657E+03  0.15826940645E+03  0.00000000000E+00 0.  1.
         12    1    4    4    0    0  0.28271112002E+02 -0.48075570246E+02  0.19838529675E+03  0.20607581662E+03  0.00000000000E+00 0. -1.
        -11    1    3    3    0    0  0.46163872532E+01 -0.41869021502E+02 -0.13695250041E+02  0.44293180812E+02  0.00000000000E+00 0.  1.
         11    1    3    3    0    0 -0.37502124952E+02  0.31770347995E+02  0.37713100249E+02  0.61951935547E+02  0.00000000000E+00 0. -1.
         21    1    1    2  502  501 -0.27257893200E+02  0.25101205465E+02 -0.25367659701E+02  0.44906362758E+02  0.00000000000E+00 0. -1.
<scales pt_clust_5="13000.00000" pt_clust_6="13000.00000" pt_clust_7="13000.00000" pt_clust_8="13000.00000" pt_clust_9="37.05487"></scales>
<clustering>
<clus scale="   37.055">  2  9  1 -1</clus>
<clus scale="   80.714">  5  6 -1 -1</clus>
<clus scale="   97.610">  7  8 -1 -1</clus>
<clus scale="   98.912">  1  5  2 -1</clus>
<clus scale="   98.912">  1  5  2 -1</clus>
</clustering>
</event>
<event>
 9    2  0.3402837E-005  0.1030322E+03  0.7546771E-02  0.1279239E+00
          2   -1    0    0  502    0  0.00000000000E+00  0.00000000000E+00  0.10253298168E+03  0.10253298168E+03  0.00000000000E+00 0. -1.
         -1   -1    0    0    0  501 -0.00000000000E+00 -0.00000000000E+00 -0.16116744899E+03  0.16116744899E+03  0.00000000000E+00 0.  1.
         23    2    1    2    0    0 -0.32958909367E+02  0.16068716696E+02 -0.12393124535E+02  0.99275283516E+02  0.91419358007E+02 0.  0.
         24    2    1    2    0    0  0.46293202513E+02 -0.31093383404E+02  0.15978759776E+02  0.99042541325E+02  0.80276055818E+02 0.  0.
        -11    1    4    4    0    0  0.16437659069E+02  0.23319635389E+02  0.22910825486E+02  0.36591091194E+02  0.00000000000E+00 0.  1.
         12    1    4    4    0    0  0.29855543444E+02 -0.54413018792E+02 -0.69320657106E+01  0.62451450131E+02  0.00000000000E+00 0. -1.
        -13    1    3    3    0    0 -0.43990951721E+02  0.43502411818E+02  0.93528114804E+01  0.62571069592E+02  0.00000000000E+00 0.  1.
         13    1    3    3    0    0  0.11032042354E+02 -0.27433695122E+02 -0.21745936015E+02  0.36704213924E+02  0.00000000000E+00 0. -1.
         21    1    1    2  502  501 -0.13334293147E+02  0.15024666707E+02 -0.62220102547E+02  0.65382605824E+02  0.00000000000E+00 0.  1.
<scales pt_clust_5="13000.00000" pt_clust_6="13000.00000" pt_clust_7="13000.00000" pt_clust_8="13000.00000" pt_clust_9="20.08840"></scales>
<clustering>
<clus scale="   20.088">  2  9  1 -1</clus>
<clus scale="   80.276">  5  6 -1 -1</clus>
<clus scale="   91.419">  7  8 -1 -1</clus>
<clus scale="   93.287">  1  5  2 -1</clus>
<clus scale="   93.287">  1  5  2 -1</clus>
</clustering>
</event>
<event>
 9    2  0.3402837E-005  0.9546796E+02  0.7546771E-02  0.1298639E+00
         -1   -1    0    0    0  501 -0.00000000000E+00  0.00000000000E+00  0.26993323436E+02  0.26993323436E+02  0.00000000000E+00 0.  1.
          2   -1    0    0  502    0  0.00000000000E+00 -0.00000000000E+00 -0.11310748025E+04  0.11310748025E+04  0.00000000000E+00 0. -1.
         23    2    1    2    0    0  0.57722621370E+02 -0.17413749686E+01 -0.18891301131E+03  0.21712884902E+03  0.90121461531E+02 0.  0.
         24    2    1    2    0    0 -0.12028278443E+02 -0.29993779925E+02 -0.85533367214E+03  0.85923679348E+03  0.75152313766E+02 0.  0.
        -11    1    4    4    0    0 -0.10841806204E+02 -0.26371393737E+02 -0.10245816795E+03  0.10635164009E+03  0.00000000000E+00 0.  1.
         12    1    4    4    0    0 -0.11864722389E+01 -0.36223861875E+01 -0.75287550418E+03  0.75288515339E+03  0.00000000000E+00 0. -1.
        -11    1    3    3    0    0  0.53936711742E+02  0.36112196464E+02 -0.88507921742E+02  0.10975842482E+03  0.00000000000E+00 0.  1.
         11    1    3    3    0    0  0.37859096283E+01 -0.37853571432E+02 -0.10040508957E+03  0.10737042420E+03  0.00000000000E+00 0. -1.
         21    1    1    2  502  501 -0.45694342927E+02  0.31735154893E+02 -0.59834795573E+02  0.81702483395E+02  0.00000000000E+00 0. -1.
<scales pt_clust_5="13000.00000" pt_clust_6="13000.00000" pt_clust_7="13000.00000" pt_clust_8="13000.00000" pt_clust_9="55.63356"></scales>
<clustering>
<clus scale="   55.634">  1  9  2 -1</clus>
<clus scale="   75.152">  5  6 -1 -1</clus>
<clus scale="   81.487">  2  5  1 -1</clus>
<clus scale="   90.121">  7  8 -1 -1</clus>
<clus scale="   81.487">  2  5  1 -1</clus>
</clustering>
</event>
<event>
 9    2  0.3402837E-005  0.1048859E+03  0.7546771E-02  0.1275734E+00
         -1   -1    0    0    0  501 -0.00000000000E+00  0.00000000000E+00  0.45700377705E+02  0.45700377705E+02  0.00000000000E+00 0.  1.
          2   -1    0    0  502    0  0.00000000000E+00 -0.00000000000E+00 -0.58866170999E+03  0.58866170999E+03  0.00000000000E+00 0. -1.
         24    2    1    2    0    0  0.11897046034E+02 -0.52174579499E+02 -0.86164601072E+02  0.12897808009E+03  0.79669819973E+02 0.  0.
         23    2    1    2    0    0 -0.42006819310E+02  0.32238694661E+02 -0.45716845987E+03  0.46927062874E+03  0.91695234300E+02 0.  0.
        -11    1    3    3    0    0  0.51700878420E+01 -0.60030154296E+02 -0.22245692238E+02  0.64227876005E+02  0.00000000000E+00 0.  1.
         12    1    3    3    0    0  0.67269581917E+01  0.78555747964E+01 -0.63918908834E+02  0.64750204080E+02  0.00000000000E+00 0. -1.
        -11    1    4    4    0    0 -0.61156534721E+02 -0.71068274479E+01 -0.24307077387E+03  0.25074694384E+03  0.00000000000E+00 0. -1.
         11    1    4    4    0    0  0.19149715411E+02  0.39345522109E+02 -0.21409768600E+03  0.21852368489E+03  0.00000000000E+00 0.  1.
         21    1    1    2  502  501  0.30109773276E+02  0.19935884838E+02  0.37172866221E+00  0.36113378867E+02  0.00000000000E+00 0. -1.
<scales pt_clust_5="13000.00000" pt_clust_6="13000.00000" pt_clust_7="13000.00000" pt_clust_8="13000.00000" pt_clust_9="36.11147"></scales>
<clustering>
<clus scale="   36.111">  1  9  2 -1</clus>
<clus scale="   79.670">  5  6 -1 -1</clus>
<clus scale="   91.695">  7  8 -1 -1</clus>
<clus scale="   94.553">  1  5  2 -1</clus>
<clus scale="  104.886">  2  5  1 -1</clus>
</clustering>
</event>
<event>
 9    2  0.3402837E-005  0.1248288E+03  0.7546771E-02  0.1238002E+00
          2   -1    0    0  502    0  0.00000000000E+00  0.00000000000E+00  0.22034199721E+03  0.22034199721E+03  0.00000000000E+00 0. -1.
         -1   -1    0    0    0  501 -0.00000000000E+00 -0.00000000000E+00 -0.18061097920E+03  0.18061097920E+03  0.00000000000E+00 0.  1.
         23    2    1    2    0    0  0.72012094689E+02 -0.28997378988E+02 -0.98466645698E+02  0.15534115262E+03  0.91698438448E+02 0.  0.
         24    2    1    2    0    0 -0.63399403203E+02  0.58783718449E+02  0.16561801118E+03  0.20422003803E+03  0.82471136915E+02 0.  0.
        -11    1    4    4    0    0 -0.64817789347E+02  0.21460640615E+02  0.55656231634E+02  0.88088143533E+02  0.00000000000E+00 0.  1.
         12    1    4    4    0    0  0.14183861439E+01  0.37323077834E+02  0.10996177955E+03  0.11613189450E+03  0.00000000000E+00 0. -1.
        -13    1    3    3    0    0  0.13599931729E+02 -0.35686492842E+02  0.27485195522E+01  0.38288879249E+02  0.00000000000E+00 0. -1.
         13    1    3    3    0    0  0.58412162960E+02  0.66891138533E+01 -0.10121516525E+03  0.11705227338E+03  0.00000000000E+00 0.  1.
         21    1    1    2  502  501 -0.86126914862E+01 -0.29786339461E+02 -0.27420347466E+02  0.41391785758E+02  0.00000000000E+00 0. -1.
<scales pt_clust_5="13000.00000" pt_clust_6="13000.00000" pt_clust_7="13000.00000" pt_clust_8="13000.00000" pt_clust_9="31.00652"></scales>
<clustering>
<clus scale="   31.007">  2  9  1 -1</clus>
<clus scale="   82.471">  5  6 -1 -1</clus>
<clus scale="   91.698">  7  8 -1 -1</clus>
<clus scale="  118.216">  1  5  2 -1</clus>
<clus scale="  118.216">  1  5  2 -1</clus>
</clustering>
</event>
<event>
 9    2  0.3402837E-005  0.9250997E+02  0.7546771E-02  0.1303165E+00
          2   -1    0    0  502    0  0.00000000000E+00  0.00000000000E+00  0.16893168018E+04  0.16893168018E+04  0.00000000000E+00 0. -1.
         -1   -1    0    0    0  501 -0.00000000000E+00 -0.00000000000E+00 -0.93309137687E+01  0.93309137687E+01  0.00000000000E+00 0.  1.
         23    2    1    2    0    0 -0.11425561002E+02 -0.30333742995E+02  0.33014396437E+03  0.34393904476E+03  0.90820426631E+02 0.  0.
         24    2    1    2    0    0  0.13123660049E+02  0.84362333256E+01  0.12391008914E+04  0.12418106607E+04  0.80494082768E+02 0.  0.
        -13    1    4    4    0    0  0.14763311829E+02  0.21939586427E+02  0.13182512154E+03  0.13445134250E+03  0.00000000000E+00 0.  1.
         14    1    4    4    0    0 -0.16396517802E+01 -0.13503353101E+02  0.11072757699E+04  0.11073593182E+04  0.00000000000E+00 0. -1.
        -11    1    3    3    0    0  0.39440718567E+02 -0.20092592445E+02  0.13898970516E+03  0.14586781925E+03  0.00000000000E+00 0. -1.
         11    1    3    3    0    0 -0.50866279569E+02 -0.10241150550E+02  0.19115425921E+03  0.19807122551E+03  0.00000000000E+00 0.  1.
         21    1    1    2  502  501 -0.16980990470E+01  0.21897509669E+02  0.11074103225E+03  0.11289801014E+03  0.00000000000E+00 0.  1.
<scales pt_clust_5="13000.00000" pt_clust_6="13000.00000" pt_clust_7="13000.00000" pt_clust_8="13000.00000" pt_clust_9="21.96325"></scales>
<clustering>
<clus scale="   21.963">  2  9  1 -1</clus>
<clus scale="   80.494">  5  6 -1 -1</clus>
<clus scale="   82.396">  1  5  2 -1</clus>
<clus scale="   90.820">  7  8 -1 -1</clus>
<clus scale="   82.396">  1  5  2 -1</clus>
</clustering>
</event>
<event>
 9    2  0.3402837E-005  0.1112849E+03  0.7546771E-02  0.1264769E+00
         -3   -1    0    0    0  501 -0.00000000000E+00  0.00000000000E+00  0.43582421069E+02  0.43582421069E+02  0.00000000000E+00 0.  1.
          4   -1    0    0  502    0  0.00000000000E+00 -0.00000000000E+00 -0.48024757213E+03  0.48024757213E+03  0.00000000000E+00 0. -1.
         24    2    1    2    0    0  0.21578697159E+02  0.46859157409E+02 -0.13671198534E+03  0.16606601023E+03  0.78907110043E+02 0.  0.
         23    2    1    2    0    0 -0.74001727272E+01 -0.62879994945E+02 -0.31266968840E+03  0.33287607949E+03  0.95055215181E+02 0.  0.
        -13    1    3    3    0    0  0.20061277240E+02  0.34834416215E+02 -0.13715183808E+02  0.42473493669E+02  0.00000000000E+00 0.  1.
         14    1    3    3    0    0  0.15174199187E+01  0.12024741194E+02 -0.12299680153E+03  0.12359251656E+03  0.00000000000E+00 0. -1.
        -13    1    4    4    0    0  0.14116859370E+02 -0.60822481429E+02 -0.30269958472E+03  0.30907231929E+03  0.00000000000E+00 0. -1.
         13    1    4    4    0    0 -0.21517032098E+02 -0.20575135155E+01 -0.99701036845E+01  0.23803760200E+02  0.00000000000E+00 0.  1.
         21    1    1    2  502  501 -0.14178524431E+02  0.16020837536E+02  0.12716522677E+02  0.24887903475E+02  0.00000000000E+00 0.  1.
<scales pt_clust_5="13000.00000" pt_clust_6="13000.00000" pt_clust_7="13000.00000" pt_clust_8="13000.00000" pt_clust_9="21.39387"></scales>
<clustering>
<clus scale="   21.394">  1  9  2 -1</clus>
<clus scale="   78.907">  5  6 -1 -1</clus>
<clus scale="   95.055">  7  8 -1 -1</clus>
<clus scale="   97.853">  1  5  2 -1</clus>
<clus scale="  111.285">  2  5  1 -1</clus>
</clustering>
</event>
<event>
 9    2  0.3402837E-005  0.1180734E+03  0.7546771E-02  0.1249177E+00
         -1   -1    0    0    0  501 -0.00000000000E+00  0.00000000000E+00  0.55878058770E+02  0.55878058770E+02  0.00000000000E+00 0.  1.
          2   -1    0    0  502    0  0.00000000000E+00 -0.00000000000E+00 -0.58340486250E+03  0.58340486250E+03  0.00000000000E+00 0. -1.
         24    2    1    2    0    0  0.38898678282E+02 -0.88283901874E+02 -0.58193822950E+02  0.13868276754E+03  0.80865533338E+02 0.  0.
         23    2    1    2    0    0 -0.22913082498E+02  0.69597252282E+02 -0.45988917803E+03  0.47425787676E+03  0.89742357442E+02 0.  0.
        -13    1    3    3    0    0  0.60043222300E+02 -0.59652061277E+02 -0.58844549721E+02  0.10308364560E+03  0.00000000000E+00 0.  1.
         14    1    3    3    0    0 -0.21144544018E+02 -0.28631840597E+02  0.65072677142E+00  0.35599121942E+02  0.00000000000E+00 0. -1.
        -13    1    4    4    0    0 -0.18769292619E+02 -0.16071062085E+02 -0.53699465270E+02  0.59111741238E+02  0.00000000000E+00 0.  1.
         13    1    4    4    0    0 -0.41437898785E+01  0.85668314368E+02 -0.40618971276E+03  0.41514613552E+03  0.00000000000E+00 0. -1.
         21    1    1    2  502  501 -0.15985595784E+02  0.18686649592E+02 -0.94438027450E+01  0.26342276967E+02  0.00000000000E+00 0. -1.
<scales pt_clust_5="13000.00000" pt_clust_6="13000.00000" pt_clust_7="13000.00000" pt_clust_8="13000.00000" pt_clust_9="24.59126"></scales>
<clustering>
<clus scale="   24.591">  1  9  2 -1</clus>
<clus scale="   80.866">  5  6 -1 -1</clus>
<clus scale="   89.742">  7  8 -1 -1</clus>
<clus scale="  111.476">  1  5  2 -1</clus>
<clus scale="  118.073">  2  5  1 -1</clus>
</clustering>
</event>
<event>
 9    2  0.3402837E-005  0.1183193E+03  0.7546771E-02  0.1250118E+00
         -1   -1    0    0    0  501 -0.00000000000E+00  0.00000000000E+00  0.23549284605E+03  0.23549284605E+03  0.00000000000E+00 0.  1.
          2   -1    0    0  502    0  0.00000000000E+00 -0.00000000000E+00 -0.32669982440E+03  0.32669982440E+03  0.00000000000E+00 0. -1.
         24    2    1    2    0    0 -0.56676304160E+02  0.75756499221E+02  0.16489771571E+03  0.20599683840E+03  0.79323326695E+02 0.  0.
         23    2    1    2    0    0  0.31746490892E+02 -0.65950433461E+02 -0.29003234114E+03  0.31296690942E+03  0.92044707225E+02 0.  0.
        -13    1    3    3    0    0 -0.69616732248E+02  0.78030904604E+02  0.16154462031E+03  0.19243693989E+03  0.00000000000E+00 0.  1.
         14    1    3    3    0    0  0.12940428088E+02 -0.22744053830E+01  0.33530953989E+01  0.13559898514E+02  0.00000000000E+00 0. -1.
        -11    1    4    4    0    0 -0.57419525382E+01 -0.45934354371E+02 -0.45995340612E+02  0.65257231694E+02  0.00000000000E+00 0.  1.
         11    1    4    4    0    0  0.37488443430E+02 -0.20016079090E+02 -0.24403700053E+03  0.24770967773E+03  0.00000000000E+00 0. -1.
         21    1    1    2  502  501  0.24929813268E+02 -0.98060657604E+01  0.33927647079E+02  0.43228922628E+02  0.00000000000E+00 0.  1.
<scales pt_clust_5="13000.00000" pt_clust_6="13000.00000" pt_clust_7="13000.00000" pt_clust_8="13000.00000" pt_clust_9="26.78907"></scales>
<clustering>
<clus scale="   26.789">  1  9  2 -1</clus>
<clus scale="   79.323">  5  6 -1 -1</clus>
<clus scale="   92.045">  7  8 -1 -1</clus>
<clus scale="  108.717">  1  5  2 -1</clus>
<clus scale="  118.319">  2  5  1 -1</clus>
</clustering>
</event>
<event>
 9    2  0.3402837E-005  0.1725931E+03  0.7546771E-02  0.1176719E+00
          2   -1    0    0  502    0  0.00000000000E+00  0.00000000000E+00  0.15399889543E+03  0.15399889543E+03  0.00000000000E+00 0. -1.
         -1   -1    0    0    0  501 -0.00000000000E+00 -0.00000000000E+00 -0.33005263228E+03  0.33005263228E+03  0.00000000000E+00 0.  1.
         24    2    1    2    0    0 -0.14535464745E+03  0.18116583750E+01 -0.18919124253E+03  0.25141187825E+03  0.79267588794E+02 0.  0.
         23    2    1    2    0    0  0.14551041525E+03  0.23681707476E+02  0.56547852066E+02  0.18229688295E+03  0.91106474775E+02 0.  0.
        -11    1    3    3    0    0 -0.11538840414E+03 -0.18221990837E+02 -0.17936198609E+03  0.21404963633E+03  0.00000000000E+00 0.  1.
         12    1    3    3    0    0 -0.29966243308E+02  0.20033649212E+02 -0.98292564398E+01  0.37362241915E+02  0.00000000000E+00 0. -1.
        -11    1    4    4    0    0  0.56702229641E+02  0.37109319624E+01 -0.23104803895E+02  0.61341224518E+02  0.00000000000E+00 0.  1.
         11    1    4    4    0    0  0.88808185604E+02  0.19970775513E+02  0.79652655961E+02  0.12095565843E+03  0.00000000000E+00 0. -1.
         21    1    1    2  502  501 -0.15576779322E+00 -0.25493365851E+02 -0.43410346393E+02  0.50342766511E+02  0.00000000000E+00 0. -1.
<scales pt_clust_5="13000.00000" pt_clust_6="13000.00000" pt_clust_7="13000.00000" pt_clust_8="13000.00000" pt_clust_9="25.49384"></scales>
<clustering>
<clus scale="   25.494">  2  9  1 -1</clus>
<clus scale="   79.268">  5  6 -1 -1</clus>
<clus scale="   91.106">  7  8 -1 -1</clus>
<clus scale="  166.647">  2  5  1 -1</clus>
<clus scale="  172.593">  1  5  2 -1</clus>
</clustering>
</event>
<event>
 9    2  0.3402837E-005  0.1111490E+03  0.7546771E-02  0.1262384E+00
          2   -1    0    0  502    0  0.00000000000E+00  0.00000000000E+00  0.46790589027E+03  0.46790589027E+03  0.00000000000E+00 0. -1.
         -1   -1    0    0    0  501 -0.00000000000E+00 -0.00000000000E+00 -0.20173180785E+03  0.20173180785E+03  0.00000000000E+00 0.  1.
         23    2    1    2    0    0  0.97294032854E+02  0.86973022942E+02 -0.12750818465E+03  0.20371208279E+03  0.90608167264E+02 0.  0.
         24    2    1    2    0    0 -0.43476741504E+02 -0.43858964345E+02  0.38297648648E+03  0.39614211702E+03  0.80272983460E+02 0.  0.
        -13    1    4    4    0    0  0.23524633777E+02 -0.11750101081E+02  0.12161279491E+03  0.12442325006E+03  0.00000000000E+00 0.  1.
         14    1    4    4    0    0 -0.67001375281E+02 -0.32108863263E+02  0.26136369158E+03  0.27171886696E+03  0.00000000000E+00 0. -1.
        -11    1    3    3    0    0  0.61859686899E+02  0.10283417048E+03 -0.98370351782E+02  0.15517156180E+03  0.00000000000E+00 0.  1.
         11    1    3    3    0    0  0.35434345955E+02 -0.15861147535E+02 -0.29137832870E+02  0.48540520998E+02  0.00000000000E+00 0. -1.
         21    1    1    2  502  501 -0.53817291350E+02 -0.43114058598E+02  0.10705780590E+02  0.69783498301E+02  0.00000000000E+00 0.  1.
<scales pt_clust_5="13000.00000" pt_clust_6="13000.00000" pt_clust_7="13000.00000" pt_clust_8="13000.00000" pt_clust_9="68.95740"></scales>
<clustering>
<clus scale="   68.957">  2  9  1 -1</clus>
<clus scale="   80.273">  5  6 -1 -1</clus>
<clus scale="   90.608">  7  8 -1 -1</clus>
<clus scale="  102.898">  1  5  2 -1</clus>
<clus scale="  102.898">  1  5  2 -1</clus>
</clustering>
</event>
<event>
 9    2  0.3402837E-005  0.1241636E+03  0.7546771E-02  0.1238995E+00
         -1   -1    0    0    0  501 -0.00000000000E+00  0.00000000000E+00  0.65011260169E+02  0.65011260169E+02  0.00000000000E+00 0.  1.
          2   -1    0    0  502    0  0.00000000000E+00 -0.00000000000E+00 -0.77379969605E+03  0.77379969605E+03  0.00000000000E+00 0. -1.
         24    2    1    2    0    0 -0.15083635887E+03  0.70160292559E+02 -0.18299390986E+03  0.26021923685E+03  0.80951876901E+02 0.  0.
         23    2    1    2    0    0  0.67226727100E+02 -0.18525139039E+02 -0.41568626032E+03  0.43100923470E+03  0.90062643575E+02 0.  0.
        -13    1    3    3    0    0 -0.10389576936E+03  0.13474457027E+02 -0.72301701186E+02  0.12729268588E+03  0.00000000000E+00 0.  1.
         14    1    3    3    0    0 -0.46940589506E+02  0.56685835532E+02 -0.11069220867E+03  0.13292655097E+03  0.00000000000E+00 0. -1.
        -11    1    4    4    0    0  0.27446840686E+02  0.27737101414E+02 -0.71482482366E+02  0.81439677945E+02  0.00000000000E+00 0.  1.
         11    1    4    4    0    0  0.39779886414E+02 -0.46262240453E+02 -0.34420377795E+03  0.34956955675E+03  0.00000000000E+00 0. -1.
         21    1    1    2  502  501  0.83609631768E+02 -0.51635153520E+02 -0.11010826570E+03  0.14758248467E+03  0.00000000000E+00 0. -1.
<scales pt_clust_5="13000.00000" pt_clust_6="13000.00000" pt_clust_7="13000.00000" pt_clust_8="13000.00000" pt_clust_9="98.26881"></scales>
<clustering>
<clus scale="   80.952">  5  6 -1 -1</clus>
<clus scale="   90.063">  7  8 -1 -1</clus>
<clus scale="   98.269">  1  9  2 -1</clus>
<clus scale="  117.722">  1  5  2 -1</clus>
<clus scale="  124.164">  2  5  1 -1</clus>
</clustering>
</event>
<event>
 9    2  0.3402837E-005  0.1049924E+03  0.7546771E-02  0.1274196E+00
         -1   -1    0    0    0  501 -0.00000000000E+00  0.00000000000E+00  0.42010531201E+03  0.42010531201E+03  0.00000000000E+00 0.  1.
          2   -1    0    0  502    0  0.00000000000E+00 -0.00000000000E+00 -0.10566282234E+03  0.10566282234E+03  0.00000000000E+00 0. -1.
         23    2    1    2    0    0 -0.57197801441E+02 -0.20535795323E+02  0.27314896368E+03  0.29426684908E+03  0.91045673856E+02 0.  0.
         24    2    1    2    0    0  0.34448955933E+02  0.39148323924E+02 -0.67905012793E+02  0.11841610912E+03  0.81804414956E+02 0.  0.
        -13    1    4    4    0    0 -0.81840853505E+01  0.23695227227E+02  0.11025680042E+02  0.27386286108E+02  0.00000000000E+00 0.  1.
         14    1    4    4    0    0  0.42633041284E+02  0.15453096697E+02 -0.78930692835E+02  0.91029823015E+02  0.00000000000E+00 0. -1.
        -13    1    3    3    0    0  0.17496016608E+02 -0.28626633774E+02  0.10133379237E+03  0.10674330065E+03  0.00000000000E+00 0. -1.
         13    1    3    3    0    0 -0.74693818048E+02  0.80908384513E+01  0.17181517131E+03  0.18752354843E+03  0.00000000000E+00 0.  1.
         21    1    1    2  502  501  0.22748845507E+02 -0.18612528601E+02  0.10919853878E+03  0.11308517615E+03  0.00000000000E+00 0. -1.
<scales pt_clust_5="13000.00000" pt_clust_6="13000.00000" pt_clust_7="13000.00000" pt_clust_8="13000.00000" pt_clust_9="29.39279"></scales>
<clustering>
<clus scale="   29.393">  1  9  2 -1</clus>
<clus scale="   81.804">  5  6 -1 -1</clus>
<clus scale="   91.046">  7  8 -1 -1</clus>
<clus scale="   97.088">  2  5  1 -1</clus>
<clus scale="   97.088">  2  5  1 -1</clus>
</clustering>
</event>
<event>
 9    2  0.3402837E-005  0.1507550E+03  0.7546771E-02  0.1200705E+00
          2   -1    0    0  502    0  0.00000000000E+00  0.00000000000E+00  0.70036734716E+03  0.70036734716E+03  0.00000000000E+00 0. -1.
         -1   -1    0    0    0  501 -0.00000000000E+00 -0.00000000000E+00 -0.44343225296E+02  0.44343225296E+02  0.00000000000E+00 0.  1.
         23    2    1    2    0    0 -0.11243945798E+03 -0.14622461867E+02  0.20628396206E+03  0.25175844223E+03  0.89290492943E+02 0.  0.
         24    2    1    2    0    0  0.12652620064E+03 -0.26852892989E+02  0.38763726190E+03  0.41695600330E+03  0.82823333479E+02 0.  0.
        -13    1    4    4    0    0  0.10817585662E+02  0.16941181083E+02  0.17368797648E+02  0.26564994029E+02  0.00000000000E+00 0.  1.
         14    1    4    4    0    0  0.11570861497E+03 -0.43794074071E+02  0.37026846425E+03  0.39039100928E+03  0.00000000000E+00 0. -1.
        -13    1    3    3    0    0 -0.65587905804E+02 -0.49859584183E+02  0.14618227202E+03  0.16780050112E+03  0.00000000000E+00 0. -1.
         13    1    3    3    0    0 -0.46851552171E+02  0.35237122316E+02  0.60101690039E+02  0.83957941111E+02  0.00000000000E+00 0.  1.
         21    1    1    2  502  501 -0.14086742661E+02  0.41475354855E+02  0.62102897901E+02  0.75996126920E+02  0.00000000000E+00 0. -1.
<scales pt_clust_5="13000.00000" pt_clust_6="13000.00000" pt_clust_7="13000.00000" pt_clust_8="13000.00000" pt_clust_9="43.80230"></scales>
<clustering>
<clus scale="   43.802">  2  9  1 -1</clus>
<clus scale="   82.823">  5  6 -1 -1</clus>
<clus scale="   89.290">  7  8 -1 -1</clus>
<clus scale="  147.017">  1  5  2 -1</clus>
<clus scale="  147.017">  1  5  2 -1</clus>
</clustering>
</event>
<event>
 9    2  0.3402837E-005  0.1058010E+03  0.7546771E-02  0.1273830E+00
          2   -1    0    0  502    0  0.00000000000E+00  0.00000000000E+00  0.67400555141E+03  0.67400555141E+03  0.00000000000E+00 0. -1.
         -1   -1    0    0    0  501 -0.00000000000E+00 -0.00000000000E+00 -0.41040443273E+02  0.41040443273E+02  0.00000000000E+00 0.  1.
         24    2    1    2    0    0 -0.34574983425E+01 -0.33049464045E+02  0.58789098803E+02  0.10549676550E+03  0.81050527596E+02 0.  0.
         23    2    1    2    0    0  0.12347207698E+02  0.52924000928E+02  0.57756904858E+03  0.58751432815E+03  0.92917579000E+02 0.  0.
        -11    1    3    3    0    0 -0.34922176506E+02 -0.28309695113E+02  0.81469460559E+01  0.45687744301E+02  0.00000000000E+00 0.  1.
         12    1    3    3    0    0  0.31464678163E+02 -0.47397689327E+01  0.50642152747E+02  0.59809021195E+02  0.00000000000E+00 0. -1.
        -11    1    4    4    0    0  0.45505280129E+02  0.65948720231E+00  0.26421395022E+03  0.26810478722E+03  0.00000000000E+00 0.  1.
         11    1    4    4    0    0 -0.33158072430E+02  0.52264513726E+02  0.31335509836E+03  0.31940954092E+03  0.00000000000E+00 0. -1.
         21    1    1    2  502  501 -0.88897093558E+01 -0.19874536883E+02 -0.33930392422E+01  0.22034901045E+02  0.00000000000E+00 0.  1.
<scales pt_clust_5="13000.00000" pt_clust_6="13000.00000" pt_clust_7="13000.00000" pt_clust_8="13000.00000" pt_clust_9="21.77210"></scales>
<clustering>
<clus scale="   21.772">  2  9  1 -1</clus>
<clus scale="   81.051">  5  6 -1 -1</clus>
<clus scale="   92.918">  7  8 -1 -1</clus>
<clus scale="   95.548">  2  5  1 -1</clus>
<clus scale="  105.801">  1  5  2 -1</clus>
</clustering>
</event>
<event>
 9    2  0.3402837E-005  0.1024804E+03  0.7546771E-02  0.1280276E+00
         -1   -1    0    0    0  501 -0.00000000000E+00  0.00000000000E+00  0.21760410487E+03  0.21760410487E+03  0.00000000000E+00 0.  1.
          2   -1    0    0  502    0  0.00000000000E+00 -0.00000000000E+00 -0.87509927370E+02  0.87509927370E+02  0.00000000000E+00 0. -1.
         23    2    1    2    0    0  0.44432348901E+02  0.19680910693E+02  0.15416679060E+03  0.18588909539E+03  0.91792072556E+02 0.  0.
         24    2    1    2    0    0 -0.23513394987E+02 -0.27823868207E+02 -0.33425933824E+02  0.94906322614E+02  0.81011540130E+02 0.  0.
        -13    1    4    4    0    0 -0.25486219111E+02  0.74544371701E+01 -0.49434966250E+02  0.56115344481E+02  0.00000000000E+00 0.  1.
         14    1    4    4    0    0  0.19728241236E+01 -0.35278305377E+02  0.16009032426E+02  0.38790978133E+02  0.00000000000E+00 0. -1.
        -11    1    3    3    0    0  0.23615180196E+02 -0.29242480395E+02  0.22293795240E+02  0.43701403885E+02  0.00000000000E+00 0. -1.
         11    1    3    3    0    0  0.20817168706E+02  0.48923391088E+02  0.13187299536E+03  0.14218769150E+03  0.00000000000E+00 0.  1.
         21    1    1    2  502  501 -0.20918953914E+02  0.81429575139E+01  0.93533207182E+01  0.24318614237E+02  0.00000000000E+00 0.  1.
<scales pt_clust_5="13000.00000" pt_clust_6="13000.00000" pt_clust_7="13000.00000" pt_clust_8="13000.00000" pt_clust_9="22.44795"></scales>
<clustering>
<clus scale="   22.448">  2  9  1 -1</clus>
<clus scale="   81.012">  5  6 -1 -1</clus>
<clus scale="   91.792">  7  8 -1 -1</clus>
<clus scale="   92.948">  2  5  1 -1</clus>
<clus scale="   22.448">  2  5  1 -1</clus>
</clustering>
</event>
<event>
 9    2  0.3402837E-005  0.9915741E+02  0.7546771E-02  0.1291326E+00
         -1   -1    0    0    0  501 -0.00000000000E+00  0.00000000000E+00  0.85392695136E+02  0.85392695136E+02  0.00000000000E+00 0.  1.
          2   -1    0    0  502    0  0.00000000000E+00 -0.00000000000E+00 -0.19387902656E+03  0.19387902656E+03  0.00000000000E+00 0. -1.
         23    2    1    2    0    0 -0.60776411310E+01  0.42116870683E+02  0.17042405541E+02  0.10320020384E+03  0.92461180866E+02 0.  0.
         24    2    1    2    0    0 -0.27504182305E+02 -0.19491157290E+02 -0.91777120715E+02  0.12335687690E+03  0.75216314293E+02 0.  0.
        -13    1    4    4    0    0 -0.26949893895E+02 -0.40729520223E+02 -0.28359759769E+02  0.56475362528E+02  0.00000000000E+00 0.  1.
         14    1    4    4    0    0 -0.55428840999E+00  0.21238362933E+02 -0.63417360947E+02  0.66881514375E+02  0.00000000000E+00 0. -1.
        -11    1    3    3    0    0  0.16597528683E+02 -0.25060452416E+02 -0.87198733375E+00  0.30070992594E+02  0.00000000000E+00 0. -1.
         11    1    3    3    0    0 -0.22675169814E+02  0.67177323098E+02  0.17914392874E+02  0.73129211242E+02  0.00000000000E+00 0.  1.
         21    1    1    2  502  501  0.33581823437E+02 -0.22625713393E+02 -0.33751616252E+02  0.52714640959E+02  0.00000000000E+00 0. -1.
<scales pt_clust_5="13000.00000" pt_clust_6="13000.00000" pt_clust_7="13000.00000" pt_clust_8="13000.00000" pt_clust_9="40.49274"></scales>
<clustering>
<clus scale="   40.493">  2  9  1 -1</clus>
<clus scale="   75.216">  5  6 -1 -1</clus>
<clus scale="   83.310">  2  5  1 -1</clus>
<clus scale="   92.461">  7  8 -1 -1</clus>
<clus scale="   40.493">  2  5  1 -1</clus>
</clustering>
</event>
<event>
 9    2  0.3402837E-005  0.1025805E+03  0.7546771E-02  0.1276411E+00
         -1   -1    0    0    0  501 -0.00000000000E+00  0.00000000000E+00  0.18016027335E+03  0.18016027335E+03  0.00000000000E+00 0.  1.
          2   -1    0    0  502    0  0.00000000000E+00 -0.00000000000E+00 -0.37136730609E+03  0.37136730609E+03  0.00000000000E+00 0. -1.
         24    2    1    2    0    0  0.56080035354E+02 -0.30703810017E+02 -0.38163829059E+01  0.10312840218E+03  0.80828263884E+02 0.  0.
         23    2    1    2    0    0  0.40945363205E+02  0.53947308537E+02 -0.28712962449E+03  0.30732454717E+03  0.86128515406E+02 0.  0.
        -13    1    3    3    0    0 -0.20565306200E+02 -0.28970101995E+00  0.25149273829E+00  0.20568884131E+02  0.00000000000E+00 0.  1.
         14    1    3    3    0    0  0.76645341555E+02 -0.30414108997E+02 -0.40678756442E+01  0.82559518048E+02  0.00000000000E+00 0. -1.
        -13    1    4    4    0    0  0.18391888053E+02 -0.13950733150E+02 -0.19256772490E+02  0.30061732955E+02  0.00000000000E+00 0.  1.
         13    1    4    4    0    0  0.22553475152E+02  0.67898041687E+02 -0.26787285200E+03  0.27726281422E+03  0.00000000000E+00 0. -1.
         21    1    1    2  502  501 -0.97025398559E+02 -0.23243498520E+02  0.99738974660E+02  0.14107463009E+03  0.00000000000E+00 0.  1.
<scales pt_clust_5="13000.00000" pt_clust_6="13000.00000" pt_clust_7="13000.00000" pt_clust_8="13000.00000" pt_clust_9="99.77068"></scales>
<clustering>
<clus scale="   80.828">  5  6 -1 -1</clus>
<clus scale="   86.129">  7  8 -1 -1</clus>
<clus scale="   99.771">  1  9  2 -1</clus>
<clus scale="   99.771">  1  5  2 -1</clus>
<clus scale="  102.580">  2  5  1 -1</clus>
</clustering>
</event>
<event>
 9    2  0.3402837E-005  0.1108906E+03  0.7546771E-02  0.1259160E+00
         -1   -1    0    0    0  501 -0.00000000000E+00  0.00000000000E+00  0.69741597353E+02  0.69741597353E+02  0.00000000000E+00 0.  1.
          2   -1    0    0  502    0  0.00000000000E+00 -0.00000000000E+00 -0.44178798313E+03  0.44178798313E+03  0.00000000000E+00 0. -1.
         24    2    1    2    0    0  0.84907140715E+01 -0.89329426681E+02 -0.12037309228E+03  0.16618650633E+03  0.71249104173E+02 0.  0.
         23    2    1    2    0    0  0.73687304908E+02  0.15622891470E+02 -0.17138516691E+03  0.20884375764E+03  0.92568601738E+02 0.  0.
        -11    1    3    3    0    0  0.62540284234E+01 -0.45408621063E+02 -0.93645383962E+01  0.46784081885E+02  0.00000000000E+00 0.  1.
         12    1    3    3    0    0  0.22366856482E+01 -0.43920805617E+02 -0.11100855388E+03  0.11940242445E+03  0.00000000000E+00 0. -1.
        -11    1    4    4    0    0  0.57527736791E+01  0.40919474288E+02 -0.94676369096E+02  0.10330107766E+03  0.00000000000E+00 0.  1.
         11    1    4    4    0    0  0.67934531229E+02 -0.25296582819E+02 -0.76708797813E+02  0.10554267998E+03  0.00000000000E+00 0. -1.
         21    1    1    2  502  501 -0.82178018979E+02  0.73706535211E+02 -0.80288126593E+02  0.13649931651E+03  0.00000000000E+00 0.  1.
<scales pt_clust_5="13000.00000" pt_clust_6="13000.00000" pt_clust_7="13000.00000" pt_clust_8="13000.00000" pt_clust_9="110.38967"></scales>
<clustering>
<clus scale="   71.249">  5  6 -1 -1</clus>
<clus scale="   92.569">  7  8 -1 -1</clus>
<clus scale="  110.390">  1  9  2 -1</clus>
<clus scale="  110.390">  1  5  2 -1</clus>
<clus scale="  110.891">  2  5  1 -1</clus>
</clustering>
</event>
<event>
 9    2  0.3402837E-005  0.1046182E+03  0.7546771E-02  0.1274864E+00
          2   -1    0    0  502    0  0.00000000000E+00  0.00000000000E+00  0.65925663419E+03  0.65925663419E+03  0.00000000000E+00 0. -1.
         -1   -1    0    0    0  501 -0.00000000000E+00 -0.00000000000E+00 -0.40153546657E+02  0.40153546657E+02  0.00000000000E+00 0.  1.
         24    2    1    2    0    0 -0.44274905797E+02 -0.14964180778E+02  0.50535177082E+02  0.10897385328E+03  0.84482557883E+02 0.  0.
         23    2    1    2    0    0  0.34757440431E+02  0.52128551742E+02  0.49358854529E+03  0.50621235345E+03  0.93251429852E+02 0.  0.
        -11    1    3    3    0    0 -0.69454601054E+02 -0.15362281355E+02  0.40582984420E+02  0.81895786952E+02  0.00000000000E+00 0.  1.
         12    1    3    3    0    0  0.25179695257E+02  0.39810057758E+00  0.99521926615E+01  0.27078066328E+02  0.00000000000E+00 0. -1.
        -13    1    4    4    0    0 -0.20139262087E+01  0.70781174693E+02  0.32951671180E+03  0.33703900953E+03  0.00000000000E+00 0. -1.
         13    1    4    4    0    0  0.36771366639E+02 -0.18652622950E+02  0.16407183350E+03  0.16917334392E+03  0.00000000000E+00 0.  1.
         21    1    1    2  502  501  0.95174653664E+01 -0.37164370965E+02  0.74979365157E+02  0.84223974114E+02  0.00000000000E+00 0.  1.
<scales pt_clust_5="13000.00000" pt_clust_6="13000.00000" pt_clust_7="13000.00000" pt_clust_8="13000.00000" pt_clust_9="38.36369"></scales>
<clustering>
<clus scale="   38.364">  1  9  2 -1</clus>
<clus scale="   84.483">  5  6 -1 -1</clus>
<clus scale="   93.251">  7  8 -1 -1</clus>
<clus scale="   96.884">  2  5  1 -1</clus>
<clus scale="   38.364">  1  5  2 -1</clus>
</clustering>
</event>
<event>
 9    2  0.3402837E-005  0.1049723E+03  0.7546771E-02  0.1274062E+00
         -1   -1    0    0    0  501 -0.00000000000E+00  0.00000000000E+00  0.23398586198E+03  0.23398586198E+03  0.00000000000E+00 0.  1.
          2   -1    0    0  502    0  0.00000000000E+00 -0.00000000000E+00 -0.18603628155E+03  0.18603628155E+03  0.00000000000E+00 0. -1.
         23    2    1    2    0    0 -0.11496442186E+02 -0.53580701642E+02  0.18173523123E+03  0.21070352308E+03  0.91461579903E+02 0.  0.
         24    2    1    2    0    0 -0.10164812209E+02  0.50573464825E+02 -0.15221059891E+03  0.18072260450E+03  0.82653460940E+02 0.  0.
        -11    1    4    4    0    0 -0.20978692707E+02 -0.12257272705E+02 -0.12883248581E+02  0.27501352255E+02  0.00000000000E+00 0.  1.
         12    1    4    4    0    0  0.10813880499E+02  0.62830737530E+02 -0.13932735033E+03  0.15322125225E+03  0.00000000000E+00 0. -1.
        -11    1    3    3    0    0 -0.83902213051E+01 -0.79731700371E+02  0.14092918802E+03  0.16213752155E+03  0.00000000000E+00 0.  1.
         11    1    3    3    0    0 -0.31062208808E+01  0.26150998730E+02  0.40806043203E+02  0.48566001530E+02  0.00000000000E+00 0. -1.
         21    1    1    2  502  501  0.21661254395E+02  0.30072368170E+01  0.18424948112E+02  0.28596015949E+02  0.00000000000E+00 0.  1.
<scales pt_clust_5="13000.00000" pt_clust_6="13000.00000" pt_clust_7="13000.00000" pt_clust_8="13000.00000" pt_clust_9="21.86901"></scales>
<clustering>
<clus scale="   21.869">  1  9  2 -1</clus>
<clus scale="   82.653">  5  6 -1 -1</clus>
<clus scale="   91.462">  7  8 -1 -1</clus>
<clus scale="   97.394">  2  5  1 -1</clus>
<clus scale="   97.394">  2  5  1 -1</clus>
</clustering>
</event>
<event>
 9    2  0.3402837E-005  0.2937628E+03  0.7546771E-02  0.1088709E+00
         -1   -1    0    0    0  501 -0.00000000000E+00  0.00000000000E+00  0.67043050336E+02  0.67043050336E+02  0.00000000000E+00 0.  1.
          2   -1    0    0  502    0  0.00000000000E+00 -0.00000000000E+00 -0.17573484312E+04  0.17573484312E+04  0.00000000000E+00 0. -1.
         24    2    1    2    0    0 -0.24692066018E+03 -0.69144727783E+02 -0.53847738130E+03  0.60189344564E+03  0.81037176256E+02 0.  0.
         23    2    1    2    0    0  0.29158801678E+03  0.50024859755E+02 -0.11256720154E+04  0.11673176263E+04  0.89257471918E+02 0.  0.
        -13    1    3    3    0    0 -0.18476530706E+03 -0.28084902420E+02 -0.31432817417E+03  0.36569000740E+03  0.00000000000E+00 0.  1.
         14    1    3    3    0    0 -0.62155353115E+02 -0.41059825363E+02 -0.22414920713E+03  0.23620343824E+03  0.00000000000E+00 0. -1.
        -13    1    4    4    0    0  0.22747972281E+03  0.48534958103E+02 -0.99411818090E+03  0.10209670044E+04  0.00000000000E+00 0. -1.
         13    1    4    4    0    0  0.64108293971E+02  0.14899016521E+01 -0.13155383448E+03  0.14635062189E+03  0.00000000000E+00 0.  1.
         21    1    1    2  502  501 -0.44667356598E+02  0.19119868029E+02 -0.26155984233E+02  0.55180409659E+02  0.00000000000E+00 0.  1.
<scales pt_clust_5="13000.00000" pt_clust_6="13000.00000" pt_clust_7="13000.00000" pt_clust_8="13000.00000" pt_clust_9="48.58747"></scales>
<clustering>
<clus scale="   48.587">  1  9  2 -1</clus>
<clus scale="   81.037">  5  6 -1 -1</clus>
<clus scale="   89.257">  7  8 -1 -1</clus>
<clus scale="  291.370">  1  5  2 -1</clus>
<clus scale="  293.763">  2  5  1 -1</clus>
</clustering>
</event>
<event>
 9    2  0.3402837E-005  0.8907578E+02  0.7546771E-02  0.1311037E+00
         -1   -1    0    0    0  501 -0.00000000000E+00  0.00000000000E+00  0.25151732978E+02  0.25151732978E+02  0.00000000000E+00 0.  1.
          2   -1    0    0  502    0  0.00000000000E+00 -0.00000000000E+00 -0.61497019314E+03  0.61497019314E+03  0.00000000000E+00 0. -1.
         23    2    1    2    0    0  0.21693339718E+02  0.16608893159E+02 -0.97117614798E+02  0.13420147958E+03  0.88497173391E+02 0.  0.
         24    2    1    2    0    0  0.10175448581E+01 -0.85036555475E+01 -0.44878017504E+03  0.45581551228E+03  0.79314489028E+02 0.  0.
        -11    1    4    4    0    0 -0.32183168220E+02  0.15640166797E+02 -0.14892820596E+03  0.15316651614E+03  0.00000000000E+00 0.  1.
         12    1    4    4    0    0  0.33200713079E+02 -0.24143822344E+02 -0.29985196907E+03  0.30264899614E+03  0.00000000000E+00 0. -1.
        -11    1    3    3    0    0  0.41220568260E+02  0.26386285293E+02 -0.18036120181E+02  0.52160070268E+02  0.00000000000E+00 0.  1.
         11    1    3    3    0    0 -0.19527228541E+02 -0.97773921338E+01 -0.79081494618E+02  0.82041409315E+02  0.00000000000E+00 0. -1.
         21    1    1    2  502  501 -0.22710884576E+02 -0.81052376119E+01 -0.43920670323E+02  0.50104934254E+02  0.00000000000E+00 0. -1.
<scales pt_clust_5="13000.00000" pt_clust_6="13000.00000" pt_clust_7="13000.00000" pt_clust_8="13000.00000" pt_clust_9="24.11388"></scales>
<clustering>
<clus scale="   24.114">  1  9  2 -1</clus>
<clus scale="   79.314">  5  6 -1 -1</clus>
<clus scale="   79.960">  2  5  1 -1</clus>
<clus scale="   88.497">  7  8 -1 -1</clus>
<clus scale="   79.960">  2  5  1 -1</clus>
</clustering>
</event>
<event>
 9    2  0.3402837E-005  0.1552937E+03  0.7546771E-02  0.1196141E+00
          2   -1    0    0  502    0  0.00000000000E+00  0.00000000000E+00  0.83586027896E+03  0.83586027896E+03  0.00000000000E+00 0. -1.
         -1   -1    0    0    0  501 -0.00000000000E+00 -0.00000000000E+00 -0.75722365131E+02  0.75722365131E+02  0.00000000000E+00 0.  1.
         24    2    1    2    0    0  0.34844552876E+02  0.11293241865E+03  0.21182024946E+02  0.14314359199E+03  0.77932892278E+02 0.  0.
         23    2    1    2    0    0 -0.67523273656E+02 -0.10889318217E+03  0.70055109207E+03  0.71785108276E+03  0.90117849612E+02 0.  0.
        -11    1    3    3    0    0  0.26722559512E+02  0.12443352920E+03  0.21426649489E+02  0.12906161197E+03  0.00000000000E+00 0.  1.
         12    1    3    3    0    0  0.81219933641E+01 -0.11501110548E+02 -0.24462454390E+00  0.14081980018E+02  0.00000000000E+00 0. -1.
        -11    1    4    4    0    0 -0.89976370996E+02 -0.89679579890E+02  0.57590985856E+03  0.58975447397E+03  0.00000000000E+00 0. -1.
         11    1    4    4    0    0  0.22453097340E+02 -0.19213602282E+02  0.12464123351E+03  0.12809660879E+03  0.00000000000E+00 0.  1.
         21    1    1    2  502  501  0.32678720780E+02 -0.40392364825E+01  0.38404796817E+02  0.50587969338E+02  0.00000000000E+00 0.  1.
<scales pt_clust_5="13000.00000" pt_clust_6="13000.00000" pt_clust_7="13000.00000" pt_clust_8="13000.00000" pt_clust_9="32.92741"></scales>
<clustering>
<clus scale="   32.927">  2  9  1 -1</clus>
<clus scale="   77.933">  5  6 -1 -1</clus>
<clus scale="   90.118">  7  8 -1 -1</clus>
<clus scale="  148.554">  2  5  1 -1</clus>
<clus scale="  155.294">  1  5  2 -1</clus>
</clustering>
</event>
<event>
 9    2  0.3402837E-005  0.2522810E+03  0.7546771E-02  0.1112395E+00
         -3   -1    0    0    0  501 -0.00000000000E+00  0.00000000000E+00  0.17673633586E+03  0.17673633586E+03  0.00000000000E+00 0.  1.
          4   -1    0    0  502    0  0.00000000000E+00 -0.00000000000E+00 -0.41371625386E+03  0.41371625386E+03  0.00000000000E+00 0. -1.
         24    2    1    2    0    0 -0.66050990539E+02 -0.21845085073E+03 -0.51413138429E+02  0.24774037615E+03  0.81538185115E+02 0.  0.
         23    2    1    2    0    0  0.42813438228E+02  0.23687714212E+03 -0.17484685501E+03  0.31117764787E+03  0.91193940989E+02 0.  0.
        -13    1    3    3    0    0 -0.34684044037E+02 -0.20257890205E+03 -0.53966656397E+02  0.21249375160E+03  0.00000000000E+00 0.  1.
         14    1    3    3    0    0 -0.31366946502E+02 -0.15871948687E+02  0.25535179674E+01  0.35246624548E+02  0.00000000000E+00 0. -1.
        -11    1    4    4    0    0  0.27757549727E+02  0.18760517194E+03 -0.17727316847E+03  0.25959961164E+03  0.00000000000E+00 0. -1.
         11    1    4    4    0    0  0.15055888502E+02  0.49271970176E+02  0.24263134580E+01  0.51578036223E+02  0.00000000000E+00 0.  1.
         21    1    1    2  502  501  0.23237552311E+02 -0.18426291386E+02 -0.10719924557E+02  0.31534565704E+02  0.00000000000E+00 0.  1.
<scales pt_clust_5="13000.00000" pt_clust_6="13000.00000" pt_clust_7="13000.00000" pt_clust_8="13000.00000" pt_clust_9="29.65657"></scales>
<clustering>
<clus scale="   29.657">  1  9  2 -1</clus>
<clus scale="   81.538">  5  6 -1 -1</clus>
<clus scale="   91.194">  7  8 -1 -1</clus>
<clus scale="  248.954">  1  5  2 -1</clus>
<clus scale="  252.281">  2  5  1 -1</clus>
</clustering>
</event>
<event>
 9    2  0.3402837E-005  0.9010001E+02  0.7546771E-02  0.1307840E+00
          4   -1    0    0  502    0  0.00000000000E+00  0.00000000000E+00  0.33857958495E+03  0.33857958495E+03  0.00000000000E+00 0. -1.
         -3   -1    0    0    0  501 -0.00000000000E+00 -0.00000000000E+00 -0.63509376689E+02  0.63509376689E+02  0.00000000000E+00 0.  1.
         24    2    1    2    0    0 -0.60144484220E+01 -0.22682790700E+01  0.22500809896E+02  0.84307976544E+02  0.80995245436E+02 0.  0.
         23    2    1    2    0    0 -0.55845871020E+02 -0.45171198021E+02  0.15896642499E+03  0.19596670132E+03  0.89294038490E+02 0.  0.
        -11    1    3    3    0    0  0.50719485303E+00 -0.39208877154E+02 -0.23969301985E+01  0.39285348015E+02  0.00000000000E+00 0.  1.
         12    1    3    3    0    0 -0.65216432750E+01  0.36940598084E+02  0.24897740095E+02  0.45022628529E+02  0.00000000000E+00 0. -1.
        -13    1    4    4    0    0 -0.42030398682E+02 -0.70338394767E+02  0.92548833060E+02  0.12360958981E+03  0.00000000000E+00 0.  1.
         13    1    4    4    0    0 -0.13815472339E+02  0.25167196746E+02  0.66417591932E+02  0.72357111510E+02  0.00000000000E+00 0. -1.
         21    1    1    2  502  501  0.61860319442E+02  0.47439477091E+02  0.93602973373E+02  0.12181428378E+03  0.00000000000E+00 0. -1.
<scales pt_clust_5="13000.00000" pt_clust_6="13000.00000" pt_clust_7="13000.00000" pt_clust_8="13000.00000" pt_clust_9="77.95642"></scales>
<clustering>
<clus scale="   77.956">  1  9  2 -1</clus>
<clus scale="   80.995">  5  6 -1 -1</clus>
<clus scale="   81.883">  2  5  1 -1</clus>
<clus scale="   89.294">  7  8 -1 -1</clus>
<clus scale="   77.956">  1  5  2 -1</clus>
</clustering>
</event>
<event>
 9    2  0.3402837E-005  0.1285317E+03  0.7546771E-02  0.1237199E+00
         -1   -1    0    0    0  501 -0.00000000000E+00  0.00000000000E+00  0.24816987691E+03  0.24816987691E+03  0.00000000000E+00 0.  1.
          2   -1    0    0  502    0  0.00000000000E+00 -0.00000000000E+00 -0.14923697852E+03  0.14923697852E+03  0.00000000000E+00 0. -1.
         24    2    1    2    0    0  0.42344941821E+02  0.30794801144E+02  0.12848509787E+03  0.16080893254E+03  0.81299929486E+02 0.  0.
         23    2    1    2    0    0 -0.68443438783E+02 -0.40005061744E+02 -0.97178266638E+02  0.16352778260E+03  0.10494194060E+03 0.  0.
        -11    1    3    3    0    0  0.21347419865E+02  0.28581924651E+02  0.13426079846E+03  0.13891940381E+03  0.00000000000E+00 0.  1.
         12    1    3    3    0    0  0.20997521956E+02  0.22128764930E+01 -0.57757005912E+01  0.21889528729E+02  0.00000000000E+00 0. -1.
        -13    1    4    4    0    0  0.66695097501E+00 -0.50637214657E+02 -0.97410546715E+01  0.51569957126E+02  0.00000000000E+00 0.  1.
         13    1    4    4    0    0 -0.69110389758E+02  0.10632152913E+02 -0.87437211967E+02  0.11195782547E+03  0.00000000000E+00 0. -1.
         21    1    1    2  502  501  0.26098496963E+02  0.92102605992E+01  0.67626067157E+02  0.73070140298E+02  0.00000000000E+00 0. -1.
<scales pt_clust_5="13000.00000" pt_clust_6="13000.00000" pt_clust_7="13000.00000" pt_clust_8="13000.00000" pt_clust_9="27.67599"></scales>
<clustering>
<clus scale="   27.676">  1  9  2 -1</clus>
<clus scale="   81.300">  5  6 -1 -1</clus>
<clus scale="  104.942">  7  8 -1 -1</clus>
<clus scale="  110.078">  1  5  2 -1</clus>
<clus scale="  128.532">  2  5  1 -1</clus>
</clustering>
</event>
<event>
 9    2  0.3402837E-005  0.1004977E+03  0.7546771E-02  0.1285414E+00
          2   -1    0    0  502    0  0.00000000000E+00  0.00000000000E+00  0.15142917657E+03  0.15142917657E+03  0.00000000000E+00 0. -1.
         -1   -1    0    0    0  501 -0.00000000000E+00 -0.00000000000E+00 -0.23037212343E+03  0.23037212343E+03  0.00000000000E+00 0.  1.
         23    2    1    2    0    0  0.46092552941E+02 -0.15073038239E+02 -0.14411130356E+03  0.17791815667E+03  0.92385511528E+02 0.  0.
         24    2    1    2    0    0 -0.32702385215E+02 -0.23877977045E+02  0.11064773425E+03  0.14252475381E+03  0.80192147790E+02 0.  0.
        -13    1    4    4    0    0  0.20621991280E+02  0.51862349434E+01  0.69842290043E+01  0.22381756232E+02  0.00000000000E+00 0.  1.
         14    1    4    4    0    0 -0.53324376495E+02 -0.29064211988E+02  0.10366350524E+03  0.12014299757E+03  0.00000000000E+00 0. -1.
        -13    1    3    3    0    0  0.70327100457E+01 -0.23639942580E+02 -0.13456443687E+03  0.13680604360E+03  0.00000000000E+00 0.  1.
         13    1    3    3    0    0  0.39059842896E+02  0.85669043403E+01 -0.95468666850E+01  0.41112113063E+02  0.00000000000E+00 0. -1.
         21    1    1    2  502  501 -0.13390167726E+02  0.38951015284E+02 -0.45479377548E+02  0.61358389529E+02  0.00000000000E+00 0.  1.
<scales pt_clust_5="13000.00000" pt_clust_6="13000.00000" pt_clust_7="13000.00000" pt_clust_8="13000.00000" pt_clust_9="41.18833"></scales>
<clustering>
<clus scale="   41.188">  2  9  1 -1</clus>
<clus scale="   80.192">  5  6 -1 -1</clus>
<clus scale="   89.417">  1  5  2 -1</clus>
<clus scale="   92.386">  7  8 -1 -1</clus>
<clus scale="   89.417">  1  5  2 -1</clus>
</clustering>
</event>
<event>
 9    2  0.3402837E-005  0.1113683E+03  0.7546771E-02  0.1262329E+00
         -1   -1    0    0    0  501 -0.00000000000E+00  0.00000000000E+00  0.20807970487E+03  0.20807970487E+03  0.00000000000E+00 0.  1.
          2   -1    0    0  502    0  0.00000000000E+00 -0.00000000000E+00 -0.24294292690E+03  0.24294292690E+03  0.00000000000E+00 0. -1.
         24    2    1    2    0    0 -0.50276348387E+02 -0.51152952142E+02  0.12949985738E+03  0.16856681072E+03  0.80623947399E+02 0.  0.
         23    2    1    2    0    0  0.30454480961E+02  0.54630164688E+02 -0.20722830580E+03  0.23510157026E+03  0.91745557435E+02 0.  0.
        -11    1    3    3    0    0 -0.59694608092E+02 -0.45755283439E+02  0.13635858934E+03  0.15572622478E+03  0.00000000000E+00 0.  1.
         12    1    3    3    0    0  0.94182597045E+01 -0.53976687028E+01 -0.68587319545E+01  0.12840585941E+02  0.00000000000E+00 0. -1.
        -13    1    4    4    0    0  0.12631277854E+02  0.38157123529E+02 -0.20696345571E+03  0.21083023326E+03  0.00000000000E+00 0. -1.
         13    1    4    4    0    0  0.17823203107E+02  0.16473041160E+02 -0.26485008528E+00  0.24271336997E+02  0.00000000000E+00 0.  1.
         21    1    1    2  502  501  0.19821867426E+02 -0.34772125462E+01  0.42865226380E+02  0.47354250791E+02  0.00000000000E+00 0.  1.
<scales pt_clust_5="13000.00000" pt_clust_6="13000.00000" pt_clust_7="13000.00000" pt_clust_8="13000.00000" pt_clust_9="20.12455"></scales>
<clustering>
<clus scale="   20.125">  1  9  2 -1</clus>
<clus scale="   80.624">  5  6 -1 -1</clus>
<clus scale="   91.746">  7  8 -1 -1</clus>
<clus scale="  102.401">  1  5  2 -1</clus>
<clus scale="  111.368">  2  5  1 -1</clus>
</clustering>
</event>
<event>
 9    2  0.3402837E-005  0.1104550E+03  0.7546771E-02  0.1264798E+00
          2   -1    0    0  502    0  0.00000000000E+00  0.00000000000E+00  0.95130971706E+02  0.95130971706E+02  0.00000000000E+00 0. -1.
         -1   -1    0    0    0  501 -0.00000000000E+00 -0.00000000000E+00 -0.21241723512E+03  0.21241723512E+03  0.00000000000E+00 0.  1.
         23    2    1    2    0    0 -0.29730284826E+02  0.76015096052E+02 -0.68974749994E+02  0.14071100830E+03  0.91541723031E+02 0.  0.
         24    2    1    2    0    0  0.27736280151E+02 -0.46763119685E+02  0.15278040697E+02  0.96813734113E+02  0.78634534310E+02 0.  0.
        -13    1    4    4    0    0  0.18234822082E+02 -0.56750704834E+02 -0.16773595561E+02  0.61923378005E+02  0.00000000000E+00 0.  1.
         14    1    4    4    0    0  0.95014580683E+01  0.99875851498E+01  0.32051636257E+02  0.34890356108E+02  0.00000000000E+00 0. -1.
        -13    1    3    3    0    0  0.21172212349E+02  0.52645322446E+02 -0.62357863649E+02  0.84310709344E+02  0.00000000000E+00 0.  1.
         13    1    3    3    0    0 -0.50902497175E+02  0.23369773607E+02 -0.66168863454E+01  0.56400298953E+02  0.00000000000E+00 0. -1.
         21    1    1    2  502  501  0.19940046756E+01 -0.29251976368E+02 -0.63589554118E+02  0.70023464417E+02  0.00000000000E+00 0. -1.
<scales pt_clust_5="13000.00000" pt_clust_6="13000.00000" pt_clust_7="13000.00000" pt_clust_8="13000.00000" pt_clust_9="29.31986"></scales>
<clustering>
<clus scale="   29.320">  2  9  1 -1</clus>
<clus scale="   78.635">  5  6 -1 -1</clus>
<clus scale="   91.542">  7  8 -1 -1</clus>
<clus scale="  100.019">  1  5  2 -1</clus>
<clus scale="  100.019">  1  5  2 -1</clus>
</clustering>
</event>
<event>
 9    2  0.3402837E-005  0.1522315E+03  0.7546771E-02  0.1199403E+00
          2   -1    0    0  502    0  0.00000000000E+00  0.00000000000E+00  0.75505625684E+03  0.75505625684E+03  0.00000000000E+00 0. -1.
         -1   -1    0    0    0  501 -0.00000000000E+00 -0.00000000000E+00 -0.15529053342E+03  0.15529053342E+03  0.00000000000E+00 0.  1.
         24    2    1    2    0    0 -0.97920675441E+02  0.10478519837E+03 -0.78178085722E+02  0.18235810388E+03  0.81081862875E+02 0.  0.
         23    2    1    2    0    0  0.86093027172E+02 -0.85234526762E+02  0.68697989648E+03  0.70341689567E+03  0.90426860306E+02 0.  0.
        -13    1    3    3    0    0 -0.17665673080E+02  0.50099106937E+02 -0.65630139671E+02  0.84435251847E+02  0.00000000000E+00 0.  1.
         14    1    3    3    0    0 -0.80255002361E+02  0.54686091433E+02 -0.12547946051E+02  0.97922852033E+02  0.00000000000E+00 0. -1.
        -11    1    4    4    0    0 -0.96190103006E+01 -0.41589289899E+02  0.13807196293E+03  0.14452010704E+03  0.00000000000E+00 0.  1.
         11    1    4    4    0    0  0.95712037472E+02 -0.43645236863E+02  0.54890793356E+03  0.55889678863E+03  0.00000000000E+00 0. -1.
         21    1    1    2  502  501  0.11827648269E+02 -0.19550671608E+02 -0.90360873388E+01  0.24571790702E+02  0.00000000000E+00 0.  1.
<scales pt_clust_5="13000.00000" pt_clust_6="13000.00000" pt_clust_7="13000.00000" pt_clust_8="13000.00000" pt_clust_9="22.84999"></scales>
<clustering>
<clus scale="   22.850">  2  9  1 -1</clus>
<clus scale="   81.082">  5  6 -1 -1</clus>
<clus scale="   90.427">  7  8 -1 -1</clus>
<clus scale="  146.873">  2  5  1 -1</clus>
<clus scale="  152.232">  1  5  2 -1</clus>
</clustering>
</event>
<event>
 9    2  0.3402837E-005  0.1026367E+03  0.7546771E-02  0.1278786E+00
          2   -1    0    0  502    0  0.00000000000E+00  0.00000000000E+00  0.86115350885E+03  0.86115350885E+03  0.00000000000E+00 0. -1.
         -1   -1    0    0    0  501 -0.00000000000E+00 -0.00000000000E+00 -0.12085446323E+03  0.12085446323E+03  0.00000000000E+00 0.  1.
         23    2    1    2    0    0 -0.10551788659E+03  0.44630042133E+02  0.17562935930E+02  0.14848281757E+03  0.92805308813E+02 0.  0.
         24    2    1    2    0    0  0.26515240522E+02 -0.31460984187E+02  0.74459564022E+03  0.75050298127E+03  0.84493821979E+02 0.  0.
        -11    1    4    4    0    0  0.14265711416E+02  0.27478902366E+02  0.17326122458E+03  0.17600583098E+03  0.00000000000E+00 0.  1.
         12    1    4    4    0    0  0.12249529106E+02 -0.58939886554E+02  0.57133441565E+03  0.57449715029E+03  0.00000000000E+00 0. -1.
        -13    1    3    3    0    0 -0.43073552505E+02  0.53999935728E+02  0.41925315359E+02  0.80802574538E+02  0.00000000000E+00 0. -1.
         13    1    3    3    0    0 -0.62444334090E+02 -0.93698935944E+01 -0.24362379429E+02  0.67680243035E+02  0.00000000000E+00 0.  1.
         21    1    1    2  502  501  0.79002646073E+02 -0.13169057946E+02 -0.21859530532E+02  0.83022173236E+02  0.00000000000E+00 0.  1.
<scales pt_clust_5="13000.00000" pt_clust_6="13000.00000" pt_clust_7="13000.00000" pt_clust_8="13000.00000" pt_clust_9="80.09271"></scales>
<clustering>
<clus scale="   80.093">  2  9  1 -1</clus>
<clus scale="   84.494">  5  6 -1 -1</clus>
<clus scale="   92.805">  7  8 -1 -1</clus>
<clus scale="   95.188">  1  5  2 -1</clus>
<clus scale="   95.188">  1  5  2 -1</clus>
</clustering>
</event>
<event>
 9    2  0.3402837E-005  0.1392625E+03  0.7546771E-02  0.1217180E+00
          2   -1    0    0  502    0  0.00000000000E+00  0.00000000000E+00  0.37840295736E+03  0.37840295736E+03  0.00000000000E+00 0. -1.
         -1   -1    0    0    0  501 -0.00000000000E+00 -0.00000000000E+00 -0.11532698284E+03  0.11532698284E+03  0.00000000000E+00 0.  1.
         24    2    1    2    0    0 -0.38607881254E+02  0.72946339907E+02 -0.23010050784E+02  0.11746632343E+03  0.80356317129E+02 0.  0.
         23    2    1    2    0    0  0.35258643387E+02 -0.10262907050E+03  0.30776833392E+03  0.33935285415E+03  0.93075851939E+02 0.  0.
        -11    1    3    3    0    0 -0.26234158526E+02  0.23495101267E+02 -0.48924589414E+02  0.60281558593E+02  0.00000000000E+00 0.  1.
         12    1    3    3    0    0 -0.12373722729E+02  0.49451238640E+02  0.25914538629E+02  0.57184764838E+02  0.00000000000E+00 0. -1.
        -11    1    4    4    0    0  0.46436319442E+02 -0.94891480799E+01  0.79431490373E+02  0.92497228918E+02  0.00000000000E+00 0.  1.
         11    1    4    4    0    0 -0.11177676054E+02 -0.93139922421E+02  0.22833684355E+03  0.24685562524E+03  0.00000000000E+00 0. -1.
         21    1    1    2  502  501  0.33492378670E+01  0.29682730594E+02 -0.21682308616E+02  0.36910762614E+02  0.00000000000E+00 0.  1.
<scales pt_clust_5="13000.00000" pt_clust_6="13000.00000" pt_clust_7="13000.00000" pt_clust_8="13000.00000" pt_clust_9="29.87109"></scales>
<clustering>
<clus scale="   29.871">  2  9  1 -1</clus>
<clus scale="   80.356">  5  6 -1 -1</clus>
<clus scale="   93.076">  7  8 -1 -1</clus>
<clus scale="  131.103">  2  5  1 -1</clus>
<clus scale="  139.262">  1  5  2 -1</clus>
</clustering>
</event>
<event>
 9    2  0.3402837E-005  0.9233999E+02  0.7546771E-02  0.1304824E+00
         -1   -1    0    0    0  501 -0.00000000000E+00  0.00000000000E+00  0.96603800639E+02  0.96603800639E+02  0.00000000000E+00 0.  1.
          2   -1    0    0  502    0  0.00000000000E+00 -0.00000000000E+00 -0.20040675701E+03  0.20040675701E+03  0.00000000000E+00 0. -1.
         24    2    1    2    0    0 -0.73334987132E+01  0.15071271904E+01 -0.40510375959E+01  0.79460687446E+02  0.79003406939E+02 0.  0.
         23    2    1    2    0    0 -0.38528563731E+01 -0.19645421153E+02 -0.14217934815E+03  0.17007125385E+03  0.91150848989E+02 0.  0.
        -13    1    3    3    0    0 -0.13568831342E+02  0.38995756329E+02 -0.37120327183E+01  0.41455535005E+02  0.00000000000E+00 0.  1.
         14    1    3    3    0    0  0.62353326292E+01 -0.37488629139E+02 -0.33900487763E+00  0.38005152440E+02  0.00000000000E+00 0. -1.
        -13    1    4    4    0    0  0.11483809509E+02 -0.38950873292E+02 -0.19699664986E+02  0.45134523500E+02  0.00000000000E+00 0.  1.
         13    1    4    4    0    0 -0.15336665882E+02  0.19305452139E+02 -0.12247968316E+03  0.12493673035E+03  0.00000000000E+00 0. -1.
         21    1    1    2  502  501  0.11186355086E+02  0.18138293962E+02  0.42427429372E+02  0.47478616356E+02  0.00000000000E+00 0. -1.
<scales pt_clust_5="13000.00000" pt_clust_6="13000.00000" pt_clust_7="13000.00000" pt_clust_8="13000.00000" pt_clust_9="21.31038"></scales>
<clustering>
<clus scale="   21.310">  1  9  2 -1</clus>
<clus scale="   79.003">  5  6 -1 -1</clus>
<clus scale="   80.372">  1  5  2 -1</clus>
<clus scale="   91.151">  7  8 -1 -1</clus>
<clus scale="   92.340">  2  5  1 -1</clus>
</clustering>
</event>
<event>
 9    2  0.3402837E-005  0.9789880E+02  0.7546771E-02  0.1289907E+00
         -1   -1    0    0    0  501 -0.00000000000E+00  0.00000000000E+00  0.31482322800E+02  0.31482322800E+02  0.00000000000E+00 0.  1.
          2   -1    0    0  502    0  0.00000000000E+00 -0.00000000000E+00 -0.78283728770E+03  0.78283728770E+03  0.00000000000E+00 0. -1.
         23    2    1    2    0    0 -0.56504896658E+02 -0.20568565106E+02 -0.10262021128E+03  0.14989622273E+03  0.91225547995E+02 0.  0.
         24    2    1    2    0    0  0.25610136732E+02  0.20070116751E+02 -0.60223722893E+03  0.60859548755E+03  0.81486801770E+02 0.  0.
        -11    1    4    4    0    0  0.20773243235E+02  0.33438784377E+02 -0.12296887537E+03  0.12911632060E+03  0.00000000000E+00 0.  1.
         12    1    4    4    0    0  0.48368934964E+01 -0.13368667626E+02 -0.47926835356E+03  0.47947916695E+03  0.00000000000E+00 0. -1.
        -11    1    3    3    0    0 -0.64900085353E+02 -0.18905748308E+00 -0.25570658842E+02  0.69756113819E+02  0.00000000000E+00 0.  1.
         11    1    3    3    0    0  0.83951886948E+01 -0.20379507623E+02 -0.77049552443E+02  0.80140108908E+02  0.00000000000E+00 0. -1.
         21    1    1    2  502  501  0.30894759926E+02  0.49844835476E+00 -0.46497524684E+02  0.55827900224E+02  0.00000000000E+00 0. -1.
<scales pt_clust_5="13000.00000" pt_clust_6="13000.00000" pt_clust_7="13000.00000" pt_clust_8="13000.00000" pt_clust_9="30.89878"></scales>
<clustering>
<clus scale="   30.899">  1  9  2 -1</clus>
<clus scale="   81.487">  5  6 -1 -1</clus>
<clus scale="   88.894">  2  5  1 -1</clus>
<clus scale="   91.226">  7  8 -1 -1</clus>
<clus scale="   88.894">  2  5  1 -1</clus>
</clustering>
</event>
<event>
 9    2  0.3402837E-005  0.9970207E+02  0.7546771E-02  0.1286508E+00
          2   -1    0    0  502    0  0.00000000000E+00  0.00000000000E+00  0.19404786796E+03  0.19404786796E+03  0.00000000000E+00 0. -1.
         -1   -1    0    0    0  501 -0.00000000000E+00 -0.00000000000E+00 -0.11969857645E+03  0.11969857645E+03  0.00000000000E+00 0.  1.
         23    2    1    2    0    0  0.43387816307E+02 -0.64719531130E+01 -0.67518478079E+02  0.12274337546E+03  0.92643416153E+02 0.  0.
         24    2    1    2    0    0 -0.25609698616E+02  0.26672563823E+02  0.13680346541E+03  0.16362108001E+03  0.81788674954E+02 0.  0.
        -11    1    4    4    0    0  0.27716992827E+02  0.21861204911E+02  0.43233780788E+02  0.55814906367E+02  0.00000000000E+00 0.  1.
         12    1    4    4    0    0 -0.53326691442E+02  0.48113589113E+01  0.93569684624E+02  0.10780617364E+03  0.00000000000E+00 0. -1.
        -13    1    3    3    0    0  0.63440330988E+02 -0.14567675714E+02 -0.75506480981E+02  0.99690127103E+02  0.00000000000E+00 0.  1.
         13    1    3    3    0    0 -0.20052514682E+02  0.80957226009E+01  0.79880029022E+01  0.23053248358E+02  0.00000000000E+00 0. -1.
         21    1    1    2  502  501 -0.17778117691E+02 -0.20200610710E+02  0.50643041729E+01  0.27381988942E+02  0.00000000000E+00 0.  1.
<scales pt_clust_5="13000.00000" pt_clust_6="13000.00000" pt_clust_7="13000.00000" pt_clust_8="13000.00000" pt_clust_9="26.90959"></scales>
<clustering>
<clus scale="   26.910">  2  9  1 -1</clus>
<clus scale="   81.789">  5  6 -1 -1</clus>
<clus scale="   89.706">  1  5  2 -1</clus>
<clus scale="   92.643">  7  8 -1 -1</clus>
<clus scale="   89.706">  1  5  2 -1</clus>
</clustering>
</event>
<event>
 9    2  0.3402837E-005  0.9332140E+02  0.7546771E-02  0.1300791E+00
         -1   -1    0    0    0  501 -0.00000000000E+00  0.00000000000E+00  0.86121508454E+02  0.86121508454E+02  0.00000000000E+00 0.  1.
          2   -1    0    0  502    0  0.00000000000E+00 -0.00000000000E+00 -0.42555739385E+03  0.42555739385E+03  0.00000000000E+00 0. -1.
         24    2    1    2    0    0 -0.27574759676E+01 -0.10164839669E+01  0.16411994585E+02  0.82740888856E+02  0.81043594498E+02 0.  0.
         23    2    1    2    0    0  0.23008551613E+02  0.53142865186E+01 -0.38326430910E+03  0.39458342486E+03  0.90812518148E+02 0.  0.
        -11    1    3    3    0    0 -0.23287078795E+02 -0.10121582166E+01 -0.26426390763E+02  0.35237290359E+02  0.00000000000E+00 0.  1.
         12    1    3    3    0    0  0.20529602828E+02 -0.43257503423E-02  0.42838385348E+02  0.47503598497E+02  0.00000000000E+00 0. -1.
        -13    1    4    4    0    0  0.27445990550E+02 -0.36952516614E+02 -0.26377743851E+03  0.26776352990E+03  0.00000000000E+00 0. -1.
         13    1    4    4    0    0 -0.44374389372E+01  0.42266803133E+02 -0.11948687059E+03  0.12681989495E+03  0.00000000000E+00 0.  1.
         21    1    1    2  502  501 -0.20251075645E+02 -0.42978025516E+01  0.27416429121E+02  0.34354588591E+02  0.00000000000E+00 0.  1.
<scales pt_clust_5="13000.00000" pt_clust_6="13000.00000" pt_clust_7="13000.00000" pt_clust_8="13000.00000" pt_clust_9="20.70211"></scales>
<clustering>
<clus scale="   20.702">  1  9  2 -1</clus>
<clus scale="   81.044">  5  6 -1 -1</clus>
<clus scale="   83.845">  1  5  2 -1</clus>
<clus scale="   90.813">  7  8 -1 -1</clus>
<clus scale="   93.321">  2  5  1 -1</clus>
</clustering>
</event>
<event>
 9    2  0.3402837E-005  0.2246345E+03  0.7546771E-02  0.1131783E+00
         -1   -1    0    0    0  501 -0.00000000000E+00  0.00000000000E+00  0.15809258735E+03  0.15809258735E+03  0.00000000000E+00 0.  1.
          2   -1    0    0  502    0  0.00000000000E+00 -0.00000000000E+00 -0.39398721702E+03  0.39398721702E+03  0.00000000000E+00 0. -1.
         24    2    1    2    0    0 -0.13129360845E+03 -0.14874352958E+03 -0.85940527586E+02  0.23039877361E+03  0.79593789885E+02 0.  0.
         23    2    1    2    0    0  0.16640517353E+03  0.12446177962E+03 -0.15752247001E+03  0.27832545931E+03  0.97315550557E+02 0.  0.
        -13    1    3    3    0    0 -0.13763999547E+03 -0.12654513557E+03 -0.89063374052E+02  0.20710075878E+03  0.00000000000E+00 0.  1.
         14    1    3    3    0    0  0.63463870261E+01 -0.22198394010E+02  0.31228464662E+01  0.23298014828E+02  0.00000000000E+00 0. -1.
        -11    1    4    4    0    0  0.43008025248E+02  0.49540337434E+01  0.27594319794E+01  0.43380262227E+02  0.00000000000E+00 0. -1.
         11    1    4    4    0    0  0.12339714828E+03  0.11950774588E+03 -0.16028190199E+03  0.23494519708E+03  0.00000000000E+00 0.  1.
         21    1    1    2  502  501 -0.35111565082E+02  0.24281749956E+02  0.75683679163E+01  0.43355571457E+02  0.00000000000E+00 0. -1.
<scales pt_clust_5="13000.00000" pt_clust_6="13000.00000" pt_clust_7="13000.00000" pt_clust_8="13000.00000" pt_clust_9="42.68987"></scales>
<clustering>
<clus scale="   42.690">  1  9  2 -1</clus>
<clus scale="   79.594">  5  6 -1 -1</clus>
<clus scale="   97.316">  7  8 -1 -1</clus>
<clus scale="  217.544">  1  5  2 -1</clus>
<clus scale="  224.634">  2  5  1 -1</clus>
</clustering>
</event>
<event>
 9    2  0.3402837E-005  0.1057100E+03  0.7546771E-02  0.1274520E+00
         -3   -1    0    0    0  501 -0.00000000000E+00  0.00000000000E+00  0.36904220719E+03  0.36904220719E+03  0.00000000000E+00 0.  1.
          4   -1    0    0  502    0  0.00000000000E+00 -0.00000000000E+00 -0.58758532042E+02  0.58758532042E+02  0.00000000000E+00 0. -1.
         24    2    1    2    0    0  0.15734700968E+02 -0.66141975784E+02  0.21744569554E+03  0.24892349692E+03  0.10028925683E+03 0.  0.
         23    2    1    2    0    0 -0.11733849607E+02  0.22331455306E+02  0.20506447810E+02  0.94217812783E+02  0.88431355984E+02 0.  0.
        -13    1    3    3    0    0  0.86538808549E+01 -0.35464720920E+02  0.21418226272E+03  0.21727097770E+03  0.00000000000E+00 0.  1.
         14    1    3    3    0    0  0.70808201129E+01 -0.30677254864E+02  0.32634328169E+01  0.31652519224E+02  0.00000000000E+00 0. -1.
        -11    1    4    4    0    0 -0.31173671535E+02  0.39905175758E+02 -0.12416875668E+02  0.52138274335E+02  0.00000000000E+00 0.  1.
         11    1    4    4    0    0  0.19439821929E+02 -0.17573720452E+02  0.32923323478E+02  0.42079538448E+02  0.00000000000E+00 0. -1.
         21    1    1    2  502  501 -0.40008513612E+01  0.43810520477E+02  0.72331531798E+02  0.84659429530E+02  0.00000000000E+00 0. -1.
<scales pt_clust_5="13000.00000" pt_clust_6="13000.00000" pt_clust_7="13000.00000" pt_clust_8="13000.00000" pt_clust_9="43.99282"></scales>
<clustering>
<clus scale="   43.993">  1  9  2 -1</clus>
<clus scale="   88.431">  7  8 -1 -1</clus>
<clus scale="   94.534">  2  7  1 -1</clus>
<clus scale="  100.289">  5  6 -1 -1</clus>
<clus scale="   94.534">  2  5  1 -1</clus>
</clustering>
</event>
<event>
 9    2  0.3402837E-005  0.1402737E+03  0.7546771E-02  0.1230967E+00
          2   -1    0    0  502    0  0.00000000000E+00  0.00000000000E+00  0.14197463343E+03  0.14197463343E+03  0.00000000000E+00 0. -1.
         -1   -1    0    0    0  501 -0.00000000000E+00 -0.00000000000E+00 -0.29356892626E+03  0.29356892626E+03  0.00000000000E+00 0.  1.
         23    2    1    2    0    0 -0.43374030879E+02 -0.82717472815E+02 -0.13353133630E+03  0.18671928607E+03  0.91159130936E+02 0.  0.
         24    2    1    2    0    0 -0.51649996776E+02 -0.80274885965E+01  0.41206392867E+02  0.10468174126E+03  0.80796889797E+02 0.  0.
        -11    1    4    4    0    0 -0.32551859828E+02 -0.43376866630E+02  0.13534467995E+02  0.55895956569E+02  0.00000000000E+00 0.  1.
         12    1    4    4    0    0 -0.19098136948E+02  0.35349378033E+02  0.27671924872E+02  0.48785784695E+02  0.00000000000E+00 0. -1.
        -11    1    3    3    0    0 -0.37988218652E+02 -0.30169225595E+01 -0.96412854524E+01  0.39308535501E+02  0.00000000000E+00 0.  1.
         11    1    3    3    0    0 -0.53858122275E+01 -0.79700550255E+02 -0.12389005085E+03  0.14741075057E+03  0.00000000000E+00 0. -1.
         21    1    1    2  502  501  0.95024027655E+02  0.90744961411E+02 -0.59269349397E+02  0.14414253235E+03  0.00000000000E+00 0. -1.
<scales pt_clust_5="13000.00000" pt_clust_6="13000.00000" pt_clust_7="13000.00000" pt_clust_8="13000.00000" pt_clust_9="106.61487"></scales>
<clustering>
<clus scale="   80.797">  5  6 -1 -1</clus>
<clus scale="   91.159">  7  8 -1 -1</clus>
<clus scale="   96.230">  1  5  2 -1</clus>
<clus scale="  106.615">  1  9  2 -1</clus>
<clus scale="   96.230">  1  5  2 -1</clus>
</clustering>
</event>
<event>
 9    2  0.3402837E-005  0.1041402E+03  0.7546771E-02  0.1276598E+00
          2   -1    0    0  502    0  0.00000000000E+00  0.00000000000E+00  0.23442765919E+04  0.23442765919E+04  0.00000000000E+00 0. -1.
         -1   -1    0    0    0  501 -0.00000000000E+00 -0.00000000000E+00 -0.97900211911E+01  0.97900211911E+01  0.00000000000E+00 0.  1.
         23    2    1    2    0    0 -0.12048830659E+02  0.13944261177E+02  0.36869652580E+03  0.38022253547E+03  0.91062789330E+02 0.  0.
         24    2    1    2    0    0 -0.44141323322E+02 -0.48497772032E+02  0.14738815769E+04  0.14775324624E+04  0.80466044862E+02 0.  0.
        -13    1    4    4    0    0  0.18953316426E+01 -0.30375402223E+02  0.16934850277E+03  0.17206153764E+03  0.00000000000E+00 0.  1.
         14    1    4    4    0    0 -0.46036654965E+02 -0.18122369809E+02  0.13045330741E+04  0.13054709247E+04  0.00000000000E+00 0. -1.
        -11    1    3    3    0    0  0.23777998746E+02  0.37021573261E+02  0.11813941370E+03  0.12606709000E+03  0.00000000000E+00 0.  1.
         11    1    3    3    0    0 -0.35826829405E+02 -0.23077312084E+02  0.25055711210E+03  0.25415544547E+03  0.00000000000E+00 0. -1.
         21    1    1    2  502  501  0.56190153981E+02  0.34553510854E+02  0.49190846808E+03  0.49631161531E+03  0.00000000000E+00 0. -1.
<scales pt_clust_5="13000.00000" pt_clust_6="13000.00000" pt_clust_7="13000.00000" pt_clust_8="13000.00000" pt_clust_9="65.96422"></scales>
<clustering>
<clus scale="   65.964">  2  9  1 -1</clus>
<clus scale="   80.466">  5  6 -1 -1</clus>
<clus scale="   91.063">  7  8 -1 -1</clus>
<clus scale="   95.013">  1  5  2 -1</clus>
<clus scale="   95.013">  1  5  2 -1</clus>
</clustering>
</event>
<event>
 9    2  0.3402837E-005  0.1055807E+03  0.7546771E-02  0.1273103E+00
         -1   -1    0    0    0  501 -0.00000000000E+00  0.00000000000E+00  0.24071920281E+03  0.24071920281E+03  0.00000000000E+00 0.  1.
          2   -1    0    0  502    0  0.00000000000E+00 -0.00000000000E+00 -0.11265857357E+03  0.11265857357E+03  0.00000000000E+00 0. -1.
         23    2    1    2    0    0  0.11260975979E+02 -0.42694696516E+02  0.18029319776E+03  0.20823988947E+03  0.94385209211E+02 0.  0.
         24    2    1    2    0    0  0.10562533001E+02  0.47160623907E+02 -0.66730506238E+02  0.11855969566E+03  0.85251096312E+02 0.  0.
        -13    1    4    4    0    0 -0.32282994725E+02  0.11587686492E+02 -0.37719663173E+01  0.34506433553E+02  0.00000000000E+00 0.  1.
         14    1    4    4    0    0  0.42845527726E+02  0.35572937416E+02 -0.62958539920E+02  0.84053262111E+02  0.00000000000E+00 0. -1.
        -11    1    3    3    0    0 -0.20495118940E+02 -0.31925023116E+02  0.16846259415E+03  0.17268150634E+03  0.00000000000E+00 0.  1.
         11    1    3    3    0    0  0.31756094919E+02 -0.10769673400E+02  0.11830603610E+02  0.35558383139E+02  0.00000000000E+00 0. -1.
         21    1    1    2  502  501 -0.21823508981E+02 -0.44659273910E+01  0.14497937715E+02  0.26578191242E+02  0.00000000000E+00 0.  1.
<scales pt_clust_5="13000.00000" pt_clust_6="13000.00000" pt_clust_7="13000.00000" pt_clust_8="13000.00000" pt_clust_9="22.27577"></scales>
<clustering>
<clus scale="   22.276">  1  9  2 -1</clus>
<clus scale="   85.251">  5  6 -1 -1</clus>
<clus scale="   94.385">  7  8 -1 -1</clus>
<clus scale="   97.501">  2  5  1 -1</clus>
<clus scale="   97.501">  2  5  1 -1</clus>
</clustering>
</event>
<event>
 9    2  0.3402837E-005  0.1252206E+03  0.7546771E-02  0.1237539E+00
          2   -1    0    0  502    0  0.00000000000E+00  0.00000000000E+00  0.69436362575E+03  0.69436362575E+03  0.00000000000E+00 0. -1.
         -1   -1    0    0    0  501 -0.00000000000E+00 -0.00000000000E+00 -0.46946459154E+02  0.46946459154E+02  0.00000000000E+00 0.  1.
         23    2    1    2    0    0 -0.62351368073E+02 -0.20231447293E+02  0.20971047521E+03  0.23780701968E+03  0.90976319092E+02 0.  0.
         24    2    1    2    0    0  0.84269870281E+02  0.54764839330E+02  0.44375175420E+03  0.46215673904E+03  0.81071779454E+02 0.  0.
        -13    1    4    4    0    0  0.20406497394E+02  0.78743231870E+01  0.15926361325E+02  0.27056960040E+02  0.00000000000E+00 0.  1.
         14    1    4    4    0    0  0.63863372887E+02  0.46890516143E+02  0.42782539287E+03  0.43509977900E+03  0.00000000000E+00 0. -1.
        -13    1    3    3    0    0 -0.85577408496E+02 -0.23293933346E+02  0.16432749938E+03  0.18673410837E+03  0.00000000000E+00 0.  1.
         13    1    3    3    0    0  0.23226040423E+02  0.30624860533E+01  0.45382975823E+02  0.51072911304E+02  0.00000000000E+00 0. -1.
         21    1    1    2  502  501 -0.21918502207E+02 -0.34533392037E+02 -0.60450628109E+01  0.41346326185E+02  0.00000000000E+00 0.  1.
<scales pt_clust_5="13000.00000" pt_clust_6="13000.00000" pt_clust_7="13000.00000" pt_clust_8="13000.00000" pt_clust_9="40.90203"></scales>
<clustering>
<clus scale="   40.902">  2  9  1 -1</clus>
<clus scale="   81.072">  5  6 -1 -1</clus>
<clus scale="   90.976">  7  8 -1 -1</clus>
<clus scale="  118.221">  1  5  2 -1</clus>
<clus scale="  118.221">  1  5  2 -1</clus>
</clustering>
</event>
<event>
 9    2  0.3402837E-005  0.9959229E+02  0.7546771E-02  0.1289617E+00
         -1   -1    0    0    0  501 -0.00000000000E+00  0.00000000000E+00  0.57243986793E+03  0.57243986793E+03  0.00000000000E+00 0.  1.
          2   -1    0    0  502    0  0.00000000000E+00 -0.00000000000E+00 -0.69108935082E+02  0.69108935082E+02  0.00000000000E+00 0. -1.
         23    2    1    2    0    0  0.47099688138E+01  0.78454096190E+02  0.30477725386E+03  0.32789166544E+03  0.91905063929E+02 0.  0.
         24    2    1    2    0    0 -0.14991512291E+02 -0.31429037904E+02 -0.23374237241E+02  0.86568903086E+02  0.75731698454E+02 0.  0.
        -11    1    4    4    0    0 -0.21570321219E+02 -0.34706028332E+02  0.17924351527E+02  0.44621402239E+02  0.00000000000E+00 0.  1.
         12    1    4    4    0    0  0.65788089283E+01  0.32769904283E+01 -0.41298588768E+02  0.41947500848E+02  0.00000000000E+00 0. -1.
        -13    1    3    3    0    0 -0.40364449540E+02  0.51561171060E+02  0.20420341052E+03  0.21444550827E+03  0.00000000000E+00 0. -1.
         13    1    3    3    0    0  0.45074418354E+02  0.26892925129E+02  0.10057384334E+03  0.11344615717E+03  0.00000000000E+00 0.  1.
         21    1    1    2  502  501  0.10281543477E+02 -0.47025058286E+02  0.22192791623E+03  0.22708823449E+03  0.00000000000E+00 0.  1.
<scales pt_clust_5="13000.00000" pt_clust_6="13000.00000" pt_clust_7="13000.00000" pt_clust_8="13000.00000" pt_clust_9="48.13591"></scales>
<clustering>
<clus scale="   48.136">  1  9  2 -1</clus>
<clus scale="   75.732">  5  6 -1 -1</clus>
<clus scale="   84.896">  2  5  1 -1</clus>
<clus scale="   91.905">  7  8 -1 -1</clus>
<clus scale="   84.896">  2  5  1 -1</clus>
</clustering>
</event>
<event>
 9    2  0.3402837E-005  0.1033384E+03  0.7546771E-02  0.1277900E+00
         -1   -1    0    0    0  501 -0.00000000000E+00  0.00000000000E+00  0.14598282379E+03  0.14598282379E+03  0.00000000000E+00 0.  1.
          2   -1    0    0  502    0  0.00000000000E+00 -0.00000000000E+00 -0.67766143946E+03  0.67766143946E+03  0.00000000000E+00 0. -1.
         23    2    1    2    0    0 -0.15663177360E+01  0.33575134543E+02  0.70592560340E+02  0.11976330209E+03  0.90720427360E+02 0.  0.
         24    2    1    2    0    0  0.50225577904E+02 -0.91411018697E+01 -0.63378707236E+03  0.64096834498E+03  0.80920935209E+02 0.  0.
        -11    1    4    4    0    0  0.65181340061E+02 -0.65928752573E+01 -0.31102955921E+03  0.31785446324E+03  0.00000000000E+00 0.  1.
         12    1    4    4    0    0 -0.14955762157E+02 -0.25482266125E+01 -0.32275751314E+03  0.32311388174E+03  0.00000000000E+00 0. -1.
        -13    1    3    3    0    0 -0.39394091018E+02  0.40867801802E+02  0.52025208484E+02  0.76998012631E+02  0.00000000000E+00 0.  1.
         13    1    3    3    0    0  0.37827773282E+02 -0.72926672585E+01  0.18567351857E+02  0.42765289456E+02  0.00000000000E+00 0. -1.
         21    1    1    2  502  501 -0.48659260167E+02 -0.24434032674E+02  0.31515896352E+02  0.62912616188E+02  0.00000000000E+00 0.  1.
<scales pt_clust_5="13000.00000" pt_clust_6="13000.00000" pt_clust_7="13000.00000" pt_clust_8="13000.00000" pt_clust_9="54.44948"></scales>
<clustering>
<clus scale="   54.449">  1  9  2 -1</clus>
<clus scale="   80.921">  5  6 -1 -1</clus>
<clus scale="   90.720">  7  8 -1 -1</clus>
<clus scale="   94.852">  2  5  1 -1</clus>
<clus scale="   94.852">  2  5  1 -1</clus>
</clustering>
</event>
<event>
 9    2  0.3402837E-005  0.1016731E+03  0.7546771E-02  0.1282759E+00
         -1   -1    0    0    0  501 -0.00000000000E+00  0.00000000000E+00  0.43051079138E+02  0.43051079138E+02  0.00000000000E+00 0.  1.
          2   -1    0    0  502    0  0.00000000000E+00 -0.00000000000E+00 -0.65295587510E+03  0.65295587510E+03  0.00000000000E+00 0. -1.
         24    2    1    2    0    0  0.40349137336E+02 -0.49449944811E+02 -0.17020965570E+03  0.19849287883E+03  0.79716661530E+02 0.  0.
         23    2    1    2    0    0 -0.20848691854E+02  0.29209875373E+02 -0.45495583848E+03  0.46553256989E+03  0.91912316278E+02 0.  0.
        -13    1    3    3    0    0  0.30591206749E+02  0.14840468807E+02 -0.36944673510E+02  0.50209265535E+02  0.00000000000E+00 0.  1.
         14    1    3    3    0    0  0.97579305865E+01 -0.64290413619E+02 -0.13326498219E+03  0.14828361329E+03  0.00000000000E+00 0. -1.
        -11    1    4    4    0    0  0.31759696670E+02  0.29320214423E+02 -0.15130176501E+03  0.15735494082E+03  0.00000000000E+00 0.  1.
         11    1    4    4    0    0 -0.52608388525E+02 -0.11033904996E+00 -0.30365407347E+03  0.30817762906E+03  0.00000000000E+00 0. -1.
         21    1    1    2  502  501 -0.19500445482E+02  0.20240069439E+02  0.15260698228E+02  0.31981505519E+02  0.00000000000E+00 0.  1.
<scales pt_clust_5="13000.00000" pt_clust_6="13000.00000" pt_clust_7="13000.00000" pt_clust_8="13000.00000" pt_clust_9="28.10565"></scales>
<clustering>
<clus scale="   28.106">  1  9  2 -1</clus>
<clus scale="   79.717">  5  6 -1 -1</clus>
<clus scale="   90.798">  1  5  2 -1</clus>
<clus scale="   91.912">  7  8 -1 -1</clus>
<clus scale="  101.673">  2  5  1 -1</clus>
</clustering>
</event>
<event>
 9    2  0.3402837E-005  0.9278024E+02  0.7546771E-02  0.1300490E+00
          2   -1    0    0  502    0  0.00000000000E+00  0.00000000000E+00  0.11969002914E+03  0.11969002914E+03  0.00000000000E+00 0. -1.
         -1   -1    0    0    0  501 -0.00000000000E+00 -0.00000000000E+00 -0.33792677634E+03  0.33792677634E+03  0.00000000000E+00 0.  1.
         23    2    1    2    0    0 -0.18435856862E+02  0.14974634552E+02  0.52970320874E+01  0.91302986619E+02  0.88000319990E+02 0.  0.
         24    2    1    2    0    0 -0.91145302928E+01 -0.38967939938E+02  0.41269577566E+02  0.99002164923E+02  0.80601957926E+02 0.  0.
        -11    1    4    4    0    0  0.11083501812E+02 -0.40806921061E+02 -0.10356498506E+02  0.43535110890E+02  0.00000000000E+00 0.  1.
         12    1    4    4    0    0 -0.20198032105E+02  0.18389811234E+01  0.51626076072E+02  0.55467054032E+02  0.00000000000E+00 0. -1.
        -13    1    3    3    0    0 -0.15936549619E+02 -0.32395532491E+02  0.20465988286E+02  0.41500612232E+02  0.00000000000E+00 0. -1.
         13    1    3    3    0    0 -0.24993072430E+01  0.47370167043E+02 -0.15168956199E+02  0.49802374387E+02  0.00000000000E+00 0.  1.
         21    1    1    2  502  501  0.27550387155E+02  0.23993305385E+02 -0.26480335685E+03  0.26731165394E+03  0.00000000000E+00 0.  1.
<scales pt_clust_5="13000.00000" pt_clust_6="13000.00000" pt_clust_7="13000.00000" pt_clust_8="13000.00000" pt_clust_9="36.53358"></scales>
<clustering>
<clus scale="   36.534">  2  9  1 -1</clus>
<clus scale="   80.602">  5  6 -1 -1</clus>
<clus scale="   85.795">  1  5  2 -1</clus>
<clus scale="   88.000">  7  8 -1 -1</clus>
<clus scale="   85.795">  1  5  2 -1</clus>
</clustering>
</event>
<event>
 9    2  0.3402837E-005  0.9362341E+02  0.7546771E-02  0.1302612E+00
          2   -1    0    0  502    0  0.00000000000E+00  0.00000000000E+00  0.13271060217E+04  0.13271060217E+04  0.00000000000E+00 0. -1.
         -1   -1    0    0    0  501 -0.00000000000E+00 -0.00000000000E+00 -0.18253383001E+02  0.18253383001E+02  0.00000000000E+00 0.  1.
         23    2    1    2    0    0  0.71418818817E+01  0.35474802896E+02  0.18897551531E+03  0.21322932306E+03  0.91899568612E+02 0.  0.
         24    2    1    2    0    0 -0.12465807342E+02  0.20623727577E+02  0.94167222884E+03  0.94522803846E+03  0.78286164953E+02 0.  0.
        -11    1    4    4    0    0  0.23362660265E+02  0.54656898190E+01  0.10732266410E+03  0.10997200502E+03  0.00000000000E+00 0.  1.
         12    1    4    4    0    0 -0.35828467607E+02  0.15158037758E+02  0.83434956474E+03  0.83525603343E+03  0.00000000000E+00 0. -1.
        -13    1    3    3    0    0 -0.22928746136E+02 -0.23264662168E+02  0.67458481614E+02  0.74950774825E+02  0.00000000000E+00 0.  1.
         13    1    3    3    0    0  0.30070628018E+02  0.58739465064E+02  0.12151703369E+03  0.13827854824E+03  0.00000000000E+00 0. -1.
         21    1    1    2  502  501  0.53239254608E+01 -0.56098530473E+02  0.17820489458E+03  0.18690204321E+03  0.00000000000E+00 0.  1.
<scales pt_clust_5="13000.00000" pt_clust_6="13000.00000" pt_clust_7="13000.00000" pt_clust_8="13000.00000" pt_clust_9="56.35059"></scales>
<clustering>
<clus scale="   56.351">  2  9  1 -1</clus>
<clus scale="   78.286">  5  6 -1 -1</clus>
<clus scale="   80.303">  1  5  2 -1</clus>
<clus scale="   91.900">  7  8 -1 -1</clus>
<clus scale="   80.303">  1  5  2 -1</clus>
</clustering>
</event>
<event>
 9    2  0.3402837E-005  0.2545835E+03  0.7546771E-02  0.1110825E+00
         -1   -1    0    0    0  501 -0.00000000000E+00  0.00000000000E+00  0.10696112032E+03  0.10696112032E+03  0.00000000000E+00 0.  1.
          2   -1    0    0  502    0  0.00000000000E+00 -0.00000000000E+00 -0.11686849132E+04  0.11686849132E+04  0.00000000000E+00 0. -1.
         24    2    1    2    0    0 -0.14578633593E+03  0.16162675738E+03 -0.85938923710E+02  0.24759547304E+03  0.80877408557E+02 0.  0.
         23    2    1    2    0    0  0.17674566207E+03 -0.16735826282E+03 -0.95695550812E+03  0.99136439322E+03  0.88270597841E+02 0.  0.
        -13    1    3    3    0    0 -0.15449815081E+03  0.15904370391E+03 -0.87508321341E+02  0.23837425335E+03  0.00000000000E+00 0.  1.
         14    1    3    3    0    0  0.87118148732E+01  0.25830534676E+01  0.15693976313E+01  0.92212196876E+01  0.00000000000E+00 0. -1.
        -11    1    4    4    0    0  0.11381863565E+03 -0.14199964341E+03 -0.79885916069E+03  0.81932566124E+03  0.00000000000E+00 0. -1.
         11    1    4    4    0    0  0.62927026425E+02 -0.25358619409E+02 -0.15809634743E+03  0.17203873199E+03  0.00000000000E+00 0.  1.
         21    1    1    2  502  501 -0.30959326139E+02  0.57315054371E+01 -0.18829361050E+02  0.36686167245E+02  0.00000000000E+00 0. -1.
<scales pt_clust_5="13000.00000" pt_clust_6="13000.00000" pt_clust_7="13000.00000" pt_clust_8="13000.00000" pt_clust_9="31.48539"></scales>
<clustering>
<clus scale="   31.485">  1  9  2 -1</clus>
<clus scale="   80.877">  5  6 -1 -1</clus>
<clus scale="   88.271">  7  8 -1 -1</clus>
<clus scale="  252.115">  1  5  2 -1</clus>
<clus scale="  254.583">  2  5  1 -1</clus>
</clustering>
</event>
<event>
 9    2  0.3402837E-005  0.2192259E+03  0.7546771E-02  0.1135373E+00
          2   -1    0    0  502    0  0.00000000000E+00  0.00000000000E+00  0.46762537998E+03  0.46762537998E+03  0.00000000000E+00 0. -1.
         -1   -1    0    0    0  501 -0.00000000000E+00 -0.00000000000E+00 -0.24000414574E+03  0.24000414574E+03  0.00000000000E+00 0.  1.
         24    2    1    2    0    0  0.13053153965E+03 -0.15788275506E+03 -0.90881957122E+02  0.23802899331E+03  0.80204889716E+02 0.  0.
         23    2    1    2    0    0 -0.11058324227E+03  0.16410715965E+03  0.36119555158E+03  0.42206827597E+03  0.92301623901E+02 0.  0.
        -13    1    3    3    0    0  0.10388770907E+03 -0.15036298229E+03 -0.10068448793E+03  0.20866012712E+03  0.00000000000E+00 0.  1.
         14    1    3    3    0    0  0.26643830586E+02 -0.75197727701E+01  0.98025308130E+01  0.29368866188E+02  0.00000000000E+00 0. -1.
        -13    1    4    4    0    0 -0.20808505354E+02  0.11294863326E+03  0.19864118939E+03  0.22945306660E+03  0.00000000000E+00 0. -1.
         13    1    4    4    0    0 -0.89774736918E+02  0.51158526390E+02  0.16255436219E+03  0.19261520936E+03  0.00000000000E+00 0.  1.
         21    1    1    2  502  501 -0.19948297380E+02 -0.62244045924E+01 -0.42692360226E+02  0.47532256443E+02  0.00000000000E+00 0.  1.
<scales pt_clust_5="13000.00000" pt_clust_6="13000.00000" pt_clust_7="13000.00000" pt_clust_8="13000.00000" pt_clust_9="20.89684"></scales>
<clustering>
<clus scale="   20.897">  2  9  1 -1</clus>
<clus scale="   80.205">  5  6 -1 -1</clus>
<clus scale="   92.302">  7  8 -1 -1</clus>
<clus scale="  214.414">  2  5  1 -1</clus>
<clus scale="  219.226">  1  5  2 -1</clus>
</clustering>
</event>
<event>
 9    2  0.3402837E-005  0.1024556E+03  0.7546771E-02  0.1277017E+00
          2   -1    0    0  502    0  0.00000000000E+00  0.00000000000E+00  0.27774463420E+03  0.27774463420E+03  0.00000000000E+00 0. -1.
         -1   -1    0    0    0  501 -0.00000000000E+00 -0.00000000000E+00 -0.11651049982E+03  0.11651049982E+03  0.00000000000E+00 0.  1.
         23    2    1    2    0    0  0.44575148426E+02  0.31753022920E+02  0.44474993742E+02  0.11416102492E+03  0.89774808390E+02 0.  0.
         24    2    1    2    0    0 -0.11876594838E+02 -0.37715006719E+02  0.18111225347E+03  0.20766439291E+03  0.93591540699E+02 0.  0.
        -13    1    4    4    0    0 -0.14687853970E+02  0.26584222862E+02  0.26943236460E+02  0.40600393476E+02  0.00000000000E+00 0.  1.
         14    1    4    4    0    0  0.28112591324E+01 -0.64299229580E+02  0.15416901701E+03  0.16706399943E+03  0.00000000000E+00 0. -1.
        -13    1    3    3    0    0  0.20369036872E+02  0.35972362049E+02 -0.19442935177E+02  0.45682997086E+02  0.00000000000E+00 0.  1.
         13    1    3    3    0    0  0.24206111554E+02 -0.42193391287E+01  0.63917928919E+02  0.68478027838E+02  0.00000000000E+00 0. -1.
         21    1    1    2  502  501 -0.32698553588E+02  0.59619837985E+01 -0.64353112824E+02  0.72429716192E+02  0.00000000000E+00 0.  1.
<scales pt_clust_5="13000.00000" pt_clust_6="13000.00000" pt_clust_7="13000.00000" pt_clust_8="13000.00000" pt_clust_9="33.23764"></scales>
<clustering>
<clus scale="   33.238">  2  9  1 -1</clus>
<clus scale="   89.775">  7  8 -1 -1</clus>
<clus scale="   93.592">  5  6 -1 -1</clus>
<clus scale="   98.981">  2  7  1 -1</clus>
<clus scale="  102.456">  1  5  2 -1</clus>
</clustering>
</event>
<event>
 9    2  0.3402837E-005  0.1558439E+03  0.7546771E-02  0.1194931E+00
          2   -1    0    0  502    0  0.00000000000E+00  0.00000000000E+00  0.47134378536E+03  0.47134378536E+03  0.00000000000E+00 0. -1.
         -1   -1    0    0    0  501 -0.00000000000E+00 -0.00000000000E+00 -0.89737680758E+02  0.89737680758E+02  0.00000000000E+00 0.  1.
         24    2    1    2    0    0 -0.50319309798E+02  0.90425591266E+02  0.35630425076E+02  0.13659697850E+03  0.81733633528E+02 0.  0.
         23    2    1    2    0    0  0.72773563923E+02 -0.11389293280E+03  0.35524374450E+03  0.39070865787E+03  0.90485057199E+02 0.  0.
        -13    1    3    3    0    0  0.22890895548E+01  0.50134265525E+02 -0.15909868902E+02  0.52647967095E+02  0.00000000000E+00 0.  1.
         14    1    3    3    0    0 -0.52608399353E+02  0.40291325740E+02  0.51540293978E+02  0.83949011404E+02  0.00000000000E+00 0. -1.
        -11    1    4    4    0    0  0.20696728731E+02 -0.10677945206E+03  0.21516684977E+03  0.24109537367E+03  0.00000000000E+00 0.  1.
         11    1    4    4    0    0  0.52076835192E+02 -0.71134807405E+01  0.14007689473E+03  0.14961328420E+03  0.00000000000E+00 0. -1.
         21    1    1    2  502  501 -0.22454254124E+02  0.23467341539E+02 -0.92680649737E+01  0.33775829754E+02  0.00000000000E+00 0.  1.
<scales pt_clust_5="13000.00000" pt_clust_6="13000.00000" pt_clust_7="13000.00000" pt_clust_8="13000.00000" pt_clust_9="32.47937"></scales>
<clustering>
<clus scale="   32.479">  2  9  1 -1</clus>
<clus scale="   81.734">  5  6 -1 -1</clus>
<clus scale="   90.485">  7  8 -1 -1</clus>
<clus scale="  150.931">  2  5  1 -1</clus>
<clus scale="  155.844">  1  5  2 -1</clus>
</clustering>
</event>
<event>
 9    2  0.3402837E-005  0.9217776E+02  0.7546771E-02  0.1304296E+00
          2   -1    0    0  502    0  0.00000000000E+00  0.00000000000E+00  0.32188492437E+03  0.32188492437E+03  0.00000000000E+00 0. -1.
         -1   -1    0    0    0  501 -0.00000000000E+00 -0.00000000000E+00 -0.14869375222E+03  0.14869375222E+03  0.00000000000E+00 0.  1.
         23    2    1    2    0    0 -0.17597917193E+02  0.97890464511E+01 -0.10478743309E+03  0.14043302675E+03  0.91299051191E+02 0.  0.
         24    2    1    2    0    0 -0.32542992231E+02  0.48077707720E+02  0.13073909619E+03  0.16418738682E+03  0.80587060963E+02 0.  0.
        -13    1    4    4    0    0 -0.35848823436E+02  0.69203270149E+02  0.10297725476E+03  0.12914544413E+03  0.00000000000E+00 0.  1.
         14    1    4    4    0    0  0.33058312055E+01 -0.21125562429E+02  0.27761841431E+02  0.35041942691E+02  0.00000000000E+00 0. -1.
        -13    1    3    3    0    0  0.29563775573E+02 -0.21798035897E+02 -0.41132253243E+02  0.55145566023E+02  0.00000000000E+00 0. -1.
         13    1    3    3    0    0 -0.47161692766E+02  0.31587082348E+02 -0.63655179849E+02  0.85287460728E+02  0.00000000000E+00 0.  1.
         21    1    1    2  502  501  0.50140909424E+02 -0.57866754171E+02  0.14723950906E+03  0.16595826302E+03  0.00000000000E+00 0. -1.
<scales pt_clust_5="13000.00000" pt_clust_6="13000.00000" pt_clust_7="13000.00000" pt_clust_8="13000.00000" pt_clust_9="76.56809"></scales>
<clustering>
<clus scale="   76.568">  1  9  2 -1</clus>
<clus scale="   80.587">  5  6 -1 -1</clus>
<clus scale="   81.581">  1  5  2 -1</clus>
<clus scale="   91.299">  7  8 -1 -1</clus>
<clus scale="   76.568">  1  5  2 -1</clus>
</clustering>
</event>
<event>
 9    2  0.3402837E-005  0.2052254E+03  0.7546771E-02  0.1146298E+00
         -1   -1    0    0    0  501 -0.00000000000E+00  0.00000000000E+00  0.36945259817E+03  0.36945259817E+03  0.00000000000E+00 0.  1.
          2   -1    0    0  502    0  0.00000000000E+00 -0.00000000000E+00 -0.19679355190E+03  0.19679355190E+03  0.00000000000E+00 0. -1.
         24    2    1    2    0    0  0.14011867386E+03  0.87588510574E+02  0.24751917882E+03  0.30841172601E+03  0.80913898090E+02 0.  0.
         23    2    1    2    0    0 -0.15806656755E+03 -0.10262212884E+03 -0.92154525324E+02  0.22872716402E+03  0.91144489240E+02 0.  0.
        -11    1    3    3    0    0  0.12898459522E+03  0.47917490317E+02  0.21774095255E+03  0.25757374498E+03  0.00000000000E+00 0.  1.
         12    1    3    3    0    0  0.11134078640E+02  0.39671020258E+02  0.29778226269E+02  0.50837981030E+02  0.00000000000E+00 0. -1.
        -13    1    4    4    0    0 -0.86002891658E+02 -0.12249631037E+02 -0.11154499394E+02  0.87584094965E+02  0.00000000000E+00 0.  1.
         13    1    4    4    0    0 -0.72063675893E+02 -0.90372497798E+02 -0.81000025930E+02  0.14114306905E+03  0.00000000000E+00 0. -1.
         21    1    1    2  502  501  0.17947893691E+02  0.15033618261E+02  0.17294392771E+02  0.29107260044E+02  0.00000000000E+00 0.  1.
<scales pt_clust_5="13000.00000" pt_clust_6="13000.00000" pt_clust_7="13000.00000" pt_clust_8="13000.00000" pt_clust_9="23.41232"></scales>
<clustering>
<clus scale="   23.412">  1  9  2 -1</clus>
<clus scale="   80.914">  5  6 -1 -1</clus>
<clus scale="   91.144">  7  8 -1 -1</clus>
<clus scale="  200.891">  1  5  2 -1</clus>
<clus scale="  205.225">  2  5  1 -1</clus>
</clustering>
</event>
<event>
 9    2  0.3402837E-005  0.1218452E+03  0.7546771E-02  0.1245212E+00
          2   -1    0    0  502    0  0.00000000000E+00  0.00000000000E+00  0.10749328525E+04  0.10749328525E+04  0.00000000000E+00 0. -1.
         -1   -1    0    0    0  501 -0.00000000000E+00 -0.00000000000E+00 -0.36668809842E+02  0.36668809842E+02  0.00000000000E+00 0.  1.
         23    2    1    2    0    0  0.11293199618E+02  0.18959756840E+02  0.87225594543E+02  0.13085783536E+03  0.95018208749E+02 0.  0.
         24    2    1    2    0    0 -0.49618451852E+02 -0.70245571749E+02  0.86832697914E+03  0.87614819194E+03  0.79041004686E+02 0.  0.
        -13    1    4    4    0    0  0.11716292998E+02 -0.44695109256E+02  0.24752344729E+03  0.25179908909E+03  0.00000000000E+00 0.  1.
         14    1    4    4    0    0 -0.61334744851E+02 -0.25550462493E+02  0.62080353185E+03  0.62434910284E+03  0.00000000000E+00 0. -1.
        -13    1    3    3    0    0  0.51195303712E+02  0.23983508492E+02  0.42627389776E+02  0.70804393655E+02  0.00000000000E+00 0.  1.
         13    1    3    3    0    0 -0.39902104094E+02 -0.50237516530E+01  0.44598204766E+02  0.60053441701E+02  0.00000000000E+00 0. -1.
         21    1    1    2  502  501  0.38325252234E+02  0.51285814910E+02  0.82711468956E+02  0.10459563503E+03  0.00000000000E+00 0. -1.
<scales pt_clust_5="13000.00000" pt_clust_6="13000.00000" pt_clust_7="13000.00000" pt_clust_8="13000.00000" pt_clust_9="64.02390"></scales>
<clustering>
<clus scale="   64.024">  2  9  1 -1</clus>
<clus scale="   79.041">  5  6 -1 -1</clus>
<clus scale="   95.018">  7  8 -1 -1</clus>
<clus scale="  109.842">  1  5  2 -1</clus>
<clus scale="  109.842">  1  5  2 -1</clus>
</clustering>
</event>
<event>
 9    2  0.3402837E-005  0.9346632E+02  0.7546771E-02  0.1303626E+00
         -3   -1    0    0    0  501 -0.00000000000E+00  0.00000000000E+00  0.12799720929E+03  0.12799720929E+03  0.00000000000E+00 0.  1.
          4   -1    0    0  502    0  0.00000000000E+00 -0.00000000000E+00 -0.24998468290E+03  0.24998468290E+03  0.00000000000E+00 0. -1.
         23    2    1    2    0    0  0.75814233047E+01 -0.47368894933E+00  0.66018438343E+02  0.11360066686E+03  0.92135633435E+02 0.  0.
         24    2    1    2    0    0  0.17168470082E+02 -0.37266505921E+01 -0.21394961718E+03  0.22828031238E+03  0.77645463761E+02 0.  0.
        -11    1    4    4    0    0 -0.10712601583E+02 -0.34346060712E+02 -0.73179028685E+02  0.81544968934E+02  0.00000000000E+00 0.  1.
         12    1    4    4    0    0  0.27881071665E+02  0.30619410120E+02 -0.14077058849E+03  0.14673534345E+03  0.00000000000E+00 0. -1.
        -11    1    3    3    0    0 -0.15146216132E+02  0.21549481615E+02 -0.12344028152E+02  0.29088881931E+02  0.00000000000E+00 0. -1.
         11    1    3    3    0    0  0.22727639437E+02 -0.22023170564E+02  0.78362466495E+02  0.84511784925E+02  0.00000000000E+00 0.  1.
         21    1    1    2  502  501 -0.24749893387E+02  0.42003395414E+01  0.25943705226E+02  0.36100912949E+02  0.00000000000E+00 0. -1.
<scales pt_clust_5="13000.00000" pt_clust_6="13000.00000" pt_clust_7="13000.00000" pt_clust_8="13000.00000" pt_clust_9="25.10379"></scales>
<clustering>
<clus scale="   25.104">  1  9  2 -1</clus>
<clus scale="   77.645">  5  6 -1 -1</clus>
<clus scale="   79.220">  2  5  1 -1</clus>
<clus scale="   92.136">  7  8 -1 -1</clus>
<clus scale="   79.220">  2  5  1 -1</clus>
</clustering>
</event>
<event>
 9    2  0.3402837E-005  0.1108168E+03  0.7546771E-02  0.1264830E+00
          2   -1    0    0  502    0  0.00000000000E+00  0.00000000000E+00  0.21780995954E+03  0.21780995954E+03  0.00000000000E+00 0. -1.
         -1   -1    0    0    0  501 -0.00000000000E+00 -0.00000000000E+00 -0.89099686298E+02  0.89099686298E+02  0.00000000000E+00 0.  1.
         24    2    1    2    0    0  0.48647608095E+02  0.34527023600E+02  0.38140639808E+01  0.10087681343E+03  0.81258102803E+02 0.  0.
         23    2    1    2    0    0 -0.58354040990E+02 -0.88912258652E+00  0.12911299174E+03  0.17076947354E+03  0.95320846726E+02 0.  0.
        -11    1    3    3    0    0 -0.19958685485E+02  0.18252538064E+02 -0.10348257928E+02  0.28958430797E+02  0.00000000000E+00 0.  1.
         12    1    3    3    0    0  0.68606293580E+02  0.16274485536E+02  0.14162321909E+02  0.71918382630E+02  0.00000000000E+00 0. -1.
        -11    1    4    4    0    0 -0.60147143018E+02  0.37900810608E+02  0.97671337825E+02  0.12080496882E+03  0.00000000000E+00 0.  1.
         11    1    4    4    0    0  0.17931020280E+01 -0.38789933194E+02  0.31441653911E+02  0.49964504728E+02  0.00000000000E+00 0. -1.
         21    1    1    2  502  501  0.97064328953E+01 -0.33637901014E+02 -0.42167824747E+01  0.35263358867E+02  0.00000000000E+00 0. -1.
<scales pt_clust_5="13000.00000" pt_clust_6="13000.00000" pt_clust_7="13000.00000" pt_clust_8="13000.00000" pt_clust_9="35.01033"></scales>
<clustering>
<clus scale="   35.010">  2  9  1 -1</clus>
<clus scale="   81.258">  5  6 -1 -1</clus>
<clus scale="   95.321">  7  8 -1 -1</clus>
<clus scale="   98.981">  2  5  1 -1</clus>
<clus scale="  110.817">  1  5  2 -1</clus>
</clustering>
</event>
<event>
 9    2  0.3402837E-005  0.1656739E+03  0.7546771E-02  0.1184346E+00
         -1   -1    0    0    0  501 -0.00000000000E+00  0.00000000000E+00  0.10343861584E+03  0.10343861584E+03  0.00000000000E+00 0.  1.
          2   -1    0    0  502    0  0.00000000000E+00 -0.00000000000E+00 -0.63041253449E+03  0.63041253449E+03  0.00000000000E+00 0. -1.
         24    2    1    2    0    0 -0.97616091849E+02 -0.92719038527E+01  0.27186277327E+02  0.12837394211E+03  0.78268165619E+02 0.  0.
         23    2    1    2    0    0  0.14530780806E+03 -0.88757608340E+01 -0.50926982987E+03  0.53751411164E+03  0.91501488422E+02 0.  0.
        -11    1    3    3    0    0 -0.40191705228E+02  0.19953681769E+02  0.42869630927E+02  0.62059067355E+02  0.00000000000E+00 0.  1.
         12    1    3    3    0    0 -0.57424386622E+02 -0.29225585622E+02 -0.15683353599E+02  0.66314874756E+02  0.00000000000E+00 0. -1.
        -11    1    4    4    0    0  0.31990612293E+02  0.29674780808E+00 -0.26509888208E+02  0.41548303298E+02  0.00000000000E+00 0.  1.
         11    1    4    4    0    0  0.11331719576E+03 -0.91725086421E+01 -0.48275994167E+03  0.49596580835E+03  0.00000000000E+00 0. -1.
         21    1    1    2  502  501 -0.47691716207E+02  0.18147664687E+02 -0.44890366103E+02  0.67963096583E+02  0.00000000000E+00 0.  1.
<scales pt_clust_5="13000.00000" pt_clust_6="13000.00000" pt_clust_7="13000.00000" pt_clust_8="13000.00000" pt_clust_9="51.02781"></scales>
<clustering>
<clus scale="   51.028">  1  9  2 -1</clus>
<clus scale="   78.268">  5  6 -1 -1</clus>
<clus scale="   91.501">  7  8 -1 -1</clus>
<clus scale="  158.749">  1  5  2 -1</clus>
<clus scale="  165.674">  2  5  1 -1</clus>
</clustering>
</event>
<event>
 9    2  0.3402837E-005  0.2660158E+03  0.7546771E-02  0.1104116E+00
         -1   -1    0    0    0  501 -0.00000000000E+00  0.00000000000E+00  0.55231603420E+02  0.55231603420E+02  0.00000000000E+00 0.  1.
          2   -1    0    0  502    0  0.00000000000E+00 -0.00000000000E+00 -0.19196480911E+04  0.19196480911E+04  0.00000000000E+00 0. -1.
         24    2    1    2    0    0 -0.63842249532E+02  0.22648657746E+03 -0.54490278994E+03  0.59881750477E+03  0.79318036675E+02 0.  0.
         23    2    1    2    0    0  0.85757105956E+02 -0.24328373570E+03 -0.13204254878E+04  0.13484354488E+04  0.90627994619E+02 0.  0.
        -11    1    3    3    0    0 -0.33538631450E+02  0.15664447365E+03 -0.27372895680E+03  0.31715906532E+03  0.00000000000E+00 0.  1.
         12    1    3    3    0    0 -0.30303618082E+02  0.69842103805E+02 -0.27117383314E+03  0.28165843945E+03  0.00000000000E+00 0. -1.
        -11    1    4    4    0    0  0.89058203360E+02 -0.13135343178E+03 -0.67815430754E+03  0.69647566538E+03  0.00000000000E+00 0.  1.
         11    1    4    4    0    0 -0.33010974035E+01 -0.11193030392E+03 -0.64227118027E+03  0.65195978341E+03  0.00000000000E+00 0. -1.
         21    1    1    2  502  501 -0.21914856425E+02  0.16797158243E+02  0.91179003310E+00  0.27626740999E+02  0.00000000000E+00 0. -1.
<scales pt_clust_5="13000.00000" pt_clust_6="13000.00000" pt_clust_7="13000.00000" pt_clust_8="13000.00000" pt_clust_9="27.61169"></scales>
<clustering>
<clus scale="   27.612">  1  9  2 -1</clus>
<clus scale="   79.318">  5  6 -1 -1</clus>
<clus scale="   90.628">  7  8 -1 -1</clus>
<clus scale="  262.378">  1  5  2 -1</clus>
<clus scale="  266.016">  2  5  1 -1</clus>
</clustering>
</event>
<event>
 9    2  0.3402837E-005  0.9334149E+02  0.7546771E-02  0.1301857E+00
          2   -1    0    0  502    0  0.00000000000E+00  0.00000000000E+00  0.37303729635E+03  0.37303729635E+03  0.00000000000E+00 0. -1.
         -1   -1    0    0    0  501 -0.00000000000E+00 -0.00000000000E+00 -0.13637965539E+03  0.13637965539E+03  0.00000000000E+00 0.  1.
         23    2    1    2    0    0 -0.28199594769E+02  0.18452160768E+02 -0.95273330554E+02  0.13640910844E+03  0.91622802669E+02 0.  0.
         24    2    1    2    0    0  0.53765314844E+01 -0.16603875681E+02  0.33919510721E+03  0.34898543619E+03  0.80205474491E+02 0.  0.
        -11    1    4    4    0    0  0.36055751090E+02 -0.28425579979E+02  0.14715758565E+03  0.15415377322E+03  0.00000000000E+00 0.  1.
         12    1    4    4    0    0 -0.30679219606E+02  0.11821704298E+02  0.19203752156E+03  0.19483166297E+03  0.00000000000E+00 0. -1.
        -13    1    3    3    0    0 -0.86614645566E+01  0.46418297850E+02 -0.90343869409E+02  0.10193965903E+03  0.00000000000E+00 0.  1.
         13    1    3    3    0    0 -0.19538130212E+02 -0.27966137082E+02 -0.49294611446E+01  0.34469449411E+02  0.00000000000E+00 0. -1.
         21    1    1    2  502  501  0.22823063284E+02 -0.18482850871E+01 -0.72641356993E+01  0.24022407101E+02  0.00000000000E+00 0.  1.
<scales pt_clust_5="13000.00000" pt_clust_6="13000.00000" pt_clust_7="13000.00000" pt_clust_8="13000.00000" pt_clust_9="22.89778"></scales>
<clustering>
<clus scale="   22.898">  2  9  1 -1</clus>
<clus scale="   80.205">  5  6 -1 -1</clus>
<clus scale="   82.163">  1  5  2 -1</clus>
<clus scale="   91.623">  7  8 -1 -1</clus>
<clus scale="   82.163">  1  5  2 -1</clus>
</clustering>
</event>
<event>
 9    2  0.3402837E-005  0.1552604E+03  0.7546771E-02  0.1195179E+00
         -1   -1    0    0    0  501 -0.00000000000E+00  0.00000000000E+00  0.16878990299E+03  0.16878990299E+03  0.00000000000E+00 0.  1.
          2   -1    0    0  502    0  0.00000000000E+00 -0.00000000000E+00 -0.58043677337E+03  0.58043677337E+03  0.00000000000E+00 0. -1.
         23    2    1    2    0    0  0.87639699408E+02 -0.10309859048E+03  0.60350711954E+02  0.17195724600E+03  0.87275711108E+02 0.  0.
         24    2    1    2    0    0 -0.10269390153E+03  0.76489071500E+02 -0.50795658279E+03  0.53007043445E+03  0.80982467296E+02 0.  0.
        -11    1    4    4    0    0 -0.19548933154E+02 -0.14000423471E+02 -0.44299038808E+02  0.50404141537E+02  0.00000000000E+00 0.  1.
         12    1    4    4    0    0 -0.83144968372E+02  0.90489494970E+02 -0.46365754398E+03  0.47966629291E+03  0.00000000000E+00 0. -1.
        -11    1    3    3    0    0  0.83661877308E+02 -0.31943217940E+02  0.29344197509E+02  0.94237788676E+02  0.00000000000E+00 0.  1.
         11    1    3    3    0    0  0.39778221004E+01 -0.71155372537E+02  0.31006514445E+02  0.77719457329E+02  0.00000000000E+00 0. -1.
         21    1    1    2  502  501  0.15054202118E+02  0.26609518978E+02  0.35959000453E+02  0.47198995914E+02  0.00000000000E+00 0. -1.
<scales pt_clust_5="13000.00000" pt_clust_6="13000.00000" pt_clust_7="13000.00000" pt_clust_8="13000.00000" pt_clust_9="30.57279"></scales>
<clustering>
<clus scale="   30.573">  1  9  2 -1</clus>
<clus scale="   80.982">  5  6 -1 -1</clus>
<clus scale="   87.276">  7  8 -1 -1</clus>
<clus scale="  151.812">  2  5  1 -1</clus>
<clus scale="  151.812">  2  5  1 -1</clus>
</clustering>
</event>
<event>
 9    2  0.3402837E-005  0.3064676E+03  0.7546771E-02  0.1082379E+00
          2   -1    0    0  502    0  0.00000000000E+00  0.00000000000E+00  0.57766035658E+03  0.57766035658E+03  0.00000000000E+00 0. -1.
         -1   -1    0    0    0  501 -0.00000000000E+00 -0.00000000000E+00 -0.23987879743E+03  0.23987879743E+03  0.00000000000E+00 0.  1.
         23    2    1    2    0    0  0.85556088451E+02 -0.25172199880E+03 -0.52460652064E+02  0.28599709884E+03  0.91424348929E+02 0.  0.
         24    2    1    2    0    0 -0.10158128628E+03  0.28359833918E+03  0.38468602994E+03  0.49543417249E+03  0.82005499359E+02 0.  0.
        -13    1    4    4    0    0  0.76526491980E+01  0.50112236279E+02  0.37695422543E+02  0.63172336868E+02  0.00000000000E+00 0.  1.
         14    1    4    4    0    0 -0.10923393548E+03  0.23348610290E+03  0.34699060740E+03  0.43226183562E+03  0.00000000000E+00 0. -1.
        -11    1    3    3    0    0  0.22726833976E+02 -0.41777913917E+02 -0.46882467778E+02  0.66782249579E+02  0.00000000000E+00 0. -1.
         11    1    3    3    0    0  0.62829254475E+02 -0.20994408488E+03 -0.55781842857E+01  0.21921484926E+03  0.00000000000E+00 0.  1.
         21    1    1    2  502  501  0.16025197833E+02 -0.31876340382E+02  0.55561812707E+01  0.36107882686E+02  0.00000000000E+00 0.  1.
<scales pt_clust_5="13000.00000" pt_clust_6="13000.00000" pt_clust_7="13000.00000" pt_clust_8="13000.00000" pt_clust_9="35.67784"></scales>
<clustering>
<clus scale="   35.678">  2  9  1 -1</clus>
<clus scale="   82.005">  5  6 -1 -1</clus>
<clus scale="   91.424">  7  8 -1 -1</clus>
<clus scale="  303.791">  1  5  2 -1</clus>
<clus scale="  303.791">  1  5  2 -1</clus>
</clustering>
</event>
<event>
 9    2  0.3402837E-005  0.9001032E+02  0.7546771E-02  0.1309921E+00
          2   -1    0    0  502    0  0.00000000000E+00  0.00000000000E+00  0.79627325234E+02  0.79627325234E+02  0.00000000000E+00 0. -1.
         -1   -1    0    0    0  501 -0.00000000000E+00 -0.00000000000E+00 -0.33830583802E+03  0.33830583802E+03  0.00000000000E+00 0.  1.
         23    2    1    2    0    0  0.27221065247E+02 -0.24855498705E+02 -0.25889760326E+03  0.27654588913E+03  0.89949305779E+02 0.  0.
         24    2    1    2    0    0  0.62549659446E+01 -0.20110303327E+01  0.34491497881E+02  0.86459567491E+02  0.79009015578E+02 0.  0.
        -13    1    4    4    0    0 -0.32092111962E+02  0.12207364155E+02  0.23008044288E+01  0.34412455460E+02  0.00000000000E+00 0.  1.
         14    1    4    4    0    0  0.38347077906E+02 -0.14218394488E+02  0.32190693452E+02  0.52047112030E+02  0.00000000000E+00 0. -1.
        -11    1    3    3    0    0 -0.16786191771E+02 -0.35501392873E+02 -0.19060143848E+03  0.19460481362E+03  0.00000000000E+00 0.  1.
         11    1    3    3    0    0  0.44007257018E+02  0.10645894168E+02 -0.68296164777E+02  0.81941075512E+02  0.00000000000E+00 0. -1.
         21    1    1    2  502  501 -0.33476031192E+02  0.26866529038E+02 -0.34272407408E+02  0.54927706637E+02  0.00000000000E+00 0.  1.
<scales pt_clust_5="13000.00000" pt_clust_6="13000.00000" pt_clust_7="13000.00000" pt_clust_8="13000.00000" pt_clust_9="42.92383"></scales>
<clustering>
<clus scale="   42.924">  2  9  1 -1</clus>
<clus scale="   79.009">  5  6 -1 -1</clus>
<clus scale="   79.078">  1  5  2 -1</clus>
<clus scale="   89.949">  7  8 -1 -1</clus>
<clus scale="   79.078">  1  5  2 -1</clus>
</clustering>
</event>
<event>
 9    2  0.3402837E-005  0.1462605E+03  0.7546771E-02  0.1207979E+00
         -1   -1    0    0    0  501 -0.00000000000E+00  0.00000000000E+00  0.43079528586E+03  0.43079528586E+03  0.00000000000E+00 0.  1.
          2   -1    0    0  502    0  0.00000000000E+00 -0.00000000000E+00 -0.67640884886E+02  0.67640884886E+02  0.00000000000E+00 0. -1.
         23    2    1    2    0    0 -0.49408517672E+02  0.96536259110E+02  0.20176004878E+03  0.24758412230E+03  0.93969832327E+02 0.  0.
         24    2    1    2    0    0  0.29906778201E+02 -0.11075271238E+03  0.70007780832E+02  0.15633257527E+03  0.79863671534E+02 0.  0.
        -13    1    4    4    0    0 -0.14733075046E+02 -0.67468278088E+02  0.97449635602E+01  0.69742357024E+02  0.00000000000E+00 0.  1.
         14    1    4    4    0    0  0.44639853247E+02 -0.43284434291E+02  0.60262817272E+02  0.86590218243E+02  0.00000000000E+00 0. -1.
        -11    1    3    3    0    0 -0.23839023347E+02  0.46678939070E+02  0.17999922505E+03  0.18747518077E+03  0.00000000000E+00 0.  1.
         11    1    3    3    0    0 -0.25569494325E+02  0.49857320040E+02  0.21760823730E+02  0.60108941523E+02  0.00000000000E+00 0. -1.
         21    1    1    2  502  501  0.19501739471E+02  0.14216453268E+02  0.91386571364E+02  0.94519473188E+02  0.00000000000E+00 0. -1.
<scales pt_clust_5="13000.00000" pt_clust_6="13000.00000" pt_clust_7="13000.00000" pt_clust_8="13000.00000" pt_clust_9="24.13349"></scales>
<clustering>
<clus scale="   24.133">  1  9  2 -1</clus>
<clus scale="   79.864">  5  6 -1 -1</clus>
<clus scale="   93.970">  7  8 -1 -1</clus>
<clus scale="  137.623">  2  5  1 -1</clus>
<clus scale="  137.623">  2  5  1 -1</clus>
</clustering>
</event>
<event>
 9    2  0.3402837E-005  0.9473630E+02  0.7546771E-02  0.1295652E+00
         -1   -1    0    0    0  501 -0.00000000000E+00  0.00000000000E+00  0.11620279526E+03  0.11620279526E+03  0.00000000000E+00 0.  1.
          2   -1    0    0  502    0  0.00000000000E+00 -0.00000000000E+00 -0.43411126841E+03  0.43411126841E+03  0.00000000000E+00 0. -1.
         23    2    1    2    0    0 -0.17114322795E+02  0.20902339577E+02  0.16395113115E+02  0.92773968803E+02  0.87226152666E+02 0.  0.
         24    2    1    2    0    0 -0.27066271141E+02 -0.29488573621E+02 -0.38177997511E+03  0.39212101666E+03  0.80004895518E+02 0.  0.
        -11    1    4    4    0    0  0.24642768917E+02 -0.48022219811E+01 -0.56418309209E+02  0.61752352261E+02  0.00000000000E+00 0.  1.
         12    1    4    4    0    0 -0.51709040058E+02 -0.24686351640E+02 -0.32536166590E+03  0.33036866440E+03  0.00000000000E+00 0. -1.
        -11    1    3    3    0    0 -0.43512838015E+02  0.71226723456E+01 -0.17694198742E+02  0.47509832694E+02  0.00000000000E+00 0. -1.
         11    1    3    3    0    0  0.26398515220E+02  0.13779667231E+02  0.34089311857E+02  0.45264136109E+02  0.00000000000E+00 0.  1.
         21    1    1    2  502  501  0.44180593935E+02  0.85862340439E+01  0.47476388838E+02  0.65419078201E+02  0.00000000000E+00 0.  1.
<scales pt_clust_5="13000.00000" pt_clust_6="13000.00000" pt_clust_7="13000.00000" pt_clust_8="13000.00000" pt_clust_9="45.00720"></scales>
<clustering>
<clus scale="   45.007">  1  9  2 -1</clus>
<clus scale="   80.005">  5  6 -1 -1</clus>
<clus scale="   87.226">  7  8 -1 -1</clus>
<clus scale="   88.133">  2  5  1 -1</clus>
<clus scale="   88.133">  2  5  1 -1</clus>
</clustering>
</event>
<event>
 9    2  0.3402837E-005  0.1854810E+03  0.7546771E-02  0.1163699E+00
          2   -1    0    0  502    0  0.00000000000E+00  0.00000000000E+00  0.84764140053E+02  0.84764140053E+02  0.00000000000E+00 0. -1.
         -1   -1    0    0    0  501 -0.00000000000E+00 -0.00000000000E+00 -0.10107276831E+04  0.10107276831E+04  0.00000000000E+00 0.  1.
         24    2    1    2    0    0  0.19948938915E+03 -0.61714568400E+02 -0.33223669842E+03  0.40070154632E+03  0.81091313428E+02 0.  0.
         23    2    1    2    0    0 -0.13780853697E+03  0.36629850801E+02 -0.99813928723E+02  0.19640915853E+03  0.90998892054E+02 0.  0.
        -11    1    3    3    0    0  0.10265591917E+03 -0.66634025642E+02 -0.14416695442E+03  0.18910960277E+03  0.00000000000E+00 0.  1.
         12    1    3    3    0    0  0.96833469974E+02  0.49194572423E+01 -0.18806974400E+03  0.21159194355E+03  0.00000000000E+00 0. -1.
        -13    1    4    4    0    0 -0.51092933799E+02 -0.10203786411E+02 -0.80639190863E+02  0.96006688539E+02  0.00000000000E+00 0.  1.
         13    1    4    4    0    0 -0.86715603172E+02  0.46833637212E+02 -0.19174737860E+02  0.10040246999E+03  0.00000000000E+00 0. -1.
         21    1    1    2  502  501 -0.61680852176E+02  0.25084717599E+02 -0.49391291590E+03  0.49838111830E+03  0.00000000000E+00 0.  1.
<scales pt_clust_5="13000.00000" pt_clust_6="13000.00000" pt_clust_7="13000.00000" pt_clust_8="13000.00000" pt_clust_9="66.58656"></scales>
<clustering>
<clus scale="   66.587">  2  9  1 -1</clus>
<clus scale="   81.091">  5  6 -1 -1</clus>
<clus scale="   90.999">  7  8 -1 -1</clus>
<clus scale="  180.826">  2  5  1 -1</clus>
<clus scale="  185.481">  1  5  2 -1</clus>
</clustering>
</event>
<event>
 9    2  0.3402837E-005  0.1323444E+03  0.7546771E-02  0.1224071E+00
         -1   -1    0    0    0  501 -0.00000000000E+00  0.00000000000E+00  0.25323492122E+03  0.25323492122E+03  0.00000000000E+00 0.  1.
          2   -1    0    0  502    0  0.00000000000E+00 -0.00000000000E+00 -0.13585109028E+03  0.13585109028E+03  0.00000000000E+00 0. -1.
         23    2    1    2    0    0 -0.45744489776E+02  0.46274842887E+02  0.13687569724E+03  0.17334801333E+03  0.84146644630E+02 0.  0.
         24    2    1    2    0    0  0.66591218263E+02 -0.91853802252E+02 -0.57705309700E+02  0.15271185373E+03  0.84377106867E+02 0.  0.
        -11    1    4    4    0    0  0.25042068598E+02  0.13275484636E+02 -0.12041434056E+02  0.30795126662E+02  0.00000000000E+00 0.  1.
         12    1    4    4    0    0  0.41549149665E+02 -0.10512928689E+03 -0.45663875644E+02  0.12191672707E+03  0.00000000000E+00 0. -1.
        -13    1    3    3    0    0  0.82732156298E-01  0.57766384837E+02  0.61384870327E+02  0.84291543863E+02  0.00000000000E+00 0. -1.
         13    1    3    3    0    0 -0.45827221933E+02 -0.11491541950E+02  0.75490826913E+02  0.89056469470E+02  0.00000000000E+00 0.  1.
         21    1    1    2  502  501 -0.20846728486E+02  0.45578959365E+02  0.38213443399E+02  0.63026144431E+02  0.00000000000E+00 0.  1.
<scales pt_clust_5="13000.00000" pt_clust_6="13000.00000" pt_clust_7="13000.00000" pt_clust_8="13000.00000" pt_clust_9="50.12013"></scales>
<clustering>
<clus scale="   50.120">  1  9  2 -1</clus>
<clus scale="   84.147">  7  8 -1 -1</clus>
<clus scale="   84.377">  5  6 -1 -1</clus>
<clus scale="  132.198">  1  7  2 -1</clus>
<clus scale="  132.344">  2  5  1 -1</clus>
</clustering>
</event>
<event>
 9    2  0.3402837E-005  0.1104752E+03  0.7546771E-02  0.1263414E+00
          2   -1    0    0  502    0  0.00000000000E+00  0.00000000000E+00  0.60861697525E+03  0.60861697525E+03  0.00000000000E+00 0. -1.
         -1   -1    0    0    0  501 -0.00000000000E+00 -0.00000000000E+00 -0.24691642582E+02  0.24691642582E+02  0.00000000000E+00 0.  1.
         24    2    1    2    0    0  0.45049449129E+02 -0.59290149158E+02  0.22085864687E+03  0.24647177138E+03  0.80156207097E+02 0.  0.
         23    2    1    2    0    0 -0.41788964815E+02  0.33550216095E+02  0.25382594385E+03  0.27455721956E+03  0.89900625498E+02 0.  0.
        -11    1    3    3    0    0 -0.12557569145E+02 -0.32699211994E+02  0.32757812500E+02  0.47958370360E+02  0.00000000000E+00 0.  1.
         12    1    3    3    0    0  0.57607018274E+02 -0.26590937164E+02  0.18810083437E+03  0.19851340102E+03  0.00000000000E+00 0. -1.
        -13    1    4    4    0    0 -0.12558755055E+02  0.61468956412E+02  0.17622639973E+03  0.18706121697E+03  0.00000000000E+00 0. -1.
         13    1    4    4    0    0 -0.29230209761E+02 -0.27918740318E+02  0.77599544114E+02  0.87496002596E+02  0.00000000000E+00 0.  1.
         21    1    1    2  502  501 -0.32604843134E+01  0.25739933064E+02  0.10924074195E+03  0.11227962689E+03  0.00000000000E+00 0. -1.
<scales pt_clust_5="13000.00000" pt_clust_6="13000.00000" pt_clust_7="13000.00000" pt_clust_8="13000.00000" pt_clust_9="25.94561"></scales>
<clustering>
<clus scale="   25.946">  1  9  2 -1</clus>
<clus scale="   80.156">  5  6 -1 -1</clus>
<clus scale="   89.901">  7  8 -1 -1</clus>
<clus scale="  102.702">  2  5  1 -1</clus>
<clus scale="   25.946">  1  5  2 -1</clus>
</clustering>
</event>
<event>
 9    2  0.3402837E-005  0.9215018E+02  0.7546771E-02  0.1303589E+00
         -1   -1    0    0    0  501 -0.00000000000E+00  0.00000000000E+00  0.12645205641E+03  0.12645205641E+03  0.00000000000E+00 0.  1.
          2   -1    0    0  502    0  0.00000000000E+00 -0.00000000000E+00 -0.28835534978E+03  0.28835534978E+03  0.00000000000E+00 0. -1.
         23    2    1    2    0    0 -0.59114785570E+01  0.41443347352E+02 -0.19604477560E+00  0.99217082084E+02  0.89952733840E+02 0.  0.
         24    2    1    2    0    0 -0.16532531287E+02 -0.10667946056E+02 -0.22612558823E+03  0.24075329193E+03  0.80263542550E+02 0.  0.
        -11    1    4    4    0    0 -0.18743956279E+01 -0.39217027476E+02 -0.18202897689E+03  0.18621502902E+03  0.00000000000E+00 0.  1.
         12    1    4    4    0    0 -0.14658135659E+02  0.28549081421E+02 -0.44096611334E+02  0.54538262918E+02  0.00000000000E+00 0. -1.
        -11    1    3    3    0    0 -0.32700319936E+02  0.10706280674E+02 -0.32398731451E+02  0.47261116888E+02  0.00000000000E+00 0. -1.
         11    1    3    3    0    0  0.26788841379E+02  0.30737066677E+02  0.32202686676E+02  0.51955965197E+02  0.00000000000E+00 0.  1.
         21    1    1    2  502  501  0.22444009843E+02 -0.30775401296E+02  0.64418339633E+02  0.74837032169E+02  0.00000000000E+00 0.  1.
<scales pt_clust_5="13000.00000" pt_clust_6="13000.00000" pt_clust_7="13000.00000" pt_clust_8="13000.00000" pt_clust_9="38.09014"></scales>
<clustering>
<clus scale="   38.090">  1  9  2 -1</clus>
<clus scale="   80.264">  5  6 -1 -1</clus>
<clus scale="   82.719">  2  5  1 -1</clus>
<clus scale="   89.953">  7  8 -1 -1</clus>
<clus scale="   82.719">  2  5  1 -1</clus>
</clustering>
</event>
<event>
 9    2  0.3402837E-005  0.9763385E+02  0.7546771E-02  0.1295751E+00
         -1   -1    0    0    0  501 -0.00000000000E+00  0.00000000000E+00  0.51279374128E+02  0.51279374128E+02  0.00000000000E+00 0.  1.
          2   -1    0    0  502    0  0.00000000000E+00 -0.00000000000E+00 -0.38804432990E+03  0.38804432990E+03  0.00000000000E+00 0. -1.
         23    2    1    2    0    0  0.14354862856E+01 -0.25906780597E+02 -0.27850676566E+02  0.10450356887E+03  0.97324785231E+02 0.  0.
         24    2    1    2    0    0  0.53191668853E+01  0.36208137519E+01 -0.29887435725E+03  0.30946092202E+03  0.79992355950E+02 0.  0.
        -11    1    4    4    0    0  0.22079318418E+02 -0.33018689774E+02 -0.13644115708E+03  0.14210531138E+03  0.00000000000E+00 0.  1.
         12    1    4    4    0    0 -0.16760151532E+02  0.36639503526E+02 -0.16243320017E+03  0.16735561064E+03  0.00000000000E+00 0. -1.
        -13    1    3    3    0    0  0.66451896352E+01  0.33474599889E+02 -0.29146328126E+02  0.44880015889E+02  0.00000000000E+00 0. -1.
         13    1    3    3    0    0 -0.52097033496E+01 -0.59381380487E+02  0.12956515600E+01  0.59623552984E+02  0.00000000000E+00 0.  1.
         21    1    1    2  502  501 -0.67546531709E+01  0.22285966846E+02 -0.10039921957E+02  0.25359213131E+02  0.00000000000E+00 0.  1.
<scales pt_clust_5="13000.00000" pt_clust_6="13000.00000" pt_clust_7="13000.00000" pt_clust_8="13000.00000" pt_clust_9="23.28711"></scales>
<clustering>
<clus scale="   23.287">  1  9  2 -1</clus>
<clus scale="   79.992">  5  6 -1 -1</clus>
<clus scale="   80.368">  2  5  1 -1</clus>
<clus scale="   97.325">  7  8 -1 -1</clus>
<clus scale="   80.368">  2  5  1 -1</clus>
</clustering>
</event>
<event>
 9    2  0.3402837E-005  0.3019252E+03  0.7546771E-02  0.1135287E+00
         -3   -1    0    0    0  501 -0.00000000000E+00  0.00000000000E+00  0.19678303093E+03  0.19678303093E+03  0.00000000000E+00 0.  1.
          4   -1    0    0  502    0  0.00000000000E+00 -0.00000000000E+00 -0.62282568208E+03  0.62282568208E+03  0.00000000000E+00 0. -1.
         23    2    1    2    0    0 -0.29096046671E+03 -0.73429323448E+01 -0.78027510243E+02  0.31486930956E+03  0.91337166061E+02 0.  0.
         24    2    1    2    0    0  0.83857917044E+01  0.11152852984E+02 -0.92135136515E+02  0.12350779524E+03  0.81059141812E+02 0.  0.
        -11    1    4    4    0    0  0.58707656873E+01 -0.35242431138E+02 -0.37722572124E+02  0.51956590437E+02  0.00000000000E+00 0.  1.
         12    1    4    4    0    0  0.25150260171E+01  0.46395284121E+02 -0.54412564391E+02  0.71551204799E+02  0.00000000000E+00 0. -1.
        -11    1    3    3    0    0 -0.11879264395E+03  0.36069773973E+02 -0.93719452440E+01  0.12450122172E+03  0.00000000000E+00 0. -1.
         11    1    3    3    0    0 -0.17216782276E+03 -0.43412706318E+02 -0.68655564999E+02  0.19036808784E+03  0.00000000000E+00 0.  1.
         21    1    1    2  502  501  0.28257467501E+03 -0.38099206390E+01 -0.25588000439E+03  0.38123160821E+03  0.00000000000E+00 0. -1.
<scales pt_clust_5="13000.00000" pt_clust_6="13000.00000" pt_clust_7="13000.00000" pt_clust_8="13000.00000" pt_clust_9="287.77828"></scales>
<clustering>
<clus scale="   81.059">  5  6 -1 -1</clus>
<clus scale="   82.251">  2  5  1 -1</clus>
<clus scale="   91.337">  7  8 -1 -1</clus>
<clus scale="  287.778">  2  9  1 -1</clus>
<clus scale="   82.251">  2  5  1 -1</clus>
</clustering>
</event>
<event>
 9    2  0.3402837E-005  0.1213396E+03  0.7546771E-02  0.1243434E+00
         -1   -1    0    0    0  501 -0.00000000000E+00  0.00000000000E+00  0.27588395810E+03  0.27588395810E+03  0.00000000000E+00 0.  1.
          2   -1    0    0  502    0  0.00000000000E+00 -0.00000000000E+00 -0.16371217901E+03  0.16371217901E+03  0.00000000000E+00 0. -1.
         23    2    1    2    0    0  0.10475826381E+02 -0.14234273934E+02  0.18209525161E+03  0.20381379851E+03  0.89827759149E+02 0.  0.
         24    2    1    2    0    0 -0.29070877502E+02  0.86784275846E+02 -0.96863608428E+02  0.15618931360E+03  0.81461135474E+02 0.  0.
        -13    1    4    4    0    0  0.10707664815E+02  0.66863912984E+02 -0.26035350332E+02  0.72548441832E+02  0.00000000000E+00 0.  1.
         14    1    4    4    0    0 -0.39778542317E+02  0.19920362862E+02 -0.70828258096E+02  0.83640871769E+02  0.00000000000E+00 0. -1.
        -13    1    3    3    0    0  0.37155797369E+02 -0.24394669252E+02  0.16422305779E+03  0.17013190728E+03  0.00000000000E+00 0.  1.
         13    1    3    3    0    0 -0.26679970988E+02  0.10160395317E+02  0.17872193816E+02  0.33681891229E+02  0.00000000000E+00 0. -1.
         21    1    1    2  502  501  0.18595051121E+02 -0.72550001912E+02  0.26940135912E+02  0.79593024987E+02  0.00000000000E+00 0.  1.
<scales pt_clust_5="13000.00000" pt_clust_6="13000.00000" pt_clust_7="13000.00000" pt_clust_8="13000.00000" pt_clust_9="74.89512"></scales>
<clustering>
<clus scale="   74.895">  1  9  2 -1</clus>
<clus scale="   81.461">  5  6 -1 -1</clus>
<clus scale="   89.828">  7  8 -1 -1</clus>
<clus scale="  115.283">  2  5  1 -1</clus>
<clus scale="  115.283">  2  5  1 -1</clus>
</clustering>
</event>
<event>
 9    2  0.3402837E-005  0.9668617E+02  0.7546771E-02  0.1292551E+00
         -1   -1    0    0    0  501 -0.00000000000E+00  0.00000000000E+00  0.57394001545E+02  0.57394001545E+02  0.00000000000E+00 0.  1.
          2   -1    0    0  502    0  0.00000000000E+00 -0.00000000000E+00 -0.32843284934E+03  0.32843284934E+03  0.00000000000E+00 0. -1.
         24    2    1    2    0    0  0.10701612827E+02 -0.34084631172E+02 -0.16417722353E+02  0.91515697029E+02  0.82639546201E+02 0.  0.
         23    2    1    2    0    0  0.22611799277E+02  0.22943603204E+02 -0.23421322447E+03  0.25368618183E+03  0.91995336505E+02 0.  0.
        -11    1    3    3    0    0  0.51262487974E+01 -0.53079162974E+02  0.14082667993E+02  0.55154306328E+02  0.00000000000E+00 0.  1.
         12    1    3    3    0    0  0.55753640297E+01  0.18994531802E+02 -0.30500390346E+02  0.36361390701E+02  0.00000000000E+00 0. -1.
        -13    1    4    4    0    0  0.41025966266E+00 -0.31432338487E+02 -0.13301292336E+03  0.13667698415E+03  0.00000000000E+00 0.  1.
         13    1    4    4    0    0  0.22201539614E+02  0.54375941691E+02 -0.10120030111E+03  0.11700919767E+03  0.00000000000E+00 0. -1.
         21    1    1    2  502  501 -0.33313412104E+02  0.11141027968E+02 -0.20407900970E+02  0.40624972027E+02  0.00000000000E+00 0.  1.
<scales pt_clust_5="13000.00000" pt_clust_6="13000.00000" pt_clust_7="13000.00000" pt_clust_8="13000.00000" pt_clust_9="35.12700"></scales>
<clustering>
<clus scale="   35.127">  1  9  2 -1</clus>
<clus scale="   82.640">  5  6 -1 -1</clus>
<clus scale="   87.831">  1  5  2 -1</clus>
<clus scale="   91.995">  7  8 -1 -1</clus>
<clus scale="   96.686">  2  5  1 -1</clus>
</clustering>
</event>
<event>
 9    2  0.4068083E-005  0.1154340E+03  0.7546771E-02  0.1254968E+00
         -1   -1    0    0    0  501 -0.00000000000E+00  0.00000000000E+00  0.21994862132E+03  0.21994862132E+03  0.00000000000E+00 0.  1.
          2   -1    0    0  502    0  0.00000000000E+00 -0.00000000000E+00 -0.30283982635E+03  0.30283982635E+03  0.00000000000E+00 0. -1.
         23    2    1    2    0    0  0.40831208534E+02  0.55039283370E+02  0.18095890043E+03  0.21441513540E+03  0.92364583779E+02 0.  0.
         24    2    1    2    0    0 -0.30728938140E+02 -0.77407301763E+02 -0.25841570507E+03  0.28323535648E+03  0.80668658896E+02 0.  0.
        -13    1    4    4    0    0 -0.35509971060E+02 -0.14128667608E+01 -0.49979445245E+02  0.61326170467E+02  0.00000000000E+00 0.  1.
         14    1    4    4    0    0  0.47810329194E+01 -0.75994435002E+02 -0.20843625983E+03  0.22190918601E+03  0.00000000000E+00 0. -1.
        -11    1    3    3    0    0 -0.11232330746E+02  0.51971692668E+02  0.13427438567E+03  0.14441894869E+03  0.00000000000E+00 0.  1.
         11    1    3    3    0    0  0.52063539280E+02  0.30675907016E+01  0.46684514762E+02  0.69996186708E+02  0.00000000000E+00 0. -1.
         21    1    1    2  502  501 -0.10102270393E+02  0.22368018393E+02 -0.54344003848E+01  0.25137955794E+02  0.00000000000E+00 0.  1.
<scales pt_clust_5="13000.00000" pt_clust_6="13000.00000" pt_clust_7="13000.00000" pt_clust_8="13000.00000" pt_clust_9="24.54351"></scales>
<clustering>
<clus scale="   24.544">  2  9  1 -1</clus>
<clus scale="   80.669">  5  6 -1 -1</clus>
<clus scale="   92.365">  7  8 -1 -1</clus>
<clus scale="  106.307">  2  5  1 -1</clus>
<clus scale="   24.544">  2  5  1 -1</clus>
</clustering>
</event>
<event>
 9    2  0.3402837E-005  0.9494568E+02  0.7546771E-02  0.1297691E+00
          2   -1    0    0  502    0  0.00000000000E+00  0.00000000000E+00  0.53366820066E+03  0.53366820066E+03  0.00000000000E+00 0. -1.
         -1   -1    0    0    0  501 -0.00000000000E+00 -0.00000000000E+00 -0.46746082283E+02  0.46746082283E+02  0.00000000000E+00 0.  1.
         24    2    1    2    0    0 -0.61414588104E+01  0.11592943059E+01  0.99649605548E+01  0.81445922347E+02  0.80592036508E+02 0.  0.
         23    2    1    2    0    0  0.57437908003E+01  0.27634097143E+02  0.44791983652E+03  0.45807357414E+03  0.91665614699E+02 0.  0.
        -11    1    3    3    0    0 -0.16881345445E+02 -0.36156791924E+02  0.14267271986E+02  0.42377452450E+02  0.00000000000E+00 0.  1.
         12    1    3    3    0    0  0.10739886634E+02  0.37316086230E+02 -0.43023114310E+01  0.39068469897E+02  0.00000000000E+00 0. -1.
        -11    1    4    4    0    0 -0.16186773732E+02 -0.29547540214E+02  0.19154496573E+03  0.19448532766E+03  0.00000000000E+00 0.  1.
         11    1    4    4    0    0  0.21930564532E+02  0.57181637358E+02  0.25637487079E+03  0.26358824648E+03  0.00000000000E+00 0. -1.
         21    1    1    2  502  501  0.39766801015E+00 -0.28793391449E+02  0.29037321300E+02  0.40894786456E+02  0.00000000000E+00 0.  1.
<scales pt_clust_5="13000.00000" pt_clust_6="13000.00000" pt_clust_7="13000.00000" pt_clust_8="13000.00000" pt_clust_9="28.79614"></scales>
<clustering>
<clus scale="   28.796">  2  9  1 -1</clus>
<clus scale="   80.592">  5  6 -1 -1</clus>
<clus scale="   84.304">  2  5  1 -1</clus>
<clus scale="   91.666">  7  8 -1 -1</clus>
<clus scale="   94.946">  1  5  2 -1</clus>
</clustering>
</event>
<event>
 9    2  0.3402837E-005  0.1285998E+03  0.7546771E-02  0.1232521E+00
          2   -1    0    0  502    0  0.00000000000E+00  0.00000000000E+00  0.31483053635E+03  0.31483053635E+03  0.00000000000E+00 0. -1.
         -1   -1    0    0    0  501 -0.00000000000E+00 -0.00000000000E+00 -0.65068891829E+02  0.65068891829E+02  0.00000000000E+00 0.  1.
         24    2    1    2    0    0 -0.86917935128E+02  0.10213823610E+01  0.84353721129E+02  0.14551918935E+03  0.80650564360E+02 0.  0.
         23    2    1    2    0    0  0.92291808418E+02 -0.24351059537E+02  0.10358679704E+03  0.16808541238E+03  0.91715480325E+02 0.  0.
        -11    1    3    3    0    0 -0.45049782219E+02  0.48821732053E+01 -0.61466868245E+01  0.45728549639E+02  0.00000000000E+00 0.  1.
         12    1    3    3    0    0 -0.41868152910E+02 -0.38607908442E+01  0.90500407954E+02  0.99790639710E+02  0.00000000000E+00 0. -1.
        -13    1    4    4    0    0  0.63961585242E+02  0.85147156977E+00  0.11224394907E+03  0.12919177022E+03  0.00000000000E+00 0. -1.
         13    1    4    4    0    0  0.28330223176E+02 -0.25202531106E+02 -0.86571520215E+01  0.38893642160E+02  0.00000000000E+00 0.  1.
         21    1    1    2  502  501 -0.53738732900E+01  0.23329677175E+02  0.61821126344E+02  0.66294826447E+02  0.00000000000E+00 0.  1.
<scales pt_clust_5="13000.00000" pt_clust_6="13000.00000" pt_clust_7="13000.00000" pt_clust_8="13000.00000" pt_clust_9="23.94060"></scales>
<clustering>
<clus scale="   23.941">  1  9  2 -1</clus>
<clus scale="   80.651">  5  6 -1 -1</clus>
<clus scale="   91.715">  7  8 -1 -1</clus>
<clus scale="  120.957">  2  5  1 -1</clus>
<clus scale="   23.941">  1  5  2 -1</clus>
</clustering>
</event>
<event>
 9    2  0.6317386E-005  0.9596049E+02  0.7546771E-02  0.1298484E+00
          2   -1    0    0  502    0  0.00000000000E+00  0.00000000000E+00  0.75261470336E+03  0.75261470336E+03  0.00000000000E+00 0. -1.
         -1   -1    0    0    0  501 -0.00000000000E+00 -0.00000000000E+00 -0.11535220386E+03  0.11535220386E+03  0.00000000000E+00 0.  1.
         23    2    1    2    0    0 -0.34891640429E+02 -0.39129443592E+02 -0.76383799259E+02  0.13032093446E+03  0.91654357469E+02 0.  0.
         24    2    1    2    0    0  0.26019098817E+02  0.10366868077E+02  0.70000643823E+03  0.70459973938E+03  0.75281562941E+02 0.  0.
        -11    1    4    4    0    0  0.61477058581E+01  0.22586398037E+02  0.63682877867E+02  0.67848718463E+02  0.00000000000E+00 0.  1.
         12    1    4    4    0    0  0.19871392959E+02 -0.12219529960E+02  0.63632356036E+03  0.63675102092E+03  0.00000000000E+00 0. -1.
        -13    1    3    3    0    0 -0.27516536752E+02  0.27292706599E+02 -0.27608446649E+02  0.47584429750E+02  0.00000000000E+00 0.  1.
         13    1    3    3    0    0 -0.73751036763E+01 -0.66422150190E+02 -0.48775352610E+02  0.82736504715E+02  0.00000000000E+00 0. -1.
         21    1    1    2  502  501  0.88725416118E+01  0.28762575515E+02  0.13639860523E+02  0.33046233370E+02  0.00000000000E+00 0. -1.
<scales pt_clust_5="13000.00000" pt_clust_6="13000.00000" pt_clust_7="13000.00000" pt_clust_8="13000.00000" pt_clust_9="30.09996"></scales>
<clustering>
<clus scale="   30.100">  2  9  1 -1</clus>
<clus scale="   75.282">  5  6 -1 -1</clus>
<clus scale="   80.469">  1  5  2 -1</clus>
<clus scale="   91.654">  7  8 -1 -1</clus>
<clus scale="   80.469">  1  5  2 -1</clus>
</clustering>
</event>
<event>
 9    2  0.3402837E-005  0.4711508E+03  0.7546771E-02  0.1021813E+00
         -1   -1    0    0    0  501 -0.00000000000E+00  0.00000000000E+00  0.46725344027E+03  0.46725344027E+03  0.00000000000E+00 0.  1.
          2   -1    0    0  502    0  0.00000000000E+00 -0.00000000000E+00 -0.92249425306E+03  0.92249425306E+03  0.00000000000E+00 0. -1.
         23    2    1    2    0    0  0.43605388838E+03  0.13502919178E+03 -0.98653401511E+02  0.47620309637E+03  0.93064596708E+02 0.  0.
         24    2    1    2    0    0 -0.36472093059E+03 -0.30831465323E+03 -0.48615925791E+03  0.68571767701E+03  0.76017273740E+02 0.  0.
        -11    1    4    4    0    0 -0.32907968097E+02 -0.12497132464E+02 -0.61977903179E+02  0.71276736503E+02  0.00000000000E+00 0.  1.
         12    1    4    4    0    0 -0.33181296250E+03 -0.29581752076E+03 -0.42418135473E+03  0.61444094051E+03  0.00000000000E+00 0. -1.
        -11    1    3    3    0    0  0.76634609079E+02  0.32919550814E+02 -0.55256108154E+02  0.10004897612E+03  0.00000000000E+00 0. -1.
         11    1    3    3    0    0  0.35941927930E+03  0.10210964097E+03 -0.43397293357E+02  0.37615412025E+03  0.00000000000E+00 0.  1.
         21    1    1    2  502  501 -0.71332957783E+02  0.17328546144E+03  0.12957184663E+03  0.22782691995E+03  0.00000000000E+00 0.  1.
<scales pt_clust_5="13000.00000" pt_clust_6="13000.00000" pt_clust_7="13000.00000" pt_clust_8="13000.00000" pt_clust_9="187.39328"></scales>
<clustering>
<clus scale="   76.017">  5  6 -1 -1</clus>
<clus scale="   93.065">  7  8 -1 -1</clus>
<clus scale="  187.393">  1  9  2 -1</clus>
<clus scale="  468.082">  2  5  1 -1</clus>
<clus scale="  468.082">  2  5  1 -1</clus>
</clustering>
</event>
<event>
 9    2  0.3402837E-005  0.3400058E+03  0.7546771E-02  0.1098039E+00
          2   -1    0    0  502    0  0.00000000000E+00  0.00000000000E+00  0.85287175405E+03  0.85287175405E+03  0.00000000000E+00 0. -1.
         -1   -1    0    0    0  501 -0.00000000000E+00 -0.00000000000E+00 -0.32883989090E+03  0.32883989090E+03  0.00000000000E+00 0.  1.
         23    2    1    2    0    0  0.26612784154E+03 -0.15234301300E+03 -0.99760993018E+02  0.33497572932E+03  0.90686613407E+02 0.  0.
         24    2    1    2    0    0  0.81540018821E+02 -0.92611044052E+02  0.17040597460E+03  0.22509687602E+03  0.80030164707E+02 0.  0.
        -13    1    4    4    0    0  0.80601388295E+02 -0.36123387860E+02  0.12251334473E+03  0.15103311750E+03  0.00000000000E+00 0.  1.
         14    1    4    4    0    0  0.93863052556E+00 -0.56487656192E+02  0.47892629873E+02  0.74063758516E+02  0.00000000000E+00 0. -1.
        -13    1    3    3    0    0  0.33711033436E+02  0.59740965931E+01 -0.29313328932E+02  0.45070997975E+02  0.00000000000E+00 0.  1.
         13    1    3    3    0    0  0.23241680811E+03 -0.15831710960E+03 -0.70447664086E+02  0.28990473135E+03  0.00000000000E+00 0. -1.
         21    1    1    2  502  501 -0.34766786037E+03  0.24495405706E+03  0.45338688157E+03  0.62163903962E+03  0.00000000000E+00 0.  1.
<scales pt_clust_5="13000.00000" pt_clust_6="13000.00000" pt_clust_7="13000.00000" pt_clust_8="13000.00000" pt_clust_9="327.68870"></scales>
<clustering>
<clus scale="   80.030">  5  6 -1 -1</clus>
<clus scale="   90.687">  7  8 -1 -1</clus>
<clus scale="  147.073">  1  5  2 -1</clus>
<clus scale="  327.689">  1  9  2 -1</clus>
<clus scale="  147.073">  1  5  2 -1</clus>
</clustering>
</event>
<event>
 9    2  0.3402837E-005  0.1791916E+03  0.7546771E-02  0.1170438E+00
          2   -1    0    0  502    0  0.00000000000E+00  0.00000000000E+00  0.18464728369E+03  0.18464728369E+03  0.00000000000E+00 0. -1.
         -1   -1    0    0    0  501 -0.00000000000E+00 -0.00000000000E+00 -0.27107223721E+03  0.27107223721E+03  0.00000000000E+00 0.  1.
         24    2    1    2    0    0 -0.14651872206E+03 -0.51281978567E+01 -0.47911066272E+02  0.17394257166E+03  0.80414635713E+02 0.  0.
         23    2    1    2    0    0  0.14866943303E+03  0.54163161541E+02  0.40199200121E+02  0.18901487001E+03  0.95259629485E+02 0.  0.
        -11    1    3    3    0    0 -0.12871505793E+03  0.10075120733E+02 -0.65391998531E+02  0.14472452338E+03  0.00000000000E+00 0.  1.
         12    1    3    3    0    0 -0.17803664129E+02 -0.15203318590E+02  0.17480932259E+02  0.29218048278E+02  0.00000000000E+00 0. -1.
        -13    1    4    4    0    0  0.20735839126E+02  0.73060188035E+01 -0.28849796734E+02  0.36272078884E+02  0.00000000000E+00 0.  1.
         13    1    4    4    0    0  0.12793359390E+03  0.46857142737E+02  0.69048996855E+02  0.15274279113E+03  0.00000000000E+00 0. -1.
         21    1    1    2  502  501 -0.21507109718E+01 -0.49034963684E+02 -0.78713087362E+02  0.92762079231E+02  0.00000000000E+00 0. -1.
<scales pt_clust_5="13000.00000" pt_clust_6="13000.00000" pt_clust_7="13000.00000" pt_clust_8="13000.00000" pt_clust_9="49.08211"></scales>
<clustering>
<clus scale="   49.082">  2  9  1 -1</clus>
<clus scale="   80.415">  5  6 -1 -1</clus>
<clus scale="   95.260">  7  8 -1 -1</clus>
<clus scale="  171.761">  2  5  1 -1</clus>
<clus scale="  179.192">  1  5  2 -1</clus>
</clustering>
</event>
<event>
 9    2  0.3402837E-005  0.2219427E+03  0.7546771E-02  0.1165134E+00
         -1   -1    0    0    0  501 -0.00000000000E+00  0.00000000000E+00  0.41284388642E+03  0.41284388642E+03  0.00000000000E+00 0.  1.
          2   -1    0    0  502    0  0.00000000000E+00 -0.00000000000E+00 -0.23978916319E+03  0.23978916319E+03  0.00000000000E+00 0. -1.
         23    2    1    2    0    0  0.47855968061E+02  0.14630580591E+02  0.28908416998E+02  0.10611825350E+03  0.89000784185E+02 0.  0.
         24    2    1    2    0    0  0.12901424187E+03 -0.13476865554E+03  0.23851752135E+03  0.31280096585E+03  0.78400070932E+02 0.  0.
        -11    1    4    4    0    0  0.12255108796E+03 -0.14517633895E+03  0.22122386556E+03  0.29160750547E+03  0.00000000000E+00 0.  1.
         12    1    4    4    0    0  0.64631539103E+01  0.10407683407E+02  0.17293655787E+02  0.21193460379E+02  0.00000000000E+00 0. -1.
        -13    1    3    3    0    0  0.26055728474E+02 -0.60758498616E+01  0.58254094117E+02  0.64104262099E+02  0.00000000000E+00 0.  1.
         13    1    3    3    0    0  0.21800239587E+02  0.20706430453E+02 -0.29345677119E+02  0.42013991404E+02  0.00000000000E+00 0. -1.
         21    1    1    2  502  501 -0.17687020993E+03  0.12013807495E+03 -0.94371215111E+02  0.23371383026E+03  0.00000000000E+00 0. -1.
<scales pt_clust_5="13000.00000" pt_clust_6="13000.00000" pt_clust_7="13000.00000" pt_clust_8="13000.00000" pt_clust_9="207.63432"></scales>
<clustering>
<clus scale="   78.400">  5  6 -1 -1</clus>
<clus scale="   89.001">  7  8 -1 -1</clus>
<clus scale="  102.105">  1  7  2 -1</clus>
<clus scale="  207.634">  2  9  1 -1</clus>
<clus scale="  207.634">  2  5  1 -1</clus>
</clustering>
</event>
<event>
 9    2  0.3402837E-005  0.1041413E+03  0.7546771E-02  0.1279142E+00
          2   -1    0    0  502    0  0.00000000000E+00  0.00000000000E+00  0.11046132975E+04  0.11046132975E+04  0.00000000000E+00 0. -1.
         -1   -1    0    0    0  501 -0.00000000000E+00 -0.00000000000E+00 -0.48029870282E+02  0.48029870282E+02  0.00000000000E+00 0.  1.
         23    2    1    2    0    0 -0.29541695010E+02  0.83667679819E+01  0.11546661693E+03  0.15030278921E+03  0.91190318938E+02 0.  0.
         24    2    1    2    0    0  0.44574819013E+02 -0.28510205737E+02  0.96398242602E+03  0.96836113064E+03  0.75242377253E+02 0.  0.
        -13    1    4    4    0    0  0.21262522975E+02  0.11345579208E+02  0.90338930293E+02  0.93498338902E+02  0.00000000000E+00 0.  1.
         14    1    4    4    0    0  0.23312296038E+02 -0.39855784944E+02  0.87364349573E+03  0.87486279174E+03  0.00000000000E+00 0. -1.
        -11    1    3    3    0    0 -0.17648566907E+02 -0.41312560787E+02  0.59034254328E+02  0.74183844445E+02  0.00000000000E+00 0.  1.
         11    1    3    3    0    0 -0.11893128103E+02  0.49679328769E+02  0.56432362600E+02  0.76118944761E+02  0.00000000000E+00 0. -1.
         21    1    1    2  502  501 -0.15033124003E+02  0.20143437755E+02 -0.22865615781E+02  0.33979247886E+02  0.00000000000E+00 0.  1.
<scales pt_clust_5="13000.00000" pt_clust_6="13000.00000" pt_clust_7="13000.00000" pt_clust_8="13000.00000" pt_clust_9="25.13470"></scales>
<clustering>
<clus scale="   25.135">  2  9  1 -1</clus>
<clus scale="   75.242">  5  6 -1 -1</clus>
<clus scale="   90.505">  1  5  2 -1</clus>
<clus scale="   91.190">  7  8 -1 -1</clus>
<clus scale="   90.505">  1  5  2 -1</clus>
</clustering>
</event>
<event>
 9    2  0.3402837E-005  0.1316586E+03  0.7546771E-02  0.1227922E+00
         -1   -1    0    0    0  501 -0.00000000000E+00  0.00000000000E+00  0.16433907020E+03  0.16433907020E+03  0.00000000000E+00 0.  1.
          2   -1    0    0  502    0  0.00000000000E+00 -0.00000000000E+00 -0.28728830137E+03  0.28728830137E+03  0.00000000000E+00 0. -1.
         24    2    1    2    0    0  0.94744983379E+02 -0.60707346490E+02  0.92238102727E+02  0.16559120020E+03  0.79060636191E+02 0.  0.
         23    2    1    2    0    0 -0.86080574347E+02  0.36054685932E+02 -0.22349537391E+03  0.25861630293E+03  0.90677474195E+02 0.  0.
        -13    1    3    3    0    0  0.37645549550E+02 -0.42096960104E+02  0.89053882790E+02  0.10545110474E+03  0.00000000000E+00 0.  1.
         14    1    3    3    0    0  0.57099433830E+02 -0.18610386385E+02  0.31842199367E+01  0.60140095458E+02  0.00000000000E+00 0. -1.
        -13    1    4    4    0    0 -0.56607790221E+02 -0.16586270833E+02 -0.59100712720E+02  0.83501140937E+02  0.00000000000E+00 0.  1.
         13    1    4    4    0    0 -0.29472784125E+02  0.52640956765E+02 -0.16439466119E+03  0.17511516199E+03  0.00000000000E+00 0. -1.
         21    1    1    2  502  501 -0.86644090329E+01  0.24652660558E+02  0.83080400162E+01  0.27419868442E+02  0.00000000000E+00 0.  1.
<scales pt_clust_5="13000.00000" pt_clust_6="13000.00000" pt_clust_7="13000.00000" pt_clust_8="13000.00000" pt_clust_9="26.13093"></scales>
<clustering>
<clus scale="   26.131">  1  9  2 -1</clus>
<clus scale="   79.061">  5  6 -1 -1</clus>
<clus scale="   90.677">  7  8 -1 -1</clus>
<clus scale="  123.944">  1  5  2 -1</clus>
<clus scale="  131.659">  2  5  1 -1</clus>
</clustering>
</event>
<event>
 9    2  0.3402837E-005  0.1073598E+03  0.7546771E-02  0.1269775E+00
          2   -1    0    0  502    0  0.00000000000E+00  0.00000000000E+00  0.18151676094E+03  0.18151676094E+03  0.00000000000E+00 0. -1.
         -1   -1    0    0    0  501 -0.00000000000E+00 -0.00000000000E+00 -0.41526562412E+03  0.41526562412E+03  0.00000000000E+00 0.  1.
         23    2    1    2    0    0 -0.39740178818E+02 -0.70474382546E+02 -0.24405243070E+03  0.27305673822E+03  0.91937331644E+02 0.  0.
         24    2    1    2    0    0  0.19324728482E+02  0.50482375117E+02  0.15104461793E+03  0.18011327187E+03  0.81880393089E+02 0.  0.
        -11    1    4    4    0    0  0.10651685226E+01  0.30536949909E+02  0.42510685258E+01  0.30849821351E+02  0.00000000000E+00 0.  1.
         12    1    4    4    0    0  0.18259559959E+02  0.19945425207E+02  0.14679354940E+03  0.14926345052E+03  0.00000000000E+00 0. -1.
        -11    1    3    3    0    0 -0.48222081182E+02 -0.13734266694E+02 -0.18097180206E+03  0.18778922317E+03  0.00000000000E+00 0.  1.
         11    1    3    3    0    0  0.84819023639E+01 -0.56740115852E+02 -0.63080628636E+02  0.85267515055E+02  0.00000000000E+00 0. -1.
         21    1    1    2  502  501  0.20415450336E+02  0.19992007429E+02 -0.14074105041E+03  0.14361237497E+03  0.00000000000E+00 0.  1.
<scales pt_clust_5="13000.00000" pt_clust_6="13000.00000" pt_clust_7="13000.00000" pt_clust_8="13000.00000" pt_clust_9="28.57396"></scales>
<clustering>
<clus scale="   28.574">  2  9  1 -1</clus>
<clus scale="   81.880">  5  6 -1 -1</clus>
<clus scale="   91.937">  7  8 -1 -1</clus>
<clus scale="   98.884">  1  5  2 -1</clus>
<clus scale="   98.884">  1  5  2 -1</clus>
</clustering>
</event>
<event>
 9    2  0.3402837E-005  0.9681574E+02  0.7546771E-02  0.1291035E+00
          2   -1    0    0  502    0  0.00000000000E+00  0.00000000000E+00  0.65935896007E+03  0.65935896007E+03  0.00000000000E+00 0. -1.
         -1   -1    0    0    0  501 -0.00000000000E+00 -0.00000000000E+00 -0.28725431163E+02  0.28725431163E+02  0.00000000000E+00 0.  1.
         24    2    1    2    0    0  0.43179822455E+02 -0.17894494119E+02  0.17542972599E+03  0.19964702336E+03  0.83058023037E+02 0.  0.
         23    2    1    2    0    0 -0.13559860317E+02  0.30049357505E+02  0.44431968115E+03  0.45462099657E+03  0.90407067052E+02 0.  0.
        -11    1    3    3    0    0  0.15210727871E+02 -0.33672891440E+02  0.15964404830E+03  0.16386412669E+03  0.00000000000E+00 0.  1.
         12    1    3    3    0    0  0.27969094584E+02  0.15778397321E+02  0.15785677688E+02  0.35782896668E+02  0.00000000000E+00 0. -1.
        -11    1    4    4    0    0  0.28136862096E+02  0.43695476970E+02  0.26105903411E+03  0.26618188708E+03  0.00000000000E+00 0. -1.
         11    1    4    4    0    0 -0.41696722413E+02 -0.13646119465E+02  0.18326064703E+03  0.18843910949E+03  0.00000000000E+00 0.  1.
         21    1    1    2  502  501 -0.29619962138E+02 -0.12154863386E+02  0.10884121777E+02  0.33816371299E+02  0.00000000000E+00 0.  1.
<scales pt_clust_5="13000.00000" pt_clust_6="13000.00000" pt_clust_7="13000.00000" pt_clust_8="13000.00000" pt_clust_9="32.01692"></scales>
<clustering>
<clus scale="   32.017">  2  9  1 -1</clus>
<clus scale="   83.058">  5  6 -1 -1</clus>
<clus scale="   89.992">  2  5  1 -1</clus>
<clus scale="   90.407">  7  8 -1 -1</clus>
<clus scale="   96.816">  1  5  2 -1</clus>
</clustering>
</event>
<event>
 9    2  0.3402837E-005  0.1213518E+03  0.7546771E-02  0.1241854E+00
         -1   -1    0    0    0  501 -0.00000000000E+00  0.00000000000E+00  0.23363370617E+03  0.23363370617E+03  0.00000000000E+00 0.  1.
          2   -1    0    0  502    0  0.00000000000E+00 -0.00000000000E+00 -0.13703871461E+03  0.13703871461E+03  0.00000000000E+00 0. -1.
         24    2    1    2    0    0 -0.33431679579E+01 -0.80425417009E+02  0.66566602790E+02  0.14019507149E+03  0.93510004757E+02 0.  0.
         23    2    1    2    0    0 -0.38683636902E+02  0.69360765291E+02 -0.57029288224E+02  0.13317515009E+03  0.90420912191E+02 0.  0.
        -13    1    3    3    0    0 -0.92365908847E+01 -0.86382688553E+02  0.15255729772E+02  0.88204426100E+02  0.00000000000E+00 0.  1.
         14    1    3    3    0    0  0.58934229268E+01  0.59572715439E+01  0.51310873018E+02  0.51990645389E+02  0.00000000000E+00 0. -1.
        -13    1    4    4    0    0 -0.43361777365E+02 -0.35828782196E+01 -0.57500418776E+01  0.43887854062E+02  0.00000000000E+00 0.  1.
         13    1    4    4    0    0  0.46781404631E+01  0.72943643511E+02 -0.51279246347E+02  0.89287296032E+02  0.00000000000E+00 0. -1.
         21    1    1    2  502  501  0.42026804860E+02  0.11064651718E+02  0.87057676992E+02  0.97302199192E+02  0.00000000000E+00 0.  1.
<scales pt_clust_5="13000.00000" pt_clust_6="13000.00000" pt_clust_7="13000.00000" pt_clust_8="13000.00000" pt_clust_9="43.45893"></scales>
<clustering>
<clus scale="   43.459">  1  9  2 -1</clus>
<clus scale="   90.421">  7  8 -1 -1</clus>
<clus scale="   93.510">  5  6 -1 -1</clus>
<clus scale="  118.988">  2  7  1 -1</clus>
<clus scale="  118.988">  2  5  1 -1</clus>
</clustering>
</event>
<event>
 9    2  0.3402837E-005  0.1925481E+03  0.7546771E-02  0.1156999E+00
          2   -1    0    0  502    0  0.00000000000E+00  0.00000000000E+00  0.67981781233E+03  0.67981781233E+03  0.00000000000E+00 0. -1.
         -1   -1    0    0    0  501 -0.00000000000E+00 -0.00000000000E+00 -0.99306636994E+02  0.99306636994E+02  0.00000000000E+00 0.  1.
         24    2    1    2    0    0 -0.18648876419E+03 -0.30456606186E+02  0.10534753331E+03  0.23047321101E+03  0.79461526463E+02 0.  0.
         23    2    1    2    0    0  0.14971534289E+03  0.76177034432E+02  0.44276609761E+03  0.48162704151E+03  0.87779071807E+02 0.  0.
        -11    1    3    3    0    0 -0.12770719995E+03 -0.94387816456E+01  0.28007518123E+02  0.13108257165E+03  0.00000000000E+00 0.  1.
         12    1    3    3    0    0 -0.58781564239E+02 -0.21017824540E+02  0.77340015192E+02  0.99390639362E+02  0.00000000000E+00 0. -1.
        -11    1    4    4    0    0  0.10905709870E+03  0.73699646523E+01  0.26914873425E+03  0.29049751859E+03  0.00000000000E+00 0. -1.
         11    1    4    4    0    0  0.40658244185E+02  0.68807069780E+02  0.17361736335E+03  0.19112952292E+03  0.00000000000E+00 0.  1.
         21    1    1    2  502  501  0.36773421305E+02 -0.45720428246E+02  0.32397544410E+02  0.67024196804E+02  0.00000000000E+00 0. -1.
<scales pt_clust_5="13000.00000" pt_clust_6="13000.00000" pt_clust_7="13000.00000" pt_clust_8="13000.00000" pt_clust_9="58.67403"></scales>
<clustering>
<clus scale="   58.674">  2  9  1 -1</clus>
<clus scale="   79.462">  5  6 -1 -1</clus>
<clus scale="   87.779">  7  8 -1 -1</clus>
<clus scale="  188.901">  2  5  1 -1</clus>
<clus scale="  192.548">  1  5  2 -1</clus>
</clustering>
</event>
<event>
 9    2  0.3402837E-005  0.1419386E+03  0.7546771E-02  0.1212577E+00
          2   -1    0    0  502    0  0.00000000000E+00  0.00000000000E+00  0.13001009510E+04  0.13001009510E+04  0.00000000000E+00 0. -1.
         -1   -1    0    0    0  501 -0.00000000000E+00 -0.00000000000E+00 -0.55013325770E+02  0.55013325770E+02  0.00000000000E+00 0.  1.
         23    2    1    2    0    0  0.63594055103E+02 -0.27378287145E+02  0.44728924333E+02  0.12122827216E+03  0.88892310390E+02 0.  0.
         24    2    1    2    0    0 -0.73674976507E+02  0.89897289237E+02  0.11317962215E+04  0.11405529227E+04  0.79929704615E+02 0.  0.
        -11    1    4    4    0    0 -0.39892375041E+02  0.41694204253E+02  0.24092103893E+03  0.24773525235E+03  0.00000000000E+00 0.  1.
         12    1    4    4    0    0 -0.33782601466E+02  0.48203084984E+02  0.89087518256E+03  0.89281767034E+03  0.00000000000E+00 0. -1.
        -13    1    3    3    0    0  0.40059609099E+02  0.13883789379E+02  0.58059026592E+02  0.71891463036E+02  0.00000000000E+00 0. -1.
         13    1    3    3    0    0  0.23534446004E+02 -0.41262076525E+02 -0.13330102259E+02  0.49336809119E+02  0.00000000000E+00 0.  1.
         21    1    1    2  502  501  0.10080921404E+02 -0.62519002091E+02  0.68562479370E+02  0.93333081896E+02  0.00000000000E+00 0.  1.
<scales pt_clust_5="13000.00000" pt_clust_6="13000.00000" pt_clust_7="13000.00000" pt_clust_8="13000.00000" pt_clust_9="63.32654"></scales>
<clustering>
<clus scale="   63.327">  2  9  1 -1</clus>
<clus scale="   79.930">  5  6 -1 -1</clus>
<clus scale="   88.892">  7  8 -1 -1</clus>
<clus scale="  136.505">  1  5  2 -1</clus>
<clus scale="  136.505">  1  5  2 -1</clus>
</clustering>
</event>
<event>
 9    2  0.3402837E-005  0.9407043E+02  0.7546771E-02  0.1299132E+00
          2   -1    0    0  502    0  0.00000000000E+00  0.00000000000E+00  0.10110746387E+03  0.10110746387E+03  0.00000000000E+00 0. -1.
         -1   -1    0    0    0  501 -0.00000000000E+00 -0.00000000000E+00 -0.25950310659E+03  0.25950310659E+03  0.00000000000E+00 0.  1.
         23    2    1    2    0    0  0.21845228862E+02  0.12810568363E+02 -0.14898981810E+03  0.17718047792E+03  0.92485843100E+02 0.  0.
         24    2    1    2    0    0 -0.15976001626E+02  0.65136559399E+01  0.64868893580E+02  0.10645862226E+03  0.82630530421E+02 0.  0.
        -13    1    4    4    0    0  0.20877987083E+02  0.20179635406E+02 -0.17710650010E+01  0.29090285337E+02  0.00000000000E+00 0.  1.
         14    1    4    4    0    0 -0.36853988709E+02 -0.13665979466E+02  0.66639958581E+02  0.77368336923E+02  0.00000000000E+00 0. -1.
        -13    1    3    3    0    0  0.40106996831E+02 -0.11104179340E+02 -0.22798894687E+02  0.47451697468E+02  0.00000000000E+00 0.  1.
         13    1    3    3    0    0 -0.18261767969E+02  0.23914747703E+02 -0.12619092341E+03  0.12972878045E+03  0.00000000000E+00 0. -1.
         21    1    1    2  502  501 -0.58692272362E+01 -0.19324224303E+02 -0.74274718204E+02  0.76971470283E+02  0.00000000000E+00 0. -1.
<scales pt_clust_5="13000.00000" pt_clust_6="13000.00000" pt_clust_7="13000.00000" pt_clust_8="13000.00000" pt_clust_9="20.19588"></scales>
<clustering>
<clus scale="   20.196">  2  9  1 -1</clus>
<clus scale="   82.631">  5  6 -1 -1</clus>
<clus scale="   84.400">  1  5  2 -1</clus>
<clus scale="   92.486">  7  8 -1 -1</clus>
<clus scale="   84.400">  1  5  2 -1</clus>
</clustering>
</event>
<event>
 9    2  0.3402837E-005  0.9484757E+02  0.7546771E-02  0.1297252E+00
          2   -1    0    0  502    0  0.00000000000E+00  0.00000000000E+00  0.52709606684E+02  0.52709606684E+02  0.00000000000E+00 0. -1.
         -1   -1    0    0    0  501 -0.00000000000E+00 -0.00000000000E+00 -0.41255705993E+03  0.41255705993E+03  0.00000000000E+00 0.  1.
         24    2    1    2    0    0  0.76907920335E+01  0.62633098089E+01 -0.28680427954E+03  0.29814360158E+03  0.80836471145E+02 0.  0.
         23    2    1    2    0    0 -0.17839647081E+02 -0.24242010329E+02 -0.48497279529E+01  0.95872949424E+02  0.90896504318E+02 0.  0.
        -13    1    3    3    0    0  0.24993122093E+02 -0.23973105606E+02 -0.65286732872E+02  0.73903473758E+02  0.00000000000E+00 0.  1.
         14    1    3    3    0    0 -0.17302330060E+02  0.30236415415E+02 -0.22151754667E+03  0.22424012782E+03  0.00000000000E+00 0. -1.
        -13    1    4    4    0    0  0.23252234237E+02  0.19884282380E+01 -0.32359219881E+02  0.39896608316E+02  0.00000000000E+00 0.  1.
         13    1    4    4    0    0 -0.41091881318E+02 -0.26230438567E+02  0.27509491928E+02  0.55976341107E+02  0.00000000000E+00 0. -1.
         21    1    1    2  502  501  0.10148855047E+02  0.17978700520E+02 -0.68193445757E+02  0.71250115617E+02  0.00000000000E+00 0.  1.
<scales pt_clust_5="13000.00000" pt_clust_6="13000.00000" pt_clust_7="13000.00000" pt_clust_8="13000.00000" pt_clust_9="20.64541"></scales>
<clustering>
<clus scale="   20.645">  2  9  1 -1</clus>
<clus scale="   80.836">  5  6 -1 -1</clus>
<clus scale="   85.255">  2  5  1 -1</clus>
<clus scale="   90.897">  7  8 -1 -1</clus>
<clus scale="   94.848">  1  5  2 -1</clus>
</clustering>
</event>
<event>
 9    2  0.3402837E-005  0.1715615E+03  0.7546771E-02  0.1176955E+00
          2   -1    0    0  502    0  0.00000000000E+00  0.00000000000E+00  0.42649775728E+03  0.42649775728E+03  0.00000000000E+00 0. -1.
         -1   -1    0    0    0  501 -0.00000000000E+00 -0.00000000000E+00 -0.58168050803E+03  0.58168050803E+03  0.00000000000E+00 0.  1.
         24    2    1    2    0    0 -0.11335611027E+03  0.58569137582E+02 -0.95241645452E+02  0.18002767964E+03  0.84018109924E+02 0.  0.
         23    2    1    2    0    0  0.15121935951E+03  0.12370446240E+02  0.35988987447E+03  0.40068818759E+03  0.89498487684E+02 0.  0.
        -13    1    3    3    0    0 -0.83027681110E+02  0.58669793712E+02 -0.26755507788E+02  0.10512657952E+03  0.00000000000E+00 0.  1.
         14    1    3    3    0    0 -0.30328429163E+02 -0.10065612952E+00 -0.68486137664E+02  0.74901100121E+02  0.00000000000E+00 0. -1.
        -11    1    4    4    0    0  0.85328782036E+02 -0.26586787567E+02  0.25940181112E+03  0.27436683096E+03  0.00000000000E+00 0. -1.
         11    1    4    4    0    0  0.65890577478E+02  0.38957233807E+02  0.10048806335E+03  0.12632135663E+03  0.00000000000E+00 0.  1.
         21    1    1    2  502  501 -0.37863249242E+02 -0.70939583822E+02 -0.41983097977E+03  0.42746239808E+03  0.00000000000E+00 0.  1.
<scales pt_clust_5="13000.00000" pt_clust_6="13000.00000" pt_clust_7="13000.00000" pt_clust_8="13000.00000" pt_clust_9="80.41175"></scales>
<clustering>
<clus scale="   80.412">  2  9  1 -1</clus>
<clus scale="   84.018">  5  6 -1 -1</clus>
<clus scale="   89.498">  7  8 -1 -1</clus>
<clus scale="  168.767">  2  5  1 -1</clus>
<clus scale="  171.561">  1  5  2 -1</clus>
</clustering>
</event>
<event>
 9    2  0.3402837E-005  0.9953459E+02  0.7546771E-02  0.1288553E+00
         -1   -1    0    0    0  501 -0.00000000000E+00  0.00000000000E+00  0.77528855926E+02  0.77528855926E+02  0.00000000000E+00 0.  1.
          2   -1    0    0  502    0  0.00000000000E+00 -0.00000000000E+00 -0.37337820799E+03  0.37337820799E+03  0.00000000000E+00 0. -1.
         23    2    1    2    0    0  0.13403006006E+02  0.81507369662E+02 -0.43153221184E+02  0.13072463484E+03  0.91671357448E+02 0.  0.
         24    2    1    2    0    0 -0.35656783419E+02 -0.10660239667E+02 -0.22504075145E+03  0.24093997550E+03  0.77612402791E+02 0.  0.
        -11    1    4    4    0    0 -0.53861415643E+02  0.12856676143E+02 -0.12853315864E+03  0.13995398918E+03  0.00000000000E+00 0.  1.
         12    1    4    4    0    0  0.18204632224E+02 -0.23516915810E+02 -0.96507592809E+02  0.10098598632E+03  0.00000000000E+00 0. -1.
        -13    1    3    3    0    0  0.24215016415E+02  0.40053958277E+02  0.22812871140E+02  0.52068355873E+02  0.00000000000E+00 0.  1.
         13    1    3    3    0    0 -0.10812010409E+02  0.41453411385E+02 -0.65966092324E+02  0.78656278968E+02  0.00000000000E+00 0. -1.
         21    1    1    2  502  501  0.22253777413E+02 -0.70847129995E+02 -0.27655379432E+02  0.79242453579E+02  0.00000000000E+00 0. -1.
<scales pt_clust_5="13000.00000" pt_clust_6="13000.00000" pt_clust_7="13000.00000" pt_clust_8="13000.00000" pt_clust_9="74.25999"></scales>
<clustering>
<clus scale="   74.260">  1  9  2 -1</clus>
<clus scale="   77.612">  5  6 -1 -1</clus>
<clus scale="   86.759">  2  5  1 -1</clus>
<clus scale="   91.671">  7  8 -1 -1</clus>
<clus scale="   86.759">  2  5  1 -1</clus>
</clustering>
</event>
<event>
 9    2  0.3402837E-005  0.1363959E+03  0.7546771E-02  0.1236748E+00
         -1   -1    0    0    0  501 -0.00000000000E+00  0.00000000000E+00  0.74218591981E+03  0.74218591981E+03  0.00000000000E+00 0.  1.
          2   -1    0    0  502    0  0.00000000000E+00 -0.00000000000E+00 -0.59139522329E+02  0.59139522329E+02  0.00000000000E+00 0. -1.
         24    2    1    2    0    0  0.24156779349E+02 -0.90639335286E+02  0.95812643053E+02  0.15612881701E+03  0.79981909480E+02 0.  0.
         23    2    1    2    0    0 -0.59953799490E+00 -0.20850429895E+02  0.72206261704E+02  0.11771370633E+03  0.90596206078E+02 0.  0.
        -11    1    3    3    0    0  0.42629185405E+02 -0.30836195721E+02  0.16595014341E+02  0.55168042523E+02  0.00000000000E+00 0.  1.
         12    1    3    3    0    0 -0.18472406056E+02 -0.59803139564E+02  0.79217628711E+02  0.10096077449E+03  0.00000000000E+00 0. -1.
        -11    1    4    4    0    0 -0.20476488613E+02  0.68081044323E+01  0.79927740664E+02  0.82789374920E+02  0.00000000000E+00 0.  1.
         11    1    4    4    0    0  0.19876950618E+02 -0.27658534328E+02 -0.77214789604E+01  0.34924331409E+02  0.00000000000E+00 0. -1.
         21    1    1    2  502  501 -0.23557241354E+02  0.11148976518E+03  0.51502749272E+03  0.52748291879E+03  0.00000000000E+00 0.  1.
<scales pt_clust_5="13000.00000" pt_clust_6="13000.00000" pt_clust_7="13000.00000" pt_clust_8="13000.00000" pt_clust_9="110.48413"></scales>
<clustering>
<clus scale="   79.982">  5  6 -1 -1</clus>
<clus scale="   90.596">  7  8 -1 -1</clus>
<clus scale="   92.967">  2  7  1 -1</clus>
<clus scale="  110.484">  1  9  2 -1</clus>
<clus scale="   92.967">  2  5  1 -1</clus>
</clustering>
</event>
<event>
 9    2  0.3402837E-005  0.9222581E+02  0.7546771E-02  0.1303740E+00
          2   -1    0    0  502    0  0.00000000000E+00  0.00000000000E+00  0.12033189533E+03  0.12033189533E+03  0.00000000000E+00 0. -1.
         -1   -1    0    0    0  501 -0.00000000000E+00 -0.00000000000E+00 -0.12812280758E+03  0.12812280758E+03  0.00000000000E+00 0.  1.
         24    2    1    2    0    0 -0.21085661554E+01 -0.10334924597E+02 -0.65709895675E+02  0.10413537224E+03  0.80094498212E+02 0.  0.
         23    2    1    2    0    0  0.23283616285E+02 -0.18924115116E+00  0.71100711740E+02  0.11724722743E+03  0.90274240677E+02 0.  0.
        -13    1    3    3    0    0  0.16094603561E+02 -0.21038161892E+02 -0.76116394261E+02  0.80593709400E+02  0.00000000000E+00 0.  1.
         14    1    3    3    0    0 -0.18203169716E+02  0.10703237295E+02  0.10406498586E+02  0.23541662837E+02  0.00000000000E+00 0. -1.
        -11    1    4    4    0    0  0.71088412331E+00 -0.43967472034E+02  0.33350367781E+02  0.55189591269E+02  0.00000000000E+00 0.  1.
         11    1    4    4    0    0  0.22572732162E+02  0.43778230883E+02  0.37750343959E+02  0.62057636158E+02  0.00000000000E+00 0. -1.
         21    1    1    2  502  501 -0.21175050129E+02  0.10524165748E+02 -0.13181728317E+02  0.27072103244E+02  0.00000000000E+00 0. -1.
<scales pt_clust_5="13000.00000" pt_clust_6="13000.00000" pt_clust_7="13000.00000" pt_clust_8="13000.00000" pt_clust_9="23.64616"></scales>
<clustering>
<clus scale="   23.646">  2  9  1 -1</clus>
<clus scale="   80.094">  5  6 -1 -1</clus>
<clus scale="   82.288">  2  5  1 -1</clus>
<clus scale="   90.274">  7  8 -1 -1</clus>
<clus scale="   92.226">  1  5  2 -1</clus>
</clustering>
</event>
<event>
 9    2  0.7416515E-005  0.2612700E+03  0.7546771E-02  0.1106969E+00
          2   -1    0    0  502    0  0.00000000000E+00  0.00000000000E+00  0.12192976737E+04  0.12192976737E+04  0.00000000000E+00 0. -1.
         -1   -1    0    0    0  501 -0.00000000000E+00 -0.00000000000E+00 -0.31999527006E+03  0.31999527006E+03  0.00000000000E+00 0.  1.
         23    2    1    2    0    0 -0.16718047794E+03 -0.19387317912E+03 -0.21730563284E+03  0.34796350224E+03  0.91218085047E+02 0.  0.
         24    2    1    2    0    0  0.17630693966E+03  0.16913302296E+03  0.11320098031E+04  0.11607912352E+04  0.79372419336E+02 0.  0.
        -11    1    4    4    0    0 -0.51237413626E+01  0.23085679969E+02  0.12253160885E+03  0.12479261402E+03  0.00000000000E+00 0.  1.
         12    1    4    4    0    0  0.18143068102E+03  0.14604734299E+03  0.10094781942E+04  0.10359986211E+04  0.00000000000E+00 0. -1.
        -13    1    3    3    0    0 -0.22633845665E+02 -0.45553658626E+02 -0.45809504025E+01  0.51072613898E+02  0.00000000000E+00 0. -1.
         13    1    3    3    0    0 -0.14454663227E+03 -0.14831952050E+03 -0.21272468244E+03  0.29689088834E+03  0.00000000000E+00 0.  1.
         21    1    1    2  502  501 -0.91264617235E+01  0.24740156168E+02 -0.15401766618E+02  0.30538206328E+02  0.00000000000E+00 0. -1.
<scales pt_clust_5="13000.00000" pt_clust_6="13000.00000" pt_clust_7="13000.00000" pt_clust_8="13000.00000" pt_clust_9="26.36982"></scales>
<clustering>
<clus scale="   26.370">  2  9  1 -1</clus>
<clus scale="   79.372">  5  6 -1 -1</clus>
<clus scale="   91.218">  7  8 -1 -1</clus>
<clus scale="  257.374">  1  5  2 -1</clus>
<clus scale="  257.374">  1  5  2 -1</clus>
</clustering>
</event>
<event>
 9    2  0.3402837E-005  0.3548895E+03  0.7546771E-02  0.1107730E+00
         -1   -1    0    0    0  501 -0.00000000000E+00  0.00000000000E+00  0.34751364277E+03  0.34751364277E+03  0.00000000000E+00 0.  1.
          2   -1    0    0  502    0  0.00000000000E+00 -0.00000000000E+00 -0.11224502095E+04  0.11224502095E+04  0.00000000000E+00 0. -1.
         23    2    1    2    0    0 -0.34203696638E+03 -0.76934154816E+02  0.18124784070E+03  0.40295641555E+03  0.81332296943E+02 0.  0.
         24    2    1    2    0    0  0.42156679526E+02 -0.48959998608E+02 -0.47935706974E+03  0.48982303440E+03  0.77260194339E+02 0.  0.
        -13    1    4    4    0    0 -0.27138795537E+01 -0.55235831130E+02 -0.27454898948E+03  0.28006340319E+03  0.00000000000E+00 0.  1.
         14    1    4    4    0    0  0.44870559080E+02  0.62758325220E+01 -0.20480808026E+03  0.20975963121E+03  0.00000000000E+00 0. -1.
        -13    1    3    3    0    0 -0.11121392424E+03 -0.23153971224E+02  0.10307405320E+03  0.15339134190E+03  0.00000000000E+00 0.  1.
         13    1    3    3    0    0 -0.23082304215E+03 -0.53780183592E+02  0.78173787496E+02  0.24956507365E+03  0.00000000000E+00 0. -1.
         21    1    1    2  502  501  0.29988028686E+03  0.12589415342E+03 -0.47682733768E+03  0.57718440231E+03  0.00000000000E+00 0. -1.
<scales pt_clust_5="13000.00000" pt_clust_6="13000.00000" pt_clust_7="13000.00000" pt_clust_8="13000.00000" pt_clust_9="345.44411"></scales>
<clustering>
<clus scale="   77.260">  5  6 -1 -1</clus>
<clus scale="   81.332">  7  8 -1 -1</clus>
<clus scale="  100.714">  2  5  1 -1</clus>
<clus scale="  345.444">  2  9  1 -1</clus>
<clus scale="  100.714">  2  5  1 -1</clus>
</clustering>
</event>
<event>
 9    2  0.3402837E-005  0.9933912E+02  0.7546771E-02  0.1287086E+00
         -1   -1    0    0    0  501 -0.00000000000E+00  0.00000000000E+00  0.51114736377E+02  0.51114736377E+02  0.00000000000E+00 0.  1.
          2   -1    0    0  502    0  0.00000000000E+00 -0.00000000000E+00 -0.60571019764E+03  0.60571019764E+03  0.00000000000E+00 0. -1.
         24    2    1    2    0    0 -0.35828050417E+02 -0.36638927286E+02 -0.18469342073E+03  0.20770267456E+03  0.80016755566E+02 0.  0.
         23    2    1    2    0    0 -0.16804272402E+01  0.40152659720E+02 -0.39273769154E+03  0.40506889216E+03  0.90679948836E+02 0.  0.
        -11    1    3    3    0    0  0.18162593627E+02 -0.10931650842E+02 -0.10752203639E+02  0.23769532610E+02  0.00000000000E+00 0.  1.
         12    1    3    3    0    0 -0.53990644044E+02 -0.25707276444E+02 -0.17394121709E+03  0.18393314195E+03  0.00000000000E+00 0. -1.
        -13    1    4    4    0    0 -0.35092396218E+02 -0.10160796037E+02 -0.19188278901E+03  0.19532977952E+03  0.00000000000E+00 0. -1.
         13    1    4    4    0    0  0.33411968978E+02  0.50313455757E+02 -0.20085490253E+03  0.20973911265E+03  0.00000000000E+00 0.  1.
         21    1    1    2  502  501  0.37508477657E+02 -0.35137324341E+01  0.22835651015E+02  0.44053367284E+02  0.00000000000E+00 0.  1.
<scales pt_clust_5="13000.00000" pt_clust_6="13000.00000" pt_clust_7="13000.00000" pt_clust_8="13000.00000" pt_clust_9="37.67270"></scales>
<clustering>
<clus scale="   37.673">  1  9  2 -1</clus>
<clus scale="   80.017">  5  6 -1 -1</clus>
<clus scale="   89.711">  1  5  2 -1</clus>
<clus scale="   90.680">  7  8 -1 -1</clus>
<clus scale="   99.339">  2  5  1 -1</clus>
</clustering>
</event>
<event>
 9    2  0.3402837E-005  0.1873868E+03  0.7546771E-02  0.1161860E+00
          2   -1    0    0  502    0  0.00000000000E+00  0.00000000000E+00  0.16601760088E+04  0.16601760088E+04  0.00000000000E+00 0. -1.
         -1   -1    0    0    0  501 -0.00000000000E+00 -0.00000000000E+00 -0.23164078337E+02  0.23164078337E+02  0.00000000000E+00 0.  1.
         24    2    1    2    0    0  0.15652681669E+03 -0.34991911164E+02  0.71563261460E+03  0.73770016856E+03  0.79664430163E+02 0.  0.
         23    2    1    2    0    0 -0.16844922005E+03  0.18316149020E+02  0.85389509981E+03  0.87511088794E+03  0.89283837666E+02 0.  0.
        -11    1    3    3    0    0  0.13605272187E+03 -0.15445070502E+02  0.44496426189E+03  0.46555567625E+03  0.00000000000E+00 0.  1.
         12    1    3    3    0    0  0.20474094824E+02 -0.19546840661E+02  0.27066835271E+03  0.27214449231E+03  0.00000000000E+00 0. -1.
        -13    1    4    4    0    0 -0.13171624857E+03  0.51100238303E+02  0.67039904116E+03  0.68512427988E+03  0.00000000000E+00 0. -1.
         13    1    4    4    0    0 -0.36732971476E+02 -0.32784089283E+02  0.18349605865E+03  0.18998660806E+03  0.00000000000E+00 0.  1.
         21    1    1    2  502  501  0.11922403357E+02  0.16675762144E+02  0.67484216055E+02  0.70529030629E+02  0.00000000000E+00 0. -1.
<scales pt_clust_5="13000.00000" pt_clust_6="13000.00000" pt_clust_7="13000.00000" pt_clust_8="13000.00000" pt_clust_9="20.49938"></scales>
<clustering>
<clus scale="   20.499">  2  9  1 -1</clus>
<clus scale="   79.664">  5  6 -1 -1</clus>
<clus scale="   89.284">  7  8 -1 -1</clus>
<clus scale="  182.999">  2  5  1 -1</clus>
<clus scale="  187.387">  1  5  2 -1</clus>
</clustering>
</event>
<event>
 9    2  0.3402837E-005  0.1366167E+03  0.7546771E-02  0.1233460E+00
         -1   -1    0    0    0  501 -0.00000000000E+00  0.00000000000E+00  0.22632769748E+02  0.22632769748E+02  0.00000000000E+00 0.  1.
          2   -1    0    0  502    0  0.00000000000E+00 -0.00000000000E+00 -0.16227680434E+04  0.16227680434E+04  0.00000000000E+00 0. -1.
         23    2    1    2    0    0 -0.13878548540E+02  0.86122810201E+02 -0.31128277186E+03  0.33726274591E+03  0.96122022316E+02 0.  0.
         24    2    1    2    0    0  0.46862008779E+02  0.33319988216E+02 -0.63183095855E+03  0.63953370065E+03  0.80540204860E+02 0.  0.
        -11    1    4    4    0    0  0.12233451776E+01  0.43476136116E+02 -0.17530600307E+03  0.18062077870E+03  0.00000000000E+00 0.  1.
         12    1    4    4    0    0  0.45638663602E+02 -0.10156147900E+02 -0.45652495548E+03  0.45891292195E+03  0.00000000000E+00 0. -1.
        -11    1    3    3    0    0 -0.16846562098E+01  0.10469832130E+03 -0.22512561073E+03  0.24828636120E+03  0.00000000000E+00 0.  1.
         11    1    3    3    0    0 -0.12193892331E+02 -0.18575511095E+02 -0.86157161133E+02  0.88976384716E+02  0.00000000000E+00 0. -1.
         21    1    1    2  502  501 -0.32983460239E+02 -0.11944279842E+03 -0.65702154321E+03  0.66860436656E+03  0.00000000000E+00 0. -1.
<scales pt_clust_5="13000.00000" pt_clust_6="13000.00000" pt_clust_7="13000.00000" pt_clust_8="13000.00000" pt_clust_9="97.08078"></scales>
<clustering>
<clus scale="   80.540">  5  6 -1 -1</clus>
<clus scale="   96.122">  7  8 -1 -1</clus>
<clus scale="   98.960">  2  5  1 -1</clus>
<clus scale="   97.081">  2  9  1 -1</clus>
<clus scale="   98.960">  2  5  1 -1</clus>
</clustering>
</event>
<event>
 9    2  0.3402837E-005  0.1786451E+03  0.7546771E-02  0.1170449E+00
          2   -1    0    0  502    0  0.00000000000E+00  0.00000000000E+00  0.49913128617E+03  0.49913128617E+03  0.00000000000E+00 0. -1.
         -1   -1    0    0    0  501 -0.00000000000E+00 -0.00000000000E+00 -0.14500634232E+03  0.14500634232E+03  0.00000000000E+00 0.  1.
         24    2    1    2    0    0 -0.14141844745E+03  0.43479544492E+02 -0.22702355906E+02  0.16903580383E+03  0.78536984548E+02 0.  0.
         23    2    1    2    0    0  0.15355999234E+03 -0.27301211637E+02  0.40339752633E+03  0.44170822488E+03  0.89724936767E+02 0.  0.
        -13    1    3    3    0    0 -0.89654880899E+02  0.54207725583E+01 -0.45723390432E+02  0.10078695787E+03  0.00000000000E+00 0.  1.
         14    1    3    3    0    0 -0.51763566556E+02  0.38058771934E+02  0.23021034527E+02  0.68248845956E+02  0.00000000000E+00 0. -1.
        -13    1    4    4    0    0  0.35995901913E+02  0.21525649898E+01  0.23735389572E+02  0.43170675333E+02  0.00000000000E+00 0.  1.
         13    1    4    4    0    0  0.11756409042E+03 -0.29453776627E+02  0.37966213676E+03  0.39853754955E+03  0.00000000000E+00 0. -1.
         21    1    1    2  502  501 -0.12141544881E+02 -0.16178332855E+02 -0.26570226571E+02  0.33393599777E+02  0.00000000000E+00 0.  1.
<scales pt_clust_5="13000.00000" pt_clust_6="13000.00000" pt_clust_7="13000.00000" pt_clust_8="13000.00000" pt_clust_9="20.22759"></scales>
<clustering>
<clus scale="   20.228">  2  9  1 -1</clus>
<clus scale="   78.537">  5  6 -1 -1</clus>
<clus scale="   89.725">  7  8 -1 -1</clus>
<clus scale="  173.296">  2  5  1 -1</clus>
<clus scale="  178.645">  1  5  2 -1</clus>
</clustering>
</event>
<event>
 9    2  0.3402837E-005  0.1046738E+03  0.7546771E-02  0.1279150E+00
          2   -1    0    0  502    0  0.00000000000E+00  0.00000000000E+00  0.27919671760E+02  0.27919671760E+02  0.00000000000E+00 0. -1.
         -1   -1    0    0    0  501 -0.00000000000E+00 -0.00000000000E+00 -0.93591973711E+03  0.93591973711E+03  0.00000000000E+00 0.  1.
         23    2    1    2    0    0 -0.23999764692E+02 -0.57102620592E+02 -0.62365972467E+03  0.63388218872E+03  0.94965672844E+02 0.  0.
         24    2    1    2    0    0  0.19580818267E+01  0.41904843947E+02 -0.66273831374E+02  0.11025330421E+03  0.77483677851E+02 0.  0.
        -13    1    4    4    0    0 -0.19026032758E+02  0.54018798792E+02 -0.64051045385E+02  0.85921807246E+02  0.00000000000E+00 0.  1.
         14    1    4    4    0    0  0.20984114585E+02 -0.12113954846E+02 -0.22227859887E+01  0.24331496963E+02  0.00000000000E+00 0. -1.
        -13    1    3    3    0    0 -0.26001507582E+02 -0.83072618161E+02 -0.49816561795E+03  0.50571347736E+03  0.00000000000E+00 0.  1.
         13    1    3    3    0    0  0.20017428892E+01  0.25969997569E+02 -0.12549410673E+03  0.12816871136E+03  0.00000000000E+00 0. -1.
         21    1    1    2  502  501  0.22041682866E+02  0.15197776645E+02 -0.21806650931E+03  0.21970391594E+03  0.00000000000E+00 0.  1.
<scales pt_clust_5="13000.00000" pt_clust_6="13000.00000" pt_clust_7="13000.00000" pt_clust_8="13000.00000" pt_clust_9="26.77327"></scales>
<clustering>
<clus scale="   26.773">  2  9  1 -1</clus>
<clus scale="   77.484">  5  6 -1 -1</clus>
<clus scale="   89.117">  1  5  2 -1</clus>
<clus scale="   94.966">  7  8 -1 -1</clus>
<clus scale="   89.117">  1  5  2 -1</clus>
</clustering>
</event>
<event>
 9    2  0.3402837E-005  0.1304341E+03  0.7546771E-02  0.1229653E+00
          2   -1    0    0  502    0  0.00000000000E+00  0.00000000000E+00  0.41609147350E+03  0.41609147350E+03  0.00000000000E+00 0. -1.
         -1   -1    0    0    0  501 -0.00000000000E+00 -0.00000000000E+00 -0.31619902811E+03  0.31619902811E+03  0.00000000000E+00 0.  1.
         23    2    1    2    0    0 -0.22815803059E+01 -0.57103098540E+02 -0.54917563690E+02  0.12090165575E+03  0.91297875610E+02 0.  0.
         24    2    1    2    0    0 -0.78332532276E+02  0.62813566882E+02  0.36458269616E+03  0.38658710023E+03  0.80296412945E+02 0.  0.
        -13    1    4    4    0    0 -0.21227441748E+02  0.57973847520E+02  0.11516170233E+03  0.13066670946E+03  0.00000000000E+00 0.  1.
         14    1    4    4    0    0 -0.57105090529E+02  0.48397193622E+01  0.24942099383E+03  0.25592039077E+03  0.00000000000E+00 0. -1.
        -13    1    3    3    0    0 -0.35523460567E+02 -0.63572408646E+02 -0.29561083958E+02  0.78595324775E+02  0.00000000000E+00 0. -1.
         13    1    3    3    0    0  0.33241880261E+02  0.64693101060E+01 -0.25356479732E+02  0.42306330980E+02  0.00000000000E+00 0.  1.
         21    1    1    2  502  501  0.80614112582E+02 -0.57104683426E+01 -0.20977268707E+03  0.22480174563E+03  0.00000000000E+00 0.  1.
<scales pt_clust_5="13000.00000" pt_clust_6="13000.00000" pt_clust_7="13000.00000" pt_clust_8="13000.00000" pt_clust_9="80.81612"></scales>
<clustering>
<clus scale="   80.296">  5  6 -1 -1</clus>
<clus scale="   80.816">  2  9  1 -1</clus>
<clus scale="   91.298">  7  8 -1 -1</clus>
<clus scale="  122.985">  1  5  2 -1</clus>
<clus scale="  122.985">  1  5  2 -1</clus>
</clustering>
</event>
<event>
 9    2  0.3402837E-005  0.1339233E+03  0.7546771E-02  0.1224650E+00
          2   -1    0    0  502    0  0.00000000000E+00  0.00000000000E+00  0.45186117360E+03  0.45186117360E+03  0.00000000000E+00 0. -1.
         -1   -1    0    0    0  501 -0.00000000000E+00 -0.00000000000E+00 -0.60086059019E+02  0.60086059019E+02  0.00000000000E+00 0.  1.
         24    2    1    2    0    0  0.54795755349E+02  0.59947533733E+02  0.58484586536E+02  0.12845288662E+03  0.80519659796E+02 0.  0.
         23    2    1    2    0    0 -0.62242341809E+02 -0.82492783704E+02  0.33193805799E+03  0.35971264881E+03  0.92364207850E+02 0.  0.
        -13    1    3    3    0    0  0.31128146173E+02  0.78309946067E+02  0.40305851442E+02  0.93412904878E+02  0.00000000000E+00 0.  1.
         14    1    3    3    0    0  0.23667609176E+02 -0.18362412334E+02  0.18178735094E+02  0.35039981742E+02  0.00000000000E+00 0. -1.
        -11    1    4    4    0    0 -0.58397735126E+02 -0.35842322183E+01  0.11934114102E+03  0.13291143716E+03  0.00000000000E+00 0.  1.
         11    1    4    4    0    0 -0.38446066824E+01 -0.78908551486E+02  0.21259691697E+03  0.22680121164E+03  0.00000000000E+00 0. -1.
         21    1    1    2  502  501  0.74465864599E+01  0.22545249972E+02  0.13524700562E+01  0.23781697194E+02  0.00000000000E+00 0.  1.
<scales pt_clust_5="13000.00000" pt_clust_6="13000.00000" pt_clust_7="13000.00000" pt_clust_8="13000.00000" pt_clust_9="23.74321"></scales>
<clustering>
<clus scale="   23.743">  2  9  1 -1</clus>
<clus scale="   80.520">  5  6 -1 -1</clus>
<clus scale="   92.364">  7  8 -1 -1</clus>
<clus scale="  126.046">  2  5  1 -1</clus>
<clus scale="  133.923">  1  5  2 -1</clus>
</clustering>
</event>
<event>
 9    2  0.3402837E-005  0.1104837E+03  0.7546771E-02  0.1267532E+00
          2   -1    0    0  502    0  0.00000000000E+00  0.00000000000E+00  0.31827228415E+03  0.31827228415E+03  0.00000000000E+00 0. -1.
         -1   -1    0    0    0  501 -0.00000000000E+00 -0.00000000000E+00 -0.80552593563E+02  0.80552593563E+02  0.00000000000E+00 0.  1.
         23    2    1    2    0    0  0.26761623710E+02 -0.60994196448E+02 -0.19595330209E+01  0.11432329171E+03  0.92895095420E+02 0.  0.
         24    2    1    2    0    0 -0.39098732677E+02  0.44438963952E+02  0.24552974313E+03  0.26304212285E+03  0.73503545614E+02 0.  0.
        -13    1    4    4    0    0 -0.24145694169E+02 -0.17832072138E+02  0.88673197662E+02  0.93615881811E+02  0.00000000000E+00 0.  1.
         14    1    4    4    0    0 -0.14953038508E+02  0.62271036090E+02  0.15685654546E+03  0.16942624104E+03  0.00000000000E+00 0. -1.
        -13    1    3    3    0    0 -0.51661200972E+01 -0.22169607795E+02 -0.43511286412E+02  0.49106133546E+02  0.00000000000E+00 0.  1.
         13    1    3    3    0    0  0.31927743808E+02 -0.38824588653E+02  0.41551753391E+02  0.65217158161E+02  0.00000000000E+00 0. -1.
         21    1    1    2  502  501  0.12337108967E+02  0.16555232496E+02 -0.58505195146E+01  0.21459463163E+02  0.00000000000E+00 0.  1.
<scales pt_clust_5="13000.00000" pt_clust_6="13000.00000" pt_clust_7="13000.00000" pt_clust_8="13000.00000" pt_clust_9="20.64655"></scales>
<clustering>
<clus scale="   20.647">  2  9  1 -1</clus>
<clus scale="   73.504">  5  6 -1 -1</clus>
<clus scale="   92.895">  7  8 -1 -1</clus>
<clus scale="   94.762">  1  5  2 -1</clus>
<clus scale="   94.762">  1  5  2 -1</clus>
</clustering>
</event>
<event>
 9    2  0.3402837E-005  0.1747325E+03  0.7546771E-02  0.1173922E+00
          2   -1    0    0  502    0  0.00000000000E+00  0.00000000000E+00  0.36975130064E+03  0.36975130064E+03  0.00000000000E+00 0. -1.
         -1   -1    0    0    0  501 -0.00000000000E+00 -0.00000000000E+00 -0.16735638206E+03  0.16735638206E+03  0.00000000000E+00 0.  1.
         24    2    1    2    0    0 -0.66943592534E+02  0.13288512748E+03 -0.13077034244E+02  0.17018166311E+03  0.81552976331E+02 0.  0.
         23    2    1    2    0    0  0.45609767431E+02 -0.14430066388E+03  0.26149066297E+03  0.31493401782E+03  0.88899585356E+02 0.  0.
        -11    1    3    3    0    0 -0.41586904413E+02  0.81429657324E+01 -0.25237267341E+01  0.42451710286E+02  0.00000000000E+00 0.  1.
         12    1    3    3    0    0 -0.25356688121E+02  0.12474216174E+03 -0.10553307510E+02  0.12772995282E+03  0.00000000000E+00 0. -1.
        -11    1    4    4    0    0  0.65745974318E+02 -0.13355024419E+03  0.24535840397E+03  0.28698248599E+03  0.00000000000E+00 0. -1.
         11    1    4    4    0    0 -0.20136206887E+02 -0.10750419691E+02  0.16132258993E+02  0.27951531829E+02  0.00000000000E+00 0.  1.
         21    1    1    2  502  501  0.21333825103E+02  0.11415536409E+02 -0.46018710149E+02  0.51992001777E+02  0.00000000000E+00 0.  1.
<scales pt_clust_5="13000.00000" pt_clust_6="13000.00000" pt_clust_7="13000.00000" pt_clust_8="13000.00000" pt_clust_9="24.19600"></scales>
<clustering>
<clus scale="   24.196">  2  9  1 -1</clus>
<clus scale="   81.553">  5  6 -1 -1</clus>
<clus scale="   88.900">  7  8 -1 -1</clus>
<clus scale="  171.112">  2  5  1 -1</clus>
<clus scale="  174.733">  1  5  2 -1</clus>
</clustering>
</event>
<event>
 9    2  0.3402837E-005  0.9531854E+02  0.7546771E-02  0.1299966E+00
         -3   -1    0    0    0  501 -0.00000000000E+00  0.00000000000E+00  0.96821944979E+02  0.96821944979E+02  0.00000000000E+00 0.  1.
          4   -1    0    0  502    0  0.00000000000E+00 -0.00000000000E+00 -0.24874013713E+03  0.24874013713E+03  0.00000000000E+00 0. -1.
         24    2    1    2    0    0  0.39085881479E+02  0.16286030900E+02  0.37084606395E+02  0.96123356846E+02  0.77919771345E+02 0.  0.
         23    2    1    2    0    0 -0.13958425611E+02 -0.17241433791E+00 -0.19695893337E+03  0.21854636765E+03  0.93674041265E+02 0.  0.
        -11    1    3    3    0    0  0.61025545925E+02 -0.43769022081E+00  0.23789774064E+02  0.65500092963E+02  0.00000000000E+00 0.  1.
         12    1    3    3    0    0 -0.21939664446E+02  0.16723721121E+02  0.13294832332E+02  0.30623263883E+02  0.00000000000E+00 0. -1.
        -13    1    4    4    0    0 -0.53866813108E+02  0.19501490487E+01 -0.98466275077E+02  0.11225437169E+03  0.00000000000E+00 0. -1.
         13    1    4    4    0    0  0.39908387497E+02 -0.21225633866E+01 -0.98492658295E+02  0.10629199596E+03  0.00000000000E+00 0.  1.
         21    1    1    2  502  501 -0.25127455868E+02 -0.16113616562E+02  0.79561348296E+01  0.30892357607E+02  0.00000000000E+00 0. -1.
<scales pt_clust_5="13000.00000" pt_clust_6="13000.00000" pt_clust_7="13000.00000" pt_clust_8="13000.00000" pt_clust_9="29.85025"></scales>
<clustering>
<clus scale="   29.850">  1  9  2 -1</clus>
<clus scale="   77.920">  5  6 -1 -1</clus>
<clus scale="   79.889">  1  5  2 -1</clus>
<clus scale="   93.674">  7  8 -1 -1</clus>
<clus scale="   95.319">  2  5  1 -1</clus>
</clustering>
</event>
<event>
 9    2  0.3402837E-005  0.9562217E+02  0.7546771E-02  0.1292129E+00
          2   -1    0    0  502    0  0.00000000000E+00  0.00000000000E+00  0.20903370639E+02  0.20903370639E+02  0.00000000000E+00 0. -1.
         -1   -1    0    0    0  501 -0.00000000000E+00 -0.00000000000E+00 -0.75836373961E+03  0.75836373961E+03  0.00000000000E+00 0.  1.
         23    2    1    2    0    0  0.18078174178E+02 -0.28628216960E+01 -0.44364586192E+03  0.45307798247E+03  0.90127638739E+02 0.  0.
         24    2    1    2    0    0 -0.10213129003E+01  0.19023755811E+02 -0.13571360468E+03  0.16635168650E+03  0.94296101401E+02 0.  0.
        -13    1    4    4    0    0 -0.33722021786E+02  0.43538977171E+02 -0.71795279442E+02  0.90484139143E+02  0.00000000000E+00 0.  1.
         14    1    4    4    0    0  0.32700708886E+02 -0.24515221359E+02 -0.63918325242E+02  0.75867547355E+02  0.00000000000E+00 0. -1.
        -11    1    3    3    0    0 -0.34716036226E+02 -0.14941046803E+02 -0.17839844785E+03  0.18235801119E+03  0.00000000000E+00 0.  1.
         11    1    3    3    0    0  0.52794210405E+02  0.12078225107E+02 -0.26524741407E+03  0.27071997128E+03  0.00000000000E+00 0. -1.
         21    1    1    2  502  501 -0.17056861278E+02 -0.16160934115E+02 -0.15810090237E+03  0.15983744129E+03  0.00000000000E+00 0.  1.
<scales pt_clust_5="13000.00000" pt_clust_6="13000.00000" pt_clust_7="13000.00000" pt_clust_8="13000.00000" pt_clust_9="23.49707"></scales>
<clustering>
<clus scale="   23.497">  2  9  1 -1</clus>
<clus scale="   90.128">  7  8 -1 -1</clus>
<clus scale="   91.514">  2  7  1 -1</clus>
<clus scale="   94.296">  5  6 -1 -1</clus>
<clus scale="   95.622">  1  5  2 -1</clus>
</clustering>
</event>
<event>
 9    2  0.3402837E-005  0.1003687E+03  0.7546771E-02  0.1285652E+00
          2   -1    0    0  502    0  0.00000000000E+00  0.00000000000E+00  0.75887126344E+02  0.75887126344E+02  0.00000000000E+00 0. -1.
         -1   -1    0    0    0  501 -0.00000000000E+00 -0.00000000000E+00 -0.34050694651E+03  0.34050694651E+03  0.00000000000E+00 0.  1.
         23    2    1    2    0    0  0.14328802835E+02 -0.27918377076E+01 -0.18138556169E+03  0.20398775727E+03  0.92180118129E+02 0.  0.
         24    2    1    2    0    0 -0.43958530126E+02 -0.42020418928E+01  0.29158836124E+02  0.95963012621E+02  0.80054060111E+02 0.  0.
        -11    1    4    4    0    0 -0.33214409153E+02  0.39147856142E+01 -0.23974658662E+02  0.41149808988E+02  0.00000000000E+00 0.  1.
         12    1    4    4    0    0 -0.10744120973E+02 -0.81168275070E+01  0.53133494786E+02  0.54813203632E+02  0.00000000000E+00 0. -1.
        -13    1    3    3    0    0 -0.61493178914E+01  0.41355230479E+02 -0.10919550039E+03  0.11692615834E+03  0.00000000000E+00 0.  1.
         13    1    3    3    0    0  0.20478120726E+02 -0.44147068187E+02 -0.72190061298E+02  0.87061598929E+02  0.00000000000E+00 0. -1.
         21    1    1    2  502  501  0.29629727291E+02  0.69938796004E+01 -0.11239309460E+03  0.11644330296E+03  0.00000000000E+00 0.  1.
<scales pt_clust_5="13000.00000" pt_clust_6="13000.00000" pt_clust_7="13000.00000" pt_clust_8="13000.00000" pt_clust_9="30.44397"></scales>
<clustering>
<clus scale="   30.444">  2  9  1 -1</clus>
<clus scale="   80.054">  5  6 -1 -1</clus>
<clus scale="   89.361">  1  5  2 -1</clus>
<clus scale="   92.180">  7  8 -1 -1</clus>
<clus scale="   89.361">  1  5  2 -1</clus>
</clustering>
</event>
<event>
 9    2  0.3402837E-005  0.2294772E+03  0.7546771E-02  0.1127672E+00
         -1   -1    0    0    0  501 -0.00000000000E+00  0.00000000000E+00  0.22428704610E+03  0.22428704610E+03  0.00000000000E+00 0.  1.
          2   -1    0    0  502    0  0.00000000000E+00 -0.00000000000E+00 -0.60356046070E+03  0.60356046070E+03  0.00000000000E+00 0. -1.
         23    2    1    2    0    0 -0.18448293264E+03  0.65039927208E+02  0.95858901373E+02  0.23552508153E+03  0.89548816242E+02 0.  0.
         24    2    1    2    0    0  0.19824426112E+03 -0.79582317674E+02 -0.50631923599E+03  0.55526194414E+03  0.79514310205E+02 0.  0.
        -11    1    4    4    0    0  0.53585515759E+02 -0.46399991829E+02 -0.24151838017E+03  0.25170517416E+03  0.00000000000E+00 0.  1.
         12    1    4    4    0    0  0.14465874536E+03 -0.33182325845E+02 -0.26480085582E+03  0.30355676998E+03  0.00000000000E+00 0. -1.
        -13    1    3    3    0    0 -0.12031531847E+03  0.19544779320E+02  0.98658333046E+02  0.15681594605E+03  0.00000000000E+00 0.  1.
         13    1    3    3    0    0 -0.64167614169E+02  0.45495147888E+02 -0.27994316737E+01  0.78709135475E+02  0.00000000000E+00 0. -1.
         21    1    1    2  502  501 -0.13761328477E+02  0.14542390466E+02  0.31186920014E+02  0.37060481133E+02  0.00000000000E+00 0. -1.
<scales pt_clust_5="13000.00000" pt_clust_6="13000.00000" pt_clust_7="13000.00000" pt_clust_8="13000.00000" pt_clust_9="20.02137"></scales>
<clustering>
<clus scale="   20.021">  1  9  2 -1</clus>
<clus scale="   79.514">  5  6 -1 -1</clus>
<clus scale="   89.549">  7  8 -1 -1</clus>
<clus scale="  225.751">  2  5  1 -1</clus>
<clus scale="  225.751">  2  5  1 -1</clus>
</clustering>
</event>
<event>
 9    2  0.3402837E-005  0.1218215E+03  0.7546771E-02  0.1243812E+00
          2   -1    0    0  502    0  0.00000000000E+00  0.00000000000E+00  0.11094696357E+03  0.11094696357E+03  0.00000000000E+00 0. -1.
         -1   -1    0    0    0  501 -0.00000000000E+00 -0.00000000000E+00 -0.28366724573E+03  0.28366724573E+03  0.00000000000E+00 0.  1.
         24    2    1    2    0    0 -0.57696505816E+02 -0.61520354147E+02 -0.21781784416E+03  0.24619897378E+03  0.77818254286E+02 0.  0.
         23    2    1    2    0    0  0.54630530255E+02  0.40751345520E+02  0.54488787955E+02  0.12541638662E+03  0.90083711189E+02 0.  0.
        -13    1    3    3    0    0 -0.65333929748E+02 -0.66826405358E+02 -0.21768445459E+03  0.23689831700E+03  0.00000000000E+00 0.  1.
         14    1    3    3    0    0  0.76374239325E+01  0.53060512112E+01 -0.13338957157E+00  0.93006567810E+01  0.00000000000E+00 0. -1.
        -11    1    4    4    0    0  0.66435348572E+02  0.93502118189E+01  0.72541930538E+01  0.67481147870E+02  0.00000000000E+00 0.  1.
         11    1    4    4    0    0 -0.11804818317E+02  0.31401133701E+02  0.47234594902E+02  0.57935238747E+02  0.00000000000E+00 0. -1.
         21    1    1    2  502  501  0.30659755606E+01  0.20769008628E+02 -0.93912259638E+01  0.22998848898E+02  0.00000000000E+00 0. -1.
<scales pt_clust_5="13000.00000" pt_clust_6="13000.00000" pt_clust_7="13000.00000" pt_clust_8="13000.00000" pt_clust_9="20.99409"></scales>
<clustering>
<clus scale="   20.994">  1  9  2 -1</clus>
<clus scale="   77.818">  5  6 -1 -1</clus>
<clus scale="   90.084">  7  8 -1 -1</clus>
<clus scale="  113.053">  2  5  1 -1</clus>
<clus scale="   20.994">  1  5  2 -1</clus>
</clustering>
</event>
<event>
 9    2  0.3402837E-005  0.1178284E+03  0.7546771E-02  0.1251394E+00
          2   -1    0    0  502    0  0.00000000000E+00  0.00000000000E+00  0.57456199920E+02  0.57456199920E+02  0.00000000000E+00 0. -1.
         -1   -1    0    0    0  501 -0.00000000000E+00 -0.00000000000E+00 -0.51062213180E+03  0.51062213180E+03  0.00000000000E+00 0.  1.
         23    2    1    2    0    0  0.10133486551E+00  0.73639999841E+02 -0.37990960824E+03  0.39853591275E+03  0.95271734881E+02 0.  0.
         24    2    1    2    0    0  0.36097339194E+02 -0.49279844897E+02 -0.26443526588E+02  0.10554867616E+03  0.81913014410E+02 0.  0.
        -11    1    4    4    0    0  0.30329734191E+02 -0.36273857886E+01 -0.46270354357E+02  0.55443632602E+02  0.00000000000E+00 0.  1.
         12    1    4    4    0    0  0.57676050037E+01 -0.45652459109E+02  0.19826827769E+02  0.50105043554E+02  0.00000000000E+00 0. -1.
        -11    1    3    3    0    0  0.45644395131E+02  0.50283766311E+02 -0.18690877270E+03  0.19886366504E+03  0.00000000000E+00 0. -1.
         11    1    3    3    0    0 -0.45543060266E+02  0.23356233530E+02 -0.19300083554E+03  0.19967224771E+03  0.00000000000E+00 0.  1.
         21    1    1    2  502  501 -0.36198674060E+02 -0.24360154944E+02 -0.46812797053E+02  0.63993742823E+02  0.00000000000E+00 0.  1.
<scales pt_clust_5="13000.00000" pt_clust_6="13000.00000" pt_clust_7="13000.00000" pt_clust_8="13000.00000" pt_clust_9="43.63211"></scales>
<clustering>
<clus scale="   43.632">  1  9  2 -1</clus>
<clus scale="   81.913">  5  6 -1 -1</clus>
<clus scale="   95.272">  7  8 -1 -1</clus>
<clus scale="  107.315">  1  5  2 -1</clus>
<clus scale="   43.632">  1  5  2 -1</clus>
</clustering>
</event>
<event>
 9    2  0.3402837E-005  0.9970459E+02  0.7546771E-02  0.1286786E+00
         -1   -1    0    0    0  501 -0.00000000000E+00  0.00000000000E+00  0.14146799772E+03  0.14146799772E+03  0.00000000000E+00 0.  1.
          2   -1    0    0  502    0  0.00000000000E+00 -0.00000000000E+00 -0.40005015233E+03  0.40005015233E+03  0.00000000000E+00 0. -1.
         23    2    1    2    0    0 -0.16624839864E+02 -0.99613806934E+01 -0.11076278462E+03  0.14537514579E+03  0.92140784411E+02 0.  0.
         24    2    1    2    0    0  0.43067759911E+02 -0.30081142821E+02 -0.25831560251E+03  0.27567703764E+03  0.80691830341E+02 0.  0.
        -13    1    4    4    0    0  0.36925524985E+02 -0.20199420286E+02 -0.43437315026E+02  0.60483975663E+02  0.00000000000E+00 0.  1.
         14    1    4    4    0    0  0.61422349256E+01 -0.98817225347E+01 -0.21487828749E+03  0.21519306198E+03  0.00000000000E+00 0. -1.
        -13    1    3    3    0    0  0.13739731336E+02  0.28669981464E+02 -0.83129569426E+02  0.89001535758E+02  0.00000000000E+00 0.  1.
         13    1    3    3    0    0 -0.30364571200E+02 -0.38631362158E+02 -0.27633215190E+02  0.56373610032E+02  0.00000000000E+00 0. -1.
         21    1    1    2  502  501 -0.26442920047E+02  0.40042523514E+02  0.11049623253E+03  0.12046596662E+03  0.00000000000E+00 0.  1.
<scales pt_clust_5="13000.00000" pt_clust_6="13000.00000" pt_clust_7="13000.00000" pt_clust_8="13000.00000" pt_clust_9="47.98574"></scales>
<clustering>
<clus scale="   47.986">  1  9  2 -1</clus>
<clus scale="   80.692">  5  6 -1 -1</clus>
<clus scale="   89.231">  2  5  1 -1</clus>
<clus scale="   92.141">  7  8 -1 -1</clus>
<clus scale="   89.231">  2  5  1 -1</clus>
</clustering>
</event>
<event>
 9    2  0.3402837E-005  0.1133191E+03  0.7546771E-02  0.1258295E+00
          2   -1    0    0  502    0  0.00000000000E+00  0.00000000000E+00  0.79385898210E+03  0.79385898210E+03  0.00000000000E+00 0. -1.
         -1   -1    0    0    0  501 -0.00000000000E+00 -0.00000000000E+00 -0.56055635008E+02  0.56055635008E+02  0.00000000000E+00 0.  1.
         23    2    1    2    0    0 -0.13911199677E+01 -0.13312389591E+03  0.31557859944E+03  0.35454624570E+03  0.91593018525E+02 0.  0.
         24    2    1    2    0    0  0.22368960866E+02  0.43931780431E+02  0.38481629240E+03  0.39640021593E+03  0.81358346520E+02 0.  0.
        -13    1    4    4    0    0 -0.21309016814E+02 -0.98307331139E+01  0.14081822546E+03  0.14276025404E+03  0.00000000000E+00 0.  1.
         14    1    4    4    0    0  0.43677977680E+02  0.53762513544E+02  0.24399806694E+03  0.25363996189E+03  0.00000000000E+00 0. -1.
        -11    1    3    3    0    0 -0.35039619588E+02 -0.18688466237E+02  0.53760015939E+02  0.66836913640E+02  0.00000000000E+00 0.  1.
         11    1    3    3    0    0  0.33648499620E+02 -0.11443542968E+03  0.26181858350E+03  0.28770933206E+03  0.00000000000E+00 0. -1.
         21    1    1    2  502  501 -0.20977840898E+02  0.89192115484E+02  0.37408455250E+02  0.98968155472E+02  0.00000000000E+00 0.  1.
<scales pt_clust_5="13000.00000" pt_clust_6="13000.00000" pt_clust_7="13000.00000" pt_clust_8="13000.00000" pt_clust_9="91.62589"></scales>
<clustering>
<clus scale="   81.358">  5  6 -1 -1</clus>
<clus scale="   91.593">  7  8 -1 -1</clus>
<clus scale="   91.626">  2  9  1 -1</clus>
<clus scale="  105.219">  1  5  2 -1</clus>
<clus scale="  105.219">  1  5  2 -1</clus>
</clustering>
</event>
<event>
 9    2  0.3402837E-005  0.1435584E+03  0.7546771E-02  0.1210131E+00
          2   -1    0    0  502    0  0.00000000000E+00  0.00000000000E+00  0.14221528199E+03  0.14221528199E+03  0.00000000000E+00 0. -1.
         -1   -1    0    0    0  501 -0.00000000000E+00 -0.00000000000E+00 -0.29304072970E+03  0.29304072970E+03  0.00000000000E+00 0.  1.
         23    2    1    2    0    0  0.27979945217E+02 -0.78659783883E+02 -0.39793021840E+02  0.12889612824E+03  0.89780222503E+02 0.  0.
         24    2    1    2    0    0 -0.41448710706E+02  0.12814943788E+03  0.26076690937E+02  0.15997155261E+03  0.82283836720E+02 0.  0.
        -13    1    4    4    0    0 -0.13085159543E+02  0.12478370848E+03  0.34623771841E+02  0.13015760016E+03  0.00000000000E+00 0.  1.
         14    1    4    4    0    0 -0.28363551162E+02  0.33657294049E+01 -0.85470809040E+01  0.29813952454E+02  0.00000000000E+00 0. -1.
        -11    1    3    3    0    0  0.56348152338E+02 -0.27466407141E+02 -0.30221814519E+02  0.69590774288E+02  0.00000000000E+00 0.  1.
         11    1    3    3    0    0 -0.28368207122E+02 -0.51193376742E+02 -0.95712073212E+01  0.59305353950E+02  0.00000000000E+00 0. -1.
         21    1    1    2  502  501  0.13468765489E+02 -0.49489654000E+02 -0.13710911680E+03  0.14638833084E+03  0.00000000000E+00 0. -1.
<scales pt_clust_5="13000.00000" pt_clust_6="13000.00000" pt_clust_7="13000.00000" pt_clust_8="13000.00000" pt_clust_9="51.28970"></scales>
<clustering>
<clus scale="   51.290">  2  9  1 -1</clus>
<clus scale="   82.284">  5  6 -1 -1</clus>
<clus scale="   89.780">  7  8 -1 -1</clus>
<clus scale="  138.993">  1  5  2 -1</clus>
<clus scale="  138.993">  1  5  2 -1</clus>
</clustering>
</event>
<event>
 9    2  0.3402837E-005  0.1059771E+03  0.7546771E-02  0.1273912E+00
         -1   -1    0    0    0  501 -0.00000000000E+00  0.00000000000E+00  0.96081496342E+02  0.96081496342E+02  0.00000000000E+00 0.  1.
          2   -1    0    0  502    0  0.00000000000E+00 -0.00000000000E+00 -0.40193717755E+03  0.40193717755E+03  0.00000000000E+00 0. -1.
         23    2    1    2    0    0  0.14140582913E+02  0.28051936669E+02 -0.77503316298E+02  0.12514438023E+03  0.93099326691E+02 0.  0.
         24    2    1    2    0    0 -0.55696154508E+02  0.58903143326E+02 -0.24937099854E+03  0.27423437058E+03  0.80292921054E+02 0.  0.
        -11    1    4    4    0    0 -0.42235295028E+02  0.22401560026E+02 -0.43233088101E+02  0.64457349809E+02  0.00000000000E+00 0.  1.
         12    1    4    4    0    0 -0.13460859480E+02  0.36501583301E+02 -0.20613791044E+03  0.20977702077E+03  0.00000000000E+00 0. -1.
        -11    1    3    3    0    0  0.43024728858E+02 -0.12863979233E+02 -0.20801411623E+02  0.49490483737E+02  0.00000000000E+00 0.  1.
         11    1    3    3    0    0 -0.28884145945E+02  0.40915915902E+02 -0.56701904676E+02  0.75653896495E+02  0.00000000000E+00 0. -1.
         21    1    1    2  502  501  0.41555571595E+02 -0.86955079995E+02  0.21018633625E+02  0.98639923089E+02  0.00000000000E+00 0.  1.
<scales pt_clust_5="13000.00000" pt_clust_6="13000.00000" pt_clust_7="13000.00000" pt_clust_8="13000.00000" pt_clust_9="96.37454"></scales>
<clustering>
<clus scale="   80.293">  5  6 -1 -1</clus>
<clus scale="   93.099">  7  8 -1 -1</clus>
<clus scale="   96.375">  1  9  2 -1</clus>
<clus scale="   94.924">  2  5  1 -1</clus>
<clus scale="   94.924">  2  5  1 -1</clus>
</clustering>
</event>
<event>
 9    2  0.3402837E-005  0.1275609E+03  0.7546771E-02  0.1233277E+00
         -3   -1    0    0    0  501 -0.00000000000E+00  0.00000000000E+00  0.89151069041E+02  0.89151069041E+02  0.00000000000E+00 0.  1.
          4   -1    0    0  502    0  0.00000000000E+00 -0.00000000000E+00 -0.29651019362E+03  0.29651019362E+03  0.00000000000E+00 0. -1.
         24    2    1    2    0    0 -0.82655441533E+02 -0.64620075109E+02 -0.56634488246E+02  0.14380007693E+03  0.80394780580E+02 0.  0.
         23    2    1    2    0    0  0.54413972997E+02  0.67212362295E+02 -0.16798038331E+03  0.20866387707E+03  0.88571001545E+02 0.  0.
        -11    1    3    3    0    0  0.93114271151E+01 -0.29870432861E+02 -0.20611879382E+01  0.31355923363E+02  0.00000000000E+00 0.  1.
         12    1    3    3    0    0 -0.91966868649E+02 -0.34749642248E+02 -0.54573300308E+02  0.11244415357E+03  0.00000000000E+00 0. -1.
        -13    1    4    4    0    0  0.24052329037E+02  0.60060941524E+02 -0.38083961670E+02  0.75074758510E+02  0.00000000000E+00 0. -1.
         13    1    4    4    0    0  0.30361643960E+02  0.71514207716E+01 -0.12989642164E+03  0.13358911856E+03  0.00000000000E+00 0.  1.
         21    1    1    2  502  501  0.28241468536E+02 -0.25922871863E+01  0.17255746982E+02  0.33197308653E+02  0.00000000000E+00 0.  1.
<scales pt_clust_5="13000.00000" pt_clust_6="13000.00000" pt_clust_7="13000.00000" pt_clust_8="13000.00000" pt_clust_9="28.36019"></scales>
<clustering>
<clus scale="   28.360">  1  9  2 -1</clus>
<clus scale="   80.395">  5  6 -1 -1</clus>
<clus scale="   88.571">  7  8 -1 -1</clus>
<clus scale="  122.026">  1  5  2 -1</clus>
<clus scale="  127.561">  2  5  1 -1</clus>
</clustering>
</event>
<event>
 9    2  0.3402837E-005  0.8492098E+02  0.7546771E-02  0.1319051E+00
          2   -1    0    0  502    0  0.00000000000E+00  0.00000000000E+00  0.36504385457E+03  0.36504385457E+03  0.00000000000E+00 0. -1.
         -1   -1    0    0    0  501 -0.00000000000E+00 -0.00000000000E+00 -0.27323034894E+02  0.27323034894E+02  0.00000000000E+00 0.  1.
         23    2    1    2    0    0 -0.12069991026E+02  0.51693019936E+01  0.99654836374E+02  0.13012211830E+03  0.82633364272E+02 0.  0.
         24    2    1    2    0    0  0.31050615905E+01 -0.25151956566E+02  0.21725411142E+03  0.23203201799E+03  0.77441888640E+02 0.  0.
        -13    1    4    4    0    0 -0.23487776748E+02 -0.41329568268E+02  0.15937797235E+03  0.16631640610E+03  0.00000000000E+00 0.  1.
         14    1    4    4    0    0  0.26592838339E+02  0.16177611703E+02  0.57876139072E+02  0.65715611884E+02  0.00000000000E+00 0. -1.
        -13    1    3    3    0    0  0.60843696275E+00 -0.27418930317E+02  0.33060873415E+01  0.27624231189E+02  0.00000000000E+00 0.  1.
         13    1    3    3    0    0 -0.12678427989E+02  0.32588232311E+02  0.96348749032E+02  0.10249788711E+03  0.00000000000E+00 0. -1.
         21    1    1    2  502  501  0.89649294359E+01  0.19982654572E+02  0.20811871887E+02  0.30212753184E+02  0.00000000000E+00 0. -1.
<scales pt_clust_5="13000.00000" pt_clust_6="13000.00000" pt_clust_7="13000.00000" pt_clust_8="13000.00000" pt_clust_9="21.90152"></scales>
<clustering>
<clus scale="   21.902">  2  9  1 -1</clus>
<clus scale="   77.442">  5  6 -1 -1</clus>
<clus scale="   79.878">  1  5  2 -1</clus>
<clus scale="   82.633">  7  8 -1 -1</clus>
<clus scale="   79.878">  1  5  2 -1</clus>
</clustering>
</event>
<event>
 9    2  0.3402837E-005  0.1053641E+03  0.7546771E-02  0.1276960E+00
         -1   -1    0    0    0  501 -0.00000000000E+00  0.00000000000E+00  0.49133999199E+02  0.49133999199E+02  0.00000000000E+00 0.  1.
          2   -1    0    0  502    0  0.00000000000E+00 -0.00000000000E+00 -0.46805109737E+03  0.46805109737E+03  0.00000000000E+00 0. -1.
         24    2    1    2    0    0 -0.25128906251E+02  0.43363394719E+01 -0.12459591936E+03  0.14877451770E+03  0.77197462576E+02 0.  0.
         23    2    1    2    0    0  0.69349794565E+02  0.99850850147E+01 -0.29962350188E+03  0.32162698353E+03  0.93597957909E+02 0.  0.
        -11    1    3    3    0    0 -0.19934124846E+02 -0.30687478333E+02 -0.28559835327E+02  0.46419337066E+02  0.00000000000E+00 0.  1.
         12    1    3    3    0    0 -0.51947814050E+01  0.35023817804E+02 -0.96036084031E+02  0.10235518064E+03  0.00000000000E+00 0. -1.
        -13    1    4    4    0    0  0.13854684439E+02  0.45982022857E+02 -0.92905188757E+02  0.10458332948E+03  0.00000000000E+00 0.  1.
         13    1    4    4    0    0  0.55495110126E+02 -0.35996937843E+02 -0.20671831312E+03  0.21704365405E+03  0.00000000000E+00 0. -1.
         21    1    1    2  502  501 -0.44220888315E+02 -0.14321424487E+02  0.53023230690E+01  0.46783595336E+02  0.00000000000E+00 0.  1.
<scales pt_clust_5="13000.00000" pt_clust_6="13000.00000" pt_clust_7="13000.00000" pt_clust_8="13000.00000" pt_clust_9="46.48215"></scales>
<clustering>
<clus scale="   46.482">  1  9  2 -1</clus>
<clus scale="   77.197">  5  6 -1 -1</clus>
<clus scale="   91.107">  1  5  2 -1</clus>
<clus scale="   93.598">  7  8 -1 -1</clus>
<clus scale="  105.364">  2  5  1 -1</clus>
</clustering>
</event>
<event>
 9    2  0.3402837E-005  0.9805965E+02  0.7546771E-02  0.1288651E+00
         -1   -1    0    0    0  501 -0.00000000000E+00  0.00000000000E+00  0.40282926580E+03  0.40282926580E+03  0.00000000000E+00 0.  1.
          2   -1    0    0  502    0  0.00000000000E+00 -0.00000000000E+00 -0.74575685644E+02  0.74575685644E+02  0.00000000000E+00 0. -1.
         24    2    1    2    0    0 -0.31883909531E+01  0.11230780334E+02  0.26205843453E+03  0.27439952141E+03  0.80524393701E+02 0.  0.
         23    2    1    2    0    0  0.21001174219E+01 -0.45686081972E+02 -0.27091229184E+02  0.10355343218E+03  0.88869286252E+02 0.  0.
        -11    1    3    3    0    0  0.35926856079E+02  0.11388731716E+02  0.83572534683E+02  0.91677754942E+02  0.00000000000E+00 0.  1.
         12    1    3    3    0    0 -0.39115247033E+02 -0.15795138117E+00  0.17848589984E+03  0.18272176647E+03  0.00000000000E+00 0. -1.
        -11    1    4    4    0    0 -0.17852151520E+02 -0.91339112563E+01  0.28033426447E+02  0.34467385267E+02  0.00000000000E+00 0.  1.
         11    1    4    4    0    0  0.19952268942E+02 -0.36552170715E+02 -0.55124655632E+02  0.69086046916E+02  0.00000000000E+00 0. -1.
         21    1    1    2  502  501  0.10882735312E+01  0.34455301637E+02  0.93286374810E+02  0.99451997845E+02  0.00000000000E+00 0.  1.
<scales pt_clust_5="13000.00000" pt_clust_6="13000.00000" pt_clust_7="13000.00000" pt_clust_8="13000.00000" pt_clust_9="34.47248"></scales>
<clustering>
<clus scale="   34.472">  1  9  2 -1</clus>
<clus scale="   80.524">  5  6 -1 -1</clus>
<clus scale="   88.869">  7  8 -1 -1</clus>
<clus scale="   90.566">  1  5  2 -1</clus>
<clus scale="   98.060">  2  5  1 -1</clus>
</clustering>
</event>
<event>
 9    2  0.3402837E-005  0.1246038E+03  0.7546771E-02  0.1238293E+00
         -1   -1    0    0    0  501 -0.00000000000E+00  0.00000000000E+00  0.13019548891E+03  0.13019548891E+03  0.00000000000E+00 0.  1.
          2   -1    0    0  502    0  0.00000000000E+00 -0.00000000000E+00 -0.39700363016E+03  0.39700363016E+03  0.00000000000E+00 0. -1.
         24    2    1    2    0    0 -0.71240111585E+02  0.11129771407E+02  0.64823663185E+02  0.12705856930E+03  0.82114233923E+02 0.  0.
         23    2    1    2    0    0  0.86504654207E+02  0.31681292621E+01 -0.35025962268E+03  0.37213283945E+03  0.91147982269E+02 0.  0.
        -11    1    3    3    0    0 -0.75499871043E+02 -0.11131652469E+02  0.70278706128E+02  0.10374603968E+03  0.00000000000E+00 0.  1.
         12    1    3    3    0    0  0.42597594573E+01  0.22261423876E+02 -0.54550429429E+01  0.23312529617E+02  0.00000000000E+00 0. -1.
        -13    1    4    4    0    0 -0.85951366389E+01  0.24096536353E+02 -0.45556928153E+02  0.52248953490E+02  0.00000000000E+00 0.  1.
         13    1    4    4    0    0  0.95099790846E+02 -0.20928407091E+02 -0.30470269453E+03  0.31988388596E+03  0.00000000000E+00 0. -1.
         21    1    1    2  502  501 -0.15264542621E+02 -0.14297900669E+02  0.18627818246E+02  0.28007710324E+02  0.00000000000E+00 0.  1.
<scales pt_clust_5="13000.00000" pt_clust_6="13000.00000" pt_clust_7="13000.00000" pt_clust_8="13000.00000" pt_clust_9="20.91498"></scales>
<clustering>
<clus scale="   20.915">  1  9  2 -1</clus>
<clus scale="   82.114">  5  6 -1 -1</clus>
<clus scale="   91.148">  7  8 -1 -1</clus>
<clus scale="  118.156">  1  5  2 -1</clus>
<clus scale="  124.604">  2  5  1 -1</clus>
</clustering>
</event>
<event>
 9    2  0.3402837E-005  0.1736607E+03  0.7546771E-02  0.1187286E+00
         -1   -1    0    0    0  501 -0.00000000000E+00  0.00000000000E+00  0.55730159107E+03  0.55730159107E+03  0.00000000000E+00 0.  1.
          2   -1    0    0  502    0  0.00000000000E+00 -0.00000000000E+00 -0.47763717074E+03  0.47763717074E+03  0.00000000000E+00 0. -1.
         23    2    1    2    0    0 -0.17693281551E+03  0.28401849142E+02  0.33884262876E+03  0.39375994577E+03  0.90114824452E+02 0.  0.
         24    2    1    2    0    0  0.55423135396E+02 -0.83061013468E+02 -0.41589795088E+03  0.43547683676E+03  0.81842005793E+02 0.  0.
        -11    1    4    4    0    0 -0.14418673051E+02 -0.31016795612E+02 -0.19590858642E+03  0.19887210457E+03  0.00000000000E+00 0.  1.
         12    1    4    4    0    0  0.69841808447E+02 -0.52044217855E+02 -0.21998936446E+03  0.23660473219E+03  0.00000000000E+00 0. -1.
        -13    1    3    3    0    0 -0.11521117469E+02  0.18199783664E+02  0.66839416787E+01  0.22553122833E+02  0.00000000000E+00 0. -1.
         13    1    3    3    0    0 -0.16541169804E+03  0.10202065478E+02  0.33215868708E+03  0.37120682293E+03  0.00000000000E+00 0.  1.
         21    1    1    2  502  501  0.12150968012E+03  0.54659164325E+02  0.15671974245E+03  0.20570197928E+03  0.00000000000E+00 0. -1.
<scales pt_clust_5="13000.00000" pt_clust_6="13000.00000" pt_clust_7="13000.00000" pt_clust_8="13000.00000" pt_clust_9="148.44979"></scales>
<clustering>
<clus scale="   81.842">  5  6 -1 -1</clus>
<clus scale="   90.115">  7  8 -1 -1</clus>
<clus scale="  129.108">  2  5  1 -1</clus>
<clus scale="  148.450">  2  9  1 -1</clus>
<clus scale="  129.108">  2  5  1 -1</clus>
</clustering>
</event>
<event>
 9    2  0.3402837E-005  0.9120107E+02  0.7546771E-02  0.1306067E+00
         -1   -1    0    0    0  501 -0.00000000000E+00  0.00000000000E+00  0.20868928278E+03  0.20868928278E+03  0.00000000000E+00 0.  1.
          2   -1    0    0  502    0  0.00000000000E+00 -0.00000000000E+00 -0.47892241056E+03  0.47892241056E+03  0.00000000000E+00 0. -1.
         23    2    1    2    0    0 -0.31243064498E+02 -0.25907386871E+02  0.13365020692E+03  0.16656354359E+03  0.90739817434E+02 0.  0.
         24    2    1    2    0    0  0.86262721084E+01 -0.62617587276E+00 -0.45330202970E+03  0.46056875934E+03  0.81031150109E+02 0.  0.
        -13    1    4    4    0    0 -0.34306701456E+02  0.84900240901E+01 -0.14997819660E+03  0.15408598161E+03  0.00000000000E+00 0.  1.
         14    1    4    4    0    0  0.42932973564E+02 -0.91161999628E+01 -0.30332383310E+03  0.30648277773E+03  0.00000000000E+00 0. -1.
        -11    1    3    3    0    0 -0.56179716617E+02  0.73054805482E+01  0.64017280929E+02  0.85485337121E+02  0.00000000000E+00 0. -1.
         11    1    3    3    0    0  0.24936652119E+02 -0.33212867419E+02  0.69632925995E+02  0.81078206466E+02  0.00000000000E+00 0.  1.
         21    1    1    2  502  501  0.22616792390E+02  0.26533562744E+02  0.49418694998E+02  0.60479390416E+02  0.00000000000E+00 0.  1.
<scales pt_clust_5="13000.00000" pt_clust_6="13000.00000" pt_clust_7="13000.00000" pt_clust_8="13000.00000" pt_clust_9="34.86473"></scales>
<clustering>
<clus scale="   34.865">  1  9  2 -1</clus>
<clus scale="   81.031">  5  6 -1 -1</clus>
<clus scale="   81.547">  2  5  1 -1</clus>
<clus scale="   90.740">  7  8 -1 -1</clus>
<clus scale="   81.547">  2  5  1 -1</clus>
</clustering>
</event>
<event>
 9    2  0.3402837E-005  0.1267256E+03  0.7546771E-02  0.1235993E+00
         -3   -1    0    0    0  501 -0.00000000000E+00  0.00000000000E+00  0.25667134093E+03  0.25667134093E+03  0.00000000000E+00 0.  1.
          4   -1    0    0  502    0  0.00000000000E+00 -0.00000000000E+00 -0.30226247891E+03  0.30226247891E+03  0.00000000000E+00 0. -1.
         23    2    1    2    0    0  0.30736028207E+02 -0.57175209954E+02  0.76891589062E+02  0.13643283379E+03  0.92129765034E+02 0.  0.
         24    2    1    2    0    0 -0.29172772836E+02  0.84988566875E+02 -0.25782960593E+03  0.28431703540E+03  0.79284069959E+02 0.  0.
        -13    1    4    4    0    0 -0.47565011310E+02  0.19635340340E+02 -0.98676292058E+02  0.11128785875E+03  0.00000000000E+00 0.  1.
         14    1    4    4    0    0  0.18392238474E+02  0.65353226535E+02 -0.15915331387E+03  0.17302917665E+03  0.00000000000E+00 0. -1.
        -11    1    3    3    0    0  0.61102166726E+02 -0.31358578615E+02  0.30151959666E+02  0.75006505739E+02  0.00000000000E+00 0. -1.
         11    1    3    3    0    0 -0.30366138519E+02 -0.25816631338E+02  0.46739629396E+02  0.61426328055E+02  0.00000000000E+00 0.  1.
         21    1    1    2  502  501 -0.15632553713E+01 -0.27813356921E+02  0.13534687889E+03  0.13818395064E+03  0.00000000000E+00 0.  1.
<scales pt_clust_5="13000.00000" pt_clust_6="13000.00000" pt_clust_7="13000.00000" pt_clust_8="13000.00000" pt_clust_9="27.85725"></scales>
<clustering>
<clus scale="   27.857">  1  9  2 -1</clus>
<clus scale="   79.284">  5  6 -1 -1</clus>
<clus scale="   92.130">  7  8 -1 -1</clus>
<clus scale="  117.718">  2  5  1 -1</clus>
<clus scale="  117.718">  2  5  1 -1</clus>
</clustering>
</event>
<event>
 9    2  0.3402837E-005  0.1177621E+03  0.7546771E-02  0.1248068E+00
         -1   -1    0    0    0  501 -0.00000000000E+00  0.00000000000E+00  0.28416163053E+02  0.28416163053E+02  0.00000000000E+00 0.  1.
          2   -1    0    0  502    0  0.00000000000E+00 -0.00000000000E+00 -0.86278333832E+03  0.86278333832E+03  0.00000000000E+00 0. -1.
         24    2    1    2    0    0 -0.57356003410E+02 -0.45373760751E+02 -0.14352512537E+03  0.18519598800E+03  0.91376162469E+02 0.  0.
         23    2    1    2    0    0  0.76503606321E+02  0.27984966562E+02 -0.57144198701E+03  0.58383405778E+03  0.87637334394E+02 0.  0.
        -11    1    3    3    0    0 -0.78526518996E+02 -0.27928041024E+02 -0.77960507985E+02  0.11412375067E+03  0.00000000000E+00 0.  1.
         12    1    3    3    0    0  0.21170515585E+02 -0.17445719727E+02 -0.65564617384E+02  0.71072237334E+02  0.00000000000E+00 0. -1.
        -11    1    4    4    0    0 -0.18012652068E+02  0.14882999651E+02 -0.86933223036E+02  0.90018579085E+02  0.00000000000E+00 0.  1.
         11    1    4    4    0    0  0.94516258389E+02  0.13101966911E+02 -0.48450876397E+03  0.49381547870E+03  0.00000000000E+00 0. -1.
         21    1    1    2  502  501 -0.19147602910E+02  0.17388794190E+02 -0.11940006289E+03  0.12216945559E+03  0.00000000000E+00 0. -1.
<scales pt_clust_5="13000.00000" pt_clust_6="13000.00000" pt_clust_7="13000.00000" pt_clust_8="13000.00000" pt_clust_9="25.86505"></scales>
<clustering>
<clus scale="   25.865">  2  9  1 -1</clus>
<clus scale="   87.637">  7  8 -1 -1</clus>
<clus scale="   91.376">  5  6 -1 -1</clus>
<clus scale="  114.885">  2  7  1 -1</clus>
<clus scale="   25.865">  2  5  1 -1</clus>
</clustering>
</event>
<event>
 9    2  0.3402837E-005  0.1049746E+03  0.7546771E-02  0.1276154E+00
          2   -1    0    0  502    0  0.00000000000E+00  0.00000000000E+00  0.51340490501E+03  0.51340490501E+03  0.00000000000E+00 0. -1.
         -1   -1    0    0    0  501 -0.00000000000E+00 -0.00000000000E+00 -0.24076991612E+03  0.24076991612E+03  0.00000000000E+00 0.  1.
         24    2    1    2    0    0  0.16708460292E+02 -0.51599890627E+02 -0.12327646490E+03  0.15653577801E+03  0.79778704175E+02 0.  0.
         23    2    1    2    0    0  0.45520797388E+01  0.48613741482E+02  0.49000926311E+03  0.50112310990E+03  0.92904661089E+02 0.  0.
        -13    1    3    3    0    0  0.42468130822E+01 -0.58822660096E+02 -0.12836109127E+03  0.14126114298E+03  0.00000000000E+00 0.  1.
         14    1    3    3    0    0  0.12461647210E+02  0.72227694692E+01  0.50846263722E+01  0.15274635031E+02  0.00000000000E+00 0. -1.
        -13    1    4    4    0    0  0.42547389000E+02  0.49762186408E+02  0.26788382039E+03  0.27576855646E+03  0.00000000000E+00 0.  1.
         13    1    4    4    0    0 -0.37995309262E+02 -0.11484449258E+01  0.22212544272E+03  0.22535455344E+03  0.00000000000E+00 0. -1.
         21    1    1    2  502  501 -0.21260540031E+02  0.29861491447E+01 -0.94097809310E+02  0.96515933224E+02  0.00000000000E+00 0. -1.
<scales pt_clust_5="13000.00000" pt_clust_6="13000.00000" pt_clust_7="13000.00000" pt_clust_8="13000.00000" pt_clust_9="21.46923"></scales>
<clustering>
<clus scale="   21.469">  2  9  1 -1</clus>
<clus scale="   79.779">  5  6 -1 -1</clus>
<clus scale="   92.905">  7  8 -1 -1</clus>
<clus scale="   93.558">  2  5  1 -1</clus>
<clus scale="  104.975">  1  5  2 -1</clus>
</clustering>
</event>
<event>
 9    2  0.3402837E-005  0.2143254E+03  0.7546771E-02  0.1138904E+00
         -1   -1    0    0    0  501 -0.00000000000E+00  0.00000000000E+00  0.73886801468E+03  0.73886801468E+03  0.00000000000E+00 0.  1.
          2   -1    0    0  502    0  0.00000000000E+00 -0.00000000000E+00 -0.29628959515E+03  0.29628959515E+03  0.00000000000E+00 0. -1.
         24    2    1    2    0    0  0.77863412288E+02 -0.13093947029E+03  0.27305764803E+03  0.32279014952E+03  0.80157006120E+02 0.  0.
         23    2    1    2    0    0 -0.77884512698E+02  0.18573561561E+03 -0.22448812815E+03  0.31456646610E+03  0.89405960027E+02 0.  0.
        -13    1    3    3    0    0  0.24317937179E+02 -0.11145697721E+03  0.19858769396E+03  0.22902203394E+03  0.00000000000E+00 0.  1.
         14    1    3    3    0    0  0.53545475109E+02 -0.19482493078E+02  0.74469954066E+02  0.93768115582E+02  0.00000000000E+00 0. -1.
        -13    1    4    4    0    0 -0.32982677303E+02  0.12018034137E+03 -0.75488985182E+02  0.14570435250E+03  0.00000000000E+00 0.  1.
         13    1    4    4    0    0 -0.44901835395E+02  0.65555274240E+02 -0.14899914297E+03  0.16886211360E+03  0.00000000000E+00 0. -1.
         21    1    1    2  502  501  0.21100409548E-01 -0.54796145328E+02  0.39400889966E+03  0.39780099421E+03  0.00000000000E+00 0.  1.
<scales pt_clust_5="13000.00000" pt_clust_6="13000.00000" pt_clust_7="13000.00000" pt_clust_8="13000.00000" pt_clust_9="54.79615"></scales>
<clustering>
<clus scale="   54.796">  1  9  2 -1</clus>
<clus scale="   80.157">  5  6 -1 -1</clus>
<clus scale="   89.406">  7  8 -1 -1</clus>
<clus scale="  210.635">  1  5  2 -1</clus>
<clus scale="  214.325">  2  5  1 -1</clus>
</clustering>
</event>
<event>
 9    2  0.3402837E-005  0.2832287E+03  0.7546771E-02  0.1095804E+00
         -1   -1    0    0    0  501 -0.00000000000E+00  0.00000000000E+00  0.27227425324E+03  0.27227425324E+03  0.00000000000E+00 0.  1.
          2   -1    0    0  502    0  0.00000000000E+00 -0.00000000000E+00 -0.10307321559E+04  0.10307321559E+04  0.00000000000E+00 0. -1.
         23    2    1    2    0    0 -0.22777303726E+03  0.61101032135E+02 -0.14057822069E+02  0.26431709122E+03  0.11854117310E+03 0.  0.
         24    2    1    2    0    0  0.26120053249E+03  0.37414494473E+02 -0.84804056511E+03  0.89184226678E+03  0.81143491237E+02 0.  0.
        -13    1    4    4    0    0  0.23344162187E+03  0.28255743650E+02 -0.64141352144E+03  0.68315787586E+03  0.00000000000E+00 0.  1.
         14    1    4    4    0    0  0.27758910627E+02  0.91587508229E+01 -0.20662704367E+03  0.20868439091E+03  0.00000000000E+00 0. -1.
        -11    1    3    3    0    0 -0.14562570907E+03  0.81262323216E+02 -0.47442955819E+02  0.17338179366E+03  0.00000000000E+00 0. -1.
         11    1    3    3    0    0 -0.82147328191E+02 -0.20161291081E+02  0.33385133751E+02  0.90935297561E+02  0.00000000000E+00 0.  1.
         21    1    1    2  502  501 -0.33427495237E+02 -0.98515526609E+02  0.10364048448E+03  0.14684705119E+03  0.00000000000E+00 0.  1.
<scales pt_clust_5="13000.00000" pt_clust_6="13000.00000" pt_clust_7="13000.00000" pt_clust_8="13000.00000" pt_clust_9="104.03224"></scales>
<clustering>
<clus scale="   81.143">  5  6 -1 -1</clus>
<clus scale="  104.032">  1  9  2 -1</clus>
<clus scale="  118.541">  7  8 -1 -1</clus>
<clus scale="  269.723">  2  5  1 -1</clus>
<clus scale="  269.723">  2  5  1 -1</clus>
</clustering>
</event>
<event>
 9    2  0.3402837E-005  0.9819000E+02  0.7546771E-02  0.1289179E+00
         -1   -1    0    0    0  501 -0.00000000000E+00  0.00000000000E+00  0.17916760680E+03  0.17916760680E+03  0.00000000000E+00 0.  1.
          2   -1    0    0  502    0  0.00000000000E+00 -0.00000000000E+00 -0.30632744517E+03  0.30632744517E+03  0.00000000000E+00 0. -1.
         23    2    1    2    0    0 -0.38262762977E+02  0.14528435848E+02  0.13791607751E+03  0.16989847989E+03  0.90385477566E+02 0.  0.
         24    2    1    2    0    0  0.36941696230E+02  0.11275704563E+02 -0.27402824067E+03  0.28825168227E+03  0.80658075946E+02 0.  0.
        -11    1    4    4    0    0  0.36145067496E+02  0.43364996870E+02 -0.15459364910E+03  0.16457881151E+03  0.00000000000E+00 0.  1.
         12    1    4    4    0    0  0.79662873343E+00 -0.32089292307E+02 -0.11943459157E+03  0.12367287076E+03  0.00000000000E+00 0. -1.
        -13    1    3    3    0    0 -0.26593482359E+01 -0.29665422851E+02  0.12617144842E+02  0.32346588536E+02  0.00000000000E+00 0. -1.
         13    1    3    3    0    0 -0.35603414741E+02  0.44193858698E+02  0.12529893266E+03  0.13755189135E+03  0.00000000000E+00 0.  1.
         21    1    1    2  502  501  0.13210667468E+01 -0.25804140411E+02  0.89523247847E+01  0.27344889811E+02  0.00000000000E+00 0. -1.
<scales pt_clust_5="13000.00000" pt_clust_6="13000.00000" pt_clust_7="13000.00000" pt_clust_8="13000.00000" pt_clust_9="25.83793"></scales>
<clustering>
<clus scale="   25.838">  1  9  2 -1</clus>
<clus scale="   80.658">  5  6 -1 -1</clus>
<clus scale="   89.317">  2  5  1 -1</clus>
<clus scale="   90.385">  7  8 -1 -1</clus>
<clus scale="   89.317">  2  5  1 -1</clus>
</clustering>
</event>
<event>
 9    2  0.3402837E-005  0.9745152E+02  0.7546771E-02  0.1290418E+00
          2   -1    0    0  502    0  0.00000000000E+00  0.00000000000E+00  0.99497626281E+03  0.99497626281E+03  0.00000000000E+00 0. -1.
         -1   -1    0    0    0  501 -0.00000000000E+00 -0.00000000000E+00 -0.27828068895E+02  0.27828068895E+02  0.00000000000E+00 0.  1.
         23    2    1    2    0    0 -0.13377365301E+02 -0.25081326441E+01  0.11445664068E+03  0.14624134066E+03  0.90005347009E+02 0.  0.
         24    2    1    2    0    0  0.22155353359E+02 -0.36301149212E+02  0.81991952949E+03  0.82501477117E+03  0.81072218951E+02 0.  0.
        -11    1    4    4    0    0 -0.47148058341E+01 -0.26451205495E+02  0.77160043370E+02  0.81704148971E+02  0.00000000000E+00 0.  1.
         12    1    4    4    0    0  0.26870159193E+02 -0.98499437176E+01  0.74275948612E+03  0.74331062220E+03  0.00000000000E+00 0. -1.
        -13    1    3    3    0    0  0.28180758454E+02 -0.18763939559E+02  0.88178219375E+02  0.94454427884E+02  0.00000000000E+00 0. -1.
         13    1    3    3    0    0 -0.41558123754E+02  0.16255806915E+02  0.26278421305E+02  0.51786912775E+02  0.00000000000E+00 0.  1.
         21    1    1    2  502  501 -0.87779880586E+01  0.38809281857E+02  0.32772023746E+02  0.51548219882E+02  0.00000000000E+00 0.  1.
<scales pt_clust_5="13000.00000" pt_clust_6="13000.00000" pt_clust_7="13000.00000" pt_clust_8="13000.00000" pt_clust_9="39.78961"></scales>
<clustering>
<clus scale="   39.790">  2  9  1 -1</clus>
<clus scale="   81.072">  5  6 -1 -1</clus>
<clus scale="   89.267">  1  5  2 -1</clus>
<clus scale="   90.005">  7  8 -1 -1</clus>
<clus scale="   89.267">  1  5  2 -1</clus>
</clustering>
</event>
<event>
 9    2  0.3402837E-005  0.2413074E+03  0.7546771E-02  0.1120622E+00
          2   -1    0    0  502    0  0.00000000000E+00  0.00000000000E+00  0.10142312076E+04  0.10142312076E+04  0.00000000000E+00 0. -1.
         -1   -1    0    0    0  501 -0.00000000000E+00 -0.00000000000E+00 -0.34867720013E+03  0.34867720013E+03  0.00000000000E+00 0.  1.
         23    2    1    2    0    0 -0.97639887099E+02 -0.17734088513E+03 -0.16327728349E+03  0.28107134695E+03  0.10657529582E+03 0.  0.
         24    2    1    2    0    0  0.81173335702E+02  0.20176332331E+03  0.93926603093E+03  0.96754167768E+03  0.81355221915E+02 0.  0.
        -11    1    4    4    0    0  0.41552803746E+02  0.14461186406E+03  0.47969796876E+03  0.50274185022E+03  0.00000000000E+00 0.  1.
         12    1    4    4    0    0  0.39620531955E+02  0.57151459248E+02  0.45956806216E+03  0.46479982746E+03  0.00000000000E+00 0. -1.
        -11    1    3    3    0    0 -0.84984764093E+02 -0.14108374951E+03 -0.17558709247E+03  0.24074439048E+03  0.00000000000E+00 0.  1.
         11    1    3    3    0    0 -0.12655123006E+02 -0.36257135614E+02  0.12309808975E+02  0.40326956471E+02  0.00000000000E+00 0. -1.
         21    1    1    2  502  501  0.16466551398E+02 -0.24422438181E+02 -0.11043473998E+03  0.11429538309E+03  0.00000000000E+00 0.  1.
<scales pt_clust_5="13000.00000" pt_clust_6="13000.00000" pt_clust_7="13000.00000" pt_clust_8="13000.00000" pt_clust_9="29.45510"></scales>
<clustering>
<clus scale="   29.455">  2  9  1 -1</clus>
<clus scale="   81.355">  5  6 -1 -1</clus>
<clus scale="  106.575">  7  8 -1 -1</clus>
<clus scale="  231.278">  1  5  2 -1</clus>
<clus scale="  231.278">  1  5  2 -1</clus>
</clustering>
</event>
<event>
 9    2  0.3402837E-005  0.9709365E+02  0.7546771E-02  0.1294152E+00
         -3   -1    0    0    0  501 -0.00000000000E+00  0.00000000000E+00  0.35114741221E+02  0.35114741221E+02  0.00000000000E+00 0.  1.
          4   -1    0    0  502    0  0.00000000000E+00 -0.00000000000E+00 -0.67133955704E+03  0.67133955704E+03  0.00000000000E+00 0. -1.
         23    2    1    2    0    0 -0.18782863204E+02  0.18269424225E+02 -0.14308407332E+03  0.17269206852E+03  0.93074865998E+02 0.  0.
         24    2    1    2    0    0 -0.23375295985E+01 -0.29838504512E+02 -0.50121397401E+03  0.50836357470E+03  0.79512740777E+02 0.  0.
        -13    1    4    4    0    0 -0.24228581204E+02 -0.28631264356E+02 -0.10420198516E+03  0.11074668012E+03  0.00000000000E+00 0.  1.
         14    1    4    4    0    0  0.21891051606E+02 -0.12072401566E+01 -0.39701198885E+03  0.39761689459E+03  0.00000000000E+00 0. -1.
        -13    1    3    3    0    0 -0.12337721161E+01 -0.36218288807E+02 -0.78051694167E+02  0.86054364213E+02  0.00000000000E+00 0. -1.
         13    1    3    3    0    0 -0.17549091088E+02  0.54487713031E+02 -0.65032379148E+02  0.86637704304E+02  0.00000000000E+00 0.  1.
         21    1    1    2  502  501  0.21120392803E+02  0.11569080287E+02  0.80732315083E+01  0.25398655040E+02  0.00000000000E+00 0.  1.
<scales pt_clust_5="13000.00000" pt_clust_6="13000.00000" pt_clust_7="13000.00000" pt_clust_8="13000.00000" pt_clust_9="24.08142"></scales>
<clustering>
<clus scale="   24.081">  1  9  2 -1</clus>
<clus scale="   79.513">  5  6 -1 -1</clus>
<clus scale="   84.181">  2  5  1 -1</clus>
<clus scale="   93.075">  7  8 -1 -1</clus>
<clus scale="   84.181">  2  5  1 -1</clus>
</clustering>
</event>
<event>
 9    2  0.3402837E-005  0.1466112E+03  0.7546771E-02  0.1206058E+00
         -1   -1    0    0    0  501 -0.00000000000E+00  0.00000000000E+00  0.21856418207E+03  0.21856418207E+03  0.00000000000E+00 0.  1.
          2   -1    0    0  502    0  0.00000000000E+00 -0.00000000000E+00 -0.36638973811E+03  0.36638973811E+03  0.00000000000E+00 0. -1.
         24    2    1    2    0    0  0.22175879715E+02 -0.80492729940E+02  0.15212036367E+03  0.19155710762E+03  0.81133662690E+02 0.  0.
         23    2    1    2    0    0 -0.71143671746E+02  0.97747259213E+02 -0.30644998059E+03  0.34107218887E+03  0.88332885740E+02 0.  0.
        -11    1    3    3    0    0  0.29988025197E+02 -0.75065719813E+02  0.15996415117E+03  0.17922799337E+03  0.00000000000E+00 0.  1.
         12    1    3    3    0    0 -0.78121454825E+01 -0.54270101270E+01 -0.78437874983E+01  0.12329114253E+02  0.00000000000E+00 0. -1.
        -11    1    4    4    0    0 -0.47349182610E+02  0.70848627037E+02 -0.99382468258E+02  0.13091351360E+03  0.00000000000E+00 0.  1.
         11    1    4    4    0    0 -0.23794489136E+02  0.26898632176E+02 -0.20706751233E+03  0.21015867526E+03  0.00000000000E+00 0. -1.
         21    1    1    2  502  501  0.48967792031E+02 -0.17254529272E+02  0.65040608687E+01  0.52324623693E+02  0.00000000000E+00 0.  1.
<scales pt_clust_5="13000.00000" pt_clust_6="13000.00000" pt_clust_7="13000.00000" pt_clust_8="13000.00000" pt_clust_9="51.91882"></scales>
<clustering>
<clus scale="   51.919">  1  9  2 -1</clus>
<clus scale="   81.134">  5  6 -1 -1</clus>
<clus scale="   88.333">  7  8 -1 -1</clus>
<clus scale="  142.390">  1  5  2 -1</clus>
<clus scale="  146.611">  2  5  1 -1</clus>
</clustering>
</event>
<event>
 9    2  0.3402837E-005  0.1014516E+03  0.7546771E-02  0.1284581E+00
          2   -1    0    0  502    0  0.00000000000E+00  0.00000000000E+00  0.17818447454E+03  0.17818447454E+03  0.00000000000E+00 0. -1.
         -1   -1    0    0    0  501 -0.00000000000E+00 -0.00000000000E+00 -0.17274212441E+03  0.17274212441E+03  0.00000000000E+00 0.  1.
         23    2    1    2    0    0 -0.26961404407E+02  0.32219027108E+02 -0.10509375450E+01  0.10314341482E+03  0.94193824188E+02 0.  0.
         24    2    1    2    0    0  0.38469259300E+02 -0.55854667513E+01  0.10937355317E+03  0.14089012406E+03  0.79852185773E+02 0.  0.
        -13    1    4    4    0    0 -0.14761547163E+02 -0.18395891081E+02  0.66812765277E+01  0.24514312949E+02  0.00000000000E+00 0.  1.
         14    1    4    4    0    0  0.53230806463E+02  0.12810424330E+02  0.10269227665E+03  0.11637581111E+03  0.00000000000E+00 0. -1.
        -13    1    3    3    0    0 -0.38604250745E+02  0.54803156509E+01 -0.39089642573E+02  0.55211612834E+02  0.00000000000E+00 0.  1.
         13    1    3    3    0    0  0.11642846338E+02  0.26738711458E+02  0.38038705028E+02  0.47931801985E+02  0.00000000000E+00 0. -1.
         21    1    1    2  502  501 -0.11507854893E+02 -0.26633560357E+02 -0.10288026551E+03  0.10689306008E+03  0.00000000000E+00 0.  1.
<scales pt_clust_5="13000.00000" pt_clust_6="13000.00000" pt_clust_7="13000.00000" pt_clust_8="13000.00000" pt_clust_9="29.01340"></scales>
<clustering>
<clus scale="   29.013">  2  9  1 -1</clus>
<clus scale="   79.852">  5  6 -1 -1</clus>
<clus scale="   88.297">  1  5  2 -1</clus>
<clus scale="   94.194">  7  8 -1 -1</clus>
<clus scale="   88.297">  1  5  2 -1</clus>
</clustering>
</event>
<event>
 9    2  0.3402837E-005  0.9339986E+02  0.7546771E-02  0.1301908E+00
         -1   -1    0    0    0  501 -0.00000000000E+00  0.00000000000E+00  0.10243003796E+03  0.10243003796E+03  0.00000000000E+00 0.  1.
          2   -1    0    0  502    0  0.00000000000E+00 -0.00000000000E+00 -0.22332572892E+03  0.22332572892E+03  0.00000000000E+00 0. -1.
         23    2    1    2    0    0 -0.27522297325E+01 -0.37086241468E+02 -0.14244351377E+01  0.98906142303E+02  0.91637502667E+02 0.  0.
         24    2    1    2    0    0 -0.58948368561E+01  0.13586909786E+02 -0.15985566245E+03  0.17933235774E+03  0.79918136209E+02 0.  0.
        -13    1    4    4    0    0  0.26905678225E+01 -0.33401622889E+02 -0.65192489550E+02  0.73300533836E+02  0.00000000000E+00 0.  1.
         14    1    4    4    0    0 -0.85854046785E+01  0.46988532675E+02 -0.94663172898E+02  0.10603182390E+03  0.00000000000E+00 0. -1.
        -11    1    3    3    0    0  0.29347153430E+02  0.18187185229E+02 -0.50109259413E+01  0.34887512089E+02  0.00000000000E+00 0. -1.
         11    1    3    3    0    0 -0.32099383162E+02 -0.55273426697E+02  0.35864908036E+01  0.64018630214E+02  0.00000000000E+00 0.  1.
         21    1    1    2  502  501  0.86470665885E+01  0.23499331683E+02  0.40384406623E+02  0.47517266845E+02  0.00000000000E+00 0. -1.
<scales pt_clust_5="13000.00000" pt_clust_6="13000.00000" pt_clust_7="13000.00000" pt_clust_8="13000.00000" pt_clust_9="25.03978"></scales>
<clustering>
<clus scale="   25.040">  1  9  2 -1</clus>
<clus scale="   79.918">  5  6 -1 -1</clus>
<clus scale="   81.933">  2  5  1 -1</clus>
<clus scale="   91.638">  7  8 -1 -1</clus>
<clus scale="   81.933">  2  5  1 -1</clus>
</clustering>
</event>
<event>
 9    2  0.3402837E-005  0.1114901E+03  0.7546771E-02  0.1265874E+00
         -1   -1    0    0    0  501 -0.00000000000E+00  0.00000000000E+00  0.42134463881E+03  0.42134463881E+03  0.00000000000E+00 0.  1.
          2   -1    0    0  502    0  0.00000000000E+00 -0.00000000000E+00 -0.17925890412E+03  0.17925890412E+03  0.00000000000E+00 0. -1.
         23    2    1    2    0    0 -0.59091634474E+00 -0.27876580879E+02  0.55765645074E+02  0.11036631655E+03  0.91068456196E+02 0.  0.
         24    2    1    2    0    0  0.42897959443E+02 -0.62476736839E+02 -0.12292594634E+03  0.16529612607E+03  0.80426633888E+02 0.  0.
        -11    1    4    4    0    0 -0.88572932280E+01 -0.45883579460E+02 -0.24263812070E+02  0.52654411814E+02  0.00000000000E+00 0.  1.
         12    1    4    4    0    0  0.51755252671E+02 -0.16593157380E+02 -0.98662134273E+02  0.11264171425E+03  0.00000000000E+00 0. -1.
        -13    1    3    3    0    0 -0.31127293678E+02  0.14172827616E+02  0.46269657268E+02  0.57538323212E+02  0.00000000000E+00 0. -1.
         13    1    3    3    0    0  0.30536377333E+02 -0.42049408495E+02  0.94959878055E+01  0.52827993335E+02  0.00000000000E+00 0.  1.
         21    1    1    2  502  501 -0.42307043098E+02  0.90353317719E+02  0.30924603596E+03  0.32494110031E+03  0.00000000000E+00 0.  1.
<scales pt_clust_5="13000.00000" pt_clust_6="13000.00000" pt_clust_7="13000.00000" pt_clust_8="13000.00000" pt_clust_9="77.21137"></scales>
<clustering>
<clus scale="   80.427">  5  6 -1 -1</clus>
<clus scale="   91.068">  7  8 -1 -1</clus>
<clus scale="   95.241">  1  7  2 -1</clus>
<clus scale="   77.211">  1  9  2 -1</clus>
<clus scale="  111.490">  2  5  1 -1</clus>
</clustering>
</event>
<event>
 9    2  0.3402837E-005  0.1463402E+03  0.7546771E-02  0.1206644E+00
          2   -1    0    0  502    0  0.00000000000E+00  0.00000000000E+00  0.90808509996E+03  0.90808509996E+03  0.00000000000E+00 0. -1.
         -1   -1    0    0    0  501 -0.00000000000E+00 -0.00000000000E+00 -0.64561782208E+02  0.64561782208E+02  0.00000000000E+00 0.  1.
         23    2    1    2    0    0  0.91424179987E+02  0.53698354617E+02  0.59159070912E+02  0.15059955809E+03  0.89098469411E+02 0.  0.
         24    2    1    2    0    0 -0.90563699605E+02 -0.75134321377E+02  0.78753800050E+03  0.80036060441E+03  0.80709633428E+02 0.  0.
        -13    1    4    4    0    0 -0.83152107553E+02 -0.92144840266E+02  0.68049524841E+03  0.69172156804E+03  0.00000000000E+00 0.  1.
         14    1    4    4    0    0 -0.74115920518E+01  0.17010518889E+02  0.10704275209E+03  0.10863903638E+03  0.00000000000E+00 0. -1.
        -11    1    3    3    0    0  0.99490733794E+02  0.21175711426E+02  0.29656468747E+02  0.10595434396E+03  0.00000000000E+00 0.  1.
         11    1    3    3    0    0 -0.80665538067E+01  0.32522643191E+02  0.29502602165E+02  0.44645214133E+02  0.00000000000E+00 0. -1.
         21    1    1    2  502  501 -0.86048038267E+00  0.21435966760E+02 -0.31737536624E+01  0.21686719663E+02  0.00000000000E+00 0. -1.
<scales pt_clust_5="13000.00000" pt_clust_6="13000.00000" pt_clust_7="13000.00000" pt_clust_8="13000.00000" pt_clust_9="21.45323"></scales>
<clustering>
<clus scale="   21.453">  2  9  1 -1</clus>
<clus scale="   80.710">  5  6 -1 -1</clus>
<clus scale="   89.098">  7  8 -1 -1</clus>
<clus scale="  141.389">  1  5  2 -1</clus>
<clus scale="  141.389">  1  5  2 -1</clus>
</clustering>
</event>
<event>
 9    2  0.3402837E-005  0.1527922E+03  0.7546771E-02  0.1198834E+00
         -1   -1    0    0    0  501 -0.00000000000E+00  0.00000000000E+00  0.70557395437E+03  0.70557395437E+03  0.00000000000E+00 0.  1.
          2   -1    0    0  502    0  0.00000000000E+00 -0.00000000000E+00 -0.42357092810E+02  0.42357092810E+02  0.00000000000E+00 0. -1.
         23    2    1    2    0    0 -0.13399868464E+03  0.56396420704E+02  0.32858691167E+03  0.37055796439E+03  0.90596041316E+02 0.  0.
         24    2    1    2    0    0  0.97325975363E+02 -0.44337277283E+02  0.23419928585E+03  0.26977833930E+03  0.80578577963E+02 0.  0.
        -11    1    4    4    0    0  0.37527604656E+02 -0.14922193386E+02  0.17824006181E+03  0.18275807123E+03  0.00000000000E+00 0.  1.
         12    1    4    4    0    0  0.59798370707E+02 -0.29415083898E+02  0.55959224046E+02  0.87020268074E+02  0.00000000000E+00 0. -1.
        -13    1    3    3    0    0 -0.10719096682E+03  0.57992829207E+02  0.16692687188E+03  0.20668249119E+03  0.00000000000E+00 0. -1.
         13    1    3    3    0    0 -0.26807717821E+02 -0.15964085029E+01  0.16166003979E+03  0.16387547321E+03  0.00000000000E+00 0.  1.
         21    1    1    2  502  501  0.36672709276E+02 -0.12059143421E+02  0.10043066404E+03  0.10759474348E+03  0.00000000000E+00 0. -1.
<scales pt_clust_5="13000.00000" pt_clust_6="13000.00000" pt_clust_7="13000.00000" pt_clust_8="13000.00000" pt_clust_9="38.60454"></scales>
<clustering>
<clus scale="   38.605">  1  9  2 -1</clus>
<clus scale="   80.579">  5  6 -1 -1</clus>
<clus scale="   90.596">  7  8 -1 -1</clus>
<clus scale="  147.074">  2  5  1 -1</clus>
<clus scale="  147.074">  2  5  1 -1</clus>
</clustering>
</event>
<event>
 9    2  0.3402837E-005  0.1123209E+03  0.7546771E-02  0.1260475E+00
          2   -1    0    0  502    0  0.00000000000E+00  0.00000000000E+00  0.77740387936E+02  0.77740387936E+02  0.00000000000E+00 0. -1.
         -1   -1    0    0    0  501 -0.00000000000E+00 -0.00000000000E+00 -0.58515041534E+03  0.58515041534E+03  0.00000000000E+00 0.  1.
         23    2    1    2    0    0 -0.27827513746E+02 -0.34452512866E+01 -0.36133532245E+03  0.37373303193E+03  0.91251978729E+02 0.  0.
         24    2    1    2    0    0  0.63392735893E+02  0.29253144225E+02  0.27749790669E+02  0.10986502849E+03  0.80161637909E+02 0.  0.
        -11    1    4    4    0    0  0.42287212108E+02  0.48979907637E+02 -0.65275768914E+01  0.65037288689E+02  0.00000000000E+00 0.  1.
         12    1    4    4    0    0  0.21105523785E+02 -0.19726763412E+02  0.34277367560E+02  0.44827739803E+02  0.00000000000E+00 0. -1.
        -13    1    3    3    0    0 -0.41471286776E+02  0.31496964787E+02 -0.27032381389E+03  0.27529418951E+03  0.00000000000E+00 0.  1.
         13    1    3    3    0    0  0.13643773030E+02 -0.34942216074E+02 -0.91011508560E+02  0.98438842420E+02  0.00000000000E+00 0. -1.
         21    1    1    2  502  501 -0.35565222147E+02 -0.25807892938E+02 -0.17382449562E+03  0.17929274286E+03  0.00000000000E+00 0.  1.
<scales pt_clust_5="13000.00000" pt_clust_6="13000.00000" pt_clust_7="13000.00000" pt_clust_8="13000.00000" pt_clust_9="43.94238"></scales>
<clustering>
<clus scale="   43.942">  2  9  1 -1</clus>
<clus scale="   80.162">  5  6 -1 -1</clus>
<clus scale="   91.252">  7  8 -1 -1</clus>
<clus scale="  103.513">  1  5  2 -1</clus>
<clus scale="  103.513">  1  5  2 -1</clus>
</clustering>
</event>
<event>
 9    2  0.3402837E-005  0.2169708E+03  0.7546771E-02  0.1136617E+00
         -1   -1    0    0    0  501 -0.00000000000E+00  0.00000000000E+00  0.21998084771E+03  0.21998084771E+03  0.00000000000E+00 0.  1.
          2   -1    0    0  502    0  0.00000000000E+00 -0.00000000000E+00 -0.38736540319E+03  0.38736540319E+03  0.00000000000E+00 0. -1.
         24    2    1    2    0    0  0.11880657002E+03  0.17875048027E+03  0.76549635928E+01  0.22938988320E+03  0.80587745789E+02 0.  0.
         23    2    1    2    0    0 -0.11385169339E+03 -0.15644280400E+03 -0.23336947985E+03  0.31530999871E+03  0.86732474578E+02 0.  0.
        -13    1    3    3    0    0  0.11824434700E+03  0.15455353747E+03  0.29456453356E+02  0.19681515233E+03  0.00000000000E+00 0.  1.
         14    1    3    3    0    0  0.56222301965E+00  0.24196942802E+02 -0.21801489763E+02  0.32574730875E+02  0.00000000000E+00 0. -1.
        -11    1    4    4    0    0 -0.37788464220E+02 -0.16621705210E+01 -0.58820730385E+02  0.69932890416E+02  0.00000000000E+00 0.  1.
         11    1    4    4    0    0 -0.76063229166E+02 -0.15478063348E+03 -0.17454874947E+03  0.24537710829E+03  0.00000000000E+00 0. -1.
         21    1    1    2  502  501 -0.49548766327E+01 -0.22307676272E+02  0.58329960784E+02  0.62646368994E+02  0.00000000000E+00 0. -1.
<scales pt_clust_5="13000.00000" pt_clust_6="13000.00000" pt_clust_7="13000.00000" pt_clust_8="13000.00000" pt_clust_9="22.85133"></scales>
<clustering>
<clus scale="   22.851">  1  9  2 -1</clus>
<clus scale="   80.588">  5  6 -1 -1</clus>
<clus scale="   86.732">  7  8 -1 -1</clus>
<clus scale="  214.588">  1  5  2 -1</clus>
<clus scale="  216.971">  2  5  1 -1</clus>
</clustering>
</event>
<event>
 9    2  0.3402837E-005  0.1008903E+03  0.7546771E-02  0.1285512E+00
         -1   -1    0    0    0  501 -0.00000000000E+00  0.00000000000E+00  0.98824413483E+02  0.98824413483E+02  0.00000000000E+00 0.  1.
          2   -1    0    0  502    0  0.00000000000E+00 -0.00000000000E+00 -0.41273421131E+03  0.41273421131E+03  0.00000000000E+00 0. -1.
         23    2    1    2    0    0  0.15336658546E+02 -0.18147360967E+02  0.37765773187E+02  0.10504168563E+03  0.95094491378E+02 0.  0.
         24    2    1    2    0    0 -0.37743286943E+01  0.34511157009E+02 -0.36933121694E+03  0.37981145049E+03  0.81522540431E+02 0.  0.
        -13    1    4    4    0    0 -0.37765456919E+02  0.25320082434E+01 -0.11040549131E+03  0.11671338104E+03  0.00000000000E+00 0.  1.
         14    1    4    4    0    0  0.33991128224E+02  0.31979148766E+02 -0.25892572563E+03  0.26309806945E+03  0.00000000000E+00 0. -1.
        -13    1    3    3    0    0 -0.31053193695E+02 -0.34781219710E+02  0.29215876361E+02  0.55023645051E+02  0.00000000000E+00 0.  1.
         13    1    3    3    0    0  0.46389852242E+02  0.16633858744E+02  0.85498968263E+01  0.50018040580E+02  0.00000000000E+00 0. -1.
         21    1    1    2  502  501 -0.11562329852E+02 -0.16363796042E+02  0.17655645924E+02  0.26705488678E+02  0.00000000000E+00 0.  1.
<scales pt_clust_5="13000.00000" pt_clust_6="13000.00000" pt_clust_7="13000.00000" pt_clust_8="13000.00000" pt_clust_9="20.03650"></scales>
<clustering>
<clus scale="   20.036">  1  9  2 -1</clus>
<clus scale="   81.523">  5  6 -1 -1</clus>
<clus scale="   88.215">  2  5  1 -1</clus>
<clus scale="   95.094">  7  8 -1 -1</clus>
<clus scale="   88.215">  2  5  1 -1</clus>
</clustering>
</event>
<event>
 9    2  0.3402837E-005  0.1640283E+03  0.7546771E-02  0.1186003E+00
          2   -1    0    0  502    0  0.00000000000E+00  0.00000000000E+00  0.29140354728E+03  0.29140354728E+03  0.00000000000E+00 0. -1.
         -1   -1    0    0    0  501 -0.00000000000E+00 -0.00000000000E+00 -0.20044643196E+03  0.20044643196E+03  0.00000000000E+00 0.  1.
         23    2    1    2    0    0  0.41332957738E+02 -0.88697255950E+02 -0.32808957093E+02  0.13914170736E+03  0.93318650079E+02 0.  0.
         24    2    1    2    0    0  0.35491401844E+02  0.15530307494E+03  0.16457617602E+03  0.24314649979E+03  0.81585647981E+02 0.  0.
        -13    1    4    4    0    0  0.43856367813E+02  0.78309348161E+02  0.44295725604E+02  0.10008919179E+03  0.00000000000E+00 0.  1.
         14    1    4    4    0    0 -0.83649659694E+01  0.76993726779E+02  0.12028045042E+03  0.14305730800E+03  0.00000000000E+00 0. -1.
        -13    1    3    3    0    0  0.49443398908E+02 -0.40774176212E+01 -0.58139243627E+01  0.49950743203E+02  0.00000000000E+00 0. -1.
         13    1    3    3    0    0 -0.81104411705E+01 -0.84619838328E+02 -0.26995032730E+02  0.89190964154E+02  0.00000000000E+00 0.  1.
         21    1    1    2  502  501 -0.76824359581E+02 -0.66605818990E+02 -0.40810103604E+02  0.10956177210E+03  0.00000000000E+00 0.  1.
<scales pt_clust_5="13000.00000" pt_clust_6="13000.00000" pt_clust_7="13000.00000" pt_clust_8="13000.00000" pt_clust_9="101.67752"></scales>
<clustering>
<clus scale="   81.586">  5  6 -1 -1</clus>
<clus scale="   93.319">  7  8 -1 -1</clus>
<clus scale="  101.678">  2  9  1 -1</clus>
<clus scale="  157.649">  1  5  2 -1</clus>
<clus scale="  157.649">  1  5  2 -1</clus>
</clustering>
</event>
<event>
 9    2  0.3402837E-005  0.1597204E+03  0.7546771E-02  0.1190539E+00
         -3   -1    0    0    0  501 -0.00000000000E+00  0.00000000000E+00  0.68685197904E+03  0.68685197904E+03  0.00000000000E+00 0.  1.
          4   -1    0    0  502    0  0.00000000000E+00 -0.00000000000E+00 -0.82158114114E+02  0.82158114114E+02  0.00000000000E+00 0. -1.
         23    2    1    2    0    0  0.13873628087E+03 -0.16739636807E+00  0.45930979268E+03  0.48819005097E+03  0.90090268992E+02 0.  0.
         24    2    1    2    0    0 -0.10690408308E+03  0.77547704906E+02  0.11126717742E+03  0.19045985472E+03  0.80327093652E+02 0.  0.
        -13    1    4    4    0    0 -0.59665901197E+02  0.34848751249E+02  0.10604478882E+03  0.12656995087E+03  0.00000000000E+00 0.  1.
         14    1    4    4    0    0 -0.47238181881E+02  0.42698953657E+02  0.52223886039E+01  0.63889903847E+02  0.00000000000E+00 0. -1.
        -13    1    3    3    0    0  0.41291272450E+02  0.26440148340E+02  0.66629203341E+02  0.82725457767E+02  0.00000000000E+00 0. -1.
         13    1    3    3    0    0  0.97445008417E+02 -0.26607544708E+02  0.39268058934E+03  0.40546459321E+03  0.00000000000E+00 0.  1.
         21    1    1    2  502  501 -0.31832197788E+02 -0.77380308538E+02  0.34116894830E+02  0.90360187463E+02  0.00000000000E+00 0.  1.
<scales pt_clust_5="13000.00000" pt_clust_6="13000.00000" pt_clust_7="13000.00000" pt_clust_8="13000.00000" pt_clust_9="83.67198"></scales>
<clustering>
<clus scale="   80.327">  5  6 -1 -1</clus>
<clus scale="   83.672">  2  9  1 -1</clus>
<clus scale="   90.090">  7  8 -1 -1</clus>
<clus scale="  154.424">  2  5  1 -1</clus>
<clus scale="   83.672">  2  5  1 -1</clus>
</clustering>
</event>
<event>
 9    2  0.3402837E-005  0.1511659E+03  0.7546771E-02  0.1201205E+00
          2   -1    0    0  502    0  0.00000000000E+00  0.00000000000E+00  0.35837914149E+03  0.35837914149E+03  0.00000000000E+00 0. -1.
         -1   -1    0    0    0  501 -0.00000000000E+00 -0.00000000000E+00 -0.10787117227E+03  0.10787117227E+03  0.00000000000E+00 0.  1.
         23    2    1    2    0    0  0.13410379526E+02  0.12648050089E+03  0.15338014723E+02  0.15662264237E+03  0.90101287570E+02 0.  0.
         24    2    1    2    0    0  0.11304665337E+02 -0.11978284774E+03  0.24361674463E+03  0.28266398723E+03  0.77936418573E+02 0.  0.
        -11    1    4    4    0    0  0.38840796270E+02 -0.10517988294E+03  0.18716216327E+03  0.21817674163E+03  0.00000000000E+00 0.  1.
         12    1    4    4    0    0 -0.27536130934E+02 -0.14602964804E+02  0.56454581356E+02  0.64487245591E+02  0.00000000000E+00 0. -1.
        -11    1    3    3    0    0 -0.37028111277E+02  0.32788095555E+02  0.42830561507E+01  0.49643577680E+02  0.00000000000E+00 0. -1.
         11    1    3    3    0    0  0.50438490804E+02  0.93692405338E+02  0.11054958573E+02  0.10697906469E+03  0.00000000000E+00 0.  1.
         21    1    1    2  502  501 -0.24715044863E+02 -0.66976531491E+01 -0.84467901229E+01  0.26963684164E+02  0.00000000000E+00 0.  1.
<scales pt_clust_5="13000.00000" pt_clust_6="13000.00000" pt_clust_7="13000.00000" pt_clust_8="13000.00000" pt_clust_9="25.60648"></scales>
<clustering>
<clus scale="   25.606">  2  9  1 -1</clus>
<clus scale="   77.936">  5  6 -1 -1</clus>
<clus scale="   90.101">  7  8 -1 -1</clus>
<clus scale="  144.246">  1  5  2 -1</clus>
<clus scale="  144.246">  1  5  2 -1</clus>
</clustering>
</event>
<event>
 9    2  0.3402837E-005  0.1312922E+03  0.7546771E-02  0.1233332E+00
         -1   -1    0    0    0  501 -0.00000000000E+00  0.00000000000E+00  0.37135653618E+02  0.37135653618E+02  0.00000000000E+00 0.  1.
          2   -1    0    0  502    0  0.00000000000E+00 -0.00000000000E+00 -0.86868904659E+03  0.86868904659E+03  0.00000000000E+00 0. -1.
         24    2    1    2    0    0  0.87245675207E+02  0.59509515744E+02 -0.43027092716E+03  0.45037378158E+03  0.80933812891E+02 0.  0.
         23    2    1    2    0    0 -0.20933030587E+02 -0.51105221217E+02 -0.35364112741E+03  0.37336744813E+03  0.10626038269E+03 0.  0.
        -13    1    3    3    0    0  0.19839913537E+02  0.51199238760E+02 -0.10954789575E+03  0.12253867015E+03  0.00000000000E+00 0.  1.
         14    1    3    3    0    0  0.67405761670E+02  0.83102769844E+01 -0.32072303141E+03  0.32783511143E+03  0.00000000000E+00 0. -1.
        -13    1    4    4    0    0 -0.37842322793E+01 -0.83172015789E+02 -0.25405986092E+03  0.26735429220E+03  0.00000000000E+00 0.  1.
         13    1    4    4    0    0 -0.17148798308E+02  0.32066794572E+02 -0.99581266482E+02  0.10601315594E+03  0.00000000000E+00 0. -1.
         21    1    1    2  502  501 -0.66312644620E+02 -0.84042945275E+01 -0.47641338405E+02  0.82083470493E+02  0.00000000000E+00 0.  1.
<scales pt_clust_5="13000.00000" pt_clust_6="13000.00000" pt_clust_7="13000.00000" pt_clust_8="13000.00000" pt_clust_9="66.84309"></scales>
<clustering>
<clus scale="   66.843">  1  9  2 -1</clus>
<clus scale="   80.934">  5  6 -1 -1</clus>
<clus scale="  106.260">  7  8 -1 -1</clus>
<clus scale="  111.788">  1  5  2 -1</clus>
<clus scale="  131.292">  2  5  1 -1</clus>
</clustering>
</event>
<event>
 9    2  0.3402837E-005  0.3223696E+03  0.7546771E-02  0.1074876E+00
         -1   -1    0    0    0  501 -0.00000000000E+00  0.00000000000E+00  0.37713400526E+03  0.37713400526E+03  0.00000000000E+00 0.  1.
          2   -1    0    0  502    0  0.00000000000E+00 -0.00000000000E+00 -0.34293486760E+03  0.34293486760E+03  0.00000000000E+00 0. -1.
         24    2    1    2    0    0 -0.19577213514E+03  0.22229934329E+03  0.15071595478E+03  0.34198786643E+03  0.80601953028E+02 0.  0.
         23    2    1    2    0    0  0.21756805441E+03 -0.22825364875E+03 -0.12860787373E+03  0.35245466256E+03  0.90822450467E+02 0.  0.
        -11    1    3    3    0    0 -0.37114004507E+02  0.98490322932E+02  0.60966701200E+02  0.12163359609E+03  0.00000000000E+00 0.  1.
         12    1    3    3    0    0 -0.15865813064E+03  0.12380902036E+03  0.89749253575E+02  0.22035427034E+03  0.00000000000E+00 0. -1.
        -13    1    4    4    0    0  0.11234932929E+03 -0.18017876133E+03 -0.78404585933E+02  0.22634936917E+03  0.00000000000E+00 0.  1.
         13    1    4    4    0    0  0.10521872512E+03 -0.48074887415E+02 -0.50203287793E+02  0.12610529339E+03  0.00000000000E+00 0. -1.
         21    1    1    2  502  501 -0.21795919267E+02  0.59543054539E+01  0.12091056614E+02  0.25626343871E+02  0.00000000000E+00 0.  1.
<scales pt_clust_5="13000.00000" pt_clust_6="13000.00000" pt_clust_7="13000.00000" pt_clust_8="13000.00000" pt_clust_9="22.59460"></scales>
<clustering>
<clus scale="   22.595">  1  9  2 -1</clus>
<clus scale="   80.602">  5  6 -1 -1</clus>
<clus scale="   90.822">  7  8 -1 -1</clus>
<clus scale="  319.641">  1  5  2 -1</clus>
<clus scale="  322.370">  2  5  1 -1</clus>
</clustering>
</event>
<event>
 9    2  0.3402837E-005  0.1048221E+03  0.7546771E-02  0.1279215E+00
          2   -1    0    0  502    0  0.00000000000E+00  0.00000000000E+00  0.36095585842E+02  0.36095585842E+02  0.00000000000E+00 0. -1.
         -1   -1    0    0    0  501 -0.00000000000E+00 -0.00000000000E+00 -0.71400744614E+03  0.71400744614E+03  0.00000000000E+00 0.  1.
         24    2    1    2    0    0 -0.72955888543E+02 -0.42854570820E+00 -0.35663018639E+03  0.37266097693E+03  0.79802058630E+02 0.  0.
         23    2    1    2    0    0  0.28428145127E+02  0.83217860692E+01 -0.73632545762E+02  0.12569791142E+03  0.97472055389E+02 0.  0.
        -11    1    3    3    0    0 -0.88825435429E+02  0.83167279125E+01 -0.31166092940E+03  0.32417843984E+03  0.00000000000E+00 0.  1.
         12    1    3    3    0    0  0.15869546885E+02 -0.87452736207E+01 -0.44969256984E+02  0.48482537090E+02  0.00000000000E+00 0. -1.
        -11    1    4    4    0    0 -0.30493815809E+02  0.24302098240E+02 -0.17410871710E+02  0.42703667701E+02  0.00000000000E+00 0.  1.
         11    1    4    4    0    0  0.58921960936E+02 -0.15980312171E+02 -0.56221674052E+02  0.82994243721E+02  0.00000000000E+00 0. -1.
         21    1    1    2  502  501  0.44527743416E+02 -0.78932403610E+01 -0.24764912815E+03  0.25174414363E+03  0.00000000000E+00 0.  1.
<scales pt_clust_5="13000.00000" pt_clust_6="13000.00000" pt_clust_7="13000.00000" pt_clust_8="13000.00000" pt_clust_9="45.22193"></scales>
<clustering>
<clus scale="   45.222">  2  9  1 -1</clus>
<clus scale="   79.802">  5  6 -1 -1</clus>
<clus scale="   88.630">  2  5  1 -1</clus>
<clus scale="   97.472">  7  8 -1 -1</clus>
<clus scale="  104.822">  1  5  2 -1</clus>
</clustering>
</event>
<event>
 9    2  0.3402837E-005  0.9215771E+02  0.7546771E-02  0.1303368E+00
         -1   -1    0    0    0  501 -0.00000000000E+00  0.00000000000E+00  0.90411867052E+02  0.90411867052E+02  0.00000000000E+00 0.  1.
          2   -1    0    0  502    0  0.00000000000E+00 -0.00000000000E+00 -0.68536543661E+03  0.68536543661E+03  0.00000000000E+00 0. -1.
         23    2    1    2    0    0 -0.88826256138E+00  0.12933519128E+02  0.31883730938E+02  0.96989850720E+02  0.90677416796E+02 0.  0.
         24    2    1    2    0    0 -0.15647835512E+02  0.76070428200E+01 -0.64266535629E+03  0.64803221640E+03  0.81389627459E+02 0.  0.
        -11    1    4    4    0    0 -0.17003424853E+02 -0.29066438242E+02 -0.13857887272E+03  0.14261163435E+03  0.00000000000E+00 0.  1.
         12    1    4    4    0    0  0.13555893406E+01  0.36673481062E+02 -0.50408648358E+03  0.50542058205E+03  0.00000000000E+00 0. -1.
        -11    1    3    3    0    0 -0.29039438670E+02  0.29797849597E+02 -0.10955670060E+02  0.43025893893E+02  0.00000000000E+00 0. -1.
         11    1    3    3    0    0  0.28151176109E+02 -0.16864330469E+02  0.42839400999E+02  0.53963956827E+02  0.00000000000E+00 0.  1.
         21    1    1    2  502  501  0.16536098073E+02 -0.20540561948E+02  0.15828055794E+02  0.30755236544E+02  0.00000000000E+00 0.  1.
<scales pt_clust_5="13000.00000" pt_clust_6="13000.00000" pt_clust_7="13000.00000" pt_clust_8="13000.00000" pt_clust_9="26.36963"></scales>
<clustering>
<clus scale="   26.370">  1  9  2 -1</clus>
<clus scale="   81.390">  5  6 -1 -1</clus>
<clus scale="   83.036">  2  5  1 -1</clus>
<clus scale="   90.677">  7  8 -1 -1</clus>
<clus scale="   83.036">  2  5  1 -1</clus>
</clustering>
</event>
<event>
 9    2  0.3402837E-005  0.9403100E+02  0.7546771E-02  0.1298673E+00
          2   -1    0    0  502    0  0.00000000000E+00  0.00000000000E+00  0.38664264832E+03  0.38664264832E+03  0.00000000000E+00 0. -1.
         -1   -1    0    0    0  501 -0.00000000000E+00 -0.00000000000E+00 -0.97010671810E+02  0.97010671810E+02  0.00000000000E+00 0.  1.
         23    2    1    2    0    0 -0.30013959466E+02  0.35458526546E+02 -0.54233352064E+02  0.11457425176E+03  0.89598313725E+02 0.  0.
         24    2    1    2    0    0  0.23796429075E+02 -0.13889857425E+02  0.33388922458E+03  0.34451511464E+03  0.80308478688E+02 0.  0.
        -11    1    4    4    0    0 -0.23117214064E+02 -0.12014901487E+02  0.46371433931E+02  0.53189033913E+02  0.00000000000E+00 0.  1.
         12    1    4    4    0    0  0.46913643139E+02 -0.18749559377E+01  0.28751779065E+03  0.29132608073E+03  0.00000000000E+00 0. -1.
        -13    1    3    3    0    0 -0.21776186588E+02 -0.99578973604E+01 -0.63173226686E+02  0.67559000822E+02  0.00000000000E+00 0.  1.
         13    1    3    3    0    0 -0.82377728778E+01  0.45416423906E+02  0.89398746219E+01  0.47015250937E+02  0.00000000000E+00 0. -1.
         21    1    1    2  502  501  0.62175303905E+01 -0.21568669121E+02  0.99761039890E+01  0.24563953725E+02  0.00000000000E+00 0.  1.
<scales pt_clust_5="13000.00000" pt_clust_6="13000.00000" pt_clust_7="13000.00000" pt_clust_8="13000.00000" pt_clust_9="22.44694"></scales>
<clustering>
<clus scale="   22.447">  2  9  1 -1</clus>
<clus scale="   80.308">  5  6 -1 -1</clus>
<clus scale="   85.226">  1  5  2 -1</clus>
<clus scale="   89.598">  7  8 -1 -1</clus>
<clus scale="   85.226">  1  5  2 -1</clus>
</clustering>
</event>
<event>
 9    2  0.3402837E-005  0.2200794E+03  0.7546771E-02  0.1134524E+00
         -1   -1    0    0    0  501 -0.00000000000E+00  0.00000000000E+00  0.49197663565E+03  0.49197663565E+03  0.00000000000E+00 0.  1.
          2   -1    0    0  502    0  0.00000000000E+00 -0.00000000000E+00 -0.38355391203E+03  0.38355391203E+03  0.00000000000E+00 0. -1.
         24    2    1    2    0    0 -0.17639668218E+02  0.14598921689E+03  0.31688431676E+02  0.17104121849E+03  0.81405972608E+02 0.  0.
         23    2    1    2    0    0  0.12244411790E+03 -0.19800337647E+03 -0.25239595763E+03  0.35518120352E+03  0.90840898316E+02 0.  0.
        -11    1    3    3    0    0 -0.46828117345E+02  0.11490279065E+03  0.13962647526E+02  0.12486184124E+03  0.00000000000E+00 0.  1.
         12    1    3    3    0    0  0.29188449127E+02  0.31086426247E+02  0.17725784149E+02  0.46179377248E+02  0.00000000000E+00 0. -1.
        -13    1    4    4    0    0  0.70337153385E+02 -0.35133665379E+02 -0.71870672278E+02  0.10652268830E+03  0.00000000000E+00 0.  1.
         13    1    4    4    0    0  0.52106964520E+02 -0.16286971109E+03 -0.18052528535E+03  0.24865851522E+03  0.00000000000E+00 0. -1.
         21    1    1    2  502  501 -0.10480444969E+03  0.52014159572E+02  0.32913024957E+03  0.34930812566E+03  0.00000000000E+00 0.  1.
<scales pt_clust_5="13000.00000" pt_clust_6="13000.00000" pt_clust_7="13000.00000" pt_clust_8="13000.00000" pt_clust_9="117.00190"></scales>
<clustering>
<clus scale="   81.406">  5  6 -1 -1</clus>
<clus scale="   90.841">  7  8 -1 -1</clus>
<clus scale="  117.002">  1  9  2 -1</clus>
<clus scale="  216.356">  1  5  2 -1</clus>
<clus scale="  220.079">  2  5  1 -1</clus>
</clustering>
</event>
<event>
 9    2  0.3402837E-005  0.1010875E+03  0.7546771E-02  0.1278778E+00
         -1   -1    0    0    0  501 -0.00000000000E+00  0.00000000000E+00  0.21497857493E+03  0.21497857493E+03  0.00000000000E+00 0.  1.
          2   -1    0    0  502    0  0.00000000000E+00 -0.00000000000E+00 -0.18790445769E+03  0.18790445769E+03  0.00000000000E+00 0. -1.
         24    2    1    2    0    0  0.69663912046E+01  0.23232715426E+01  0.11225200691E+03  0.14320319838E+03  0.88615544761E+02 0.  0.
         23    2    1    2    0    0 -0.49872305152E+02 -0.72868890777E+01 -0.14977362026E+03  0.18197421436E+03  0.90233761925E+02 0.  0.
        -13    1    3    3    0    0  0.31561341924E+02 -0.52474077718E+01  0.11301657367E+03  0.11745807557E+03  0.00000000000E+00 0.  1.
         14    1    3    3    0    0 -0.24594950720E+02  0.75706793145E+01 -0.76456675751E+00  0.25745122810E+02  0.00000000000E+00 0. -1.
        -11    1    4    4    0    0 -0.66742823868E+02  0.12281883211E+02 -0.13757443206E+03  0.15340199982E+03  0.00000000000E+00 0. -1.
         11    1    4    4    0    0  0.16870518716E+02 -0.19568772289E+02 -0.12199188202E+02  0.28572214535E+02  0.00000000000E+00 0.  1.
         21    1    1    2  502  501  0.42905913948E+02  0.49636175351E+01  0.64595730586E+02  0.77705619878E+02  0.00000000000E+00 0.  1.
<scales pt_clust_5="13000.00000" pt_clust_6="13000.00000" pt_clust_7="13000.00000" pt_clust_8="13000.00000" pt_clust_9="43.19207"></scales>
<clustering>
<clus scale="   43.192">  1  9  2 -1</clus>
<clus scale="   88.616">  5  6 -1 -1</clus>
<clus scale="   90.234">  7  8 -1 -1</clus>
<clus scale="   99.646">  1  5  2 -1</clus>
<clus scale="  101.088">  2  5  1 -1</clus>
</clustering>
</event>
<event>
 9    2  0.3402837E-005  0.1464387E+03  0.7546771E-02  0.1204999E+00
          2   -1    0    0  502    0  0.00000000000E+00  0.00000000000E+00  0.46554575617E+03  0.46554575617E+03  0.00000000000E+00 0. -1.
         -1   -1    0    0    0  501 -0.00000000000E+00 -0.00000000000E+00 -0.86905421125E+02  0.86905421125E+02  0.00000000000E+00 0.  1.
         23    2    1    2    0    0  0.56048781711E+02  0.11881634660E+03  0.93876546340E+02  0.18001732859E+03  0.79590467333E+02 0.  0.
         24    2    1    2    0    0 -0.65727859251E+02 -0.10005640012E+03  0.30862656485E+03  0.34057396454E+03  0.80055194090E+02 0.  0.
        -13    1    4    4    0    0 -0.37807343165E+02 -0.64015381055E+02  0.87607910315E+02  0.11490217647E+03  0.00000000000E+00 0.  1.
         14    1    4    4    0    0 -0.27920516087E+02 -0.36041019066E+02  0.22101865454E+03  0.22567178806E+03  0.00000000000E+00 0. -1.
        -13    1    3    3    0    0  0.70862148096E+02  0.89193304742E+02  0.92713670041E+02  0.14687652725E+03  0.00000000000E+00 0. -1.
         13    1    3    3    0    0 -0.14813366385E+02  0.29623041858E+02  0.11628762995E+01  0.33140801347E+02  0.00000000000E+00 0.  1.
         21    1    1    2  502  501  0.96790775400E+01 -0.18759946479E+02 -0.23862776144E+02  0.31859884168E+02  0.00000000000E+00 0.  1.
<scales pt_clust_5="13000.00000" pt_clust_6="13000.00000" pt_clust_7="13000.00000" pt_clust_8="13000.00000" pt_clust_9="21.10972"></scales>
<clustering>
<clus scale="   21.110">  2  9  1 -1</clus>
<clus scale="   79.590">  7  8 -1 -1</clus>
<clus scale="   80.055">  5  6 -1 -1</clus>
<clus scale="  146.185">  2  7  1 -1</clus>
<clus scale="  146.439">  1  5  2 -1</clus>
</clustering>
</event>
<event>
 9    2  0.3402837E-005  0.9783694E+02  0.7546771E-02  0.1285622E+00
         -1   -1    0    0    0  501 -0.00000000000E+00  0.00000000000E+00  0.85607694907E+02  0.85607694907E+02  0.00000000000E+00 0.  1.
          2   -1    0    0  502    0  0.00000000000E+00 -0.00000000000E+00 -0.61567968437E+03  0.61567968437E+03  0.00000000000E+00 0. -1.
         23    2    1    2    0    0  0.99858948708E+01 -0.70290178106E+01 -0.46846605696E+02  0.98025786859E+02  0.85236877209E+02 0.  0.
         24    2    1    2    0    0  0.22956274338E+02  0.51726684139E+02 -0.52445378054E+03  0.53410345054E+03  0.83738208602E+02 0.  0.
        -11    1    4    4    0    0 -0.30459602816E+02  0.30951218795E+02 -0.24762594842E+03  0.25140480441E+03  0.00000000000E+00 0.  1.
         12    1    4    4    0    0  0.53415877153E+02  0.20775465344E+02 -0.27682783211E+03  0.28269864613E+03  0.00000000000E+00 0. -1.
        -13    1    3    3    0    0 -0.20601048581E+02 -0.37456055640E+02 -0.26785533034E+02  0.50446249481E+02  0.00000000000E+00 0.  1.
         13    1    3    3    0    0  0.30586943452E+02  0.30427037830E+02 -0.20061072662E+02  0.47579537379E+02  0.00000000000E+00 0. -1.
         21    1    1    2  502  501 -0.32942169208E+02 -0.44697666328E+02  0.41228396769E+02  0.69158141874E+02  0.00000000000E+00 0.  1.
<scales pt_clust_5="13000.00000" pt_clust_6="13000.00000" pt_clust_7="13000.00000" pt_clust_8="13000.00000" pt_clust_9="55.52538"></scales>
<clustering>
<clus scale="   55.525">  1  9  2 -1</clus>
<clus scale="   83.738">  5  6 -1 -1</clus>
<clus scale="   85.237">  7  8 -1 -1</clus>
<clus scale="   96.534">  2  5  1 -1</clus>
<clus scale="   96.534">  2  5  1 -1</clus>
</clustering>
</event>
<event>
 9    2  0.3402837E-005  0.1519476E+03  0.7546771E-02  0.1200096E+00
         -3   -1    0    0    0  501 -0.00000000000E+00  0.00000000000E+00  0.14077322545E+03  0.14077322545E+03  0.00000000000E+00 0.  1.
          4   -1    0    0  502    0  0.00000000000E+00 -0.00000000000E+00 -0.39880563787E+03  0.39880563787E+03  0.00000000000E+00 0. -1.
         24    2    1    2    0    0 -0.11880206891E+03 -0.45343118183E+02  0.37468215576E+02  0.15565572188E+03  0.81577611100E+02 0.  0.
         23    2    1    2    0    0  0.11728441025E+03  0.23212402659E+02 -0.31812409236E+03  0.35223887095E+03  0.92600407898E+02 0.  0.
        -13    1    3    3    0    0 -0.10302518887E+03 -0.57693166803E+02  0.53846740937E+02  0.12977735760E+03  0.00000000000E+00 0.  1.
         14    1    3    3    0    0 -0.15776880037E+02  0.12350048620E+02 -0.16378525361E+02  0.25878364276E+02  0.00000000000E+00 0. -1.
        -11    1    4    4    0    0  0.82385264724E+02 -0.14084354902E+02 -0.11122697794E+03  0.13912994473E+03  0.00000000000E+00 0.  1.
         11    1    4    4    0    0  0.34899145528E+02  0.37296757561E+02 -0.20689711441E+03  0.21310892622E+03  0.00000000000E+00 0. -1.
         21    1    1    2  502  501  0.15176586529E+01  0.22130715524E+02  0.22623464360E+02  0.31684270498E+02  0.00000000000E+00 0. -1.
<scales pt_clust_5="13000.00000" pt_clust_6="13000.00000" pt_clust_7="13000.00000" pt_clust_8="13000.00000" pt_clust_9="22.18269"></scales>
<clustering>
<clus scale="   22.183">  1  9  2 -1</clus>
<clus scale="   81.578">  5  6 -1 -1</clus>
<clus scale="   92.600">  7  8 -1 -1</clus>
<clus scale="  145.493">  1  5  2 -1</clus>
<clus scale="  151.948">  2  5  1 -1</clus>
</clustering>
</event>
<event>
 9    2  0.3402837E-005  0.1238846E+03  0.7546771E-02  0.1240399E+00
         -1   -1    0    0    0  501 -0.00000000000E+00  0.00000000000E+00  0.12814745737E+03  0.12814745737E+03  0.00000000000E+00 0.  1.
          2   -1    0    0  502    0  0.00000000000E+00 -0.00000000000E+00 -0.84979510926E+03  0.84979510926E+03  0.00000000000E+00 0. -1.
         23    2    1    2    0    0 -0.95468646645E+02 -0.10327344596E+02 -0.17217911717E+03  0.21779436301E+03  0.92562517404E+02 0.  0.
         24    2    1    2    0    0  0.51751619305E+02  0.67106388751E+02 -0.63664942829E+03  0.64729632487E+03  0.80551474999E+02 0.  0.
        -13    1    4    4    0    0  0.26614129124E+02  0.12846282938E+02 -0.53758108113E+02  0.61345521778E+02  0.00000000000E+00 0.  1.
         14    1    4    4    0    0  0.25137490181E+02  0.54260105813E+02 -0.58289132018E+03  0.58595080309E+03  0.00000000000E+00 0. -1.
        -11    1    3    3    0    0 -0.41182056279E+02 -0.14339425948E+02 -0.73664573215E+01  0.44224943068E+02  0.00000000000E+00 0.  1.
         11    1    3    3    0    0 -0.54286590365E+02  0.40120813515E+01 -0.16481265985E+03  0.17356941994E+03  0.00000000000E+00 0. -1.
         21    1    1    2  502  501  0.43717027339E+02 -0.56779044154E+02  0.87180893579E+02  0.11285187876E+03  0.00000000000E+00 0.  1.
<scales pt_clust_5="13000.00000" pt_clust_6="13000.00000" pt_clust_7="13000.00000" pt_clust_8="13000.00000" pt_clust_9="71.65918"></scales>
<clustering>
<clus scale="   71.659">  1  9  2 -1</clus>
<clus scale="   80.551">  5  6 -1 -1</clus>
<clus scale="   92.563">  7  8 -1 -1</clus>
<clus scale="  115.187">  2  5  1 -1</clus>
<clus scale="  115.187">  2  5  1 -1</clus>
</clustering>
</event>
<event>
 9    2  0.3402837E-005  0.9327953E+02  0.7546771E-02  0.1300634E+00
         -1   -1    0    0    0  501 -0.00000000000E+00  0.00000000000E+00  0.20903022251E+02  0.20903022251E+02  0.00000000000E+00 0.  1.
          2   -1    0    0  502    0  0.00000000000E+00 -0.00000000000E+00 -0.10317946783E+04  0.10317946783E+04  0.00000000000E+00 0. -1.
         23    2    1    2    0    0 -0.15218728584E+02  0.17670945801E+02 -0.12179322432E+03  0.15354725185E+03  0.90549969817E+02 0.  0.
         24    2    1    2    0    0  0.35333885626E+02  0.13322030537E+02 -0.74627418593E+03  0.75162435165E+03  0.81166775428E+02 0.  0.
        -11    1    4    4    0    0 -0.14973564614E+02  0.17036121277E+02 -0.72513483787E+02  0.75977907291E+02  0.00000000000E+00 0.  1.
         12    1    4    4    0    0  0.50307450239E+02 -0.37140907399E+01 -0.67376070214E+03  0.67564644435E+03  0.00000000000E+00 0. -1.
        -13    1    3    3    0    0  0.23562677223E+02 -0.17684585789E+02 -0.83607041815E+02  0.88645822087E+02  0.00000000000E+00 0. -1.
         13    1    3    3    0    0 -0.38781405807E+02  0.35355531590E+02 -0.38186182505E+02  0.64901429759E+02  0.00000000000E+00 0.  1.
         21    1    1    2  502  501 -0.20115157042E+02 -0.30992976338E+02 -0.14282424581E+03  0.14752609707E+03  0.00000000000E+00 0.  1.
<scales pt_clust_5="13000.00000" pt_clust_6="13000.00000" pt_clust_7="13000.00000" pt_clust_8="13000.00000" pt_clust_9="36.94840"></scales>
<clustering>
<clus scale="   36.948">  2  9  1 -1</clus>
<clus scale="   81.167">  5  6 -1 -1</clus>
<clus scale="   84.201">  2  5  1 -1</clus>
<clus scale="   90.550">  7  8 -1 -1</clus>
<clus scale="   36.948">  2  5  1 -1</clus>
</clustering>
</event>
<event>
 9    2  0.3465617E-005  0.2272782E+03  0.7546771E-02  0.1129284E+00
          2   -1    0    0  502    0  0.00000000000E+00  0.00000000000E+00  0.50642101447E+03  0.50642101447E+03  0.00000000000E+00 0. -1.
         -1   -1    0    0    0  501 -0.00000000000E+00 -0.00000000000E+00 -0.67844134231E+03  0.67844134231E+03  0.00000000000E+00 0.  1.
         24    2    1    2    0    0 -0.13329857408E+03 -0.17727209131E+03 -0.51832252191E+03  0.56932149765E+03  0.79213804101E+02 0.  0.
         23    2    1    2    0    0  0.97426367760E+02  0.18409757143E+03  0.45091227649E+03  0.50474071602E+03  0.89763558177E+02 0.  0.
        -11    1    3    3    0    0 -0.11199257107E+03 -0.16366867515E+03 -0.37927113874E+03  0.42799108388E+03  0.00000000000E+00 0.  1.
         12    1    3    3    0    0 -0.21306003007E+02 -0.13603416164E+02 -0.13905138317E+03  0.14133041377E+03  0.00000000000E+00 0. -1.
        -11    1    4    4    0    0  0.23213745814E+02  0.12849617679E+02  0.13692310041E+03  0.13947016203E+03  0.00000000000E+00 0.  1.
         11    1    4    4    0    0  0.74212621946E+02  0.17124795375E+03  0.31398917608E+03  0.36527055400E+03  0.00000000000E+00 0. -1.
         21    1    1    2  502  501  0.35872206319E+02 -0.68254801173E+01 -0.10461008243E+03  0.11080014310E+03  0.00000000000E+00 0. -1.
<scales pt_clust_5="13000.00000" pt_clust_6="13000.00000" pt_clust_7="13000.00000" pt_clust_8="13000.00000" pt_clust_9="36.51578"></scales>
<clustering>
<clus scale="   36.516">  2  9  1 -1</clus>
<clus scale="   79.214">  5  6 -1 -1</clus>
<clus scale="   89.764">  7  8 -1 -1</clus>
<clus scale="  223.322">  2  5  1 -1</clus>
<clus scale="  227.278">  1  5  2 -1</clus>
</clustering>
</event>
<event>
 9    2  0.3402837E-005  0.2657306E+03  0.7546771E-02  0.1104177E+00
         -1   -1    0    0    0  501 -0.00000000000E+00  0.00000000000E+00  0.37913429425E+03  0.37913429425E+03  0.00000000000E+00 0.  1.
          2   -1    0    0  502    0  0.00000000000E+00 -0.00000000000E+00 -0.22806055183E+03  0.22806055183E+03  0.00000000000E+00 0. -1.
         23    2    1    2    0    0  0.25552298400E+03 -0.69076005943E+02  0.12842109419E+03  0.30832297233E+03  0.92236586487E+02 0.  0.
         24    2    1    2    0    0 -0.23739652374E+03  0.40246635117E+02 -0.51828379235E+01  0.25488874661E+03  0.83453641115E+02 0.  0.
        -13    1    4    4    0    0 -0.20068965379E+03  0.60790743975E+02  0.10595108843E+02  0.20996215855E+03  0.00000000000E+00 0.  1.
         14    1    4    4    0    0 -0.36706869954E+02 -0.20544108858E+02 -0.15777946766E+02  0.44926588061E+02  0.00000000000E+00 0. -1.
        -13    1    3    3    0    0  0.38869586055E+02 -0.24005684574E+02  0.62508386354E+02  0.77423613817E+02  0.00000000000E+00 0.  1.
         13    1    3    3    0    0  0.21665339794E+03 -0.45070321369E+02  0.65912707838E+02  0.23089935852E+03  0.00000000000E+00 0. -1.
         21    1    1    2  502  501 -0.18126460254E+02  0.28829370826E+02  0.27835486149E+02  0.43983127136E+02  0.00000000000E+00 0. -1.
<scales pt_clust_5="13000.00000" pt_clust_6="13000.00000" pt_clust_7="13000.00000" pt_clust_8="13000.00000" pt_clust_9="34.05439"></scales>
<clustering>
<clus scale="   34.054">  1  9  2 -1</clus>
<clus scale="   83.454">  5  6 -1 -1</clus>
<clus scale="   92.237">  7  8 -1 -1</clus>
<clus scale="  262.811">  2  5  1 -1</clus>
<clus scale="  262.811">  2  5  1 -1</clus>
</clustering>
</event>
<event>
 9    2  0.3402837E-005  0.1214365E+03  0.7546771E-02  0.1263014E+00
          2   -1    0    0  502    0  0.00000000000E+00  0.00000000000E+00  0.36979505119E+03  0.36979505119E+03  0.00000000000E+00 0. -1.
         -1   -1    0    0    0  501 -0.00000000000E+00 -0.00000000000E+00 -0.10521960064E+03  0.10521960064E+03  0.00000000000E+00 0.  1.
         24    2    1    2    0    0 -0.44914996223E+02  0.79428554933E+02 -0.16757405690E+02  0.12314497960E+03  0.80979152453E+02 0.  0.
         23    2    1    2    0    0 -0.41307781998E+01 -0.44167063569E+01  0.24155566260E+03  0.25381616362E+03  0.77697722974E+02 0.  0.
        -11    1    3    3    0    0 -0.98167473438E+01  0.65750231889E+02 -0.41227762951E+02  0.78225251420E+02  0.00000000000E+00 0.  1.
         12    1    3    3    0    0 -0.35098248879E+02  0.13678323044E+02  0.24470357261E+02  0.44919728184E+02  0.00000000000E+00 0. -1.
        -11    1    4    4    0    0  0.35734699593E+02 -0.84688926908E+01  0.13724923846E+03  0.14207759977E+03  0.00000000000E+00 0.  1.
         11    1    4    4    0    0 -0.39865477793E+02  0.40521863339E+01  0.10430642414E+03  0.11173856384E+03  0.00000000000E+00 0. -1.
         21    1    1    2  502  501  0.49045774422E+02 -0.75011848576E+02  0.39777193645E+02  0.98053508605E+02  0.00000000000E+00 0.  1.
<scales pt_clust_5="13000.00000" pt_clust_6="13000.00000" pt_clust_7="13000.00000" pt_clust_8="13000.00000" pt_clust_9="90.49416"></scales>
<clustering>
<clus scale="   77.698">  7  8 -1 -1</clus>
<clus scale="   77.933">  1  7  2 -1</clus>
<clus scale="   80.979">  5  6 -1 -1</clus>
<clus scale="   90.494">  1  9  2 -1</clus>
<clus scale="   77.933">  1  5  2 -1</clus>
</clustering>
</event>
<event>
 9    2  0.3402837E-005  0.1518528E+03  0.7546771E-02  0.1200810E+00
         -1   -1    0    0    0  501 -0.00000000000E+00  0.00000000000E+00  0.98912284034E+02  0.98912284034E+02  0.00000000000E+00 0.  1.
          2   -1    0    0  502    0  0.00000000000E+00 -0.00000000000E+00 -0.31168806490E+03  0.31168806490E+03  0.00000000000E+00 0. -1.
         24    2    1    2    0    0  0.14346746628E+03  0.46748372457E+01 -0.67045863250E+02  0.17760276227E+03  0.80267212500E+02 0.  0.
         23    2    1    2    0    0 -0.10506344457E+03 -0.16706254733E+01 -0.12797130281E+03  0.19057987135E+03  0.94355257660E+02 0.  0.
        -13    1    3    3    0    0  0.85803873627E+02  0.76606340387E+01  0.37735067725E+01  0.86227776248E+02  0.00000000000E+00 0.  1.
         14    1    3    3    0    0  0.57663592658E+02 -0.29857967930E+01 -0.70819370023E+02  0.91374986025E+02  0.00000000000E+00 0. -1.
        -13    1    4    4    0    0 -0.66160833103E+02 -0.38851191762E+02 -0.37701397539E+02  0.85487228956E+02  0.00000000000E+00 0.  1.
         13    1    4    4    0    0 -0.38902611463E+02  0.37180566289E+02 -0.90269905267E+02  0.10509264239E+03  0.00000000000E+00 0. -1.
         21    1    1    2  502  501 -0.38404021719E+02 -0.30042117724E+01 -0.17758614814E+02  0.42417715316E+02  0.00000000000E+00 0.  1.
<scales pt_clust_5="13000.00000" pt_clust_6="13000.00000" pt_clust_7="13000.00000" pt_clust_8="13000.00000" pt_clust_9="38.52135"></scales>
<clustering>
<clus scale="   38.521">  1  9  2 -1</clus>
<clus scale="   80.267">  5  6 -1 -1</clus>
<clus scale="   94.355">  7  8 -1 -1</clus>
<clus scale="  143.524">  1  5  2 -1</clus>
<clus scale="  151.853">  2  5  1 -1</clus>
</clustering>
</event>
<event>
 9    2  0.3402837E-005  0.2368359E+03  0.7546771E-02  0.1122525E+00
          2   -1    0    0  502    0  0.00000000000E+00  0.00000000000E+00  0.23623092594E+03  0.23623092594E+03  0.00000000000E+00 0. -1.
         -1   -1    0    0    0  501 -0.00000000000E+00 -0.00000000000E+00 -0.34546043623E+03  0.34546043623E+03  0.00000000000E+00 0.  1.
         23    2    1    2    0    0 -0.13215264336E+03 -0.15405516276E+03 -0.16265420044E+03  0.27565426149E+03  0.91277426766E+02 0.  0.
         24    2    1    2    0    0  0.14193669945E+03  0.17363637973E+03  0.96725849719E+02  0.25751759706E+03  0.81632124669E+02 0.  0.
        -11    1    4    4    0    0  0.36184271108E+02  0.84860852763E+02  0.63011324401E+01  0.92468211172E+02  0.00000000000E+00 0.  1.
         12    1    4    4    0    0  0.10575242835E+03  0.88775526962E+02  0.90424717279E+02  0.16504938589E+03  0.00000000000E+00 0. -1.
        -13    1    3    3    0    0 -0.28812295229E+02 -0.96058272862E+02 -0.99932892766E+02  0.14157656303E+03  0.00000000000E+00 0.  1.
         13    1    3    3    0    0 -0.10334034813E+03 -0.57996889900E+02 -0.62721307678E+02  0.13407769847E+03  0.00000000000E+00 0. -1.
         21    1    1    2  502  501 -0.97840560968E+01 -0.19581216964E+02 -0.43301159567E+02  0.48519503618E+02  0.00000000000E+00 0.  1.
<scales pt_clust_5="13000.00000" pt_clust_6="13000.00000" pt_clust_7="13000.00000" pt_clust_8="13000.00000" pt_clust_9="21.88954"></scales>
<clustering>
<clus scale="   21.890">  2  9  1 -1</clus>
<clus scale="   81.632">  5  6 -1 -1</clus>
<clus scale="   91.277">  7  8 -1 -1</clus>
<clus scale="  233.288">  1  5  2 -1</clus>
<clus scale="  233.288">  1  5  2 -1</clus>
</clustering>
</event>
<event>
 9    2  0.3402837E-005  0.9408035E+02  0.7546771E-02  0.1298127E+00
         -1   -1    0    0    0  501 -0.00000000000E+00  0.00000000000E+00  0.24796335124E+03  0.24796335124E+03  0.00000000000E+00 0.  1.
          2   -1    0    0  502    0  0.00000000000E+00 -0.00000000000E+00 -0.12547591968E+03  0.12547591968E+03  0.00000000000E+00 0. -1.
         23    2    1    2    0    0 -0.37797448631E+02  0.48022575272E+02  0.12893150894E+03  0.16897050025E+03  0.90514535289E+02 0.  0.
         24    2    1    2    0    0  0.22186389584E+01 -0.22108510024E+02 -0.81309624903E+02  0.11762269602E+03  0.82037399661E+02 0.  0.
        -13    1    4    4    0    0  0.32005445229E+01  0.29434346752E+02 -0.13761026319E+02  0.32649503814E+02  0.00000000000E+00 0.  1.
         14    1    4    4    0    0 -0.98190556453E+00 -0.51542856776E+02 -0.67548598584E+02  0.84973192207E+02  0.00000000000E+00 0. -1.
        -11    1    3    3    0    0 -0.60510962946E+02  0.87851876685E+01  0.54984996459E+02  0.82232025359E+02  0.00000000000E+00 0.  1.
         11    1    3    3    0    0  0.22713514315E+02  0.39237387603E+02  0.73946512481E+02  0.86738474892E+02  0.00000000000E+00 0. -1.
         21    1    1    2  502  501  0.35578809672E+02 -0.25914065248E+02  0.74865547527E+02  0.86846074649E+02  0.00000000000E+00 0. -1.
<scales pt_clust_5="13000.00000" pt_clust_6="13000.00000" pt_clust_7="13000.00000" pt_clust_8="13000.00000" pt_clust_9="44.01580"></scales>
<clustering>
<clus scale="   44.016">  1  9  2 -1</clus>
<clus scale="   82.037">  5  6 -1 -1</clus>
<clus scale="   85.956">  2  5  1 -1</clus>
<clus scale="   90.515">  7  8 -1 -1</clus>
<clus scale="   85.956">  2  5  1 -1</clus>
</clustering>
</event>
<event>
 9    2  0.3402837E-005  0.2821110E+03  0.7546771E-02  0.1094542E+00
         -1   -1    0    0    0  501 -0.00000000000E+00  0.00000000000E+00  0.61384742288E+02  0.61384742288E+02  0.00000000000E+00 0.  1.
          2   -1    0    0  502    0  0.00000000000E+00 -0.00000000000E+00 -0.10198298703E+04  0.10198298703E+04  0.00000000000E+00 0. -1.
         24    2    1    2    0    0  0.37821862438E+02  0.11212448111E+03 -0.14026778300E+03  0.20021291578E+03  0.80048536252E+02 0.  0.
         23    2    1    2    0    0  0.57458100025E+02  0.67843715588E+02 -0.28360589230E+03  0.30895846320E+03  0.84373140455E+02 0.  0.
        -11    1    3    3    0    0  0.18027416470E+02  0.66712924677E+02 -0.22870747642E+02  0.72791985556E+02  0.00000000000E+00 0.  1.
         12    1    3    3    0    0  0.19794445968E+02  0.45411556430E+02 -0.11739703536E+03  0.12742093022E+03  0.00000000000E+00 0. -1.
        -13    1    4    4    0    0  0.69843382080E+02  0.42949966351E+02 -0.25954651420E+03  0.27218962262E+03  0.00000000000E+00 0.  1.
         13    1    4    4    0    0 -0.12385282055E+02  0.24893749237E+02 -0.24059378102E+02  0.36768840577E+02  0.00000000000E+00 0. -1.
         21    1    1    2  502  501 -0.95279962463E+02 -0.17996819669E+03 -0.53457145275E+03  0.57204323365E+03  0.00000000000E+00 0. -1.
<scales pt_clust_5="13000.00000" pt_clust_6="13000.00000" pt_clust_7="13000.00000" pt_clust_8="13000.00000" pt_clust_9="203.63404"></scales>
<clustering>
<clus scale="   80.049">  5  6 -1 -1</clus>
<clus scale="   84.373">  7  8 -1 -1</clus>
<clus scale="  120.837">  5  7 -1 -1</clus>
<clus scale="  203.634">  2  9  1 -1</clus>
<clus scale="  203.634">  2  5  1 -1</clus>
</clustering>
</event>
<event>
 9    2  0.3402837E-005  0.9372243E+02  0.7546771E-02  0.1298275E+00
         -1   -1    0    0    0  501 -0.00000000000E+00  0.00000000000E+00  0.17432012013E+02  0.17432012013E+02  0.00000000000E+00 0.  1.
          2   -1    0    0  502    0  0.00000000000E+00 -0.00000000000E+00 -0.80337938403E+03  0.80337938403E+03  0.00000000000E+00 0. -1.
         23    2    1    2    0    0  0.14014531355E+02  0.10322348039E+02 -0.17818337376E+03  0.20088338709E+03  0.91114557377E+02 0.  0.
         24    2    1    2    0    0 -0.21191606555E+02  0.16762210731E+02 -0.52986125517E+03  0.53713959725E+03  0.83880518027E+02 0.  0.
        -13    1    4    4    0    0  0.29216207355E+02  0.18567085830E+02 -0.14991043599E+03  0.15385532902E+03  0.00000000000E+00 0.  1.
         14    1    4    4    0    0 -0.50407813910E+02 -0.18048750990E+01 -0.37995081918E+03  0.38328426823E+03  0.00000000000E+00 0. -1.
        -11    1    3    3    0    0 -0.37173647211E+02  0.11913893303E+02 -0.10073399858E+03  0.10803314015E+03  0.00000000000E+00 0. -1.
         11    1    3    3    0    0  0.51188178566E+02 -0.15915452635E+01 -0.77449375181E+02  0.92850246942E+02  0.00000000000E+00 0.  1.
         21    1    1    2  502  501  0.71770752005E+01 -0.27084558771E+02 -0.77902743093E+02  0.82788411711E+02  0.00000000000E+00 0.  1.
<scales pt_clust_5="13000.00000" pt_clust_6="13000.00000" pt_clust_7="13000.00000" pt_clust_8="13000.00000" pt_clust_9="28.01935"></scales>
<clustering>
<clus scale="   28.019">  1  9  2 -1</clus>
<clus scale="   83.881">  5  6 -1 -1</clus>
<clus scale="   86.706">  2  5  1 -1</clus>
<clus scale="   91.115">  7  8 -1 -1</clus>
<clus scale="   86.706">  2  5  1 -1</clus>
</clustering>
</event>
<event>
 9    2  0.3402837E-005  0.1155931E+03  0.7546771E-02  0.1255131E+00
         -1   -1    0    0    0  501 -0.00000000000E+00  0.00000000000E+00  0.18410767376E+02  0.18410767376E+02  0.00000000000E+00 0.  1.
          2   -1    0    0  502    0  0.00000000000E+00 -0.00000000000E+00 -0.95910883291E+03  0.95910883291E+03  0.00000000000E+00 0. -1.
         23    2    1    2    0    0 -0.17130369903E+02  0.71874406149E+02 -0.38577811348E+03  0.40306207914E+03  0.90415192116E+02 0.  0.
         24    2    1    2    0    0  0.38133738956E+02 -0.61441773207E+02 -0.52916994306E+03  0.53962873557E+03  0.77130215047E+02 0.  0.
        -11    1    4    4    0    0  0.19194627245E+02 -0.41849874282E+02 -0.10581619032E+03  0.11539892472E+03  0.00000000000E+00 0.  1.
         12    1    4    4    0    0  0.18939111711E+02 -0.19591898925E+02 -0.42335375273E+03  0.42422981085E+03  0.00000000000E+00 0. -1.
        -11    1    3    3    0    0  0.31791591188E+02  0.53886142745E+02 -0.17214525778E+03  0.18316225437E+03  0.00000000000E+00 0.  1.
         11    1    3    3    0    0 -0.48921961090E+02  0.17988263404E+02 -0.21363285571E+03  0.21989982477E+03  0.00000000000E+00 0. -1.
         21    1    1    2  502  501 -0.21003369053E+02 -0.10432632943E+02 -0.25750008993E+02  0.34828785578E+02  0.00000000000E+00 0. -1.
<scales pt_clust_5="13000.00000" pt_clust_6="13000.00000" pt_clust_7="13000.00000" pt_clust_8="13000.00000" pt_clust_9="23.45168"></scales>
<clustering>
<clus scale="   23.452">  1  9  2 -1</clus>
<clus scale="   77.130">  5  6 -1 -1</clus>
<clus scale="   90.415">  7  8 -1 -1</clus>
<clus scale="  105.527">  2  5  1 -1</clus>
<clus scale="  105.527">  2  5  1 -1</clus>
</clustering>
</event>
<event>
 9    2  0.3402837E-005  0.9483008E+02  0.7546771E-02  0.1298655E+00
         -1   -1    0    0    0  501 -0.00000000000E+00  0.00000000000E+00  0.27151881526E+02  0.27151881526E+02  0.00000000000E+00 0.  1.
          2   -1    0    0  502    0  0.00000000000E+00 -0.00000000000E+00 -0.51807249696E+03  0.51807249696E+03  0.00000000000E+00 0. -1.
         23    2    1    2    0    0 -0.32919926770E+02 -0.24961243276E+02 -0.16940600397E+03  0.19700538169E+03  0.91683918916E+02 0.  0.
         24    2    1    2    0    0  0.18596749494E+02 -0.21446912400E+02 -0.22125489129E+03  0.23681485949E+03  0.79509380650E+02 0.  0.
        -13    1    4    4    0    0  0.39498795730E+02 -0.40164922007E+02 -0.15082659330E+03  0.16100322068E+03  0.00000000000E+00 0.  1.
         14    1    4    4    0    0 -0.20902046236E+02  0.18718009607E+02 -0.70428297992E+02  0.75811638807E+02  0.00000000000E+00 0. -1.
        -13    1    3    3    0    0 -0.28881181667E+02  0.17999739159E+02 -0.15922923325E+02  0.37571967629E+02  0.00000000000E+00 0.  1.
         13    1    3    3    0    0 -0.40387451029E+01 -0.42960982435E+02 -0.15348308064E+03  0.15943341406E+03  0.00000000000E+00 0. -1.
         21    1    1    2  502  501  0.14323177276E+02  0.46408155677E+02 -0.10025972017E+03  0.11140413731E+03  0.00000000000E+00 0. -1.
<scales pt_clust_5="13000.00000" pt_clust_6="13000.00000" pt_clust_7="13000.00000" pt_clust_8="13000.00000" pt_clust_9="48.56820"></scales>
<clustering>
<clus scale="   48.568">  1  9  2 -1</clus>
<clus scale="   79.509">  5  6 -1 -1</clus>
<clus scale="   83.118">  2  5  1 -1</clus>
<clus scale="   91.684">  7  8 -1 -1</clus>
<clus scale="   83.118">  2  5  1 -1</clus>
</clustering>
</event>
<event>
 9    2  0.3402837E-005  0.1995957E+03  0.7546771E-02  0.1150610E+00
          2   -1    0    0  502    0  0.00000000000E+00  0.00000000000E+00  0.95384166672E+03  0.95384166672E+03  0.00000000000E+00 0. -1.
         -1   -1    0    0    0  501 -0.00000000000E+00 -0.00000000000E+00 -0.64096676505E+02  0.64096676505E+02  0.00000000000E+00 0.  1.
         24    2    1    2    0    0  0.87310936398E+02  0.13539172961E+03  0.13758118247E+03  0.22812960669E+03  0.84619239069E+02 0.  0.
         23    2    1    2    0    0 -0.11629182893E+03 -0.14223640488E+03  0.70424573345E+03  0.73339168630E+03  0.90257011426E+02 0.  0.
        -13    1    3    3    0    0  0.17358176989E+02  0.23759762206E+02 -0.92666371314E+01  0.30849686743E+02  0.00000000000E+00 0.  1.
         14    1    3    3    0    0  0.69952759410E+02  0.11163196740E+03  0.14684781960E+03  0.19727991995E+03  0.00000000000E+00 0. -1.
        -13    1    4    4    0    0 -0.44820766195E+02 -0.19423199249E+02  0.84856253964E+02  0.97911927711E+02  0.00000000000E+00 0.  1.
         13    1    4    4    0    0 -0.71471062736E+02 -0.12281320563E+03  0.61938947948E+03  0.63547975859E+03  0.00000000000E+00 0. -1.
         21    1    1    2  502  501  0.28980892533E+02  0.68446752736E+01  0.47918074300E+02  0.56417050226E+02  0.00000000000E+00 0. -1.
<scales pt_clust_5="13000.00000" pt_clust_6="13000.00000" pt_clust_7="13000.00000" pt_clust_8="13000.00000" pt_clust_9="29.77821"></scales>
<clustering>
<clus scale="   29.778">  2  9  1 -1</clus>
<clus scale="   84.619">  5  6 -1 -1</clus>
<clus scale="   90.257">  7  8 -1 -1</clus>
<clus scale="  197.110">  2  5  1 -1</clus>
<clus scale="  199.596">  1  5  2 -1</clus>
</clustering>
</event>
<event>
 9    2  0.3402837E-005  0.1085856E+03  0.7546771E-02  0.1267411E+00
         -1   -1    0    0    0  501 -0.00000000000E+00  0.00000000000E+00  0.30796052154E+02  0.30796052154E+02  0.00000000000E+00 0.  1.
          2   -1    0    0  502    0  0.00000000000E+00 -0.00000000000E+00 -0.55692109012E+03  0.55692109012E+03  0.00000000000E+00 0. -1.
         23    2    1    2    0    0 -0.51430189145E+02 -0.90522516507E+01 -0.16321012171E+03  0.19376651556E+03  0.90448389196E+02 0.  0.
         24    2    1    2    0    0  0.57791633853E+02  0.28719544768E+02 -0.35832515565E+03  0.37277667338E+03  0.80005286393E+02 0.  0.
        -11    1    4    4    0    0  0.41994062069E+02  0.16525502510E+02 -0.67073496558E+02  0.80842114166E+02  0.00000000000E+00 0.  1.
         12    1    4    4    0    0  0.15797571783E+02  0.12194042258E+02 -0.29125165909E+03  0.29193455921E+03  0.00000000000E+00 0. -1.
        -11    1    3    3    0    0 -0.18140535425E+02 -0.41578396440E+02 -0.12681346441E+03  0.13468294930E+03  0.00000000000E+00 0.  1.
         11    1    3    3    0    0 -0.33289653721E+02  0.32526144789E+02 -0.36396657303E+02  0.59083566265E+02  0.00000000000E+00 0. -1.
         21    1    1    2  502  501 -0.63614447072E+01 -0.19667293118E+02 -0.45897606063E+01  0.21173953333E+02  0.00000000000E+00 0.  1.
<scales pt_clust_5="13000.00000" pt_clust_6="13000.00000" pt_clust_7="13000.00000" pt_clust_8="13000.00000" pt_clust_9="20.67052"></scales>
<clustering>
<clus scale="   20.671">  1  9  2 -1</clus>
<clus scale="   80.005">  5  6 -1 -1</clus>
<clus scale="   90.448">  7  8 -1 -1</clus>
<clus scale="  100.054">  2  5  1 -1</clus>
<clus scale="  100.054">  2  5  1 -1</clus>
</clustering>
</event>
<event>
 9    2  0.3402837E-005  0.1984460E+03  0.7546771E-02  0.1179252E+00
          2   -1    0    0  502    0  0.00000000000E+00  0.00000000000E+00  0.10222096092E+04  0.10222096092E+04  0.00000000000E+00 0. -1.
         -1   -1    0    0    0  501 -0.00000000000E+00 -0.00000000000E+00 -0.16449859487E+03  0.16449859487E+03  0.00000000000E+00 0.  1.
         23    2    1    2    0    0 -0.18586309825E+02 -0.62121338580E+01 -0.18718670703E+02  0.10522175253E+03  0.10167195804E+03 0.  0.
         24    2    1    2    0    0  0.18201297148E+03  0.31597644617E+02  0.89306207977E+03  0.91526571140E+03  0.77616436446E+02 0.  0.
        -11    1    4    4    0    0  0.16084150369E+03  0.23057371510E+01  0.65427332729E+03  0.67375729498E+03  0.00000000000E+00 0.  1.
         12    1    4    4    0    0  0.21171467796E+02  0.29291907466E+02  0.23878875248E+03  0.24150841642E+03  0.00000000000E+00 0. -1.
        -13    1    3    3    0    0  0.86847366086E+01  0.34487444227E+02 -0.38477479790E+02  0.52395848216E+02  0.00000000000E+00 0. -1.
         13    1    3    3    0    0 -0.27271046434E+02 -0.40699578085E+02  0.19758809086E+02  0.52825904312E+02  0.00000000000E+00 0.  1.
         21    1    1    2  502  501 -0.16342666166E+03 -0.25385510759E+02 -0.16632394738E+02  0.16622074014E+03  0.00000000000E+00 0.  1.
<scales pt_clust_5="13000.00000" pt_clust_6="13000.00000" pt_clust_7="13000.00000" pt_clust_8="13000.00000" pt_clust_9="182.63765"></scales>
<clustering>
<clus scale="   77.616">  5  6 -1 -1</clus>
<clus scale="  101.672">  7  8 -1 -1</clus>
<clus scale="  103.543">  2  7  1 -1</clus>
<clus scale="  182.638">  2  9  1 -1</clus>
<clus scale="  198.446">  1  5  2 -1</clus>
</clustering>
</event>
<event>
 9    2  0.3402837E-005  0.1162967E+03  0.7546771E-02  0.1253338E+00
         -1   -1    0    0    0  501 -0.00000000000E+00  0.00000000000E+00  0.12610923171E+03  0.12610923171E+03  0.00000000000E+00 0.  1.
          2   -1    0    0  502    0  0.00000000000E+00 -0.00000000000E+00 -0.29172192468E+03  0.29172192468E+03  0.00000000000E+00 0. -1.
         24    2    1    2    0    0 -0.33122969398E+02 -0.75783168817E+01  0.49149069890E+02  0.10077126837E+03  0.81145890035E+02 0.  0.
         23    2    1    2    0    0  0.77009027974E+02 -0.11204583501E+02 -0.23569883166E+03  0.26493365341E+03  0.92628118745E+02 0.  0.
        -13    1    3    3    0    0 -0.51168525729E+02 -0.57817464987E+01  0.60445457831E+02  0.79405919113E+02  0.00000000000E+00 0.  1.
         14    1    3    3    0    0  0.18045556330E+02 -0.17965703831E+01 -0.11296387941E+02  0.21365349258E+02  0.00000000000E+00 0. -1.
        -11    1    4    4    0    0 -0.21528422361E+02 -0.45013633604E+01 -0.37032025338E+02  0.43070943129E+02  0.00000000000E+00 0.  1.
         11    1    4    4    0    0  0.98537450335E+02 -0.67032201408E+01 -0.19866680632E+03  0.22186271028E+03  0.00000000000E+00 0. -1.
         21    1    1    2  502  501 -0.43886058576E+02  0.18782900383E+02  0.20937068800E+02  0.52126234604E+02  0.00000000000E+00 0. -1.
<scales pt_clust_5="13000.00000" pt_clust_6="13000.00000" pt_clust_7="13000.00000" pt_clust_8="13000.00000" pt_clust_9="47.73661"></scales>
<clustering>
<clus scale="   47.737">  1  9  2 -1</clus>
<clus scale="   81.146">  5  6 -1 -1</clus>
<clus scale="   92.628">  7  8 -1 -1</clus>
<clus scale="  107.376">  1  5  2 -1</clus>
<clus scale="  116.297">  2  5  1 -1</clus>
</clustering>
</event>
<event>
 9    2  0.3402837E-005  0.1123753E+03  0.7546771E-02  0.1259595E+00
         -1   -1    0    0    0  501 -0.00000000000E+00  0.00000000000E+00  0.31240732060E+02  0.31240732060E+02  0.00000000000E+00 0.  1.
          2   -1    0    0  502    0  0.00000000000E+00 -0.00000000000E+00 -0.78772469106E+03  0.78772469106E+03  0.00000000000E+00 0. -1.
         23    2    1    2    0    0 -0.56555793650E+02 -0.40487607451E+02 -0.20231865088E+03  0.23277837587E+03  0.91734026553E+02 0.  0.
         24    2    1    2    0    0  0.25021564625E+02  0.61116900994E+02 -0.53207804364E+03  0.54250841855E+03  0.82746512907E+02 0.  0.
        -13    1    4    4    0    0  0.49863840852E+02  0.12744817851E+02 -0.25290881882E+03  0.25809243236E+03  0.00000000000E+00 0.  1.
         14    1    4    4    0    0 -0.24842276227E+02  0.48372083143E+02 -0.27916922482E+03  0.28441598619E+03  0.00000000000E+00 0. -1.
        -11    1    3    3    0    0 -0.56528732976E+02  0.33933196514E+01 -0.16733816950E+03  0.17666090468E+03  0.00000000000E+00 0. -1.
         11    1    3    3    0    0 -0.27060673583E-01 -0.43880927102E+02 -0.34980481378E+02  0.56117471193E+02  0.00000000000E+00 0.  1.
         21    1    1    2  502  501  0.31534229025E+02 -0.20629293543E+02 -0.22087264485E+02  0.43678628696E+02  0.00000000000E+00 0.  1.
<scales pt_clust_5="13000.00000" pt_clust_6="13000.00000" pt_clust_7="13000.00000" pt_clust_8="13000.00000" pt_clust_9="37.68256"></scales>
<clustering>
<clus scale="   37.683">  1  9  2 -1</clus>
<clus scale="   82.747">  5  6 -1 -1</clus>
<clus scale="   91.734">  7  8 -1 -1</clus>
<clus scale="  105.167">  2  5  1 -1</clus>
<clus scale="  105.167">  2  5  1 -1</clus>
</clustering>
</event>
<event>
 9    2  0.3402837E-005  0.1085925E+03  0.7546771E-02  0.1267030E+00
          2   -1    0    0  502    0  0.00000000000E+00  0.00000000000E+00  0.58060363610E+03  0.58060363610E+03  0.00000000000E+00 0. -1.
         -1   -1    0    0    0  501 -0.00000000000E+00 -0.00000000000E+00 -0.90422901614E+02  0.90422901614E+02  0.00000000000E+00 0.  1.
         23    2    1    2    0    0 -0.21365085530E+02 -0.47183732890E+02  0.67249178380E+01  0.10522787442E+03  0.91350476224E+02 0.  0.
         24    2    1    2    0    0  0.81647159324E+00  0.59803299154E+02  0.51567552969E+03  0.52555429851E+03  0.81908287414E+02 0.  0.
        -11    1    4    4    0    0 -0.35618500598E+02  0.57651875289E+01  0.16967125284E+03  0.17346541158E+03  0.00000000000E+00 0.  1.
         12    1    4    4    0    0  0.36434972191E+02  0.54038111625E+02  0.34600427685E+03  0.35208888694E+03  0.00000000000E+00 0. -1.
        -11    1    3    3    0    0 -0.14021610316E+02  0.21025542193E+02 -0.19357242485E+02  0.31833658555E+02  0.00000000000E+00 0. -1.
         11    1    3    3    0    0 -0.73434752141E+01 -0.68209275083E+02  0.26082160323E+02  0.73394215867E+02  0.00000000000E+00 0.  1.
         21    1    1    2  502  501  0.20548613937E+02 -0.12619566264E+02 -0.32219713047E+02  0.40244364776E+02  0.00000000000E+00 0. -1.
<scales pt_clust_5="13000.00000" pt_clust_6="13000.00000" pt_clust_7="13000.00000" pt_clust_8="13000.00000" pt_clust_9="24.11429"></scales>
<clustering>
<clus scale="   24.114">  2  9  1 -1</clus>
<clus scale="   81.908">  5  6 -1 -1</clus>
<clus scale="   91.350">  7  8 -1 -1</clus>
<clus scale="  100.779">  1  5  2 -1</clus>
<clus scale="  100.779">  1  5  2 -1</clus>
</clustering>
</event>
<event>
 9    2  0.3402837E-005  0.9814425E+02  0.7546771E-02  0.1290173E+00
          2   -1    0    0  502    0  0.00000000000E+00  0.00000000000E+00  0.10106723807E+03  0.10106723807E+03  0.00000000000E+00 0. -1.
         -1   -1    0    0    0  501 -0.00000000000E+00 -0.00000000000E+00 -0.19140468748E+03  0.19140468748E+03  0.00000000000E+00 0.  1.
         23    2    1    2    0    0  0.31288119195E+02  0.30851845664E+02 -0.11650186087E+03  0.15485373057E+03  0.92066342935E+02 0.  0.
         24    2    1    2    0    0 -0.16712059339E+02  0.15135401572E+02  0.30017556218E+02  0.89222584086E+02  0.80939746242E+02 0.  0.
        -11    1    4    4    0    0 -0.28756615285E+02  0.43018519955E+02  0.27870884524E+02  0.58773481996E+02  0.00000000000E+00 0.  1.
         12    1    4    4    0    0  0.12044555946E+02 -0.27883118384E+02  0.21466716938E+01  0.30449102090E+02  0.00000000000E+00 0. -1.
        -11    1    3    3    0    0  0.42575658038E+02  0.51598937959E+02 -0.11251634040E+03  0.13090096987E+03  0.00000000000E+00 0.  1.
         11    1    3    3    0    0 -0.11287538843E+02 -0.20747092295E+02 -0.39855204745E+01  0.23952760703E+02  0.00000000000E+00 0. -1.
         21    1    1    2  502  501 -0.14576059856E+02 -0.45987247235E+02 -0.38531447517E+01  0.48395610893E+02  0.00000000000E+00 0. -1.
<scales pt_clust_5="13000.00000" pt_clust_6="13000.00000" pt_clust_7="13000.00000" pt_clust_8="13000.00000" pt_clust_9="48.24198"></scales>
<clustering>
<clus scale="   48.242">  1  9  2 -1</clus>
<clus scale="   80.940">  5  6 -1 -1</clus>
<clus scale="   87.791">  1  5  2 -1</clus>
<clus scale="   92.066">  7  8 -1 -1</clus>
<clus scale="   48.242">  1  5  2 -1</clus>
</clustering>
</event>
<event>
 9    2  0.3402837E-005  0.9666447E+02  0.7546771E-02  0.1292251E+00
          2   -1    0    0  502    0  0.00000000000E+00  0.00000000000E+00  0.58647763606E+02  0.58647763606E+02  0.00000000000E+00 0. -1.
         -1   -1    0    0    0  501 -0.00000000000E+00 -0.00000000000E+00 -0.27612719966E+03  0.27612719966E+03  0.00000000000E+00 0.  1.
         24    2    1    2    0    0  0.16699476783E+02  0.69436178824E+02 -0.93282353297E+02  0.14104974323E+03  0.78058805870E+02 0.  0.
         23    2    1    2    0    0  0.15772588104E+01 -0.23084928610E+02 -0.46966342650E+02  0.10181730592E+03  0.87324250745E+02 0.  0.
        -13    1    3    3    0    0 -0.18092445601E+02  0.66592548533E+02 -0.48860997788E+02  0.84553540510E+02  0.00000000000E+00 0.  1.
         14    1    3    3    0    0  0.34791922384E+02  0.28436302909E+01 -0.44421355509E+02  0.56496202719E+02  0.00000000000E+00 0. -1.
        -13    1    4    4    0    0  0.42610808805E+02 -0.15146677840E+02 -0.38007715447E+02  0.59073592324E+02  0.00000000000E+00 0.  1.
         13    1    4    4    0    0 -0.41033549994E+02 -0.79382507698E+01 -0.89586272032E+01  0.42743713594E+02  0.00000000000E+00 0. -1.
         21    1    1    2  502  501 -0.18276735593E+02 -0.46351250214E+02 -0.77230740107E+02  0.91907914120E+02  0.00000000000E+00 0.  1.
<scales pt_clust_5="13000.00000" pt_clust_6="13000.00000" pt_clust_7="13000.00000" pt_clust_8="13000.00000" pt_clust_9="49.82447"></scales>
<clustering>
<clus scale="   49.824">  2  9  1 -1</clus>
<clus scale="   78.059">  5  6 -1 -1</clus>
<clus scale="   87.324">  7  8 -1 -1</clus>
<clus scale="   88.384">  2  5  1 -1</clus>
<clus scale="   96.664">  1  5  2 -1</clus>
</clustering>
</event>
<event>
 9    2  0.3402837E-005  0.9430270E+02  0.7546771E-02  0.1299320E+00
         -1   -1    0    0    0  501 -0.00000000000E+00  0.00000000000E+00  0.43445872460E+03  0.43445872460E+03  0.00000000000E+00 0.  1.
          2   -1    0    0  502    0  0.00000000000E+00 -0.00000000000E+00 -0.83637261605E+02  0.83637261605E+02  0.00000000000E+00 0. -1.
         23    2    1    2    0    0  0.51357193843E+01  0.48705482201E+02  0.25721554448E+03  0.27731977889E+03  0.91366426144E+02 0.  0.
         24    2    1    2    0    0 -0.30078992861E+01 -0.20856088778E+02 -0.48448782065E+02  0.96001712716E+02  0.80156225358E+02 0.  0.
        -13    1    4    4    0    0  0.37127713484E+02 -0.37624218329E+01 -0.12135250132E+02  0.39241396795E+02  0.00000000000E+00 0.  1.
         14    1    4    4    0    0 -0.40135612770E+02 -0.17093666945E+02 -0.36313531932E+02  0.56760315921E+02  0.00000000000E+00 0. -1.
        -13    1    3    3    0    0 -0.18659021578E+02  0.67733617679E+02  0.20685219089E+03  0.21845784702E+03  0.00000000000E+00 0. -1.
         13    1    3    3    0    0  0.23794740962E+02 -0.19028135478E+02  0.50363353596E+02  0.58861931863E+02  0.00000000000E+00 0.  1.
         21    1    1    2  502  501 -0.21278200981E+01 -0.27849393424E+02  0.14205470057E+03  0.14477449460E+03  0.00000000000E+00 0. -1.
<scales pt_clust_5="13000.00000" pt_clust_6="13000.00000" pt_clust_7="13000.00000" pt_clust_8="13000.00000" pt_clust_9="27.93056"></scales>
<clustering>
<clus scale="   27.931">  1  9  2 -1</clus>
<clus scale="   80.156">  5  6 -1 -1</clus>
<clus scale="   83.488">  2  5  1 -1</clus>
<clus scale="   91.366">  7  8 -1 -1</clus>
<clus scale="   83.488">  2  5  1 -1</clus>
</clustering>
</event>
<event>
 9    2  0.3402837E-005  0.1014684E+03  0.7546771E-02  0.1278499E+00
         -1   -1    0    0    0  501 -0.00000000000E+00  0.00000000000E+00  0.24655191053E+02  0.24655191053E+02  0.00000000000E+00 0.  1.
          2   -1    0    0  502    0  0.00000000000E+00 -0.00000000000E+00 -0.75983217049E+03  0.75983217049E+03  0.00000000000E+00 0. -1.
         23    2    1    2    0    0 -0.46627312084E+02 -0.94905343226E+01 -0.12619501001E+03  0.15902436503E+03  0.84257887750E+02 0.  0.
         24    2    1    2    0    0  0.45079766537E+02  0.40562425014E+02 -0.54446940540E+03  0.55384087558E+03  0.81334410812E+02 0.  0.
        -11    1    4    4    0    0  0.51238712318E+02  0.26116513259E+02 -0.17852643228E+03  0.18756109652E+03  0.00000000000E+00 0.  1.
         12    1    4    4    0    0 -0.61589457810E+01  0.14445911754E+02 -0.36594297311E+03  0.36627977906E+03  0.00000000000E+00 0. -1.
        -13    1    3    3    0    0 -0.22261847682E+02 -0.43347767171E+02 -0.95568838334E+02  0.10727544752E+03  0.00000000000E+00 0.  1.
         13    1    3    3    0    0 -0.24365464402E+02  0.33857232848E+02 -0.30626171679E+02  0.51748917509E+02  0.00000000000E+00 0. -1.
         21    1    1    2  502  501  0.15475455470E+01 -0.31071890691E+02 -0.64512564024E+02  0.71622120922E+02  0.00000000000E+00 0.  1.
<scales pt_clust_5="13000.00000" pt_clust_6="13000.00000" pt_clust_7="13000.00000" pt_clust_8="13000.00000" pt_clust_9="31.11040"></scales>
<clustering>
<clus scale="   31.110">  1  9  2 -1</clus>
<clus scale="   81.334">  5  6 -1 -1</clus>
<clus scale="   84.258">  7  8 -1 -1</clus>
<clus scale="   99.054">  2  5  1 -1</clus>
<clus scale="   99.054">  2  5  1 -1</clus>
</clustering>
</event>
<event>
 9    2  0.3402837E-005  0.1887315E+03  0.7546771E-02  0.1160870E+00
          2   -1    0    0  502    0  0.00000000000E+00  0.00000000000E+00  0.90526150399E+02  0.90526150399E+02  0.00000000000E+00 0. -1.
         -1   -1    0    0    0  501 -0.00000000000E+00 -0.00000000000E+00 -0.44730211753E+03  0.44730211753E+03  0.00000000000E+00 0.  1.
         24    2    1    2    0    0  0.92365324785E+02 -0.13542341326E+03 -0.20090995338E+03  0.27160920083E+03  0.80844879395E+02 0.  0.
         23    2    1    2    0    0 -0.75057170256E+02  0.14745258918E+03 -0.11923962755E+03  0.22396074895E+03  0.92544494325E+02 0.  0.
        -13    1    3    3    0    0 -0.42907099257E+01 -0.58110918647E+02 -0.53250323363E+02  0.78935961360E+02  0.00000000000E+00 0.  1.
         14    1    3    3    0    0  0.96656034710E+02 -0.77312494615E+02 -0.14765963002E+03  0.19267323947E+03  0.00000000000E+00 0. -1.
        -13    1    4    4    0    0 -0.12074545860E+02  0.62596927286E+02 -0.96835410985E+02  0.11593647737E+03  0.00000000000E+00 0.  1.
         13    1    4    4    0    0 -0.62982624396E+02  0.84855661898E+02 -0.22404216560E+02  0.10802427159E+03  0.00000000000E+00 0. -1.
         21    1    1    2  502  501 -0.17308154528E+02 -0.12029175922E+02 -0.36626386211E+02  0.42258318157E+02  0.00000000000E+00 0. -1.
<scales pt_clust_5="13000.00000" pt_clust_6="13000.00000" pt_clust_7="13000.00000" pt_clust_8="13000.00000" pt_clust_9="21.07779"></scales>
<clustering>
<clus scale="   21.078">  2  9  1 -1</clus>
<clus scale="   80.845">  5  6 -1 -1</clus>
<clus scale="   92.544">  7  8 -1 -1</clus>
<clus scale="  183.278">  2  5  1 -1</clus>
<clus scale="  188.732">  1  5  2 -1</clus>
</clustering>
</event>
<event>
 9    2  0.3402837E-005  0.2068791E+03  0.7546771E-02  0.1145393E+00
          2   -1    0    0  502    0  0.00000000000E+00  0.00000000000E+00  0.28726554871E+03  0.28726554871E+03  0.00000000000E+00 0. -1.
         -1   -1    0    0    0  501 -0.00000000000E+00 -0.00000000000E+00 -0.45586019032E+03  0.45586019032E+03  0.00000000000E+00 0.  1.
         23    2    1    2    0    0  0.39009256961E+02  0.16478294312E+03 -0.36645753180E+03  0.41403518557E+03  0.91972125165E+02 0.  0.
         24    2    1    2    0    0 -0.22253127227E+02 -0.18571101650E+03  0.21676213654E+03  0.29628912586E+03  0.76273448485E+02 0.  0.
        -11    1    4    4    0    0 -0.45462660125E+02 -0.11121681587E+03  0.10252056418E+03  0.15794460953E+03  0.00000000000E+00 0.  1.
         12    1    4    4    0    0  0.23209532898E+02 -0.74494200635E+02  0.11424157236E+03  0.13834451634E+03  0.00000000000E+00 0. -1.
        -13    1    3    3    0    0  0.23733479504E+02  0.30002727620E+01 -0.19337222972E+02  0.30760492166E+02  0.00000000000E+00 0. -1.
         13    1    3    3    0    0  0.15275777457E+02  0.16178267036E+03 -0.34712030883E+03  0.38327469340E+03  0.00000000000E+00 0.  1.
         21    1    1    2  502  501 -0.16756129734E+02  0.20928073383E+02 -0.18899246364E+02  0.32801427596E+02  0.00000000000E+00 0.  1.
<scales pt_clust_5="13000.00000" pt_clust_6="13000.00000" pt_clust_7="13000.00000" pt_clust_8="13000.00000" pt_clust_9="26.80955"></scales>
<clustering>
<clus scale="   26.810">  2  9  1 -1</clus>
<clus scale="   76.273">  5  6 -1 -1</clus>
<clus scale="   91.972">  7  8 -1 -1</clus>
<clus scale="  200.394">  1  5  2 -1</clus>
<clus scale="  200.394">  1  5  2 -1</clus>
</clustering>
</event>
<event>
 9    2  0.3402837E-005  0.1652993E+03  0.7546771E-02  0.1184114E+00
          2   -1    0    0  502    0  0.00000000000E+00  0.00000000000E+00  0.38010569687E+03  0.38010569687E+03  0.00000000000E+00 0. -1.
         -1   -1    0    0    0  501 -0.00000000000E+00 -0.00000000000E+00 -0.61286171761E+03  0.61286171761E+03  0.00000000000E+00 0.  1.
         23    2    1    2    0    0  0.11128879101E+03  0.16863737655E+03  0.10408411774E+03  0.24478499635E+03  0.90897915832E+02 0.  0.
         24    2    1    2    0    0 -0.26370729467E+02 -0.11463294393E+03  0.17513732667E+03  0.22640806007E+03  0.82166898830E+02 0.  0.
        -13    1    4    4    0    0  0.98032209197E+01 -0.10427822575E+03  0.14067806298E+03  0.17538634186E+03  0.00000000000E+00 0.  1.
         14    1    4    4    0    0 -0.36173950386E+02 -0.10354718182E+02  0.34459263688E+02  0.51021718210E+02  0.00000000000E+00 0. -1.
        -11    1    3    3    0    0  0.76091025556E+02  0.69442008254E+02  0.98058755256E+01  0.10348039368E+03  0.00000000000E+00 0.  1.
         11    1    3    3    0    0  0.35197765449E+02  0.99195368291E+02  0.94278242211E+02  0.14130460268E+03  0.00000000000E+00 0. -1.
         21    1    1    2  502  501 -0.84918061539E+02 -0.54004432615E+02 -0.51197746515E+03  0.52177435807E+03  0.00000000000E+00 0.  1.
<scales pt_clust_5="13000.00000" pt_clust_6="13000.00000" pt_clust_7="13000.00000" pt_clust_8="13000.00000" pt_clust_9="100.63576"></scales>
<clustering>
<clus scale="   82.167">  5  6 -1 -1</clus>
<clus scale="   90.898">  7  8 -1 -1</clus>
<clus scale="  100.636">  2  9  1 -1</clus>
<clus scale="  160.664">  1  5  2 -1</clus>
<clus scale="  160.664">  1  5  2 -1</clus>
</clustering>
</event>
<event>
 9    2  0.3402837E-005  0.9971280E+02  0.7546771E-02  0.1286452E+00
         -1   -1    0    0    0  501 -0.00000000000E+00  0.00000000000E+00  0.44316656116E+02  0.44316656116E+02  0.00000000000E+00 0.  1.
          2   -1    0    0  502    0  0.00000000000E+00 -0.00000000000E+00 -0.47233279078E+03  0.47233279078E+03  0.00000000000E+00 0. -1.
         23    2    1    2    0    0 -0.29340206320E+02 -0.36659074600E+01 -0.17792568317E+03  0.20294082743E+03  0.93022277564E+02 0.  0.
         24    2    1    2    0    0  0.33038512044E+02  0.25166935699E+02 -0.26930332375E+03  0.28463791014E+03  0.82277225138E+02 0.  0.
        -13    1    4    4    0    0  0.28493757321E+02  0.18160829762E+02 -0.29989178699E+02  0.45178100701E+02  0.00000000000E+00 0.  1.
         14    1    4    4    0    0  0.45447547225E+01  0.70061059369E+01 -0.23931414505E+03  0.23945980944E+03  0.00000000000E+00 0. -1.
        -11    1    3    3    0    0 -0.15980134624E+02 -0.37264363300E+02 -0.29415868272E+02  0.50092821651E+02  0.00000000000E+00 0.  1.
         11    1    3    3    0    0 -0.13360071696E+02  0.33598455840E+02 -0.14850981490E+03  0.15284800578E+03  0.00000000000E+00 0. -1.
         21    1    1    2  502  501 -0.36983057240E+01 -0.21501028239E+02  0.19212872251E+02  0.29070709326E+02  0.00000000000E+00 0.  1.
<scales pt_clust_5="13000.00000" pt_clust_6="13000.00000" pt_clust_7="13000.00000" pt_clust_8="13000.00000" pt_clust_9="21.81678"></scales>
<clustering>
<clus scale="   21.817">  1  9  2 -1</clus>
<clus scale="   82.277">  5  6 -1 -1</clus>
<clus scale="   89.772">  2  5  1 -1</clus>
<clus scale="   93.022">  7  8 -1 -1</clus>
<clus scale="   89.772">  2  5  1 -1</clus>
</clustering>
</event>
<event>
 9    2  0.3402837E-005  0.9566318E+02  0.7546771E-02  0.1296965E+00
         -1   -1    0    0    0  501 -0.00000000000E+00  0.00000000000E+00  0.63835469611E+02  0.63835469611E+02  0.00000000000E+00 0.  1.
          2   -1    0    0  502    0  0.00000000000E+00 -0.00000000000E+00 -0.47928545983E+03  0.47928545983E+03  0.00000000000E+00 0. -1.
         23    2    1    2    0    0  0.20872594676E+02  0.23108636125E+02 -0.13644072721E+03  0.16773651976E+03  0.92465094761E+02 0.  0.
         24    2    1    2    0    0 -0.39758722170E+01  0.42947710955E+02 -0.29217100877E+03  0.30594255075E+03  0.79853819944E+02 0.  0.
        -13    1    4    4    0    0  0.21809513631E+02 -0.15066254094E+02 -0.68978027691E+02  0.73895975542E+02  0.00000000000E+00 0.  1.
         14    1    4    4    0    0 -0.25785385848E+02  0.58013965049E+02 -0.22319298108E+03  0.23204657521E+03  0.00000000000E+00 0. -1.
        -13    1    3    3    0    0  0.72066740726E+01 -0.28691414758E+02 -0.96447828653E+02  0.10088268971E+03  0.00000000000E+00 0.  1.
         13    1    3    3    0    0  0.13665920604E+02  0.51800050883E+02 -0.39992898555E+02  0.66853830049E+02  0.00000000000E+00 0. -1.
         21    1    1    2  502  501 -0.16896722459E+02 -0.66056347080E+02  0.13161745759E+02  0.69441858924E+02  0.00000000000E+00 0.  1.
<scales pt_clust_5="13000.00000" pt_clust_6="13000.00000" pt_clust_7="13000.00000" pt_clust_8="13000.00000" pt_clust_9="68.18314"></scales>
<clustering>
<clus scale="   68.183">  1  9  2 -1</clus>
<clus scale="   79.854">  5  6 -1 -1</clus>
<clus scale="   83.536">  2  5  1 -1</clus>
<clus scale="   92.465">  7  8 -1 -1</clus>
<clus scale="   83.536">  2  5  1 -1</clus>
</clustering>
</event>
<event>
 9    2  0.3402837E-005  0.1631940E+03  0.7546771E-02  0.1187063E+00
         -3   -1    0    0    0  501 -0.00000000000E+00  0.00000000000E+00  0.47745301026E+03  0.47745301026E+03  0.00000000000E+00 0.  1.
          4   -1    0    0  502    0  0.00000000000E+00 -0.00000000000E+00 -0.70814208096E+02  0.70814208096E+02  0.00000000000E+00 0. -1.
         24    2    1    2    0    0 -0.80195630119E+02 -0.89712247504E+02  0.25235860903E+03  0.29076845531E+03  0.79886172820E+02 0.  0.
         23    2    1    2    0    0  0.88720045063E+02  0.11085768525E+03  0.95722671661E+02  0.19465945601E+03  0.92567819307E+02 0.  0.
        -13    1    3    3    0    0 -0.43592577023E+02 -0.97630848365E+02  0.18304664109E+03  0.21198624516E+03  0.00000000000E+00 0.  1.
         14    1    3    3    0    0 -0.36603053096E+02  0.79186008605E+01  0.69311967940E+02  0.78782210145E+02  0.00000000000E+00 0. -1.
        -13    1    4    4    0    0  0.42606379121E+02  0.11328366599E+03  0.83016137107E+02  0.14676570288E+03  0.00000000000E+00 0.  1.
         13    1    4    4    0    0  0.46113665942E+02 -0.24259807373E+01  0.12706534554E+02  0.47893753136E+02  0.00000000000E+00 0. -1.
         21    1    1    2  502  501 -0.85244149440E+01 -0.21145437745E+02  0.58557521470E+02  0.62839307032E+02  0.00000000000E+00 0.  1.
<scales pt_clust_5="13000.00000" pt_clust_6="13000.00000" pt_clust_7="13000.00000" pt_clust_8="13000.00000" pt_clust_9="22.79902"></scales>
<clustering>
<clus scale="   22.799">  1  9  2 -1</clus>
<clus scale="   79.886">  5  6 -1 -1</clus>
<clus scale="   92.568">  7  8 -1 -1</clus>
<clus scale="  156.350">  1  5  2 -1</clus>
<clus scale="  163.194">  2  5  1 -1</clus>
</clustering>
</event>
<event>
 9    2  0.3402837E-005  0.9841225E+02  0.7546771E-02  0.1289582E+00
          2   -1    0    0  502    0  0.00000000000E+00  0.00000000000E+00  0.13781924519E+03  0.13781924519E+03  0.00000000000E+00 0. -1.
         -1   -1    0    0    0  501 -0.00000000000E+00 -0.00000000000E+00 -0.16427595849E+03  0.16427595849E+03  0.00000000000E+00 0.  1.
         24    2    1    2    0    0  0.62266526483E+01 -0.59713135307E+02 -0.59534531386E+02  0.11592045449E+03  0.79301712534E+02 0.  0.
         23    2    1    2    0    0  0.33190931696E+02 -0.14055938621E+02  0.31451613828E+02  0.10251910524E+03  0.90673896850E+02 0.  0.
        -11    1    3    3    0    0 -0.11327485568E+02 -0.64307742862E+02 -0.13830893646E+02  0.66746470621E+02  0.00000000000E+00 0.  1.
         12    1    3    3    0    0  0.17554138216E+02  0.45946075547E+01 -0.45703637740E+02  0.49173983871E+02  0.00000000000E+00 0. -1.
        -11    1    4    4    0    0  0.84360536269E+01 -0.51411704986E+02  0.22838968392E+02  0.56885401357E+02  0.00000000000E+00 0. -1.
         11    1    4    4    0    0  0.24754878069E+02  0.37355766365E+02  0.86126454356E+01  0.45633703885E+02  0.00000000000E+00 0.  1.
         21    1    1    2  502  501 -0.39417584344E+02  0.73769073928E+02  0.16262042640E+01  0.83655643946E+02  0.00000000000E+00 0.  1.
<scales pt_clust_5="13000.00000" pt_clust_6="13000.00000" pt_clust_7="13000.00000" pt_clust_8="13000.00000" pt_clust_9="83.63984"></scales>
<clustering>
<clus scale="   79.302">  5  6 -1 -1</clus>
<clus scale="   83.640">  1  9  2 -1</clus>
<clus scale="   88.045">  2  5  1 -1</clus>
<clus scale="   90.674">  7  8 -1 -1</clus>
<clus scale="   83.640">  1  5  2 -1</clus>
</clustering>
</event>
<event>
 9    2  0.3402837E-005  0.1474020E+03  0.7546771E-02  0.1204438E+00
          2   -1    0    0  502    0  0.00000000000E+00  0.00000000000E+00  0.92411835027E+03  0.92411835027E+03  0.00000000000E+00 0. -1.
         -1   -1    0    0    0  501 -0.00000000000E+00 -0.00000000000E+00 -0.32625895535E+02  0.32625895535E+02  0.00000000000E+00 0.  1.
         23    2    1    2    0    0  0.11144990690E+03 -0.34187120631E+02  0.23747555761E+03  0.27740775707E+03  0.83490012924E+02 0.  0.
         24    2    1    2    0    0 -0.10954874292E+03  0.58674845355E+02  0.62055612533E+03  0.63782882274E+03  0.79322366850E+02 0.  0.
        -13    1    4    4    0    0 -0.59324178398E+02  0.45154519701E+01  0.14760271814E+03  0.15914242003E+03  0.00000000000E+00 0.  1.
         14    1    4    4    0    0 -0.50224564521E+02  0.54159393385E+02  0.47295340719E+03  0.47868640272E+03  0.00000000000E+00 0. -1.
        -11    1    3    3    0    0 -0.65391737796E+01 -0.24053564477E+02  0.43789394070E+02  0.50386960523E+02  0.00000000000E+00 0. -1.
         11    1    3    3    0    0  0.11798908068E+03 -0.10133556153E+02  0.19368616354E+03  0.22702079655E+03  0.00000000000E+00 0.  1.
         21    1    1    2  502  501 -0.19011639810E+01 -0.24487724724E+02  0.33460771798E+02  0.41507665990E+02  0.00000000000E+00 0. -1.
<scales pt_clust_5="13000.00000" pt_clust_6="13000.00000" pt_clust_7="13000.00000" pt_clust_8="13000.00000" pt_clust_9="24.56141"></scales>
<clustering>
<clus scale="   24.561">  2  9  1 -1</clus>
<clus scale="   79.322">  5  6 -1 -1</clus>
<clus scale="   83.490">  7  8 -1 -1</clus>
<clus scale="  145.082">  1  5  2 -1</clus>
<clus scale="  145.082">  1  5  2 -1</clus>
</clustering>
</event>
<event>
 9    2  0.3402837E-005  0.1567049E+03  0.7546771E-02  0.1193995E+00
          2   -1    0    0  502    0  0.00000000000E+00  0.00000000000E+00  0.38215941175E+03  0.38215941175E+03  0.00000000000E+00 0. -1.
         -1   -1    0    0    0  501 -0.00000000000E+00 -0.00000000000E+00 -0.13049775553E+03  0.13049775553E+03  0.00000000000E+00 0.  1.
         24    2    1    2    0    0  0.10031718637E+03  0.54249482954E+02  0.59866723034E+02  0.15217978986E+03  0.81043936437E+02 0.  0.
         23    2    1    2    0    0 -0.11765152463E+03 -0.66967919039E+02  0.25006749830E+03  0.29836514237E+03  0.90340583607E+02 0.  0.
        -11    1    3    3    0    0  0.66151374595E+02  0.67579872945E+02  0.17549917781E+02  0.96182343505E+02  0.00000000000E+00 0.  1.
         12    1    3    3    0    0  0.34165811774E+02 -0.13330389990E+02  0.42316805253E+02  0.55997446355E+02  0.00000000000E+00 0. -1.
        -11    1    4    4    0    0 -0.31082907747E+02 -0.41079521828E+02  0.28028723041E+02  0.58645405472E+02  0.00000000000E+00 0.  1.
         11    1    4    4    0    0 -0.86568616880E+02 -0.25888397211E+02  0.22203877526E+03  0.23971973690E+03  0.00000000000E+00 0. -1.
         21    1    1    2  502  501  0.17334338258E+02  0.12718436084E+02 -0.58272565107E+02  0.62112235054E+02  0.00000000000E+00 0.  1.
<scales pt_clust_5="13000.00000" pt_clust_6="13000.00000" pt_clust_7="13000.00000" pt_clust_8="13000.00000" pt_clust_9="21.49972"></scales>
<clustering>
<clus scale="   21.500">  2  9  1 -1</clus>
<clus scale="   81.044">  5  6 -1 -1</clus>
<clus scale="   90.341">  7  8 -1 -1</clus>
<clus scale="  151.536">  2  5  1 -1</clus>
<clus scale="  156.705">  1  5  2 -1</clus>
</clustering>
</event>
<event>
 9    2  0.3402837E-005  0.1155282E+03  0.7546771E-02  0.1254299E+00
          2   -1    0    0  502    0  0.00000000000E+00  0.00000000000E+00  0.60650979888E+03  0.60650979888E+03  0.00000000000E+00 0. -1.
         -1   -1    0    0    0  501 -0.00000000000E+00 -0.00000000000E+00 -0.29093251661E+03  0.29093251661E+03  0.00000000000E+00 0.  1.
         23    2    1    2    0    0  0.39227508976E+02  0.51868733955E+02 -0.13255015897E+02  0.11322899514E+03  0.91738469959E+02 0.  0.
         24    2    1    2    0    0 -0.16938956556E+02 -0.69012508436E+02  0.55038462788E+03  0.56088369095E+03  0.81348765165E+02 0.  0.
        -13    1    4    4    0    0 -0.23038717251E+02  0.99491679280E+01  0.78928890252E+02  0.82822328822E+02  0.00000000000E+00 0.  1.
         14    1    4    4    0    0  0.60997606955E+01 -0.78961676364E+02  0.47145573763E+03  0.47806136213E+03  0.00000000000E+00 0. -1.
        -13    1    3    3    0    0  0.42105888877E+01  0.34668695501E+02 -0.49097074607E+02  0.60250894114E+02  0.00000000000E+00 0.  1.
         13    1    3    3    0    0  0.35016920088E+02  0.17200038454E+02  0.35842058710E+02  0.52978101022E+02  0.00000000000E+00 0. -1.
         21    1    1    2  502  501 -0.22288552420E+02  0.17143774481E+02 -0.22155232971E+03  0.22332962941E+03  0.00000000000E+00 0.  1.
<scales pt_clust_5="13000.00000" pt_clust_6="13000.00000" pt_clust_7="13000.00000" pt_clust_8="13000.00000" pt_clust_9="28.11919"></scales>
<clustering>
<clus scale="   28.119">  2  9  1 -1</clus>
<clus scale="   81.349">  5  6 -1 -1</clus>
<clus scale="   91.738">  7  8 -1 -1</clus>
<clus scale="  107.464">  1  5  2 -1</clus>
<clus scale="  107.464">  1  5  2 -1</clus>
</clustering>
</event>
<event>
 9    2  0.3402837E-005  0.9362454E+02  0.7546771E-02  0.1299322E+00
         -1   -1    0    0    0  501 -0.00000000000E+00  0.00000000000E+00  0.34488404549E+03  0.34488404549E+03  0.00000000000E+00 0.  1.
          2   -1    0    0  502    0  0.00000000000E+00 -0.00000000000E+00 -0.45492421922E+03  0.45492421922E+03  0.00000000000E+00 0. -1.
         23    2    1    2    0    0  0.16300587441E+02 -0.56405717970E+02  0.25312078388E+03  0.27508372332E+03  0.90297338996E+02 0.  0.
         24    2    1    2    0    0  0.51787983897E+01  0.23754735390E+02 -0.43482745607E+03  0.44309404660E+03  0.81647475035E+02 0.  0.
        -11    1    4    4    0    0  0.31878990791E+02 -0.74467466048E+01 -0.88873700787E+02  0.94711450102E+02  0.00000000000E+00 0.  1.
         12    1    4    4    0    0 -0.26700192401E+02  0.31201481995E+02 -0.34595375528E+03  0.34838259650E+03  0.00000000000E+00 0. -1.
        -13    1    3    3    0    0 -0.18590674733E+02 -0.58471901403E+02  0.94599118262E+02  0.11275446606E+03  0.00000000000E+00 0.  1.
         13    1    3    3    0    0  0.34891262174E+02  0.20661834332E+01  0.15852166562E+03  0.16232925726E+03  0.00000000000E+00 0. -1.
         21    1    1    2  502  501 -0.21479385831E+02  0.32650982580E+02  0.71666498449E+02  0.81630494786E+02  0.00000000000E+00 0. -1.
<scales pt_clust_5="13000.00000" pt_clust_6="13000.00000" pt_clust_7="13000.00000" pt_clust_8="13000.00000" pt_clust_9="39.08261"></scales>
<clustering>
<clus scale="   39.083">  1  9  2 -1</clus>
<clus scale="   81.647">  5  6 -1 -1</clus>
<clus scale="   85.313">  2  5  1 -1</clus>
<clus scale="   90.297">  7  8 -1 -1</clus>
<clus scale="   85.313">  2  5  1 -1</clus>
</clustering>
</event>
<event>
 9    2  0.3402837E-005  0.1090501E+03  0.7546771E-02  0.1268880E+00
         -3   -1    0    0    0  501 -0.00000000000E+00  0.00000000000E+00  0.77549708445E+02  0.77549708445E+02  0.00000000000E+00 0.  1.
          4   -1    0    0  502    0  0.00000000000E+00 -0.00000000000E+00 -0.24667819880E+03  0.24667819880E+03  0.00000000000E+00 0. -1.
         24    2    1    2    0    0 -0.50007530310E+02  0.28441764729E+02  0.52367906283E+01  0.96653808383E+02  0.77490951925E+02 0.  0.
         23    2    1    2    0    0  0.36224625972E+02 -0.44444168358E+02 -0.17507563615E+03  0.20644236968E+03  0.93163651703E+02 0.  0.
        -13    1    3    3    0    0 -0.62616878832E+02  0.21154940178E+02  0.26225968424E+02  0.71107006887E+02  0.00000000000E+00 0.  1.
         14    1    3    3    0    0  0.12609348522E+02  0.72868245504E+01 -0.20989177795E+02  0.25546801496E+02  0.00000000000E+00 0. -1.
        -11    1    4    4    0    0  0.65198001157E+02 -0.39366761749E+02 -0.14807783614E+03  0.16651596573E+03  0.00000000000E+00 0. -1.
         11    1    4    4    0    0 -0.28973375185E+02 -0.50774066090E+01 -0.26997800006E+02  0.39926403953E+02  0.00000000000E+00 0.  1.
         21    1    1    2  502  501  0.13782904338E+02  0.16002403629E+02  0.71035516128E+00  0.21131729186E+02  0.00000000000E+00 0.  1.
<scales pt_clust_5="13000.00000" pt_clust_6="13000.00000" pt_clust_7="13000.00000" pt_clust_8="13000.00000" pt_clust_9="21.11979"></scales>
<clustering>
<clus scale="   21.120">  1  9  2 -1</clus>
<clus scale="   77.491">  5  6 -1 -1</clus>
<clus scale="   93.164">  7  8 -1 -1</clus>
<clus scale="   96.007">  1  5  2 -1</clus>
<clus scale="  109.050">  2  5  1 -1</clus>
</clustering>
</event>
<event>
 9    2  0.3402837E-005  0.3854978E+03  0.7546771E-02  0.1049561E+00
         -1   -1    0    0    0  501 -0.00000000000E+00  0.00000000000E+00  0.74195347723E+03  0.74195347723E+03  0.00000000000E+00 0.  1.
          2   -1    0    0  502    0  0.00000000000E+00 -0.00000000000E+00 -0.43349748884E+03  0.43349748884E+03  0.00000000000E+00 0. -1.
         24    2    1    2    0    0 -0.34647689733E+03  0.69452933254E+02  0.51615124193E+03  0.63039860787E+03  0.78232665462E+02 0.  0.
         23    2    1    2    0    0  0.37229965881E+03 -0.32246849180E+02 -0.26614341267E+03  0.47111119909E+03  0.10708198059E+03 0.  0.
        -11    1    3    3    0    0 -0.17587795181E+03 -0.33799713086E+01  0.26813094602E+03  0.32068470864E+03  0.00000000000E+00 0.  1.
         12    1    3    3    0    0 -0.17059894552E+03  0.72832904563E+02  0.24802029590E+03  0.30971389924E+03  0.00000000000E+00 0. -1.
        -11    1    4    4    0    0  0.22211633269E+03  0.32736366040E+02 -0.14119828086E+03  0.26522497889E+03  0.00000000000E+00 0.  1.
         11    1    4    4    0    0  0.15018332612E+03 -0.64983215219E+02 -0.12494513181E+03  0.20588622020E+03  0.00000000000E+00 0. -1.
         21    1    1    2  502  501 -0.25822761483E+02 -0.37206084075E+02  0.58448159143E+02  0.73941159107E+02  0.00000000000E+00 0. -1.
<scales pt_clust_5="13000.00000" pt_clust_6="13000.00000" pt_clust_7="13000.00000" pt_clust_8="13000.00000" pt_clust_9="45.28916"></scales>
<clustering>
<clus scale="   45.289">  1  9  2 -1</clus>
<clus scale="   78.233">  5  6 -1 -1</clus>
<clus scale="  107.082">  7  8 -1 -1</clus>
<clus scale="  378.500">  1  5  2 -1</clus>
<clus scale="  385.498">  2  5  1 -1</clus>
</clustering>
</event>
<event>
 9    2  0.3402837E-005  0.1821973E+03  0.7546771E-02  0.1188302E+00
         -1   -1    0    0    0  501 -0.00000000000E+00  0.00000000000E+00  0.88927187271E+02  0.88927187271E+02  0.00000000000E+00 0.  1.
          2   -1    0    0  502    0  0.00000000000E+00 -0.00000000000E+00 -0.12597722181E+04  0.12597722181E+04  0.00000000000E+00 0. -1.
         23    2    1    2    0    0  0.15882274833E+03  0.14067163408E+03 -0.65600828157E+03  0.69542667521E+03  0.90874754916E+02 0.  0.
         24    2    1    2    0    0 -0.24346384847E+02 -0.71180171690E+02 -0.48731110098E+03  0.49942014816E+03  0.79303290953E+02 0.  0.
        -11    1    4    4    0    0 -0.46755081994E+02 -0.22068270744E+02 -0.17498351492E+03  0.18246171313E+03  0.00000000000E+00 0.  1.
         12    1    4    4    0    0  0.22408697147E+02 -0.49111900945E+02 -0.31232758606E+03  0.31695843503E+03  0.00000000000E+00 0. -1.
        -13    1    3    3    0    0  0.24914214864E+02  0.17566972490E+02 -0.27258212816E+02  0.40894092369E+02  0.00000000000E+00 0.  1.
         13    1    3    3    0    0  0.13390853346E+03  0.12310466159E+03 -0.62875006875E+03  0.65453258284E+03  0.00000000000E+00 0. -1.
         21    1    1    2  502  501 -0.13447636348E+03 -0.69491462395E+02 -0.27525648302E+02  0.15385258202E+03  0.00000000000E+00 0.  1.
<scales pt_clust_5="13000.00000" pt_clust_6="13000.00000" pt_clust_7="13000.00000" pt_clust_8="13000.00000" pt_clust_9="157.91659"></scales>
<clustering>
<clus scale="   79.303">  5  6 -1 -1</clus>
<clus scale="   90.875">  7  8 -1 -1</clus>
<clus scale="  109.309">  2  5  1 -1</clus>
<clus scale="  157.917">  1  9  2 -1</clus>
<clus scale="  109.309">  2  5  1 -1</clus>
</clustering>
</event>
<event>
 9    2  0.3402837E-005  0.1154833E+03  0.7546771E-02  0.1255618E+00
          2   -1    0    0  502    0  0.00000000000E+00  0.00000000000E+00  0.24104703697E+03  0.24104703697E+03  0.00000000000E+00 0. -1.
         -1   -1    0    0    0  501 -0.00000000000E+00 -0.00000000000E+00 -0.75445768382E+02  0.75445768382E+02  0.00000000000E+00 0.  1.
         24    2    1    2    0    0  0.33191723764E+02 -0.53899158422E+02  0.14196783275E+02  0.10435014999E+03  0.81734908955E+02 0.  0.
         23    2    1    2    0    0 -0.57415483140E+02  0.37826911236E+02  0.13470467052E+03  0.17861667347E+03  0.95032388496E+02 0.  0.
        -11    1    3    3    0    0 -0.17000457491E+02 -0.35351208218E+02  0.29055947503E+02  0.48815689718E+02  0.00000000000E+00 0.  1.
         12    1    3    3    0    0  0.50192181255E+02 -0.18547950204E+02 -0.14859164227E+02  0.55534460269E+02  0.00000000000E+00 0. -1.
        -13    1    4    4    0    0  0.28598766318E+01  0.54548348548E+02  0.58743696563E+02  0.80215479239E+02  0.00000000000E+00 0.  1.
         13    1    4    4    0    0 -0.60275359772E+02 -0.16721437311E+02  0.75960973959E+02  0.98401194231E+02  0.00000000000E+00 0. -1.
         21    1    1    2  502  501  0.24223759377E+02  0.16072247185E+02  0.16699814787E+02  0.33525981892E+02  0.00000000000E+00 0.  1.
<scales pt_clust_5="13000.00000" pt_clust_6="13000.00000" pt_clust_7="13000.00000" pt_clust_8="13000.00000" pt_clust_9="29.07074"></scales>
<clustering>
<clus scale="   29.071">  2  9  1 -1</clus>
<clus scale="   81.735">  5  6 -1 -1</clus>
<clus scale="   95.032">  7  8 -1 -1</clus>
<clus scale="  104.813">  2  5  1 -1</clus>
<clus scale="  115.483">  1  5  2 -1</clus>
</clustering>
</event>
<event>
 9    2  0.3402837E-005  0.1546139E+03  0.7546771E-02  0.1197005E+00
          4   -1    0    0  502    0  0.00000000000E+00  0.00000000000E+00  0.57596403082E+03  0.57596403082E+03  0.00000000000E+00 0. -1.
         -3   -1    0    0    0  501 -0.00000000000E+00 -0.00000000000E+00 -0.97799712968E+02  0.97799712968E+02  0.00000000000E+00 0.  1.
         23    2    1    2    0    0  0.86471691910E+02 -0.10750225325E+03  0.16490023556E+02  0.16650236129E+03  0.91744359409E+02 0.  0.
         24    2    1    2    0    0 -0.63503674902E+02  0.10484249995E+03  0.46155985599E+03  0.48413959215E+03  0.79554870989E+02 0.  0.
        -13    1    4    4    0    0 -0.24907063864E+02  0.43724286176E+00  0.32921651830E+02  0.41284236349E+02  0.00000000000E+00 0.  1.
         14    1    4    4    0    0 -0.38596611037E+02  0.10440525709E+03  0.42863820416E+03  0.44285535580E+03  0.00000000000E+00 0. -1.
        -13    1    3    3    0    0  0.53982768193E+02 -0.14123779476E+02  0.35066242624E+02  0.65903427682E+02  0.00000000000E+00 0. -1.
         13    1    3    3    0    0  0.32488923717E+02 -0.93378473772E+02 -0.18576219068E+02  0.10059893361E+03  0.00000000000E+00 0.  1.
         21    1    1    2  502  501 -0.22968017008E+02  0.26597532986E+01  0.11443830278E+00  0.23121790351E+02  0.00000000000E+00 0. -1.
<scales pt_clust_5="13000.00000" pt_clust_6="13000.00000" pt_clust_7="13000.00000" pt_clust_8="13000.00000" pt_clust_9="23.12151"></scales>
<clustering>
<clus scale="   23.122">  2  9  1 -1</clus>
<clus scale="   79.555">  5  6 -1 -1</clus>
<clus scale="   91.744">  7  8 -1 -1</clus>
<clus scale="  147.707">  1  5  2 -1</clus>
<clus scale="  147.707">  1  5  2 -1</clus>
</clustering>
</event>
<event>
 9    2  0.3402837E-005  0.1337052E+03  0.7546771E-02  0.1224159E+00
         -1   -1    0    0    0  501 -0.00000000000E+00  0.00000000000E+00  0.25887870375E+03  0.25887870375E+03  0.00000000000E+00 0.  1.
          2   -1    0    0  502    0  0.00000000000E+00 -0.00000000000E+00 -0.28155376169E+03  0.28155376169E+03  0.00000000000E+00 0. -1.
         24    2    1    2    0    0  0.36607996571E+02 -0.35760048399E+02  0.19857661798E+03  0.21976339117E+03  0.79021189675E+02 0.  0.
         23    2    1    2    0    0 -0.62652153149E+02  0.84556714913E+02 -0.22681649315E+03  0.26507788840E+03  0.88008153151E+02 0.  0.
        -13    1    3    3    0    0 -0.15323194344E+00 -0.52057952649E+02  0.13317858738E+03  0.14299157336E+03  0.00000000000E+00 0.  1.
         14    1    3    3    0    0  0.36761228515E+02  0.16297904250E+02  0.65398030598E+02  0.76771817818E+02  0.00000000000E+00 0. -1.
        -13    1    4    4    0    0 -0.78643031173E+02  0.58812964702E+02 -0.12566948954E+03  0.15948828098E+03  0.00000000000E+00 0.  1.
         13    1    4    4    0    0  0.15990878024E+02  0.25743750211E+02 -0.10114700361E+03  0.10558960742E+03  0.00000000000E+00 0. -1.
         21    1    1    2  502  501  0.26044156577E+02 -0.48796666514E+02  0.55648172337E+01  0.55591185862E+02  0.00000000000E+00 0.  1.
<scales pt_clust_5="13000.00000" pt_clust_6="13000.00000" pt_clust_7="13000.00000" pt_clust_8="13000.00000" pt_clust_9="55.31196"></scales>
<clustering>
<clus scale="   55.312">  1  9  2 -1</clus>
<clus scale="   79.021">  5  6 -1 -1</clus>
<clus scale="   88.008">  7  8 -1 -1</clus>
<clus scale="  127.969">  1  5  2 -1</clus>
<clus scale="  133.705">  2  5  1 -1</clus>
</clustering>
</event>
<event>
 9    2  0.3402837E-005  0.3442287E+03  0.7546771E-02  0.1103333E+00
         -1   -1    0    0    0  501 -0.00000000000E+00  0.00000000000E+00  0.64403300349E+03  0.64403300349E+03  0.00000000000E+00 0.  1.
          2   -1    0    0  502    0  0.00000000000E+00 -0.00000000000E+00 -0.96401715450E+03  0.96401715450E+03  0.00000000000E+00 0. -1.
         24    2    1    2    0    0  0.50171197571E+02 -0.79191421480E+02  0.99296408758E+02  0.15851410833E+03  0.80489225640E+02 0.  0.
         23    2    1    2    0    0  0.36326848374E+02 -0.32490944048E+03 -0.81173511550E+03  0.87962377843E+03  0.89097190778E+02 0.  0.
        -13    1    3    3    0    0  0.56167920153E+02 -0.85569928774E+02  0.60839948042E+02  0.11907370508E+03  0.00000000000E+00 0.  1.
         14    1    3    3    0    0 -0.59967225820E+01  0.63785072942E+01  0.38456460715E+02  0.39440403241E+02  0.00000000000E+00 0. -1.
        -13    1    4    4    0    0  0.26688955763E+02 -0.18679222980E+03 -0.35058040826E+03  0.39813347025E+03  0.00000000000E+00 0.  1.
         13    1    4    4    0    0  0.96378926110E+01 -0.13811721068E+03 -0.46115470724E+03  0.48149030818E+03  0.00000000000E+00 0. -1.
         21    1    1    2  502  501 -0.86498045945E+02  0.40410086196E+03  0.39245455574E+03  0.56991227124E+03  0.00000000000E+00 0.  1.
<scales pt_clust_5="13000.00000" pt_clust_6="13000.00000" pt_clust_7="13000.00000" pt_clust_8="13000.00000" pt_clust_9="332.49827"></scales>
<clustering>
<clus scale="   80.489">  5  6 -1 -1</clus>
<clus scale="   89.097">  7  8 -1 -1</clus>
<clus scale="  123.559">  1  5  2 -1</clus>
<clus scale="  332.498">  1  9  2 -1</clus>
<clus scale="  344.229">  2  5  1 -1</clus>
</clustering>
</event>
<event>
 9    2  0.3402837E-005  0.1979771E+03  0.7546771E-02  0.1152846E+00
         -1   -1    0    0    0  501 -0.00000000000E+00  0.00000000000E+00  0.17454592464E+03  0.17454592464E+03  0.00000000000E+00 0.  1.
          2   -1    0    0  502    0  0.00000000000E+00 -0.00000000000E+00 -0.46894951574E+03  0.46894951574E+03  0.00000000000E+00 0. -1.
         23    2    1    2    0    0  0.11539711226E+03 -0.33297095980E+02  0.30523376961E+02  0.15517207623E+03  0.93389006751E+02 0.  0.
         24    2    1    2    0    0 -0.18497377199E+03  0.47245455237E+02 -0.35540851547E+03  0.41109258637E+03  0.78958674832E+02 0.  0.
        -13    1    4    4    0    0 -0.26192306471E+02  0.78091081009E+01 -0.10373464544E+02  0.29234018783E+02  0.00000000000E+00 0.  1.
         14    1    4    4    0    0 -0.15878146552E+03  0.39436347136E+02 -0.34503505093E+03  0.38185856758E+03  0.00000000000E+00 0. -1.
        -13    1    3    3    0    0  0.11348739818E+03  0.45794769133E+01  0.28967367283E+02  0.11721548328E+03  0.00000000000E+00 0.  1.
         13    1    3    3    0    0  0.19097140823E+01 -0.37876572894E+02  0.15560096773E+01  0.37956592947E+02  0.00000000000E+00 0. -1.
         21    1    1    2  502  501  0.69576659725E+02 -0.13948359257E+02  0.30481547413E+02  0.77230777784E+02  0.00000000000E+00 0.  1.
<scales pt_clust_5="13000.00000" pt_clust_6="13000.00000" pt_clust_7="13000.00000" pt_clust_8="13000.00000" pt_clust_9="70.96103"></scales>
<clustering>
<clus scale="   70.961">  1  9  2 -1</clus>
<clus scale="   78.959">  5  6 -1 -1</clus>
<clus scale="   93.389">  7  8 -1 -1</clus>
<clus scale="  191.593">  2  5  1 -1</clus>
<clus scale="  191.593">  2  5  1 -1</clus>
</clustering>
</event>
<event>
 9    2  0.3402837E-005  0.1044953E+03  0.7546771E-02  0.1277127E+00
         -1   -1    0    0    0  501 -0.00000000000E+00  0.00000000000E+00  0.21639246576E+02  0.21639246576E+02  0.00000000000E+00 0.  1.
          2   -1    0    0  502    0  0.00000000000E+00 -0.00000000000E+00 -0.82067862511E+03  0.82067862511E+03  0.00000000000E+00 0. -1.
         23    2    1    2    0    0  0.22506902157E+02 -0.47637379108E+02 -0.31640054928E+03  0.33412432428E+03  0.93562150250E+02 0.  0.
         24    2    1    2    0    0 -0.34518023430E+02  0.28876285680E+02 -0.47610577663E+03  0.48497875820E+03  0.80637159885E+02 0.  0.
        -13    1    4    4    0    0 -0.27314798361E+02  0.56468230053E+02 -0.29051352945E+03  0.29720846221E+03  0.00000000000E+00 0.  1.
         14    1    4    4    0    0 -0.72032250690E+01 -0.27591944373E+02 -0.18559224718E+03  0.18777029599E+03  0.00000000000E+00 0. -1.
        -11    1    3    3    0    0 -0.30733971963E+02 -0.36327600140E+02 -0.20065354454E+03  0.20621861337E+03  0.00000000000E+00 0. -1.
         11    1    3    3    0    0  0.53240874120E+02 -0.11309778969E+02 -0.11574700475E+03  0.12790571092E+03  0.00000000000E+00 0.  1.
         21    1    1    2  502  501  0.12011121273E+02  0.18761093429E+02 -0.65330526228E+01  0.23214789197E+02  0.00000000000E+00 0.  1.
<scales pt_clust_5="13000.00000" pt_clust_6="13000.00000" pt_clust_7="13000.00000" pt_clust_8="13000.00000" pt_clust_9="22.27657"></scales>
<clustering>
<clus scale="   22.277">  1  9  2 -1</clus>
<clus scale="   80.637">  5  6 -1 -1</clus>
<clus scale="   93.101">  2  5  1 -1</clus>
<clus scale="   93.562">  7  8 -1 -1</clus>
<clus scale="   93.101">  2  5  1 -1</clus>
</clustering>
</event>
<event>
 9    2  0.3402837E-005  0.1077102E+03  0.7546771E-02  0.1269017E+00
          2   -1    0    0  502    0  0.00000000000E+00  0.00000000000E+00  0.59770616774E+03  0.59770616774E+03  0.00000000000E+00 0. -1.
         -1   -1    0    0    0  501 -0.00000000000E+00 -0.00000000000E+00 -0.14627810737E+03  0.14627810737E+03  0.00000000000E+00 0.  1.
         23    2    1    2    0    0 -0.20973292327E+02  0.12319532705E+02 -0.77462460516E+02  0.12284215026E+03  0.92185200619E+02 0.  0.
         24    2    1    2    0    0  0.44741647561E+02 -0.35477926517E+02  0.56400439057E+03  0.57282825771E+03  0.82284639765E+02 0.  0.
        -13    1    4    4    0    0  0.30680489181E+02 -0.18197602468E+02  0.72314764110E+02  0.80634175510E+02  0.00000000000E+00 0.  1.
         14    1    4    4    0    0  0.14061158380E+02 -0.17280324049E+02  0.49168962647E+03  0.49219408219E+03  0.00000000000E+00 0. -1.
        -11    1    3    3    0    0  0.88816375568E+01  0.40711900234E+02 -0.69267202914E+02  0.80834941120E+02  0.00000000000E+00 0.  1.
         11    1    3    3    0    0 -0.29854929884E+02 -0.28392367528E+02 -0.81952576023E+01  0.42007209136E+02  0.00000000000E+00 0. -1.
         21    1    1    2  502  501 -0.23768355234E+02  0.23158393812E+02 -0.35113869694E+02  0.48313867153E+02  0.00000000000E+00 0.  1.
<scales pt_clust_5="13000.00000" pt_clust_6="13000.00000" pt_clust_7="13000.00000" pt_clust_8="13000.00000" pt_clust_9="33.18503"></scales>
<clustering>
<clus scale="   33.185">  2  9  1 -1</clus>
<clus scale="   82.285">  5  6 -1 -1</clus>
<clus scale="   92.185">  7  8 -1 -1</clus>
<clus scale="   99.369">  1  5  2 -1</clus>
<clus scale="   99.369">  1  5  2 -1</clus>
</clustering>
</event>
<event>
 9    2  0.3402837E-005  0.1555135E+03  0.7546771E-02  0.1195530E+00
          2   -1    0    0  502    0  0.00000000000E+00  0.00000000000E+00  0.89592779568E+02  0.89592779568E+02  0.00000000000E+00 0. -1.
         -1   -1    0    0    0  501 -0.00000000000E+00 -0.00000000000E+00 -0.77569919160E+03  0.77569919160E+03  0.00000000000E+00 0.  1.
         24    2    1    2    0    0 -0.30189159516E+02  0.12740890348E+03 -0.56489997928E+03  0.58563454464E+03  0.81923252233E+02 0.  0.
         23    2    1    2    0    0 -0.17672742203E+02 -0.12465929452E+03 -0.71839798620E+01  0.15596651437E+03  0.91769703670E+02 0.  0.
        -13    1    3    3    0    0  0.27071226719E+02  0.57020411003E+02 -0.20686676701E+03  0.21628231061E+03  0.00000000000E+00 0.  1.
         14    1    3    3    0    0 -0.57260386235E+02  0.70388492473E+02 -0.35803321227E+03  0.36935223404E+03  0.00000000000E+00 0. -1.
        -13    1    4    4    0    0  0.12478645645E+02 -0.12483549034E+03 -0.27292464309E+01  0.12548731024E+03  0.00000000000E+00 0. -1.
         13    1    4    4    0    0 -0.30151387848E+02  0.17619582649E+00 -0.44547334311E+01  0.30479204125E+02  0.00000000000E+00 0.  1.
         21    1    1    2  502  501  0.47861901719E+02 -0.27496089595E+01 -0.11402245289E+03  0.12369091215E+03  0.00000000000E+00 0.  1.
<scales pt_clust_5="13000.00000" pt_clust_6="13000.00000" pt_clust_7="13000.00000" pt_clust_8="13000.00000" pt_clust_9="47.94082"></scales>
<clustering>
<clus scale="   47.941">  2  9  1 -1</clus>
<clus scale="   81.923">  5  6 -1 -1</clus>
<clus scale="   91.770">  7  8 -1 -1</clus>
<clus scale="  149.914">  2  5  1 -1</clus>
<clus scale="  155.513">  1  5  2 -1</clus>
</clustering>
</event>
<event>
 9    2  0.3402837E-005  0.1076000E+03  0.7546771E-02  0.1270036E+00
         -1   -1    0    0    0  501 -0.00000000000E+00  0.00000000000E+00  0.12429942972E+03  0.12429942972E+03  0.00000000000E+00 0.  1.
          2   -1    0    0  502    0  0.00000000000E+00 -0.00000000000E+00 -0.74034199869E+03  0.74034199869E+03  0.00000000000E+00 0. -1.
         23    2    1    2    0    0  0.19450475055E+02 -0.21171367811E+02 -0.29343683977E+01  0.97502838594E+02  0.93121668913E+02 0.  0.
         24    2    1    2    0    0 -0.25923408127E+02  0.49490468598E+02 -0.68369896169E+03  0.69080428635E+03  0.81516637857E+02 0.  0.
        -13    1    4    4    0    0  0.26996036833E+02  0.27212208125E+02 -0.19399168415E+03  0.19774241779E+03  0.00000000000E+00 0.  1.
         14    1    4    4    0    0 -0.52919444959E+02  0.22278260472E+02 -0.48970727754E+03  0.49306186855E+03  0.00000000000E+00 0. -1.
        -13    1    3    3    0    0  0.37601997222E+02  0.20560260507E+02 -0.21987153762E+02  0.48167099122E+02  0.00000000000E+00 0.  1.
         13    1    3    3    0    0 -0.18151522168E+02 -0.41731628318E+02  0.19052785365E+02  0.49335739472E+02  0.00000000000E+00 0. -1.
         21    1    1    2  502  501  0.64729330721E+01 -0.28319100787E+02  0.70590761110E+02  0.76334303469E+02  0.00000000000E+00 0.  1.
<scales pt_clust_5="13000.00000" pt_clust_6="13000.00000" pt_clust_7="13000.00000" pt_clust_8="13000.00000" pt_clust_9="29.04945"></scales>
<clustering>
<clus scale="   29.049">  1  9  2 -1</clus>
<clus scale="   81.517">  5  6 -1 -1</clus>
<clus scale="   93.122">  7  8 -1 -1</clus>
<clus scale="   97.730">  2  5  1 -1</clus>
<clus scale="   97.730">  2  5  1 -1</clus>
</clustering>
</event>
<event>
 9    2  0.3402837E-005  0.1096823E+03  0.7546771E-02  0.1264992E+00
          4   -1    0    0  502    0  0.00000000000E+00  0.00000000000E+00  0.54235116349E+03  0.54235116349E+03  0.00000000000E+00 0. -1.
         -3   -1    0    0    0  501 -0.00000000000E+00 -0.00000000000E+00 -0.32932501295E+02  0.32932501295E+02  0.00000000000E+00 0.  1.
         23    2    1    2    0    0 -0.46685625966E+02 -0.34500712588E+02  0.10627143583E+03  0.15157204805E+03  0.91162606566E+02 0.  0.
         24    2    1    2    0    0  0.65731718916E+02  0.26704439949E+02  0.36086006907E+03  0.37668248538E+03  0.81461152457E+02 0.  0.
        -13    1    4    4    0    0  0.78140193515E+02  0.81325359718E+01  0.32559573669E+03  0.33493971359E+03  0.00000000000E+00 0.  1.
         14    1    4    4    0    0 -0.12408474599E+02  0.18571903978E+02  0.35264332373E+02  0.41742771793E+02  0.00000000000E+00 0. -1.
        -13    1    3    3    0    0  0.25639543189E+02 -0.14821845431E+02  0.14186916961E+02  0.32838116417E+02  0.00000000000E+00 0.  1.
         13    1    3    3    0    0 -0.72325169155E+02 -0.19678867157E+02  0.92084518870E+02  0.11873393164E+03  0.00000000000E+00 0. -1.
         21    1    1    2  502  501 -0.19046092950E+02  0.77962726386E+01  0.42287157294E+02  0.47029131352E+02  0.00000000000E+00 0. -1.
<scales pt_clust_5="13000.00000" pt_clust_6="13000.00000" pt_clust_7="13000.00000" pt_clust_8="13000.00000" pt_clust_9="20.57998"></scales>
<clustering>
<clus scale="   20.580">  1  9  2 -1</clus>
<clus scale="   81.461">  5  6 -1 -1</clus>
<clus scale="   91.163">  7  8 -1 -1</clus>
<clus scale="  101.762">  1  5  2 -1</clus>
<clus scale="   20.580">  1  5  2 -1</clus>
</clustering>
</event>
<event>
 9    2  0.3402837E-005  0.1637296E+03  0.7546771E-02  0.1188070E+00
         -1   -1    0    0    0  501 -0.00000000000E+00  0.00000000000E+00  0.31209754547E+03  0.31209754547E+03  0.00000000000E+00 0.  1.
          2   -1    0    0  502    0  0.00000000000E+00 -0.00000000000E+00 -0.42367440600E+03  0.42367440600E+03  0.00000000000E+00 0. -1.
         24    2    1    2    0    0 -0.15694959642E+03 -0.67107944273E+02  0.23699532682E+03  0.29920401377E+03  0.64958486161E+02 0.  0.
         23    2    1    2    0    0  0.12100243697E+03  0.58920970092E+02 -0.36260880698E+03  0.39711858396E+03  0.90026398131E+02 0.  0.
        -11    1    3    3    0    0 -0.82025821356E+02 -0.97330794430E-01  0.11124028624E+03  0.13821232263E+03  0.00000000000E+00 0.  1.
         12    1    3    3    0    0 -0.74923775059E+02 -0.67010613479E+02  0.12575504058E+03  0.16099169115E+03  0.00000000000E+00 0. -1.
        -13    1    4    4    0    0  0.22365800487E+02  0.32919666040E+02 -0.31809060208E+02  0.50948501008E+02  0.00000000000E+00 0.  1.
         13    1    4    4    0    0  0.98636636480E+02  0.26001304051E+02 -0.33079974677E+03  0.34617008296E+03  0.00000000000E+00 0. -1.
         21    1    1    2  502  501  0.35947159448E+02  0.81869741815E+01  0.14036619636E+02  0.39449353726E+02  0.00000000000E+00 0.  1.
<scales pt_clust_5="13000.00000" pt_clust_6="13000.00000" pt_clust_7="13000.00000" pt_clust_8="13000.00000" pt_clust_9="36.86767"></scales>
<clustering>
<clus scale="   36.868">  1  9  2 -1</clus>
<clus scale="   64.958">  5  6 -1 -1</clus>
<clus scale="   90.026">  7  8 -1 -1</clus>
<clus scale="  151.401">  1  5  2 -1</clus>
<clus scale="  163.730">  2  5  1 -1</clus>
</clustering>
</event>
<event>
 9    2  0.3402837E-005  0.1042539E+03  0.7546771E-02  0.1276708E+00
          2   -1    0    0  502    0  0.00000000000E+00  0.00000000000E+00  0.10907357335E+03  0.10907357335E+03  0.00000000000E+00 0. -1.
         -1   -1    0    0    0  501 -0.00000000000E+00 -0.00000000000E+00 -0.12708662476E+03  0.12708662476E+03  0.00000000000E+00 0.  1.
         24    2    1    2    0    0 -0.47338464173E+02 -0.90216565866E+01 -0.36783459401E+02  0.10012589036E+03  0.79685949554E+02 0.  0.
         23    2    1    2    0    0  0.52453949490E+02 -0.12687207179E+02  0.31416157134E+02  0.11039531543E+03  0.91037183041E+02 0.  0.
        -11    1    3    3    0    0 -0.42747005155E+02 -0.14023086556E+02 -0.60535726430E+02  0.75422328131E+02  0.00000000000E+00 0.  1.
         12    1    3    3    0    0 -0.45914590183E+01  0.50014299699E+01  0.23752267028E+02  0.24703562226E+02  0.00000000000E+00 0. -1.
        -13    1    4    4    0    0 -0.17044608552E+02 -0.25339869376E+02 -0.49592105892E+01  0.30938995303E+02  0.00000000000E+00 0.  1.
         13    1    4    4    0    0  0.69498558042E+02  0.12652662197E+02  0.36375367723E+02  0.79456320124E+02  0.00000000000E+00 0. -1.
         21    1    1    2  502  501 -0.51154853167E+01  0.21708863766E+02 -0.12645749149E+02  0.25638992327E+02  0.00000000000E+00 0. -1.
<scales pt_clust_5="13000.00000" pt_clust_6="13000.00000" pt_clust_7="13000.00000" pt_clust_8="13000.00000" pt_clust_9="22.30343"></scales>
<clustering>
<clus scale="   22.303">  2  9  1 -1</clus>
<clus scale="   79.686">  5  6 -1 -1</clus>
<clus scale="   91.037">  7  8 -1 -1</clus>
<clus scale="   94.504">  2  5  1 -1</clus>
<clus scale="  104.254">  1  5  2 -1</clus>
</clustering>
</event>
<event>
 9    2  0.3402837E-005  0.1270857E+03  0.7546771E-02  0.1234870E+00
          4   -1    0    0  502    0  0.00000000000E+00  0.00000000000E+00  0.16049769140E+03  0.16049769140E+03  0.00000000000E+00 0. -1.
         -3   -1    0    0    0  501 -0.00000000000E+00 -0.00000000000E+00 -0.16907331070E+03  0.16907331070E+03  0.00000000000E+00 0.  1.
         23    2    1    2    0    0  0.52042968801E+02 -0.55450834922E+02 -0.14634089397E+02  0.12065958121E+03  0.92527359576E+02 0.  0.
         24    2    1    2    0    0 -0.78856051245E+02  0.51205063592E+02  0.67548882568E+02  0.14169506283E+03  0.81697025276E+02 0.  0.
        -13    1    4    4    0    0 -0.94151770579E+02  0.35061477760E+02  0.64139482632E+02  0.11919620950E+03  0.00000000000E+00 0.  1.
         14    1    4    4    0    0  0.15295719334E+02  0.16143585831E+02  0.34093999357E+01  0.22498853335E+02  0.00000000000E+00 0. -1.
        -11    1    3    3    0    0 -0.33012205984E+01 -0.29091409764E+02 -0.43871021374E+02  0.52743480127E+02  0.00000000000E+00 0.  1.
         11    1    3    3    0    0  0.55344189399E+02 -0.26359425158E+02  0.29236931977E+02  0.67916101083E+02  0.00000000000E+00 0. -1.
         21    1    1    2  502  501  0.26813082444E+02  0.42457713297E+01 -0.61490412475E+02  0.67216358059E+02  0.00000000000E+00 0.  1.
<scales pt_clust_5="13000.00000" pt_clust_6="13000.00000" pt_clust_7="13000.00000" pt_clust_8="13000.00000" pt_clust_9="27.14715"></scales>
<clustering>
<clus scale="   27.147">  2  9  1 -1</clus>
<clus scale="   81.697">  5  6 -1 -1</clus>
<clus scale="   92.527">  7  8 -1 -1</clus>
<clus scale="  119.431">  1  5  2 -1</clus>
<clus scale="  119.431">  1  5  2 -1</clus>
</clustering>
</event>
<event>
 9    2  0.3402837E-005  0.1038140E+03  0.7546771E-02  0.1273551E+00
         -1   -1    0    0    0  501 -0.00000000000E+00  0.00000000000E+00  0.91699709571E+02  0.91699709571E+02  0.00000000000E+00 0.  1.
          2   -1    0    0  502    0  0.00000000000E+00 -0.00000000000E+00 -0.25524302094E+03  0.25524302094E+03  0.00000000000E+00 0. -1.
         23    2    1    2    0    0 -0.22580982023E+02 -0.45603128001E+00 -0.51098659781E+02  0.10563669420E+03  0.89654500263E+02 0.  0.
         24    2    1    2    0    0  0.60817324213E+02  0.58320564870E+02 -0.12115670868E+03  0.17140451951E+03  0.87180995861E+02 0.  0.
        -11    1    4    4    0    0  0.23167828929E+02  0.33389234399E+02  0.15331816654E+01  0.40668660134E+02  0.00000000000E+00 0.  1.
         12    1    4    4    0    0  0.37649495285E+02  0.24931330470E+02 -0.12268989034E+03  0.13073585938E+03  0.00000000000E+00 0. -1.
        -11    1    3    3    0    0 -0.11778565127E+02  0.44197873964E+02 -0.32310781937E+02  0.56001547200E+02  0.00000000000E+00 0. -1.
         11    1    3    3    0    0 -0.10802416896E+02 -0.44653905244E+02 -0.18787877844E+02  0.49635147005E+02  0.00000000000E+00 0.  1.
         21    1    1    2  502  501 -0.38236342191E+02 -0.57864533589E+02  0.87120570898E+01  0.69901516796E+02  0.00000000000E+00 0.  1.
<scales pt_clust_5="13000.00000" pt_clust_6="13000.00000" pt_clust_7="13000.00000" pt_clust_8="13000.00000" pt_clust_9="69.35649"></scales>
<clustering>
<clus scale="   69.356">  1  9  2 -1</clus>
<clus scale="   87.181">  5  6 -1 -1</clus>
<clus scale="   89.655">  7  8 -1 -1</clus>
<clus scale="  101.685">  2  5  1 -1</clus>
<clus scale="  101.685">  2  5  1 -1</clus>
</clustering>
</event>
<event>
 9    2  0.3402837E-005  0.1455177E+03  0.7546771E-02  0.1208806E+00
          2   -1    0    0  502    0  0.00000000000E+00  0.00000000000E+00  0.26539121825E+03  0.26539121825E+03  0.00000000000E+00 0. -1.
         -1   -1    0    0    0  501 -0.00000000000E+00 -0.00000000000E+00 -0.20136310575E+03  0.20136310575E+03  0.00000000000E+00 0.  1.
         23    2    1    2    0    0 -0.76637689617E+02 -0.35807759825E+02 -0.10931802720E+03  0.16778346755E+03  0.95106938643E+02 0.  0.
         24    2    1    2    0    0  0.10534000864E+03  0.43814750762E+02  0.20942501575E+03  0.25217747745E+03  0.81965804516E+02 0.  0.
        -13    1    4    4    0    0  0.37874131604E+02  0.60086293442E+02  0.10246608979E+03  0.12467602841E+03  0.00000000000E+00 0.  1.
         14    1    4    4    0    0  0.67465877034E+02 -0.16271542680E+02  0.10695892596E+03  0.12750144904E+03  0.00000000000E+00 0. -1.
        -13    1    3    3    0    0 -0.58416671294E+02  0.21707177352E+02 -0.77901942562E+02  0.99761824806E+02  0.00000000000E+00 0. -1.
         13    1    3    3    0    0 -0.18221018322E+02 -0.57514937177E+02 -0.31416084633E+02  0.68021642739E+02  0.00000000000E+00 0.  1.
         21    1    1    2  502  501 -0.28702319021E+02 -0.80069909362E+01 -0.36078876050E+02  0.46793378998E+02  0.00000000000E+00 0.  1.
<scales pt_clust_5="13000.00000" pt_clust_6="13000.00000" pt_clust_7="13000.00000" pt_clust_8="13000.00000" pt_clust_9="29.79824"></scales>
<clustering>
<clus scale="   29.798">  2  9  1 -1</clus>
<clus scale="   81.966">  5  6 -1 -1</clus>
<clus scale="   95.107">  7  8 -1 -1</clus>
<clus scale="  137.290">  1  5  2 -1</clus>
<clus scale="  137.290">  1  5  2 -1</clus>
</clustering>
</event>
<event>
 9    2  0.3402837E-005  0.1047594E+03  0.7546771E-02  0.1277599E+00
          2   -1    0    0  502    0  0.00000000000E+00  0.00000000000E+00  0.63336824020E+03  0.63336824020E+03  0.00000000000E+00 0. -1.
         -1   -1    0    0    0  501 -0.00000000000E+00 -0.00000000000E+00 -0.11299529273E+03  0.11299529273E+03  0.00000000000E+00 0.  1.
         23    2    1    2    0    0  0.10331605252E+03 -0.28593593759E+02 -0.20167350269E+02  0.14489785889E+03  0.95377498296E+02 0.  0.
         24    2    1    2    0    0 -0.24252948024E+02  0.33361861444E+02  0.50770009084E+03  0.51572076130E+03  0.80667850566E+02 0.  0.
        -11    1    4    4    0    0 -0.22543239889E+02 -0.22806096706E+02  0.13187797863E+03  0.13572073150E+03  0.00000000000E+00 0.  1.
         12    1    4    4    0    0 -0.17097081342E+01  0.56167958151E+02  0.37582211221E+03  0.38000002980E+03  0.00000000000E+00 0. -1.
        -11    1    3    3    0    0  0.80287085156E+02 -0.62403393342E+02 -0.70174751968E+01  0.10192862454E+03  0.00000000000E+00 0.  1.
         11    1    3    3    0    0  0.23028967368E+02  0.33809799583E+02 -0.13149875072E+02  0.42969234346E+02  0.00000000000E+00 0. -1.
         21    1    1    2  502  501 -0.79063104500E+02 -0.47682676854E+01  0.32840206896E+02  0.85744912729E+02  0.00000000000E+00 0. -1.
<scales pt_clust_5="13000.00000" pt_clust_6="13000.00000" pt_clust_7="13000.00000" pt_clust_8="13000.00000" pt_clust_9="79.20676"></scales>
<clustering>
<clus scale="   79.207">  2  9  1 -1</clus>
<clus scale="   80.668">  5  6 -1 -1</clus>
<clus scale="   91.569">  1  5  2 -1</clus>
<clus scale="   95.377">  7  8 -1 -1</clus>
<clus scale="   91.569">  1  5  2 -1</clus>
</clustering>
</event>
<event>
 9    2  0.3402837E-005  0.1349578E+03  0.7546771E-02  0.1222664E+00
          2   -1    0    0  502    0  0.00000000000E+00  0.00000000000E+00  0.10616457079E+04  0.10616457079E+04  0.00000000000E+00 0. -1.
         -1   -1    0    0    0  501 -0.00000000000E+00 -0.00000000000E+00 -0.11625347771E+03  0.11625347771E+03  0.00000000000E+00 0.  1.
         23    2    1    2    0    0 -0.57637568237E+02 -0.12909569092E+02  0.26349706812E+03  0.28478512805E+03  0.90460588122E+02 0.  0.
         24    2    1    2    0    0  0.13088872008E+03 -0.18346194685E+02  0.76354757529E+03  0.77905367621E+03  0.80319927582E+02 0.  0.
        -13    1    4    4    0    0  0.17534062018E+02  0.18748162362E+02  0.57046215031E+02  0.62555635815E+02  0.00000000000E+00 0.  1.
         14    1    4    4    0    0  0.11335465806E+03 -0.37094357047E+02  0.70650136026E+03  0.71649804039E+03  0.00000000000E+00 0. -1.
        -11    1    3    3    0    0  0.90631812099E-01 -0.34407034810E+02  0.16547097353E+03  0.16901034092E+03  0.00000000000E+00 0. -1.
         11    1    3    3    0    0 -0.57728200050E+02  0.21497465718E+02  0.98026094599E+02  0.11577478713E+03  0.00000000000E+00 0.  1.
         21    1    1    2  502  501 -0.73251151845E+02  0.31255763776E+02 -0.81652413213E+02  0.11406038138E+03  0.00000000000E+00 0.  1.
<scales pt_clust_5="13000.00000" pt_clust_6="13000.00000" pt_clust_7="13000.00000" pt_clust_8="13000.00000" pt_clust_9="79.64078"></scales>
<clustering>
<clus scale="   79.641">  2  9  1 -1</clus>
<clus scale="   80.320">  5  6 -1 -1</clus>
<clus scale="   90.461">  7  8 -1 -1</clus>
<clus scale="  128.381">  1  5  2 -1</clus>
<clus scale="  128.381">  1  5  2 -1</clus>
</clustering>
</event>
<event>
 9    2  0.3402837E-005  0.1453174E+03  0.7546771E-02  0.1207642E+00
          2   -1    0    0  502    0  0.00000000000E+00  0.00000000000E+00  0.20369215493E+03  0.20369215493E+03  0.00000000000E+00 0. -1.
         -1   -1    0    0    0  501 -0.00000000000E+00 -0.00000000000E+00 -0.17495657731E+03  0.17495657731E+03  0.00000000000E+00 0.  1.
         23    2    1    2    0    0 -0.13206730984E+03  0.58579586559E+02 -0.14292826346E+02  0.16914643205E+03  0.86792213358E+02 0.  0.
         24    2    1    2    0    0  0.10395643897E+03 -0.19524273584E+02  0.74419720431E+02  0.15204837706E+03  0.79951708641E+02 0.  0.
        -13    1    4    4    0    0 -0.32305627103E+01 -0.23447207770E+02  0.47267116580E+01  0.24136070325E+02  0.00000000000E+00 0.  1.
         14    1    4    4    0    0  0.10718700168E+03  0.39229341866E+01  0.69693008773E+02  0.12791230673E+03  0.00000000000E+00 0. -1.
        -13    1    3    3    0    0 -0.86836910462E+02  0.78832988700E+02 -0.20962874558E+02  0.11914164358E+03  0.00000000000E+00 0.  1.
         13    1    3    3    0    0 -0.45230399382E+02 -0.20253402141E+02  0.66700482117E+01  0.50004788467E+02  0.00000000000E+00 0. -1.
         21    1    1    2  502  501  0.28110870876E+02 -0.39055312976E+02 -0.31391316464E+02  0.57453923124E+02  0.00000000000E+00 0.  1.
<scales pt_clust_5="13000.00000" pt_clust_6="13000.00000" pt_clust_7="13000.00000" pt_clust_8="13000.00000" pt_clust_9="48.12004"></scales>
<clustering>
<clus scale="   48.120">  2  9  1 -1</clus>
<clus scale="   79.952">  5  6 -1 -1</clus>
<clus scale="   86.792">  7  8 -1 -1</clus>
<clus scale="  141.338">  1  5  2 -1</clus>
<clus scale="  141.338">  1  5  2 -1</clus>
</clustering>
</event>
<event>
 9    2  0.3402837E-005  0.1054635E+03  0.7546771E-02  0.1274387E+00
          2   -1    0    0  502    0  0.00000000000E+00  0.00000000000E+00  0.46244065390E+03  0.46244065390E+03  0.00000000000E+00 0. -1.
         -1   -1    0    0    0  501 -0.00000000000E+00 -0.00000000000E+00 -0.95334437103E+02  0.95334437103E+02  0.00000000000E+00 0.  1.
         23    2    1    2    0    0 -0.76359031055E+02  0.34192799757E+02  0.19883963497E+03  0.23462291528E+03  0.92254337355E+02 0.  0.
         24    2    1    2    0    0  0.38490282455E+02  0.77414727603E+01  0.22553444052E+03  0.24270260785E+03  0.80606077641E+02 0.  0.
        -11    1    4    4    0    0  0.23051712614E+02 -0.91691864519E+01  0.11322014864E+02  0.27269826828E+02  0.00000000000E+00 0.  1.
         12    1    4    4    0    0  0.15438569841E+02  0.16910659212E+02  0.21421242565E+03  0.21543278102E+03  0.00000000000E+00 0. -1.
        -13    1    3    3    0    0 -0.47452120343E+02 -0.15549948145E+02  0.35010563695E+02  0.60985606356E+02  0.00000000000E+00 0.  1.
         13    1    3    3    0    0 -0.28906910713E+02  0.49742747902E+02  0.16382907128E+03  0.17363730893E+03  0.00000000000E+00 0. -1.
         21    1    1    2  502  501  0.37868748600E+02 -0.41934272517E+02 -0.57267858691E+02  0.80449567874E+02  0.00000000000E+00 0.  1.
<scales pt_clust_5="13000.00000" pt_clust_6="13000.00000" pt_clust_7="13000.00000" pt_clust_8="13000.00000" pt_clust_9="56.50244"></scales>
<clustering>
<clus scale="   56.502">  2  9  1 -1</clus>
<clus scale="   80.606">  5  6 -1 -1</clus>
<clus scale="   92.254">  7  8 -1 -1</clus>
<clus scale="   95.441">  1  5  2 -1</clus>
<clus scale="   95.441">  1  5  2 -1</clus>
</clustering>
</event>
<event>
 9    2  0.3402837E-005  0.9511182E+02  0.7546771E-02  0.1294359E+00
          2   -1    0    0  502    0  0.00000000000E+00  0.00000000000E+00  0.12763701437E+03  0.12763701437E+03  0.00000000000E+00 0. -1.
         -1   -1    0    0    0  501 -0.00000000000E+00 -0.00000000000E+00 -0.16338857062E+03  0.16338857062E+03  0.00000000000E+00 0.  1.
         23    2    1    2    0    0  0.14900468038E+02  0.50478276902E+02 -0.54744385857E+02  0.11633056137E+03  0.88123613966E+02 0.  0.
         24    2    1    2    0    0  0.25822709260E+02 -0.26244702841E+02  0.63372312279E+02  0.10977059244E+03  0.81718640843E+02 0.  0.
        -11    1    4    4    0    0  0.30424775902E+02  0.66224648734E+01 -0.70451685979E+01  0.31924260841E+02  0.00000000000E+00 0.  1.
         12    1    4    4    0    0 -0.46020666422E+01 -0.32867167715E+02  0.70417480877E+02  0.77846331603E+02  0.00000000000E+00 0. -1.
        -11    1    3    3    0    0  0.41101871020E+02  0.31998345563E+02 -0.64415579116E+02  0.82840960599E+02  0.00000000000E+00 0.  1.
         11    1    3    3    0    0 -0.26201402983E+02  0.18479931339E+02  0.96711932589E+01  0.33489600768E+02  0.00000000000E+00 0. -1.
         21    1    1    2  502  501 -0.40723177297E+02 -0.24233574060E+02 -0.44379482671E+02  0.64924431172E+02  0.00000000000E+00 0. -1.
<scales pt_clust_5="13000.00000" pt_clust_6="13000.00000" pt_clust_7="13000.00000" pt_clust_8="13000.00000" pt_clust_9="47.38822"></scales>
<clustering>
<clus scale="   47.388">  2  9  1 -1</clus>
<clus scale="   81.719">  5  6 -1 -1</clus>
<clus scale="   88.124">  7  8 -1 -1</clus>
<clus scale="   89.210">  1  5  2 -1</clus>
<clus scale="   89.210">  1  5  2 -1</clus>
</clustering>
</event>
<event>
 9    2  0.3402837E-005  0.1359898E+03  0.7546771E-02  0.1221498E+00
          2   -1    0    0  502    0  0.00000000000E+00  0.00000000000E+00  0.20555855113E+03  0.20555855113E+03  0.00000000000E+00 0. -1.
         -1   -1    0    0    0  501 -0.00000000000E+00 -0.00000000000E+00 -0.30791930045E+03  0.30791930045E+03  0.00000000000E+00 0.  1.
         23    2    1    2    0    0  0.31763383300E+00  0.68047205146E+02 -0.15665253136E+03  0.19358922333E+03  0.91138624009E+02 0.  0.
         24    2    1    2    0    0 -0.16906754080E+02 -0.10414260388E+03  0.15965509976E+03  0.20728531818E+03  0.79661358129E+02 0.  0.
        -13    1    4    4    0    0  0.44786091000E+01 -0.67155736487E+02  0.35727431848E+02  0.76199739298E+02  0.00000000000E+00 0.  1.
         14    1    4    4    0    0 -0.21385363180E+02 -0.36986867392E+02  0.12392766791E+03  0.13108557889E+03  0.00000000000E+00 0. -1.
        -11    1    3    3    0    0  0.14011661905E+00 -0.22846048833E+02 -0.31517341717E+02  0.38926911114E+02  0.00000000000E+00 0. -1.
         11    1    3    3    0    0  0.17751721395E+00  0.90893253979E+02 -0.12513518965E+03  0.15466231221E+03  0.00000000000E+00 0.  1.
         21    1    1    2  502  501  0.16589120247E+02  0.36095398733E+02 -0.10536331771E+03  0.11260331008E+03  0.00000000000E+00 0. -1.
<scales pt_clust_5="13000.00000" pt_clust_6="13000.00000" pt_clust_7="13000.00000" pt_clust_8="13000.00000" pt_clust_9="39.72501"></scales>
<clustering>
<clus scale="   39.725">  2  9  1 -1</clus>
<clus scale="   79.661">  5  6 -1 -1</clus>
<clus scale="   91.139">  7  8 -1 -1</clus>
<clus scale="  128.580">  1  5  2 -1</clus>
<clus scale="  128.580">  1  5  2 -1</clus>
</clustering>
</event>
<event>
 9    2  0.3402837E-005  0.1106132E+03  0.7546771E-02  0.1264393E+00
          2   -1    0    0  502    0  0.00000000000E+00  0.00000000000E+00  0.15964662898E+03  0.15964662898E+03  0.00000000000E+00 0. -1.
         -1   -1    0    0    0  501 -0.00000000000E+00 -0.00000000000E+00 -0.23461177730E+03  0.23461177730E+03  0.00000000000E+00 0.  1.
         23    2    1    2    0    0 -0.31528109279E+02  0.32243167444E+02 -0.16355890610E+03  0.19268666906E+03  0.91339986583E+02 0.  0.
         24    2    1    2    0    0  0.20211118028E+02 -0.61415464887E+02  0.11991249707E+03  0.15730029427E+03  0.78638584714E+02 0.  0.
        -11    1    4    4    0    0 -0.30182355273E+01 -0.46687933196E+02  0.15439128943E+02  0.49267022990E+02  0.00000000000E+00 0.  1.
         12    1    4    4    0    0  0.23229353555E+02 -0.14727531691E+02  0.10447336813E+03  0.10803327128E+03  0.00000000000E+00 0. -1.
        -13    1    3    3    0    0  0.22328074415E+02  0.21372449077E+02 -0.15124840169E+02  0.34410540199E+02  0.00000000000E+00 0. -1.
         13    1    3    3    0    0 -0.53856183694E+02  0.10870718367E+02 -0.14843406593E+03  0.15827612886E+03  0.00000000000E+00 0.  1.
         21    1    1    2  502  501  0.11316991250E+02  0.29172297442E+02 -0.31318739297E+02  0.44271442942E+02  0.00000000000E+00 0.  1.
<scales pt_clust_5="13000.00000" pt_clust_6="13000.00000" pt_clust_7="13000.00000" pt_clust_8="13000.00000" pt_clust_9="31.29053"></scales>
<clustering>
<clus scale="   31.291">  2  9  1 -1</clus>
<clus scale="   78.639">  5  6 -1 -1</clus>
<clus scale="   91.340">  7  8 -1 -1</clus>
<clus scale="  100.381">  1  5  2 -1</clus>
<clus scale="  100.381">  1  5  2 -1</clus>
</clustering>
</event>
<event>
 9    2  0.3402837E-005  0.1135091E+03  0.7546771E-02  0.1257550E+00
         -1   -1    0    0    0  501 -0.00000000000E+00  0.00000000000E+00  0.17049221576E+02  0.17049221576E+02  0.00000000000E+00 0.  1.
          2   -1    0    0  502    0  0.00000000000E+00 -0.00000000000E+00 -0.12756145107E+04  0.12756145107E+04  0.00000000000E+00 0. -1.
         23    2    1    2    0    0  0.65314404239E+02  0.10449594178E+02 -0.27635290146E+03  0.29845153296E+03  0.91253635335E+02 0.  0.
         24    2    1    2    0    0 -0.58016694812E+02 -0.37655788910E+02 -0.91591169156E+03  0.92217598691E+03  0.82039190477E+02 0.  0.
        -13    1    4    4    0    0 -0.24317257302E+02  0.57430327326E+01 -0.67321267352E+02  0.71808526413E+02  0.00000000000E+00 0.  1.
         14    1    4    4    0    0 -0.33699437511E+02 -0.43398821642E+02 -0.84859042421E+03  0.85036746050E+03  0.00000000000E+00 0. -1.
        -13    1    3    3    0    0  0.20941927647E+02  0.44174925449E+02 -0.18577569226E+03  0.19210048466E+03  0.00000000000E+00 0.  1.
         13    1    3    3    0    0  0.44372476592E+02 -0.33725331272E+02 -0.90577209205E+02  0.10635104831E+03  0.00000000000E+00 0. -1.
         21    1    1    2  502  501 -0.72977094262E+01  0.27206194732E+02 -0.66300696137E+02  0.72036212442E+02  0.00000000000E+00 0. -1.
<scales pt_clust_5="13000.00000" pt_clust_6="13000.00000" pt_clust_7="13000.00000" pt_clust_8="13000.00000" pt_clust_9="28.16795"></scales>
<clustering>
<clus scale="   28.168">  1  9  2 -1</clus>
<clus scale="   82.039">  5  6 -1 -1</clus>
<clus scale="   91.254">  7  8 -1 -1</clus>
<clus scale="  106.243">  2  5  1 -1</clus>
<clus scale="  106.243">  2  5  1 -1</clus>
</clustering>
</event>
<event>
 9    2  0.3402837E-005  0.1515651E+03  0.7546771E-02  0.1220943E+00
         -1   -1    0    0    0  501 -0.00000000000E+00  0.00000000000E+00  0.35037333133E+02  0.35037333133E+02  0.00000000000E+00 0.  1.
          2   -1    0    0  502    0  0.00000000000E+00 -0.00000000000E+00 -0.17872922055E+04  0.17872922055E+04  0.00000000000E+00 0. -1.
         23    2    1    2    0    0  0.11060183368E+03  0.36399079331E+02 -0.23119483281E+03  0.27432903753E+03  0.90816912112E+02 0.  0.
         24    2    1    2    0    0  0.23299368850E+02 -0.43049769163E+02 -0.11433247533E+04  0.11471792065E+04  0.80202849920E+02 0.  0.
        -11    1    4    4    0    0  0.17536165086E+02 -0.15346820242E+02 -0.76298574240E+02  0.79777906770E+02  0.00000000000E+00 0.  1.
         12    1    4    4    0    0  0.57632037633E+01 -0.27702948922E+02 -0.10670261790E+04  0.10674012997E+04  0.00000000000E+00 0. -1.
        -13    1    3    3    0    0  0.52141274230E+02  0.14214570121E+02 -0.19441219299E+03  0.20178420965E+03  0.00000000000E+00 0. -1.
         13    1    3    3    0    0  0.58460559450E+02  0.22184509211E+02 -0.36782639824E+02  0.72544827883E+02  0.00000000000E+00 0.  1.
         21    1    1    2  502  501 -0.13390120253E+03  0.66506898318E+01 -0.37773528630E+03  0.40082129463E+03  0.00000000000E+00 0.  1.
<scales pt_clust_5="13000.00000" pt_clust_6="13000.00000" pt_clust_7="13000.00000" pt_clust_8="13000.00000" pt_clust_9="121.34357"></scales>
<clustering>
<clus scale="   80.203">  5  6 -1 -1</clus>
<clus scale="   90.817">  7  8 -1 -1</clus>
<clus scale="   93.961">  2  5  1 -1</clus>
<clus scale="  121.344">  2  9  1 -1</clus>
<clus scale="   93.961">  2  5  1 -1</clus>
</clustering>
</event>
<event>
 9    2  0.3402837E-005  0.1847025E+03  0.7546771E-02  0.1202078E+00
         -1   -1    0    0    0  501 -0.00000000000E+00  0.00000000000E+00  0.32328386920E+02  0.32328386920E+02  0.00000000000E+00 0.  1.
          2   -1    0    0  502    0  0.00000000000E+00 -0.00000000000E+00 -0.14398405243E+04  0.14398405243E+04  0.00000000000E+00 0. -1.
         23    2    1    2    0    0 -0.14463137135E+03  0.72936890933E+02 -0.47714911057E+03  0.51218725166E+03  0.91795879036E+02 0.  0.
         24    2    1    2    0    0  0.10084280805E+02  0.10527771634E+02 -0.27243613255E+03  0.28327118405E+03  0.76214110899E+02 0.  0.
        -13    1    4    4    0    0  0.74390976213E+01  0.39187558289E+02 -0.88194413476E+02  0.96794935128E+02  0.00000000000E+00 0.  1.
         14    1    4    4    0    0  0.26451831835E+01 -0.28659786655E+02 -0.18424171907E+03  0.18647624892E+03  0.00000000000E+00 0. -1.
        -11    1    3    3    0    0 -0.15456209167E+02  0.20455987278E+02 -0.15540321825E+02  0.29980717466E+02  0.00000000000E+00 0.  1.
         11    1    3    3    0    0 -0.12917516219E+03  0.52480903655E+02 -0.46160878875E+03  0.48220653420E+03  0.00000000000E+00 0. -1.
         21    1    1    2  502  501  0.13454709055E+03 -0.83464662567E+02 -0.65792689426E+03  0.67671047551E+03  0.00000000000E+00 0. -1.
<scales pt_clust_5="13000.00000" pt_clust_6="13000.00000" pt_clust_7="13000.00000" pt_clust_8="13000.00000" pt_clust_9="160.27637"></scales>
<clustering>
<clus scale="   76.214">  5  6 -1 -1</clus>
<clus scale="   77.596">  2  5  1 -1</clus>
<clus scale="   91.796">  7  8 -1 -1</clus>
<clus scale="  160.276">  2  9  1 -1</clus>
<clus scale="   77.596">  2  5  1 -1</clus>
</clustering>
</event>
<event>
 9    2  0.3402837E-005  0.1077187E+03  0.7546771E-02  0.1269727E+00
         -1   -1    0    0    0  501 -0.00000000000E+00  0.00000000000E+00  0.86220930645E+02  0.86220930645E+02  0.00000000000E+00 0.  1.
          2   -1    0    0  502    0  0.00000000000E+00 -0.00000000000E+00 -0.39558005196E+03  0.39558005196E+03  0.00000000000E+00 0. -1.
         23    2    1    2    0    0 -0.13256518324E+02 -0.20548296120E+02 -0.22830277853E+01  0.94528160323E+02  0.91281943049E+02 0.  0.
         24    2    1    2    0    0 -0.27900394986E+02  0.58652453917E+02 -0.31436014777E+03  0.33071421728E+03  0.79567886830E+02 0.  0.
        -13    1    4    4    0    0 -0.41966865209E+02  0.42831027968E+02 -0.11018969181E+03  0.12544912480E+03  0.00000000000E+00 0.  1.
         14    1    4    4    0    0  0.14066470223E+02  0.15821425948E+02 -0.20417045595E+03  0.20526509247E+03  0.00000000000E+00 0. -1.
        -11    1    3    3    0    0 -0.16770651899E+02  0.27730610570E+02  0.23169317564E+02  0.39837906623E+02  0.00000000000E+00 0. -1.
         11    1    3    3    0    0  0.35141335744E+01 -0.48278906691E+02 -0.25452345350E+02  0.54690253700E+02  0.00000000000E+00 0.  1.
         21    1    1    2  502  501  0.41156913310E+02 -0.38104157797E+02  0.72840542311E+01  0.56558605010E+02  0.00000000000E+00 0. -1.
<scales pt_clust_5="13000.00000" pt_clust_6="13000.00000" pt_clust_7="13000.00000" pt_clust_8="13000.00000" pt_clust_9="56.08760"></scales>
<clustering>
<clus scale="   56.088">  1  9  2 -1</clus>
<clus scale="   79.568">  5  6 -1 -1</clus>
<clus scale="   91.282">  7  8 -1 -1</clus>
<clus scale="   97.990">  2  5  1 -1</clus>
<clus scale="   97.990">  2  5  1 -1</clus>
</clustering>
</event>
<event>
 9    2  0.3402837E-005  0.9881848E+02  0.7546771E-02  0.1285072E+00
         -1   -1    0    0    0  501 -0.00000000000E+00  0.00000000000E+00  0.91956046061E+02  0.91956046061E+02  0.00000000000E+00 0.  1.
          2   -1    0    0  502    0  0.00000000000E+00 -0.00000000000E+00 -0.79850881021E+03  0.79850881021E+03  0.00000000000E+00 0. -1.
         23    2    1    2    0    0  0.22750995178E+02  0.42334529054E+02 -0.29571476161E+02  0.10733566702E+03  0.91305274116E+02 0.  0.
         24    2    1    2    0    0 -0.35391213818E+02 -0.13390129643E+02 -0.72197486313E+03  0.72815669441E+03  0.86790754289E+02 0.  0.
        -13    1    4    4    0    0  0.29823456505E+00 -0.39093989866E+02 -0.17023093462E+03  0.17466253201E+03  0.00000000000E+00 0.  1.
         14    1    4    4    0    0 -0.35689448383E+02  0.25703860223E+02 -0.55174392851E+03  0.55349416240E+03  0.00000000000E+00 0. -1.
        -11    1    3    3    0    0 -0.51653867177E+01 -0.27468026006E+02 -0.64732505360E+01  0.28689312385E+02  0.00000000000E+00 0.  1.
         11    1    3    3    0    0  0.27916381896E+02  0.69802555060E+02 -0.23098225625E+02  0.78646354639E+02  0.00000000000E+00 0. -1.
         21    1    1    2  502  501  0.12640218640E+02 -0.28944399411E+02  0.44993575144E+02  0.54972494838E+02  0.00000000000E+00 0.  1.
<scales pt_clust_5="13000.00000" pt_clust_6="13000.00000" pt_clust_7="13000.00000" pt_clust_8="13000.00000" pt_clust_9="31.58407"></scales>
<clustering>
<clus scale="   31.584">  1  9  2 -1</clus>
<clus scale="   86.791">  5  6 -1 -1</clus>
<clus scale="   91.305">  7  8 -1 -1</clus>
<clus scale="   94.663">  2  5  1 -1</clus>
<clus scale="   94.663">  2  5  1 -1</clus>
</clustering>
</event>
<event>
 9    2  0.3402837E-005  0.1190711E+03  0.7546771E-02  0.1254786E+00
         -1   -1    0    0    0  501 -0.00000000000E+00  0.00000000000E+00  0.11545208723E+03  0.11545208723E+03  0.00000000000E+00 0.  1.
          2   -1    0    0  502    0  0.00000000000E+00 -0.00000000000E+00 -0.14851135891E+03  0.14851135891E+03  0.00000000000E+00 0. -1.
         24    2    1    2    0    0 -0.55128141065E+02  0.27084553685E+02  0.16138832843E+02  0.98946291442E+02  0.75876357839E+02 0.  0.
         23    2    1    2    0    0  0.41652348553E+02 -0.45970240128E+02 -0.65682060264E+02  0.13655688533E+03  0.10239857798E+03 0.  0.
        -11    1    3    3    0    0 -0.20416932351E+02 -0.21708671552E+02  0.24377795555E+02  0.38501876101E+02  0.00000000000E+00 0.  1.
         12    1    3    3    0    0 -0.34711208714E+02  0.48793225236E+02 -0.82389627122E+01  0.60444415341E+02  0.00000000000E+00 0. -1.
        -11    1    4    4    0    0  0.63349538232E+02 -0.59919167413E+02 -0.68114369675E+02  0.11064826241E+03  0.00000000000E+00 0. -1.
         11    1    4    4    0    0 -0.21697189679E+02  0.13948927286E+02  0.24323094111E+01  0.25908622917E+02  0.00000000000E+00 0.  1.
         21    1    1    2  502  501  0.13475792512E+02  0.18885686443E+02  0.16483955737E+02  0.28460269376E+02  0.00000000000E+00 0.  1.
<scales pt_clust_5="13000.00000" pt_clust_6="13000.00000" pt_clust_7="13000.00000" pt_clust_8="13000.00000" pt_clust_9="23.20056"></scales>
<clustering>
<clus scale="   23.201">  1  9  2 -1</clus>
<clus scale="   75.876">  5  6 -1 -1</clus>
<clus scale="   97.209">  1  5  2 -1</clus>
<clus scale="  102.399">  7  8 -1 -1</clus>
<clus scale="  119.071">  2  5  1 -1</clus>
</clustering>
</event>
<event>
 9    2  0.3402837E-005  0.1061355E+03  0.7546771E-02  0.1273107E+00
          2   -1    0    0  502    0  0.00000000000E+00  0.00000000000E+00  0.26454441317E+03  0.26454441317E+03  0.00000000000E+00 0. -1.
         -1   -1    0    0    0  501 -0.00000000000E+00 -0.00000000000E+00 -0.69091626893E+02  0.69091626893E+02  0.00000000000E+00 0.  1.
         24    2    1    2    0    0 -0.38214780924E+02  0.44150873892E+02  0.12657417763E+02  0.99297189984E+02  0.79309851644E+02 0.  0.
         23    2    1    2    0    0 -0.66897431167E+00 -0.51353286367E+02  0.14991412705E+03  0.18290931375E+03  0.91345301034E+02 0.  0.
        -13    1    3    3    0    0 -0.51615243997E+02  0.22199358944E+02 -0.18261666725E+02  0.59079890166E+02  0.00000000000E+00 0.  1.
         14    1    3    3    0    0  0.13400463073E+02  0.21951514948E+02  0.30919084488E+02  0.40217299818E+02  0.00000000000E+00 0. -1.
        -11    1    4    4    0    0  0.25328387852E+02 -0.36404708514E+01  0.23937239739E+01  0.25700392481E+02  0.00000000000E+00 0. -1.
         11    1    4    4    0    0 -0.25997362164E+02 -0.47712815516E+02  0.14752040307E+03  0.15720892127E+03  0.00000000000E+00 0.  1.
         21    1    1    2  502  501  0.38883755236E+02  0.72024124754E+01  0.32881241473E+02  0.51429536333E+02  0.00000000000E+00 0.  1.
<scales pt_clust_5="13000.00000" pt_clust_6="13000.00000" pt_clust_7="13000.00000" pt_clust_8="13000.00000" pt_clust_9="39.54518"></scales>
<clustering>
<clus scale="   39.545">  1  9  2 -1</clus>
<clus scale="   79.310">  5  6 -1 -1</clus>
<clus scale="   91.345">  7  8 -1 -1</clus>
<clus scale="   95.973">  2  5  1 -1</clus>
<clus scale="   39.545">  1  5  2 -1</clus>
</clustering>
</event>
<event>
 9    2  0.3402837E-005  0.2101134E+03  0.7546771E-02  0.1166537E+00
         -1   -1    0    0    0  501 -0.00000000000E+00  0.00000000000E+00  0.42855743645E+03  0.42855743645E+03  0.00000000000E+00 0.  1.
          2   -1    0    0  502    0  0.00000000000E+00 -0.00000000000E+00 -0.55670872104E+03  0.55670872104E+03  0.00000000000E+00 0. -1.
         23    2    1    2    0    0  0.57920057417E+02 -0.43111728406E+02  0.32830322922E+03  0.34836456123E+03  0.91441254519E+02 0.  0.
         24    2    1    2    0    0 -0.21269990864E+03  0.32266950004E+02 -0.41856834292E+03  0.47718380292E+03  0.78882931461E+02 0.  0.
        -13    1    4    4    0    0 -0.19332310034E+02 -0.19826175685E+02 -0.36531014257E+02  0.45840271118E+02  0.00000000000E+00 0.  1.
         14    1    4    4    0    0 -0.19336759861E+03  0.52093125690E+02 -0.38203732866E+03  0.43134353180E+03  0.00000000000E+00 0. -1.
        -11    1    3    3    0    0  0.23032636675E+02  0.40081619483E+01  0.11265899918E+02  0.25951651496E+02  0.00000000000E+00 0. -1.
         11    1    3    3    0    0  0.34887420742E+02 -0.47119890354E+02  0.31703732930E+03  0.32241290974E+03  0.00000000000E+00 0.  1.
         21    1    1    2  502  501  0.15477985123E+03  0.10844778402E+02 -0.37886170902E+02  0.15971779334E+03  0.00000000000E+00 0. -1.
<scales pt_clust_5="13000.00000" pt_clust_6="13000.00000" pt_clust_7="13000.00000" pt_clust_8="13000.00000" pt_clust_9="194.74369"></scales>
<clustering>
<clus scale="   78.883">  5  6 -1 -1</clus>
<clus scale="   91.441">  7  8 -1 -1</clus>
<clus scale="  116.511">  1  7  2 -1</clus>
<clus scale="  194.744">  1  9  2 -1</clus>
<clus scale="  210.113">  2  5  1 -1</clus>
</clustering>
</event>
<event>
 9    2  0.3402837E-005  0.1073713E+03  0.7546771E-02  0.1276626E+00
          2   -1    0    0  502    0  0.00000000000E+00  0.00000000000E+00  0.10469371433E+03  0.10469371433E+03  0.00000000000E+00 0. -1.
         -1   -1    0    0    0  501 -0.00000000000E+00 -0.00000000000E+00 -0.29206229301E+03  0.29206229301E+03  0.00000000000E+00 0.  1.
         23    2    1    2    0    0 -0.35007473803E+01  0.18942014615E+01 -0.17018640804E+03  0.20020480898E+03  0.10536939226E+03 0.  0.
         24    2    1    2    0    0 -0.20695754070E+02 -0.10741168983E+02  0.66008161043E+02  0.10946290523E+03  0.84150836889E+02 0.  0.
        -13    1    4    4    0    0 -0.45529067422E+02  0.18055324888E+02  0.32501514481E+02  0.58781282571E+02  0.00000000000E+00 0.  1.
         14    1    4    4    0    0  0.24833313353E+02 -0.28796493870E+02  0.33506646562E+02  0.50681622657E+02  0.00000000000E+00 0. -1.
        -13    1    3    3    0    0 -0.47477913881E+02  0.27072243521E+02 -0.92988857452E+02  0.10786095812E+03  0.00000000000E+00 0.  1.
         13    1    3    3    0    0  0.43977166500E+02 -0.25178042059E+02 -0.77197550585E+02  0.92343850860E+02  0.00000000000E+00 0. -1.
         21    1    1    2  502  501  0.24196501450E+02  0.88469675212E+01 -0.83190331681E+02  0.87088293139E+02  0.00000000000E+00 0. -1.
<scales pt_clust_5="13000.00000" pt_clust_6="13000.00000" pt_clust_7="13000.00000" pt_clust_8="13000.00000" pt_clust_9="25.76314"></scales>
<clustering>
<clus scale="   25.763">  2  9  1 -1</clus>
<clus scale="   84.151">  5  6 -1 -1</clus>
<clus scale="   86.644">  1  5  2 -1</clus>
<clus scale="  105.369">  7  8 -1 -1</clus>
<clus scale="   86.644">  1  5  2 -1</clus>
</clustering>
</event>
<event>
 9    2  0.3402837E-005  0.1581326E+03  0.7546771E-02  0.1202364E+00
          2   -1    0    0  502    0  0.00000000000E+00  0.00000000000E+00  0.20547463524E+03  0.20547463524E+03  0.00000000000E+00 0. -1.
         -1   -1    0    0    0  501 -0.00000000000E+00 -0.00000000000E+00 -0.14814804286E+03  0.14814804286E+03  0.00000000000E+00 0.  1.
         24    2    1    2    0    0  0.87248582925E+02 -0.70437603224E+02 -0.21764668245E+02  0.13928774721E+03  0.79709501116E+02 0.  0.
         23    2    1    2    0    0 -0.54409733873E+02  0.64245219728E+02  0.92178744183E+02  0.17844596536E+03  0.12750754596E+03 0.  0.
        -13    1    3    3    0    0  0.32184736731E+01 -0.42091520530E+02 -0.27563056101E+02  0.50416036486E+02  0.00000000000E+00 0.  1.
         14    1    3    3    0    0  0.84030109252E+02 -0.28346082694E+02  0.57983878557E+01  0.88871710722E+02  0.00000000000E+00 0. -1.
        -13    1    4    4    0    0 -0.21881725814E+02  0.87246142343E+02  0.10340859094E+03  0.13705486478E+03  0.00000000000E+00 0. -1.
         13    1    4    4    0    0 -0.32528008059E+02 -0.23000922615E+02 -0.11229846759E+02  0.41391100586E+02  0.00000000000E+00 0.  1.
         21    1    1    2  502  501 -0.32838849052E+02  0.61923834961E+01 -0.13087483556E+02  0.35888965522E+02  0.00000000000E+00 0.  1.
<scales pt_clust_5="13000.00000" pt_clust_6="13000.00000" pt_clust_7="13000.00000" pt_clust_8="13000.00000" pt_clust_9="33.41759"></scales>
<clustering>
<clus scale="   33.418">  2  9  1 -1</clus>
<clus scale="   79.710">  5  6 -1 -1</clus>
<clus scale="  122.888">  2  5  1 -1</clus>
<clus scale="  127.508">  7  8 -1 -1</clus>
<clus scale="  158.133">  1  5  2 -1</clus>
</clustering>
</event>
<event>
 9    2  0.3402837E-005  0.9720401E+02  0.7546771E-02  0.1291340E+00
          2   -1    0    0  502    0  0.00000000000E+00  0.00000000000E+00  0.22491685037E+03  0.22491685037E+03  0.00000000000E+00 0. -1.
         -1   -1    0    0    0  501 -0.00000000000E+00 -0.00000000000E+00 -0.22126627880E+03  0.22126627880E+03  0.00000000000E+00 0.  1.
         24    2    1    2    0    0  0.13918391560E+02  0.30814689001E+02 -0.16802391402E+03  0.18893510922E+03  0.79505805648E+02 0.  0.
         23    2    1    2    0    0 -0.37062665989E+02 -0.13929572159E+02  0.19646587578E+03  0.21936164195E+03  0.89179680552E+02 0.  0.
        -11    1    3    3    0    0  0.23713946348E+02  0.14387820065E+02 -0.16752198706E+03  0.16980275842E+03  0.00000000000E+00 0.  1.
         12    1    3    3    0    0 -0.97955547878E+01  0.16426868935E+02 -0.50192696120E+00  0.19132350804E+02  0.00000000000E+00 0. -1.
        -11    1    4    4    0    0  0.14378927448E+02 -0.32352105763E+02  0.38940219242E+02  0.52628442657E+02  0.00000000000E+00 0.  1.
         11    1    4    4    0    0 -0.51441593437E+02  0.18422533603E+02  0.15752565654E+03  0.16673319930E+03  0.00000000000E+00 0. -1.
         21    1    1    2  502  501  0.23144274429E+02 -0.16885116841E+02 -0.24791390188E+02  0.37886377988E+02  0.00000000000E+00 0.  1.
<scales pt_clust_5="13000.00000" pt_clust_6="13000.00000" pt_clust_7="13000.00000" pt_clust_8="13000.00000" pt_clust_9="28.64899"></scales>
<clustering>
<clus scale="   28.649">  2  9  1 -1</clus>
<clus scale="   79.506">  5  6 -1 -1</clus>
<clus scale="   88.413">  2  5  1 -1</clus>
<clus scale="   89.180">  7  8 -1 -1</clus>
<clus scale="   97.204">  1  5  2 -1</clus>
</clustering>
</event>
<event>
 9    2  0.3402837E-005  0.9196050E+02  0.7546771E-02  0.1303466E+00
         -1   -1    0    0    0  501 -0.00000000000E+00  0.00000000000E+00  0.43855187335E+02  0.43855187335E+02  0.00000000000E+00 0.  1.
          2   -1    0    0  502    0  0.00000000000E+00 -0.00000000000E+00 -0.48787296194E+03  0.48787296194E+03  0.00000000000E+00 0. -1.
         23    2    1    2    0    0  0.15977306251E+02 -0.47374198666E+02 -0.94549260114E+02  0.13865047124E+03  0.88231522563E+02 0.  0.
         24    2    1    2    0    0 -0.21794888575E+02  0.84776365727E+01 -0.34348889918E+03  0.35329649396E+03  0.79289982324E+02 0.  0.
        -13    1    4    4    0    0 -0.25880843081E+02  0.26722026932E+01 -0.29933441640E+02  0.39660681212E+02  0.00000000000E+00 0.  1.
         14    1    4    4    0    0  0.40859545055E+01  0.58054338796E+01 -0.31355545754E+03  0.31363581275E+03  0.00000000000E+00 0. -1.
        -11    1    3    3    0    0  0.37773106065E+02 -0.13738232185E+02 -0.89680058208E+02  0.98275426255E+02  0.00000000000E+00 0.  1.
         11    1    3    3    0    0 -0.21795799814E+02 -0.33635966481E+02 -0.48692019057E+01  0.40375044989E+02  0.00000000000E+00 0. -1.
         21    1    1    2  502  501  0.58175823241E+01  0.38896562093E+02 -0.59796153144E+01  0.39781184071E+02  0.00000000000E+00 0.  1.
<scales pt_clust_5="13000.00000" pt_clust_6="13000.00000" pt_clust_7="13000.00000" pt_clust_8="13000.00000" pt_clust_9="39.32921"></scales>
<clustering>
<clus scale="   39.329">  1  9  2 -1</clus>
<clus scale="   79.290">  5  6 -1 -1</clus>
<clus scale="   83.420">  2  5  1 -1</clus>
<clus scale="   88.232">  7  8 -1 -1</clus>
<clus scale="   83.420">  2  5  1 -1</clus>
</clustering>
</event>
<event>
 9    2  0.3402837E-005  0.9714825E+02  0.7546771E-02  0.1290279E+00
         -1   -1    0    0    0  501 -0.00000000000E+00  0.00000000000E+00  0.27864516691E+03  0.27864516691E+03  0.00000000000E+00 0.  1.
          2   -1    0    0  502    0  0.00000000000E+00 -0.00000000000E+00 -0.11779920136E+03  0.11779920136E+03  0.00000000000E+00 0. -1.
         24    2    1    2    0    0  0.49130620591E+02  0.21111826678E+02  0.15940441003E+03  0.18624888848E+03  0.80120880036E+02 0.  0.
         23    2    1    2    0    0 -0.93727180137E+01 -0.41763259614E+02 -0.73974888944E+02  0.12247539887E+03  0.87726401030E+02 0.  0.
        -13    1    3    3    0    0  0.46219237902E+02 -0.12559120469E+02  0.13840936511E+03  0.14646194663E+03  0.00000000000E+00 0.  1.
         14    1    3    3    0    0  0.29113826884E+01  0.33670947147E+02  0.20995044919E+02  0.39786941854E+02  0.00000000000E+00 0. -1.
        -11    1    4    4    0    0  0.28994841808E+02  0.59322737545E+01 -0.45910703607E+01  0.29949468283E+02  0.00000000000E+00 0.  1.
         11    1    4    4    0    0 -0.38367559822E+02 -0.47695533369E+02 -0.69383818583E+02  0.92525930588E+02  0.00000000000E+00 0. -1.
         21    1    1    2  502  501 -0.39757902577E+02  0.20651432937E+02  0.75416444463E+02  0.87720080912E+02  0.00000000000E+00 0. -1.
<scales pt_clust_5="13000.00000" pt_clust_6="13000.00000" pt_clust_7="13000.00000" pt_clust_8="13000.00000" pt_clust_9="44.80148"></scales>
<clustering>
<clus scale="   44.801">  1  9  2 -1</clus>
<clus scale="   80.121">  5  6 -1 -1</clus>
<clus scale="   87.726">  7  8 -1 -1</clus>
<clus scale="   90.339">  1  5  2 -1</clus>
<clus scale="   97.148">  2  5  1 -1</clus>
</clustering>
</event>
<event>
 9    2  0.3402837E-005  0.2162801E+03  0.7546771E-02  0.1170617E+00
         -1   -1    0    0    0  501 -0.00000000000E+00  0.00000000000E+00  0.36604025991E+03  0.36604025991E+03  0.00000000000E+00 0.  1.
          2   -1    0    0  502    0  0.00000000000E+00 -0.00000000000E+00 -0.41085296933E+03  0.41085296933E+03  0.00000000000E+00 0. -1.
         24    2    1    2    0    0 -0.36354915546E+02 -0.21846783633E+03 -0.24294527913E+03  0.33830607617E+03  0.79866871289E+02 0.  0.
         23    2    1    2    0    0 -0.25672743560E+02  0.29524546938E+02 -0.58808452287E+02  0.11367841837E+03  0.89070534457E+02 0.  0.
        -11    1    3    3    0    0 -0.16834407092E+02 -0.22264069995E+02 -0.35055860813E+01  0.28131391872E+02  0.00000000000E+00 0.  1.
         12    1    3    3    0    0 -0.19520508454E+02 -0.19620376633E+03 -0.23943969305E+03  0.31017468430E+03  0.00000000000E+00 0. -1.
        -13    1    4    4    0    0 -0.49880698863E+02  0.11787684670E+02 -0.42747281081E+01  0.51432547374E+02  0.00000000000E+00 0. -1.
         13    1    4    4    0    0  0.24207955303E+02  0.17736862267E+02 -0.54533724179E+02  0.62245870994E+02  0.00000000000E+00 0.  1.
         21    1    1    2  502  501  0.62027659106E+02  0.18894328939E+03  0.25694102199E+03  0.32490873470E+03  0.00000000000E+00 0.  1.
<scales pt_clust_5="13000.00000" pt_clust_6="13000.00000" pt_clust_7="13000.00000" pt_clust_8="13000.00000" pt_clust_9="200.99349"></scales>
<clustering>
<clus scale="   79.867">  5  6 -1 -1</clus>
<clus scale="   89.071">  7  8 -1 -1</clus>
<clus scale="   97.285">  2  7  1 -1</clus>
<clus scale="  200.993">  1  9  2 -1</clus>
<clus scale="   97.285">  2  5  1 -1</clus>
</clustering>
</event>
<event>
 9    2  0.3402837E-005  0.1527768E+03  0.7546771E-02  0.1200352E+00
          2   -1    0    0  502    0  0.00000000000E+00  0.00000000000E+00  0.42897990077E+02  0.42897990077E+02  0.00000000000E+00 0. -1.
         -1   -1    0    0    0  501 -0.00000000000E+00 -0.00000000000E+00 -0.85178049206E+03  0.85178049206E+03  0.00000000000E+00 0.  1.
         24    2    1    2    0    0  0.10396901565E+03  0.42358468418E+02 -0.42916863543E+03  0.44958095597E+03  0.73030967900E+02 0.  0.
         23    2    1    2    0    0 -0.12525084428E+03 -0.22829346811E+02 -0.16221670277E+03  0.22569078271E+03  0.91723048758E+02 0.  0.
        -13    1    3    3    0    0  0.93617152291E+02  0.13991509375E+02 -0.38216693243E+03  0.39371499563E+03  0.00000000000E+00 0.  1.
         14    1    3    3    0    0  0.10351863361E+02  0.28366959043E+02 -0.47001703002E+02  0.55865960347E+02  0.00000000000E+00 0. -1.
        -11    1    4    4    0    0 -0.12400726616E+03 -0.45404253727E+02 -0.15050737695E+03  0.20022941550E+03  0.00000000000E+00 0.  1.
         11    1    4    4    0    0 -0.12435781205E+01  0.22574906916E+02 -0.11709325825E+02  0.25461367208E+02  0.00000000000E+00 0. -1.
         21    1    1    2  502  501  0.21281828629E+02 -0.19529121607E+02 -0.21749716378E+03  0.21940674346E+03  0.00000000000E+00 0.  1.
<scales pt_clust_5="13000.00000" pt_clust_6="13000.00000" pt_clust_7="13000.00000" pt_clust_8="13000.00000" pt_clust_9="28.88430"></scales>
<clustering>
<clus scale="   28.884">  2  9  1 -1</clus>
<clus scale="   73.031">  5  6 -1 -1</clus>
<clus scale="   91.723">  7  8 -1 -1</clus>
<clus scale="  142.342">  2  5  1 -1</clus>
<clus scale="  152.777">  1  5  2 -1</clus>
</clustering>
</event>
<event>
 9    2  0.3402837E-005  0.1582482E+03  0.7546771E-02  0.1193632E+00
          2   -1    0    0  502    0  0.00000000000E+00  0.00000000000E+00  0.27601922545E+03  0.27601922545E+03  0.00000000000E+00 0. -1.
         -1   -1    0    0    0  501 -0.00000000000E+00 -0.00000000000E+00 -0.30043654059E+03  0.30043654059E+03  0.00000000000E+00 0.  1.
         23    2    1    2    0    0 -0.93773321795E+02 -0.39136621613E+02 -0.23367597926E+03  0.27292806923E+03  0.97776053620E+02 0.  0.
         24    2    1    2    0    0  0.11904292484E+03  0.42697224591E+02  0.22724402739E+03  0.27230744659E+03  0.80729341236E+02 0.  0.
        -13    1    4    4    0    0  0.65922198960E+02 -0.17571240571E+02  0.12353476656E+03  0.14112166155E+03  0.00000000000E+00 0.  1.
         14    1    4    4    0    0  0.53120725884E+02  0.60268465162E+02  0.10370926083E+03  0.13118578503E+03  0.00000000000E+00 0. -1.
        -11    1    3    3    0    0 -0.36258328825E+02 -0.44938457053E+02 -0.19501668509E+03  0.20338544392E+03  0.00000000000E+00 0.  1.
         11    1    3    3    0    0 -0.57514992970E+02  0.58018354401E+01 -0.38659294162E+02  0.69542625316E+02  0.00000000000E+00 0. -1.
         21    1    1    2  502  501 -0.25269603049E+02 -0.35606029786E+01 -0.17985363271E+02  0.31220250220E+02  0.00000000000E+00 0. -1.
<scales pt_clust_5="13000.00000" pt_clust_6="13000.00000" pt_clust_7="13000.00000" pt_clust_8="13000.00000" pt_clust_9="25.51922"></scales>
<clustering>
<clus scale="   25.519">  2  9  1 -1</clus>
<clus scale="   80.729">  5  6 -1 -1</clus>
<clus scale="   97.776">  7  8 -1 -1</clus>
<clus scale="  148.322">  1  5  2 -1</clus>
<clus scale="  148.322">  1  5  2 -1</clus>
</clustering>
</event>
<event>
 9    2  0.3402837E-005  0.1421800E+03  0.7546771E-02  0.1213453E+00
          2   -1    0    0  502    0  0.00000000000E+00  0.00000000000E+00  0.65731071443E+03  0.65731071443E+03  0.00000000000E+00 0. -1.
         -1   -1    0    0    0  501 -0.00000000000E+00 -0.00000000000E+00 -0.59954733119E+02  0.59954733119E+02  0.00000000000E+00 0.  1.
         24    2    1    2    0    0 -0.78710206400E+02 -0.35662498159E+02  0.54821980553E+02  0.14604461851E+03  0.10419438889E+03 0.  0.
         23    2    1    2    0    0  0.96921833289E+02  0.20238796313E+02  0.52372180748E+03  0.54083246699E+03  0.91715729688E+02 0.  0.
        -11    1    3    3    0    0 -0.76184830423E+02 -0.58223025744E+02  0.70015930934E+02  0.11872775454E+03  0.00000000000E+00 0.  1.
         12    1    3    3    0    0 -0.25253759769E+01  0.22560527585E+02 -0.15193950382E+02  0.27316863966E+02  0.00000000000E+00 0. -1.
        -13    1    4    4    0    0  0.98936827506E+02 -0.13090213314E+02  0.42706893941E+03  0.43857465559E+03  0.00000000000E+00 0. -1.
         13    1    4    4    0    0 -0.20149942177E+01  0.33329009626E+02  0.96652868073E+02  0.10225781139E+03  0.00000000000E+00 0.  1.
         21    1    1    2  502  501 -0.18211626889E+02  0.15423701846E+02  0.18812193279E+02  0.30388362057E+02  0.00000000000E+00 0.  1.
<scales pt_clust_5="13000.00000" pt_clust_6="13000.00000" pt_clust_7="13000.00000" pt_clust_8="13000.00000" pt_clust_9="23.86533"></scales>
<clustering>
<clus scale="   23.865">  2  9  1 -1</clus>
<clus scale="   91.716">  7  8 -1 -1</clus>
<clus scale="  104.194">  5  6 -1 -1</clus>
<clus scale="  133.306">  1  7  2 -1</clus>
<clus scale="  133.306">  1  5  2 -1</clus>
</clustering>
</event>
<event>
 9    2  0.3402837E-005  0.9817211E+02  0.7546771E-02  0.1292690E+00
          2   -1    0    0  502    0  0.00000000000E+00  0.00000000000E+00  0.85756308395E+02  0.85756308395E+02  0.00000000000E+00 0. -1.
         -1   -1    0    0    0  501 -0.00000000000E+00 -0.00000000000E+00 -0.39772648763E+03  0.39772648763E+03  0.00000000000E+00 0.  1.
         23    2    1    2    0    0  0.47580857935E+02  0.45427114885E+01 -0.27521904439E+03  0.29514502971E+03  0.95291615043E+02 0.  0.
         24    2    1    2    0    0 -0.17971658118E+02  0.13499646010E+02  0.48395443764E+02  0.96402075603E+02  0.80287111453E+02 0.  0.
        -11    1    4    4    0    0 -0.12255218622E+02  0.28088878041E+02 -0.12815314275E+02  0.33217581686E+02  0.00000000000E+00 0.  1.
         12    1    4    4    0    0 -0.57164394962E+01 -0.14589232031E+02  0.61210758039E+02  0.63184493917E+02  0.00000000000E+00 0. -1.
        -11    1    3    3    0    0  0.20855321681E+02  0.49503311957E+02 -0.15487379325E+03  0.16392502607E+03  0.00000000000E+00 0.  1.
         11    1    3    3    0    0  0.26725536255E+02 -0.44960600469E+02 -0.12034525115E+03  0.13122000364E+03  0.00000000000E+00 0. -1.
         21    1    1    2  502  501 -0.29609199817E+02 -0.18042357499E+02 -0.85146578607E+02  0.91935690710E+02  0.00000000000E+00 0. -1.
<scales pt_clust_5="13000.00000" pt_clust_6="13000.00000" pt_clust_7="13000.00000" pt_clust_8="13000.00000" pt_clust_9="34.67321"></scales>
<clustering>
<clus scale="   34.673">  2  9  1 -1</clus>
<clus scale="   80.287">  5  6 -1 -1</clus>
<clus scale="   83.686">  1  5  2 -1</clus>
<clus scale="   95.292">  7  8 -1 -1</clus>
<clus scale="   83.686">  1  5  2 -1</clus>
</clustering>
</event>
<event>
 9    2  0.3402837E-005  0.1124094E+03  0.7546771E-02  0.1257962E+00
          2   -1    0    0  502    0  0.00000000000E+00  0.00000000000E+00  0.50361033980E+03  0.50361033980E+03  0.00000000000E+00 0. -1.
         -1   -1    0    0    0  501 -0.00000000000E+00 -0.00000000000E+00 -0.72623262210E+02  0.72623262210E+02  0.00000000000E+00 0.  1.
         23    2    1    2    0    0  0.15846891409E+02  0.35382794646E+02  0.11042606733E+02  0.99040891094E+02  0.90465976040E+02 0.  0.
         24    2    1    2    0    0 -0.34390136578E+02 -0.62409000395E+02  0.42897833841E+03  0.44319449770E+03  0.85565081318E+02 0.  0.
        -11    1    4    4    0    0  0.27502927322E+02 -0.26946670148E+02  0.11730936719E+03  0.12346668245E+03  0.00000000000E+00 0.  1.
         12    1    4    4    0    0 -0.61893063901E+02 -0.35462330246E+02  0.31166897122E+03  0.31972781526E+03  0.00000000000E+00 0. -1.
        -11    1    3    3    0    0 -0.10017819845E+02  0.35577744545E+02  0.43794584129E+02  0.57307052100E+02  0.00000000000E+00 0. -1.
         11    1    3    3    0    0  0.25864711254E+02 -0.19494989892E+00 -0.32751977397E+02  0.41733838993E+02  0.00000000000E+00 0.  1.
         21    1    1    2  502  501  0.18543245170E+02  0.27026205749E+02 -0.90338675572E+01  0.33998213212E+02  0.00000000000E+00 0.  1.
<scales pt_clust_5="13000.00000" pt_clust_6="13000.00000" pt_clust_7="13000.00000" pt_clust_8="13000.00000" pt_clust_9="32.77602"></scales>
<clustering>
<clus scale="   32.776">  2  9  1 -1</clus>
<clus scale="   85.565">  5  6 -1 -1</clus>
<clus scale="   90.466">  7  8 -1 -1</clus>
<clus scale="  108.504">  1  5  2 -1</clus>
<clus scale="  108.504">  1  5  2 -1</clus>
</clustering>
</event>
<event>
 9    2  0.3882003E-005  0.1335879E+03  0.7546771E-02  0.1224487E+00
          2   -1    0    0  502    0  0.00000000000E+00  0.00000000000E+00  0.52890543732E+03  0.52890543732E+03  0.00000000000E+00 0. -1.
         -1   -1    0    0    0  501 -0.00000000000E+00 -0.00000000000E+00 -0.13059122367E+03  0.13059122367E+03  0.00000000000E+00 0.  1.
         24    2    1    2    0    0 -0.77982434926E+02 -0.98185617950E+01 -0.83079884824E+02  0.14166092324E+03  0.83593573902E+02 0.  0.
         23    2    1    2    0    0  0.97121253004E+02 -0.12096454105E+02  0.46561241724E+03  0.48473553017E+03  0.92707869845E+02 0.  0.
        -13    1    3    3    0    0 -0.24787697631E+02 -0.92992875746E+01 -0.84392225112E+02  0.88447466682E+02  0.00000000000E+00 0.  1.
         14    1    3    3    0    0 -0.53194737295E+02 -0.51927422040E+00  0.13123402879E+01  0.53213456556E+02  0.00000000000E+00 0. -1.
        -11    1    4    4    0    0  0.13488873489E+01  0.21817057745E+02  0.28205989949E+02  0.35684469657E+02  0.00000000000E+00 0.  1.
         11    1    4    4    0    0  0.95772365655E+02 -0.33913511851E+02  0.43740642729E+03  0.44905106051E+03  0.00000000000E+00 0. -1.
         21    1    1    2  502  501 -0.19138818078E+02  0.21915015900E+02  0.15781681236E+02  0.33100207582E+02  0.00000000000E+00 0.  1.
<scales pt_clust_5="13000.00000" pt_clust_6="13000.00000" pt_clust_7="13000.00000" pt_clust_8="13000.00000" pt_clust_9="29.09574"></scales>
<clustering>
<clus scale="   29.096">  2  9  1 -1</clus>
<clus scale="   83.594">  5  6 -1 -1</clus>
<clus scale="   92.708">  7  8 -1 -1</clus>
<clus scale="  127.432">  2  5  1 -1</clus>
<clus scale="  133.588">  1  5  2 -1</clus>
</clustering>
</event>
<event>
 9    2  0.3402837E-005  0.2067351E+03  0.7546771E-02  0.1145098E+00
          2   -1    0    0  502    0  0.00000000000E+00  0.00000000000E+00  0.17943794272E+03  0.17943794272E+03  0.00000000000E+00 0. -1.
         -1   -1    0    0    0  501 -0.00000000000E+00 -0.00000000000E+00 -0.37901070579E+03  0.37901070579E+03  0.00000000000E+00 0.  1.
         23    2    1    2    0    0 -0.53456008262E+02  0.19191758087E+03 -0.15980845425E+03  0.27117864708E+03  0.91154889706E+02 0.  0.
         24    2    1    2    0    0  0.28476610722E+02 -0.17851954338E+03  0.40660539714E+02  0.20199612518E+03  0.80430158343E+02 0.  0.
        -11    1    4    4    0    0  0.42494414484E+02 -0.63387103212E+02 -0.69345376684E+01  0.76627592476E+02  0.00000000000E+00 0.  1.
         12    1    4    4    0    0 -0.14017803763E+02 -0.11513244017E+03  0.47595077383E+02  0.12536853270E+03  0.00000000000E+00 0. -1.
        -13    1    3    3    0    0 -0.97534146856E+01  0.10696616367E+03 -0.13492487389E+03  0.17245756249E+03  0.00000000000E+00 0.  1.
         13    1    3    3    0    0 -0.43702593576E+02  0.84951417206E+02 -0.24883580357E+02  0.98721084587E+02  0.00000000000E+00 0. -1.
         21    1    1    2  502  501  0.24979397540E+02 -0.13398037493E+02 -0.80424848532E+02  0.85273876255E+02  0.00000000000E+00 0.  1.
<scales pt_clust_5="13000.00000" pt_clust_6="13000.00000" pt_clust_7="13000.00000" pt_clust_8="13000.00000" pt_clust_9="28.34568"></scales>
<clustering>
<clus scale="   28.346">  2  9  1 -1</clus>
<clus scale="   80.430">  5  6 -1 -1</clus>
<clus scale="   91.155">  7  8 -1 -1</clus>
<clus scale="  202.236">  1  5  2 -1</clus>
<clus scale="  202.236">  1  5  2 -1</clus>
</clustering>
</event>
<event>
 9    2  0.3402837E-005  0.1896596E+03  0.7546771E-02  0.1183312E+00
         -1   -1    0    0    0  501 -0.00000000000E+00  0.00000000000E+00  0.12853368864E+03  0.12853368864E+03  0.00000000000E+00 0.  1.
          2   -1    0    0  502    0  0.00000000000E+00 -0.00000000000E+00 -0.93745334167E+03  0.93745334167E+03  0.00000000000E+00 0. -1.
         23    2    1    2    0    0  0.49914140736E+02  0.77968791118E-01  0.23207944383E+02  0.11074700911E+03  0.96098198832E+02 0.  0.
         24    2    1    2    0    0 -0.18152725608E+03  0.17510072315E+01 -0.79359564677E+03  0.81809021806E+03  0.80761027623E+02 0.  0.
        -13    1    4    4    0    0 -0.11186256449E+03 -0.27393215584E+02 -0.36016026309E+03  0.37812568902E+03  0.00000000000E+00 0.  1.
         14    1    4    4    0    0 -0.69664691590E+02  0.29144222816E+02 -0.43343538369E+03  0.43996452904E+03  0.00000000000E+00 0. -1.
        -11    1    3    3    0    0  0.16781952891E+02 -0.39517472855E+02  0.37685454887E+02  0.57126684779E+02  0.00000000000E+00 0. -1.
         11    1    3    3    0    0  0.33132187845E+02  0.39595441647E+02 -0.14477510504E+02  0.53620324327E+02  0.00000000000E+00 0.  1.
         21    1    1    2  502  501  0.13161311534E+03 -0.18289760226E+01 -0.38531950639E+02  0.13714980314E+03  0.00000000000E+00 0.  1.
<scales pt_clust_5="13000.00000" pt_clust_6="13000.00000" pt_clust_7="13000.00000" pt_clust_8="13000.00000" pt_clust_9="171.60538"></scales>
<clustering>
<clus scale="   80.761">  5  6 -1 -1</clus>
<clus scale="   96.098">  7  8 -1 -1</clus>
<clus scale="  108.288">  1  7  2 -1</clus>
<clus scale="  171.605">  1  9  2 -1</clus>
<clus scale="  189.660">  2  5  1 -1</clus>
</clustering>
</event>
<event>
 9    2  0.3402837E-005  0.1264936E+03  0.7546771E-02  0.1233048E+00
          2   -1    0    0  502    0  0.00000000000E+00  0.00000000000E+00  0.77883976566E+03  0.77883976566E+03  0.00000000000E+00 0. -1.
         -1   -1    0    0    0  501 -0.00000000000E+00 -0.00000000000E+00 -0.14443854155E+03  0.14443854155E+03  0.00000000000E+00 0.  1.
         23    2    1    2    0    0 -0.82913245395E+02  0.57134918943E+02  0.20563025562E+03  0.24626744834E+03  0.90690952485E+02 0.  0.
         24    2    1    2    0    0  0.80088531858E+02 -0.27881979036E+02  0.54414206838E+03  0.55795539201E+03  0.89621711688E+02 0.  0.
        -11    1    4    4    0    0  0.39285942869E+02 -0.39665510874E+02  0.12791411617E+03  0.13956632536E+03  0.00000000000E+00 0.  1.
         12    1    4    4    0    0  0.40802588988E+02  0.11783531838E+02  0.41622795221E+03  0.41838906665E+03  0.00000000000E+00 0. -1.
        -13    1    3    3    0    0 -0.47027790533E+02 -0.19024033248E+02  0.88693932325E+02  0.10217700600E+03  0.00000000000E+00 0.  1.
         13    1    3    3    0    0 -0.35885454862E+02  0.76158952191E+02  0.11693632329E+03  0.14409044234E+03  0.00000000000E+00 0. -1.
         21    1    1    2  502  501  0.28247135368E+01 -0.29252939906E+02 -0.11537109989E+03  0.11905546686E+03  0.00000000000E+00 0.  1.
<scales pt_clust_5="13000.00000" pt_clust_6="13000.00000" pt_clust_7="13000.00000" pt_clust_8="13000.00000" pt_clust_9="29.38900"></scales>
<clustering>
<clus scale="   29.389">  2  9  1 -1</clus>
<clus scale="   89.622">  5  6 -1 -1</clus>
<clus scale="   90.691">  7  8 -1 -1</clus>
<clus scale="  125.729">  1  5  2 -1</clus>
<clus scale="  125.729">  1  5  2 -1</clus>
</clustering>
</event>
<event>
 9    2  0.3402837E-005  0.9877774E+02  0.7546771E-02  0.1288671E+00
         -1   -1    0    0    0  501 -0.00000000000E+00  0.00000000000E+00  0.22529393589E+03  0.22529393589E+03  0.00000000000E+00 0.  1.
          2   -1    0    0  502    0  0.00000000000E+00 -0.00000000000E+00 -0.11844653983E+03  0.11844653983E+03  0.00000000000E+00 0. -1.
         23    2    1    2    0    0  0.68605684384E+01  0.37579740608E+02  0.15921986334E+03  0.18676989680E+03  0.89848345361E+02 0.  0.
         24    2    1    2    0    0 -0.47413308398E+02 -0.47843539864E+02 -0.50493303769E+02  0.11509694105E+03  0.78490164948E+02 0.  0.
        -13    1    4    4    0    0 -0.36991938225E+02  0.74815262442E+01 -0.44699650198E+02  0.58501585076E+02  0.00000000000E+00 0.  1.
         14    1    4    4    0    0 -0.10421370173E+02 -0.55325066108E+02 -0.57936535714E+01  0.56595355974E+02  0.00000000000E+00 0. -1.
        -13    1    3    3    0    0  0.21345815435E+02  0.52065997256E+02  0.15624472554E+03  0.16606904036E+03  0.00000000000E+00 0.  1.
         13    1    3    3    0    0 -0.14485246997E+02 -0.14486256647E+02  0.29751377965E+01  0.20700856434E+02  0.00000000000E+00 0. -1.
         21    1    1    2  502  501  0.40552739960E+02  0.10263799255E+02 -0.18791635123E+01  0.41873637875E+02  0.00000000000E+00 0.  1.
<scales pt_clust_5="13000.00000" pt_clust_6="13000.00000" pt_clust_7="13000.00000" pt_clust_8="13000.00000" pt_clust_9="41.83145"></scales>
<clustering>
<clus scale="   41.831">  2  9  1 -1</clus>
<clus scale="   78.490">  5  6 -1 -1</clus>
<clus scale="   88.572">  2  5  1 -1</clus>
<clus scale="   89.848">  7  8 -1 -1</clus>
<clus scale="   41.831">  2  5  1 -1</clus>
</clustering>
</event>
<event>
 9    2  0.3402837E-005  0.9485603E+02  0.7546771E-02  0.1297387E+00
          2   -1    0    0  502    0  0.00000000000E+00  0.00000000000E+00  0.62030283142E+03  0.62030283142E+03  0.00000000000E+00 0. -1.
         -1   -1    0    0    0  501 -0.00000000000E+00 -0.00000000000E+00 -0.31602008771E+02  0.31602008771E+02  0.00000000000E+00 0.  1.
         23    2    1    2    0    0 -0.33582688758E+02 -0.31738272926E+02  0.92490567442E+02  0.13788763087E+03  0.91232553007E+02 0.  0.
         24    2    1    2    0    0  0.13397741545E+02  0.18395956637E+02  0.47324200015E+03  0.48065570099E+03  0.80956787776E+02 0.  0.
        -13    1    4    4    0    0  0.10282915910E+01  0.44244839537E+02  0.15701564227E+03  0.16313361128E+03  0.00000000000E+00 0.  1.
         14    1    4    4    0    0  0.12369449954E+02 -0.25848882900E+02  0.31622635788E+03  0.31752208971E+03  0.00000000000E+00 0. -1.
        -11    1    3    3    0    0 -0.41897897883E+01 -0.27480239833E+02 -0.11243587875E+02  0.29985599678E+02  0.00000000000E+00 0. -1.
         11    1    3    3    0    0 -0.29392898969E+02 -0.42580330926E+01  0.10373415532E+03  0.10790203119E+03  0.00000000000E+00 0.  1.
         21    1    1    2  502  501  0.20184947213E+02  0.13342316289E+02  0.22968255056E+02  0.33361508333E+02  0.00000000000E+00 0.  1.
<scales pt_clust_5="13000.00000" pt_clust_6="13000.00000" pt_clust_7="13000.00000" pt_clust_8="13000.00000" pt_clust_9="24.19606"></scales>
<clustering>
<clus scale="   24.196">  2  9  1 -1</clus>
<clus scale="   80.957">  5  6 -1 -1</clus>
<clus scale="   85.019">  1  5  2 -1</clus>
<clus scale="   91.233">  7  8 -1 -1</clus>
<clus scale="   85.019">  1  5  2 -1</clus>
</clustering>
</event>
<event>
 9    2  0.3402837E-005  0.1630599E+03  0.7546771E-02  0.1190328E+00
          2   -1    0    0  502    0  0.00000000000E+00  0.00000000000E+00  0.12065740745E+04  0.12065740745E+04  0.00000000000E+00 0. -1.
         -1   -1    0    0    0  501 -0.00000000000E+00 -0.00000000000E+00 -0.26296430683E+02  0.26296430683E+02  0.00000000000E+00 0.  1.
         23    2    1    2    0    0 -0.57326665018E+02  0.10991351682E+03  0.45427560717E+03  0.48287545956E+03  0.10693481415E+03 0.  0.
         24    2    1    2    0    0  0.19720982021E+02 -0.12407510050E+03  0.57792114875E+03  0.59655878130E+03  0.78140755577E+02 0.  0.
        -13    1    4    4    0    0  0.13923123500E+02 -0.13249918970E+03  0.48134126480E+03  0.49943898710E+03  0.00000000000E+00 0.  1.
         14    1    4    4    0    0  0.57978585212E+01  0.84240891931E+01  0.96579883947E+02  0.97119794200E+02  0.00000000000E+00 0. -1.
        -11    1    3    3    0    0 -0.32381689675E+02  0.74016778983E+01  0.27114846459E+02  0.42878590933E+02  0.00000000000E+00 0.  1.
         11    1    3    3    0    0 -0.24944975343E+02  0.10251183892E+03  0.42716076071E+03  0.43999686863E+03  0.00000000000E+00 0. -1.
         21    1    1    2  502  501  0.37605682998E+02  0.14161583685E+02  0.14808088789E+03  0.15343626430E+03  0.00000000000E+00 0. -1.
<scales pt_clust_5="13000.00000" pt_clust_6="13000.00000" pt_clust_7="13000.00000" pt_clust_8="13000.00000" pt_clust_9="40.18380"></scales>
<clustering>
<clus scale="   40.184">  1  9  2 -1</clus>
<clus scale="   78.141">  5  6 -1 -1</clus>
<clus scale="  106.935">  7  8 -1 -1</clus>
<clus scale="  145.806">  1  5  2 -1</clus>
<clus scale="   40.184">  1  5  2 -1</clus>
</clustering>
</event>
<event>
 9    2  0.3402837E-005  0.9173699E+02  0.7546771E-02  0.1301619E+00
          2   -1    0    0  502    0  0.00000000000E+00  0.00000000000E+00  0.20894486324E+03  0.20894486324E+03  0.00000000000E+00 0. -1.
         -1   -1    0    0    0  501 -0.00000000000E+00 -0.00000000000E+00 -0.74236966654E+02  0.74236966654E+02  0.00000000000E+00 0.  1.
         23    2    1    2    0    0 -0.59643532501E+02  0.85289798965E+01  0.20397865429E+02  0.10625992610E+03  0.85117592264E+02 0.  0.
         24    2    1    2    0    0  0.25957121741E+02  0.38895535621E+01  0.11316427487E+03  0.14100106025E+03  0.79913985562E+02 0.  0.
        -11    1    4    4    0    0 -0.28715510178E+02 -0.35609748229E+01  0.38706697505E+02  0.48326695503E+02  0.00000000000E+00 0.  1.
         12    1    4    4    0    0  0.54672631918E+02  0.74505283849E+01  0.74457577369E+02  0.92674364750E+02  0.00000000000E+00 0. -1.
        -11    1    3    3    0    0 -0.38915732095E+02  0.44641587584E+02 -0.14447359568E+01  0.59240128363E+02  0.00000000000E+00 0.  1.
         11    1    3    3    0    0 -0.20727800407E+02 -0.36112607687E+02  0.21842601386E+02  0.47019797734E+02  0.00000000000E+00 0. -1.
         21    1    1    2  502  501  0.33686410761E+02 -0.12418533459E+02  0.11457562781E+01  0.35920843540E+02  0.00000000000E+00 0. -1.
<scales pt_clust_5="13000.00000" pt_clust_6="13000.00000" pt_clust_7="13000.00000" pt_clust_8="13000.00000" pt_clust_9="35.90257"></scales>
<clustering>
<clus scale="   35.903">  2  9  1 -1</clus>
<clus scale="   79.914">  5  6 -1 -1</clus>
<clus scale="   85.118">  7  8 -1 -1</clus>
<clus scale="   86.931">  1  5  2 -1</clus>
<clus scale="   86.931">  1  5  2 -1</clus>
</clustering>
</event>
<event>
 9    2  0.3402837E-005  0.1025617E+03  0.7546771E-02  0.1278025E+00
          2   -1    0    0  502    0  0.00000000000E+00  0.00000000000E+00  0.15084420425E+03  0.15084420425E+03  0.00000000000E+00 0. -1.
         -1   -1    0    0    0  501 -0.00000000000E+00 -0.00000000000E+00 -0.19125761008E+03  0.19125761008E+03  0.00000000000E+00 0.  1.
         23    2    1    2    0    0  0.57002769736E+01 -0.54016757558E+02 -0.64121262671E+02  0.12096508928E+03  0.87009845665E+02 0.  0.
         24    2    1    2    0    0  0.20352097500E+02  0.51515834721E+02  0.10052846750E+03  0.13998016615E+03  0.80127305199E+02 0.  0.
        -11    1    4    4    0    0  0.18730310709E+02  0.52358042852E+02  0.19494485989E+02  0.58925581664E+02  0.00000000000E+00 0.  1.
         12    1    4    4    0    0  0.16217867911E+01 -0.84220813055E+00  0.81033981514E+02  0.81054584490E+02  0.00000000000E+00 0. -1.
        -11    1    3    3    0    0 -0.21032845521E+02  0.11102309610E+02  0.26640250894E+01  0.23931963962E+02  0.00000000000E+00 0.  1.
         11    1    3    3    0    0  0.26733122495E+02 -0.65119067168E+02 -0.66785287760E+02  0.97033125315E+02  0.00000000000E+00 0. -1.
         21    1    1    2  502  501 -0.26052374474E+02  0.25009228367E+01 -0.76820610658E+02  0.81156558901E+02  0.00000000000E+00 0.  1.
<scales pt_clust_5="13000.00000" pt_clust_6="13000.00000" pt_clust_7="13000.00000" pt_clust_8="13000.00000" pt_clust_9="26.17214"></scales>
<clustering>
<clus scale="   26.172">  2  9  1 -1</clus>
<clus scale="   80.127">  5  6 -1 -1</clus>
<clus scale="   87.010">  7  8 -1 -1</clus>
<clus scale="   96.791">  1  5  2 -1</clus>
<clus scale="   96.791">  1  5  2 -1</clus>
</clustering>
</event>
<event>
 9    2  0.3402837E-005  0.1966090E+03  0.7546771E-02  0.1153955E+00
          2   -1    0    0  502    0  0.00000000000E+00  0.00000000000E+00  0.12117335268E+03  0.12117335268E+03  0.00000000000E+00 0. -1.
         -1   -1    0    0    0  501 -0.00000000000E+00 -0.00000000000E+00 -0.37917011402E+03  0.37917011402E+03  0.00000000000E+00 0.  1.
         23    2    1    2    0    0 -0.82851492917E+02  0.16218201658E+03 -0.11242369444E+03  0.23363203563E+03  0.93688124219E+02 0.  0.
         24    2    1    2    0    0  0.10291091654E+03 -0.13003191797E+03 -0.10906762266E+03  0.21409340397E+03  0.80257603222E+02 0.  0.
        -11    1    4    4    0    0  0.43802836801E+02 -0.12513928467E+02 -0.39856782313E+01  0.45729340128E+02  0.00000000000E+00 0.  1.
         12    1    4    4    0    0  0.59108079737E+02 -0.11751798950E+03 -0.10508194443E+03  0.16836406384E+03  0.00000000000E+00 0. -1.
        -13    1    3    3    0    0 -0.66875773313E+02  0.90465030643E+02 -0.17907841229E+02  0.11391655544E+03  0.00000000000E+00 0.  1.
         13    1    3    3    0    0 -0.15975719604E+02  0.71716985940E+02 -0.94515853214E+02  0.11971548019E+03  0.00000000000E+00 0. -1.
         21    1    1    2  502  501 -0.20059423622E+02 -0.32150098611E+02 -0.36505444234E+02  0.52618027096E+02  0.00000000000E+00 0.  1.
<scales pt_clust_5="13000.00000" pt_clust_6="13000.00000" pt_clust_7="13000.00000" pt_clust_8="13000.00000" pt_clust_9="37.89471"></scales>
<clustering>
<clus scale="   37.895">  2  9  1 -1</clus>
<clus scale="   80.258">  5  6 -1 -1</clus>
<clus scale="   93.688">  7  8 -1 -1</clus>
<clus scale="  190.575">  1  5  2 -1</clus>
<clus scale="  190.575">  1  5  2 -1</clus>
</clustering>
</event>
<event>
 9    2  0.3402837E-005  0.2807931E+03  0.7546771E-02  0.1095640E+00
         -1   -1    0    0    0  501 -0.00000000000E+00  0.00000000000E+00  0.33198396131E+03  0.33198396131E+03  0.00000000000E+00 0.  1.
          2   -1    0    0  502    0  0.00000000000E+00 -0.00000000000E+00 -0.29078118867E+03  0.29078118867E+03  0.00000000000E+00 0. -1.
         24    2    1    2    0    0  0.21232994016E+03 -0.16879163718E+03  0.98105535603E+02  0.30541907705E+03  0.10040665435E+03 0.  0.
         23    2    1    2    0    0 -0.18826443148E+03  0.17625641963E+03 -0.77655209735E+02  0.28470352810E+03  0.92281881739E+02 0.  0.
        -13    1    3    3    0    0  0.13768637272E+03 -0.67792846452E+02  0.93575288955E+02  0.17974910838E+03  0.00000000000E+00 0.  1.
         14    1    3    3    0    0  0.74643567446E+02 -0.10099879073E+03  0.45302466486E+01  0.12566996866E+03  0.00000000000E+00 0. -1.
        -11    1    4    4    0    0 -0.14555443162E+03  0.17702077315E+03 -0.52443797860E+02  0.23510167720E+03  0.00000000000E+00 0.  1.
         11    1    4    4    0    0 -0.42709999858E+02 -0.76435351991E+00 -0.25211411876E+02  0.49601850903E+02  0.00000000000E+00 0. -1.
         21    1    1    2  502  501 -0.24065508687E+02 -0.74647824484E+01  0.20752446778E+02  0.32642544824E+02  0.00000000000E+00 0. -1.
<scales pt_clust_5="13000.00000" pt_clust_6="13000.00000" pt_clust_7="13000.00000" pt_clust_8="13000.00000" pt_clust_9="25.19666"></scales>
<clustering>
<clus scale="   25.197">  1  9  2 -1</clus>
<clus scale="   92.282">  7  8 -1 -1</clus>
<clus scale="  100.407">  5  6 -1 -1</clus>
<clus scale="  277.991">  2  7  1 -1</clus>
<clus scale="  277.991">  2  5  1 -1</clus>
</clustering>
</event>
<event>
 9    2  0.3402837E-005  0.2718691E+03  0.7546771E-02  0.1100698E+00
          2   -1    0    0  502    0  0.00000000000E+00  0.00000000000E+00  0.90076998524E+03  0.90076998524E+03  0.00000000000E+00 0. -1.
         -1   -1    0    0    0  501 -0.00000000000E+00 -0.00000000000E+00 -0.17844485354E+03  0.17844485354E+03  0.00000000000E+00 0.  1.
         24    2    1    2    0    0  0.23596774199E+03  0.98480264528E+02 -0.80576549961E+01  0.26878896162E+03  0.82482982005E+02 0.  0.
         23    2    1    2    0    0 -0.22526545783E+03 -0.12086696316E+03  0.73628333058E+03  0.78492059182E+03  0.92918476668E+02 0.  0.
        -13    1    3    3    0    0  0.11568486816E+03  0.87558818602E+02 -0.23682655075E+02  0.14700477403E+03  0.00000000000E+00 0.  1.
         14    1    3    3    0    0  0.12028287384E+03  0.10921445927E+02  0.15625000079E+02  0.12178418759E+03  0.00000000000E+00 0. -1.
        -11    1    4    4    0    0 -0.99355208045E+01 -0.29618719925E+02  0.42261588479E+02  0.52554971263E+02  0.00000000000E+00 0.  1.
         11    1    4    4    0    0 -0.21532993702E+03 -0.91248243239E+02  0.69402174210E+03  0.73236562056E+03  0.00000000000E+00 0. -1.
         21    1    1    2  502  501 -0.10702284168E+02  0.22386698636E+02 -0.59005438739E+01  0.25505285339E+02  0.00000000000E+00 0. -1.
<scales pt_clust_5="13000.00000" pt_clust_6="13000.00000" pt_clust_7="13000.00000" pt_clust_8="13000.00000" pt_clust_9="24.81337"></scales>
<clustering>
<clus scale="   24.813">  2  9  1 -1</clus>
<clus scale="   82.483">  5  6 -1 -1</clus>
<clus scale="   92.918">  7  8 -1 -1</clus>
<clus scale="  268.482">  2  5  1 -1</clus>
<clus scale="  271.869">  1  5  2 -1</clus>
</clustering>
</event>
<event>
 9    2  0.3402837E-005  0.1119895E+03  0.7546771E-02  0.1261673E+00
          2   -1    0    0  502    0  0.00000000000E+00  0.00000000000E+00  0.41832052604E+03  0.41832052604E+03  0.00000000000E+00 0. -1.
         -1   -1    0    0    0  501 -0.00000000000E+00 -0.00000000000E+00 -0.23850274571E+03  0.23850274571E+03  0.00000000000E+00 0.  1.
         23    2    1    2    0    0 -0.18403028096E+02  0.18861761804E+02 -0.91955616482E+02  0.13405102187E+03  0.93911679567E+02 0.  0.
         24    2    1    2    0    0 -0.11694412577E+02  0.65303914106E+02  0.37309064146E+03  0.38766155084E+03  0.81752619353E+02 0.  0.
        -11    1    4    4    0    0 -0.24427847228E+02  0.36361523446E+02  0.67685080121E+02  0.80623508844E+02  0.00000000000E+00 0.  1.
         12    1    4    4    0    0  0.12733434651E+02  0.28942390660E+02  0.30540556134E+03  0.30703804199E+03  0.00000000000E+00 0. -1.
        -11    1    3    3    0    0 -0.53241440323E+01 -0.38057818961E+02 -0.28742462585E+02  0.47988261577E+02  0.00000000000E+00 0.  1.
         11    1    3    3    0    0 -0.13078884064E+02  0.56919580765E+02 -0.63213153897E+02  0.86062760288E+02  0.00000000000E+00 0. -1.
         21    1    1    2  502  501  0.30097440673E+02 -0.84165675910E+02 -0.10131724464E+03  0.13511069905E+03  0.00000000000E+00 0.  1.
<scales pt_clust_5="13000.00000" pt_clust_6="13000.00000" pt_clust_7="13000.00000" pt_clust_8="13000.00000" pt_clust_9="89.38522"></scales>
<clustering>
<clus scale="   81.753">  5  6 -1 -1</clus>
<clus scale="   89.385">  2  9  1 -1</clus>
<clus scale="   93.912">  7  8 -1 -1</clus>
<clus scale="  102.009">  1  5  2 -1</clus>
<clus scale="  102.009">  1  5  2 -1</clus>
</clustering>
</event>
<event>
 9    2  0.3402837E-005  0.1185429E+03  0.7546771E-02  0.1249426E+00
          2   -1    0    0  502    0  0.00000000000E+00  0.00000000000E+00  0.52722448245E+03  0.52722448245E+03  0.00000000000E+00 0. -1.
         -1   -1    0    0    0  501 -0.00000000000E+00 -0.00000000000E+00 -0.11055814053E+03  0.11055814053E+03  0.00000000000E+00 0.  1.
         24    2    1    2    0    0  0.71753575886E+02 -0.55867061486E+02 -0.46791774317E+02  0.12887482080E+03  0.78419035193E+02 0.  0.
         23    2    1    2    0    0 -0.76046159717E+02  0.76643467507E+01  0.43897374197E+03  0.45467301107E+03  0.90486685425E+02 0.  0.
        -13    1    3    3    0    0  0.15301233751E+02 -0.14513911920E+02 -0.54533657065E+02  0.58469660050E+02  0.00000000000E+00 0.  1.
         14    1    3    3    0    0  0.56452342135E+02 -0.41353149567E+02  0.77418827474E+01  0.70405160749E+02  0.00000000000E+00 0. -1.
        -13    1    4    4    0    0 -0.41042760687E+02 -0.39379219524E+02  0.26655769655E+03  0.27255868492E+03  0.00000000000E+00 0. -1.
         13    1    4    4    0    0 -0.35003399030E+02  0.47043566275E+02  0.17241604541E+03  0.18211432614E+03  0.00000000000E+00 0.  1.
         21    1    1    2  502  501  0.42925838312E+01  0.48202714735E+02  0.24484374267E+02  0.54234791113E+02  0.00000000000E+00 0.  1.
<scales pt_clust_5="13000.00000" pt_clust_6="13000.00000" pt_clust_7="13000.00000" pt_clust_8="13000.00000" pt_clust_9="48.39347"></scales>
<clustering>
<clus scale="   48.393">  2  9  1 -1</clus>
<clus scale="   78.419">  5  6 -1 -1</clus>
<clus scale="   90.487">  7  8 -1 -1</clus>
<clus scale="  109.609">  2  5  1 -1</clus>
<clus scale="  118.543">  1  5  2 -1</clus>
</clustering>
</event>
<event>
 9    2  0.3402837E-005  0.8701690E+02  0.7546771E-02  0.1312762E+00
         -1   -1    0    0    0  501 -0.00000000000E+00  0.00000000000E+00  0.28690925525E+03  0.28690925525E+03  0.00000000000E+00 0.  1.
          2   -1    0    0  502    0  0.00000000000E+00 -0.00000000000E+00 -0.91282219058E+02  0.91282219058E+02  0.00000000000E+00 0. -1.
         24    2    1    2    0    0 -0.26619933993E+02 -0.37741160291E+02  0.11586009676E+03  0.14873571327E+03  0.81029218909E+02 0.  0.
         23    2    1    2    0    0  0.12997522171E+02 -0.20872048904E+02 -0.38697803635E+02  0.96583740853E+02  0.85007770133E+02 0.  0.
        -13    1    3    3    0    0 -0.18115345769E+02  0.24138779007E+02  0.46079113768E+02  0.55082947724E+02  0.00000000000E+00 0.  1.
         14    1    3    3    0    0 -0.85045882234E+01 -0.61879939299E+02  0.69780982987E+02  0.93652765550E+02  0.00000000000E+00 0. -1.
        -13    1    4    4    0    0 -0.31851657513E+02  0.90330049244E+01 -0.23424958941E+02  0.40556774597E+02  0.00000000000E+00 0.  1.
         13    1    4    4    0    0  0.44849179684E+02 -0.29905053829E+02 -0.15272844694E+02  0.56026966256E+02  0.00000000000E+00 0. -1.
         21    1    1    2  502  501  0.13622411822E+02  0.58613209196E+02  0.11846474307E+03  0.13287202018E+03  0.00000000000E+00 0.  1.
<scales pt_clust_5="13000.00000" pt_clust_6="13000.00000" pt_clust_7="13000.00000" pt_clust_8="13000.00000" pt_clust_9="60.17540"></scales>
<clustering>
<clus scale="   60.175">  1  9  2 -1</clus>
<clus scale="   81.029">  5  6 -1 -1</clus>
<clus scale="   83.135">  1  5  2 -1</clus>
<clus scale="   85.008">  7  8 -1 -1</clus>
<clus scale="   87.017">  2  5  1 -1</clus>
</clustering>
</event>
<event>
 9    2  0.3402837E-005  0.1283662E+03  0.7546771E-02  0.1233600E+00
         -1   -1    0    0    0  501 -0.00000000000E+00  0.00000000000E+00  0.40393453430E+03  0.40393453430E+03  0.00000000000E+00 0.  1.
          2   -1    0    0  502    0  0.00000000000E+00 -0.00000000000E+00 -0.12856732419E+03  0.12856732419E+03  0.00000000000E+00 0. -1.
         23    2    1    2    0    0  0.61753490834E+02  0.12997782774E+02  0.26626944711E+03  0.28813934862E+03  0.90235413051E+02 0.  0.
         24    2    1    2    0    0 -0.91750638173E+02  0.26728875202E+02 -0.77303540834E+02  0.14464680646E+03  0.76251221757E+02 0.  0.
        -11    1    4    4    0    0 -0.17473245179E+02  0.29245639254E+02 -0.58962683331E+02  0.68097134580E+02  0.00000000000E+00 0.  1.
         12    1    4    4    0    0 -0.74277392994E+02 -0.25167640521E+01 -0.18340857503E+02  0.76549671882E+02  0.00000000000E+00 0. -1.
        -13    1    3    3    0    0  0.85524120431E+02  0.88373712599E+01  0.20728950560E+03  0.22441348765E+03  0.00000000000E+00 0.  1.
         13    1    3    3    0    0 -0.23770629597E+02  0.41604115141E+01  0.58979941511E+02  0.63725860967E+02  0.00000000000E+00 0. -1.
         21    1    1    2  502  501  0.29997147339E+02 -0.39726657976E+02  0.86401303831E+02  0.99715703408E+02  0.00000000000E+00 0.  1.
<scales pt_clust_5="13000.00000" pt_clust_6="13000.00000" pt_clust_7="13000.00000" pt_clust_8="13000.00000" pt_clust_9="49.77988"></scales>
<clustering>
<clus scale="   49.780">  1  9  2 -1</clus>
<clus scale="   76.251">  5  6 -1 -1</clus>
<clus scale="   90.235">  7  8 -1 -1</clus>
<clus scale="  118.953">  2  5  1 -1</clus>
<clus scale="  118.953">  2  5  1 -1</clus>
</clustering>
</event>
<event>
 9    2  0.3402837E-005  0.9312184E+02  0.7546771E-02  0.1309256E+00
         -1   -1    0    0    0  501 -0.00000000000E+00  0.00000000000E+00  0.15761550311E+03  0.15761550311E+03  0.00000000000E+00 0.  1.
          2   -1    0    0  502    0  0.00000000000E+00 -0.00000000000E+00 -0.17588304170E+03  0.17588304170E+03  0.00000000000E+00 0. -1.
         23    2    1    2    0    0  0.19885555141E+02 -0.23369489744E+02  0.49009426778E+02  0.10777417191E+03  0.90949325800E+02 0.  0.
         24    2    1    2    0    0  0.33730095275E+01  0.19582734819E+02 -0.13549411886E+03  0.15355179934E+03  0.69459615154E+02 0.  0.
        -11    1    4    4    0    0  0.32236937604E+02 -0.68735645791E+01 -0.57360510258E+02  0.66156588283E+02  0.00000000000E+00 0.  1.
         12    1    4    4    0    0 -0.28863928076E+02  0.26456299398E+02 -0.78133608603E+02  0.87395211054E+02  0.00000000000E+00 0. -1.
        -13    1    3    3    0    0  0.40499094381E+02 -0.29454520825E+02 -0.43330157823E+01  0.50264505055E+02  0.00000000000E+00 0. -1.
         13    1    3    3    0    0 -0.20613539240E+02  0.60850310817E+01  0.53342442561E+02  0.57509666854E+02  0.00000000000E+00 0.  1.
         21    1    1    2  502  501 -0.23258564668E+02  0.37867549241E+01  0.68217153496E+02  0.72172573561E+02  0.00000000000E+00 0.  1.
<scales pt_clust_5="13000.00000" pt_clust_6="13000.00000" pt_clust_7="13000.00000" pt_clust_8="13000.00000" pt_clust_9="23.56481"></scales>
<clustering>
<clus scale="   23.565">  1  9  2 -1</clus>
<clus scale="   69.460">  5  6 -1 -1</clus>
<clus scale="   72.281">  2  5  1 -1</clus>
<clus scale="   90.949">  7  8 -1 -1</clus>
<clus scale="   72.281">  2  5  1 -1</clus>
</clustering>
</event>
<event>
 9    2  0.3402837E-005  0.1349381E+03  0.7546771E-02  0.1235922E+00
          2   -1    0    0  502    0  0.00000000000E+00  0.00000000000E+00  0.38973052783E+03  0.38973052783E+03  0.00000000000E+00 0. -1.
         -1   -1    0    0    0  501 -0.00000000000E+00 -0.00000000000E+00 -0.77870026982E+02  0.77870026982E+02  0.00000000000E+00 0.  1.
         23    2    1    2    0    0  0.30718328822E+02 -0.98672841315E+01  0.50623716240E+02  0.10998929132E+03  0.92162381358E+02 0.  0.
         24    2    1    2    0    0 -0.15137693488E+02 -0.10162995852E+03  0.14106495178E+03  0.19294292797E+03  0.82279126162E+02 0.  0.
        -13    1    4    4    0    0  0.13696355438E+02 -0.81270645784E+02  0.52793285213E+02  0.97875630175E+02  0.00000000000E+00 0.  1.
         14    1    4    4    0    0 -0.28834048927E+02 -0.20359312735E+02  0.88271666566E+02  0.95067297799E+02  0.00000000000E+00 0. -1.
        -13    1    3    3    0    0  0.56794926731E+02  0.13265994330E+02  0.47072993037E+02  0.74950096607E+02  0.00000000000E+00 0.  1.
         13    1    3    3    0    0 -0.26076597910E+02 -0.23133278461E+02  0.35507232034E+01  0.35039194714E+02  0.00000000000E+00 0. -1.
         21    1    1    2  502  501 -0.15580635333E+02  0.11149724265E+03  0.12017183283E+03  0.16466833551E+03  0.00000000000E+00 0. -1.
<scales pt_clust_5="13000.00000" pt_clust_6="13000.00000" pt_clust_7="13000.00000" pt_clust_8="13000.00000" pt_clust_9="106.95061"></scales>
<clustering>
<clus scale="   82.279">  5  6 -1 -1</clus>
<clus scale="   92.162">  7  8 -1 -1</clus>
<clus scale="   97.647">  2  7  1 -1</clus>
<clus scale="  106.951">  2  9  1 -1</clus>
<clus scale="  134.938">  1  5  2 -1</clus>
</clustering>
</event>
<event>
 9    2  0.3402837E-005  0.1104280E+03  0.7546771E-02  0.1265181E+00
          2   -1    0    0  502    0  0.00000000000E+00  0.00000000000E+00  0.41053113763E+02  0.41053113763E+02  0.00000000000E+00 0. -1.
         -1   -1    0    0    0  501 -0.00000000000E+00 -0.00000000000E+00 -0.38265486171E+03  0.38265486171E+03  0.00000000000E+00 0.  1.
         24    2    1    2    0    0  0.49413463231E+02  0.38059381854E+02 -0.19915979427E+03  0.22266607458E+03  0.77623129417E+02 0.  0.
         23    2    1    2    0    0 -0.60077738054E+02 -0.19308978694E+02 -0.85499460958E+02  0.14015058909E+03  0.91377560317E+02 0.  0.
        -13    1    3    3    0    0  0.26281875806E+01  0.29869267244E+02 -0.15479521118E+03  0.15767256546E+03  0.00000000000E+00 0.  1.
         14    1    3    3    0    0  0.46785275650E+02  0.81901146103E+01 -0.44364583096E+02  0.64993509125E+02  0.00000000000E+00 0. -1.
        -13    1    4    4    0    0 -0.40518933603E+02 -0.54913658427E+02 -0.39784724095E+02  0.78994418369E+02  0.00000000000E+00 0. -1.
         13    1    4    4    0    0 -0.19558804452E+02  0.35604679733E+02 -0.45714736863E+02  0.61156170718E+02  0.00000000000E+00 0.  1.
         21    1    1    2  502  501  0.10664274823E+02 -0.18750403160E+02 -0.56942492720E+02  0.60891311805E+02  0.00000000000E+00 0. -1.
<scales pt_clust_5="13000.00000" pt_clust_6="13000.00000" pt_clust_7="13000.00000" pt_clust_8="13000.00000" pt_clust_9="21.57092"></scales>
<clustering>
<clus scale="   21.571">  2  9  1 -1</clus>
<clus scale="   77.623">  5  6 -1 -1</clus>
<clus scale="   91.378">  7  8 -1 -1</clus>
<clus scale="   99.347">  2  5  1 -1</clus>
<clus scale="  110.428">  1  5  2 -1</clus>
</clustering>
</event>
<event>
 9    2  0.3402837E-005  0.1065053E+03  0.7546771E-02  0.1275167E+00
         -1   -1    0    0    0  501 -0.00000000000E+00  0.00000000000E+00  0.15887732514E+03  0.15887732514E+03  0.00000000000E+00 0.  1.
          2   -1    0    0  502    0  0.00000000000E+00 -0.00000000000E+00 -0.53499647432E+03  0.53499647432E+03  0.00000000000E+00 0. -1.
         23    2    1    2    0    0 -0.14192022929E+02 -0.27816736066E+01 -0.51821413548E+02  0.10309160729E+03  0.87939009366E+02 0.  0.
         24    2    1    2    0    0  0.22592913649E+02 -0.16581072604E+02 -0.45035162095E+03  0.46297345652E+03  0.10364587419E+03 0.  0.
        -13    1    4    4    0    0  0.19939843609E+01  0.42050176821E+02 -0.12988121474E+03  0.13653323143E+03  0.00000000000E+00 0.  1.
         14    1    4    4    0    0  0.20598929288E+02 -0.58631249425E+02 -0.32047040621E+03  0.32644022508E+03  0.00000000000E+00 0. -1.
        -13    1    3    3    0    0 -0.50810214274E+02 -0.84062295376E+01 -0.24333764786E+02  0.56960290363E+02  0.00000000000E+00 0. -1.
         13    1    3    3    0    0  0.36618191345E+02  0.56245559310E+01 -0.27487648762E+02  0.46131316925E+02  0.00000000000E+00 0.  1.
         21    1    1    2  502  501 -0.84008907203E+01  0.19362746210E+02  0.12605388531E+03  0.12780873565E+03  0.00000000000E+00 0.  1.
<scales pt_clust_5="13000.00000" pt_clust_6="13000.00000" pt_clust_7="13000.00000" pt_clust_8="13000.00000" pt_clust_9="21.10666"></scales>
<clustering>
<clus scale="   21.107">  1  9  2 -1</clus>
<clus scale="   87.939">  7  8 -1 -1</clus>
<clus scale="   91.292">  1  7  2 -1</clus>
<clus scale="  103.646">  5  6 -1 -1</clus>
<clus scale="  106.505">  2  5  1 -1</clus>
</clustering>
</event>
<event>
 9    2  0.3402837E-005  0.1622127E+03  0.7546771E-02  0.1188017E+00
         -1   -1    0    0    0  501 -0.00000000000E+00  0.00000000000E+00  0.67043956177E+02  0.67043956177E+02  0.00000000000E+00 0.  1.
          2   -1    0    0  502    0  0.00000000000E+00 -0.00000000000E+00 -0.48317828057E+03  0.48317828057E+03  0.00000000000E+00 0. -1.
         23    2    1    2    0    0 -0.60610580784E+02  0.10704823257E+03 -0.17615805251E+03  0.23361367373E+03  0.91709991213E+02 0.  0.
         24    2    1    2    0    0  0.58007920689E+02 -0.13137002700E+03 -0.24146839297E+03  0.29210244237E+03  0.79961548131E+02 0.  0.
        -13    1    4    4    0    0  0.43084203332E+01 -0.96530112637E+02 -0.11382290331E+03  0.14930598933E+03  0.00000000000E+00 0.  1.
         14    1    4    4    0    0  0.53699500355E+02 -0.34839914364E+02 -0.12764548966E+03  0.14279645304E+03  0.00000000000E+00 0. -1.
        -11    1    3    3    0    0 -0.40305872965E+02  0.84132304003E+02 -0.54242317347E+02  0.10791217245E+03  0.00000000000E+00 0.  1.
         11    1    3    3    0    0 -0.20304707819E+02  0.22915928567E+02 -0.12191573517E+03  0.12570150128E+03  0.00000000000E+00 0. -1.
         21    1    1    2  502  501  0.26026600956E+01  0.24321794431E+02  0.14921210885E+01  0.24506120649E+02  0.00000000000E+00 0.  1.
<scales pt_clust_5="13000.00000" pt_clust_6="13000.00000" pt_clust_7="13000.00000" pt_clust_8="13000.00000" pt_clust_9="24.46065"></scales>
<clustering>
<clus scale="   24.461">  1  9  2 -1</clus>
<clus scale="   79.962">  5  6 -1 -1</clus>
<clus scale="   91.710">  7  8 -1 -1</clus>
<clus scale="  155.872">  2  5  1 -1</clus>
<clus scale="  155.872">  2  5  1 -1</clus>
</clustering>
</event>
<event>
 9    2  0.3402837E-005  0.1708814E+03  0.7546771E-02  0.1178433E+00
         -1   -1    0    0    0  501 -0.00000000000E+00  0.00000000000E+00  0.35309491960E+03  0.35309491960E+03  0.00000000000E+00 0.  1.
          2   -1    0    0  502    0  0.00000000000E+00 -0.00000000000E+00 -0.63218848578E+03  0.63218848578E+03  0.00000000000E+00 0. -1.
         23    2    1    2    0    0  0.16170973579E+03 -0.61702671760E+02 -0.19371282831E+03  0.27531970426E+03  0.91208669267E+02 0.  0.
         24    2    1    2    0    0 -0.85544138468E+02  0.11063426313E+03 -0.37413139224E+03  0.40735431719E+03  0.80034375560E+02 0.  0.
        -13    1    4    4    0    0 -0.31312934484E+02 -0.58586052121E+01 -0.59421726538E+02  0.67422286418E+02  0.00000000000E+00 0.  1.
         14    1    4    4    0    0 -0.54231203984E+02  0.11649286835E+03 -0.31470966570E+03  0.33993203077E+03  0.00000000000E+00 0. -1.
        -11    1    3    3    0    0  0.38343559269E+02 -0.60519940311E+02 -0.60707866641E+02  0.93905999727E+02  0.00000000000E+00 0.  1.
         11    1    3    3    0    0  0.12336617652E+03 -0.11827314490E+01 -0.13300496167E+03  0.18141370453E+03  0.00000000000E+00 0. -1.
         21    1    1    2  502  501 -0.76165597324E+02 -0.48931591373E+02  0.28875065436E+03  0.30260938393E+03  0.00000000000E+00 0.  1.
<scales pt_clust_5="13000.00000" pt_clust_6="13000.00000" pt_clust_7="13000.00000" pt_clust_8="13000.00000" pt_clust_9="90.52899"></scales>
<clustering>
<clus scale="   80.034">  5  6 -1 -1</clus>
<clus scale="   90.529">  1  9  2 -1</clus>
<clus scale="   91.209">  7  8 -1 -1</clus>
<clus scale="  165.188">  2  5  1 -1</clus>
<clus scale="  165.188">  2  5  1 -1</clus>
</clustering>
</event>
<event>
 9    2  0.3402837E-005  0.9439655E+02  0.7546771E-02  0.1297958E+00
          2   -1    0    0  502    0  0.00000000000E+00  0.00000000000E+00  0.19793580507E+03  0.19793580507E+03  0.00000000000E+00 0. -1.
         -1   -1    0    0    0  501 -0.00000000000E+00 -0.00000000000E+00 -0.86582040776E+02  0.86582040776E+02  0.00000000000E+00 0.  1.
         23    2    1    2    0    0  0.29203913022E+02  0.49860042333E+01 -0.27879521396E+02  0.99426831224E+02  0.90723195931E+02 0.  0.
         24    2    1    2    0    0 -0.14152412306E+02  0.22776143840E+02  0.12225154651E+03  0.14923485748E+03  0.81280739172E+02 0.  0.
        -11    1    4    4    0    0 -0.53331925057E+01 -0.30702363566E+02  0.49943677313E+02  0.58868064130E+02  0.00000000000E+00 0.  1.
         12    1    4    4    0    0 -0.88192198004E+01  0.53478507407E+02  0.72307869201E+02  0.90366793352E+02  0.00000000000E+00 0. -1.
        -11    1    3    3    0    0 -0.44408759836E+01 -0.34001854925E+02 -0.33106630833E+02  0.47664415689E+02  0.00000000000E+00 0.  1.
         11    1    3    3    0    0  0.33644789005E+02  0.38987859158E+02  0.52271094364E+01  0.51762415535E+02  0.00000000000E+00 0. -1.
         21    1    1    2  502  501 -0.15051500716E+02 -0.27762148074E+02  0.16981739175E+02  0.35856157140E+02  0.00000000000E+00 0.  1.
<scales pt_clust_5="13000.00000" pt_clust_6="13000.00000" pt_clust_7="13000.00000" pt_clust_8="13000.00000" pt_clust_9="31.57981"></scales>
<clustering>
<clus scale="   31.580">  1  9  2 -1</clus>
<clus scale="   81.281">  5  6 -1 -1</clus>
<clus scale="   85.361">  1  5  2 -1</clus>
<clus scale="   90.723">  7  8 -1 -1</clus>
<clus scale="   31.580">  1  5  2 -1</clus>
</clustering>
</event>
<event>
 9    2  0.3402837E-005  0.1180489E+03  0.7546771E-02  0.1253431E+00
         -1   -1    0    0    0  501 -0.00000000000E+00  0.00000000000E+00  0.11357114958E+03  0.11357114958E+03  0.00000000000E+00 0.  1.
          2   -1    0    0  502    0  0.00000000000E+00 -0.00000000000E+00 -0.19418118950E+03  0.19418118950E+03  0.00000000000E+00 0. -1.
         23    2    1    2    0    0  0.72201281045E+02  0.14873066583E+02 -0.34858123437E+01  0.12345095092E+03  0.98963393739E+02 0.  0.
         24    2    1    2    0    0 -0.48984120977E+02 -0.39859472745E+02 -0.10046527191E+03  0.14297147932E+03  0.79745541337E+02 0.  0.
        -13    1    4    4    0    0  0.39052566164E+01 -0.35569721261E+02 -0.77085617715E+02  0.84986166864E+02  0.00000000000E+00 0.  1.
         14    1    4    4    0    0 -0.52889377594E+02 -0.42897514847E+01 -0.23379654192E+02  0.57985312452E+02  0.00000000000E+00 0. -1.
        -11    1    3    3    0    0  0.15378241773E+02 -0.37436501168E+02  0.16446467057E+02  0.43686018568E+02  0.00000000000E+00 0.  1.
         11    1    3    3    0    0  0.56823039272E+02  0.52309567751E+02 -0.19932279400E+02  0.79764932348E+02  0.00000000000E+00 0. -1.
         21    1    1    2  502  501 -0.23217160068E+02  0.24986406162E+02  0.23341044328E+02  0.41329908841E+02  0.00000000000E+00 0. -1.
<scales pt_clust_5="13000.00000" pt_clust_6="13000.00000" pt_clust_7="13000.00000" pt_clust_8="13000.00000" pt_clust_9="34.10802"></scales>
<clustering>
<clus scale="   34.108">  1  9  2 -1</clus>
<clus scale="   79.746">  5  6 -1 -1</clus>
<clus scale="   98.963">  7  8 -1 -1</clus>
<clus scale="  102.475">  2  5  1 -1</clus>
<clus scale="  102.475">  2  5  1 -1</clus>
</clustering>
</event>
<event>
 9    2  0.3402837E-005  0.1016227E+03  0.7546771E-02  0.1282704E+00
         -1   -1    0    0    0  501 -0.00000000000E+00  0.00000000000E+00  0.24374905883E+03  0.24374905883E+03  0.00000000000E+00 0.  1.
          2   -1    0    0  502    0  0.00000000000E+00 -0.00000000000E+00 -0.37467439999E+03  0.37467439999E+03  0.00000000000E+00 0. -1.
         23    2    1    2    0    0  0.25553192677E+02  0.12872268116E+02  0.53357851644E+02  0.11017773781E+03  0.92051141405E+02 0.  0.
         24    2    1    2    0    0 -0.44205509887E+02 -0.27633221982E+01 -0.33946972987E+03  0.35161570789E+03  0.80200657628E+02 0.  0.
        -13    1    4    4    0    0  0.14449524145E+02  0.23126173485E+02 -0.90139187401E+02  0.94173678665E+02  0.00000000000E+00 0.  1.
         14    1    4    4    0    0 -0.58655034032E+02 -0.25889495684E+02 -0.24933054247E+03  0.25744202923E+03  0.00000000000E+00 0. -1.
        -11    1    3    3    0    0 -0.33019394885E+02  0.15952853921E+02  0.12690331406E+02  0.38804877245E+02  0.00000000000E+00 0. -1.
         11    1    3    3    0    0  0.58572587562E+02 -0.30805858052E+01  0.40667520238E+02  0.71372860563E+02  0.00000000000E+00 0.  1.
         21    1    1    2  502  501  0.18652317210E+02 -0.10108945918E+02  0.15518653707E+03  0.15663001313E+03  0.00000000000E+00 0.  1.
<scales pt_clust_5="13000.00000" pt_clust_6="13000.00000" pt_clust_7="13000.00000" pt_clust_8="13000.00000" pt_clust_9="21.21555"></scales>
<clustering>
<clus scale="   21.216">  1  9  2 -1</clus>
<clus scale="   80.201">  5  6 -1 -1</clus>
<clus scale="   91.027">  2  5  1 -1</clus>
<clus scale="   92.051">  7  8 -1 -1</clus>
<clus scale="   91.027">  2  5  1 -1</clus>
</clustering>
</event>
<event>
 9    2  0.3402837E-005  0.1049360E+03  0.7546771E-02  0.1280481E+00
         -1   -1    0    0    0  501 -0.00000000000E+00  0.00000000000E+00  0.10085525556E+03  0.10085525556E+03  0.00000000000E+00 0.  1.
          2   -1    0    0  502    0  0.00000000000E+00 -0.00000000000E+00 -0.57967300048E+03  0.57967300048E+03  0.00000000000E+00 0. -1.
         23    2    1    2    0    0  0.28075112966E+02  0.99478568576E+01  0.56483900115E+02  0.11527828352E+03  0.95976454694E+02 0.  0.
         24    2    1    2    0    0  0.65326839269E+01 -0.43548097422E+02 -0.49441173277E+03  0.50201500831E+03  0.75079919596E+02 0.  0.
        -13    1    4    4    0    0  0.86883212882E+00 -0.58921235308E+02 -0.24196462940E+03  0.24903684209E+03  0.00000000000E+00 0.  1.
         14    1    4    4    0    0  0.56638517980E+01  0.15373137886E+02 -0.25244710337E+03  0.25297816622E+03  0.00000000000E+00 0. -1.
        -11    1    3    3    0    0 -0.16503853609E+02  0.30108171902E+02  0.56777384942E+02  0.66351719195E+02  0.00000000000E+00 0. -1.
         11    1    3    3    0    0  0.44578966575E+02 -0.20160315044E+02 -0.29348482766E+00  0.48926564328E+02  0.00000000000E+00 0.  1.
         21    1    1    2  502  501 -0.34607796893E+02  0.33600240564E+02 -0.40889912271E+02  0.63234964199E+02  0.00000000000E+00 0.  1.
<scales pt_clust_5="13000.00000" pt_clust_6="13000.00000" pt_clust_7="13000.00000" pt_clust_8="13000.00000" pt_clust_9="48.23563"></scales>
<clustering>
<clus scale="   48.236">  1  9  2 -1</clus>
<clus scale="   75.080">  5  6 -1 -1</clus>
<clus scale="   86.238">  2  5  1 -1</clus>
<clus scale="   95.976">  7  8 -1 -1</clus>
<clus scale="   86.238">  2  5  1 -1</clus>
</clustering>
</event>
<event>
 9    2  0.3402837E-005  0.1113254E+03  0.7546771E-02  0.1260057E+00
         -1   -1    0    0    0  501 -0.00000000000E+00  0.00000000000E+00  0.81987752661E+02  0.81987752661E+02  0.00000000000E+00 0.  1.
          2   -1    0    0  502    0  0.00000000000E+00 -0.00000000000E+00 -0.34454271948E+03  0.34454271948E+03  0.00000000000E+00 0. -1.
         23    2    1    2    0    0 -0.13387025995E+02 -0.80861876307E+02 -0.11398161145E+03  0.16616546185E+03  0.88889242636E+02 0.  0.
         24    2    1    2    0    0  0.48945346926E+02  0.42612867716E+02 -0.17290915621E+03  0.20274893573E+03  0.83654355282E+02 0.  0.
        -13    1    4    4    0    0  0.25579980103E+02 -0.24020256671E+02 -0.52021195156E+02  0.62749604446E+02  0.00000000000E+00 0.  1.
         14    1    4    4    0    0  0.23365366824E+02  0.66633124387E+02 -0.12088796105E+03  0.13999933128E+03  0.00000000000E+00 0. -1.
        -13    1    3    3    0    0 -0.26480906945E+02 -0.48911637235E+02 -0.11892060332E+03  0.13128479190E+03  0.00000000000E+00 0. -1.
         13    1    3    3    0    0  0.13093880950E+02 -0.31950239072E+02  0.49389918713E+01  0.34880669945E+02  0.00000000000E+00 0.  1.
         21    1    1    2  502  501 -0.35558320931E+02  0.38249008591E+02  0.24335800843E+02  0.57616074565E+02  0.00000000000E+00 0. -1.
<scales pt_clust_5="13000.00000" pt_clust_6="13000.00000" pt_clust_7="13000.00000" pt_clust_8="13000.00000" pt_clust_9="52.22433"></scales>
<clustering>
<clus scale="   52.224">  1  9  2 -1</clus>
<clus scale="   83.654">  5  6 -1 -1</clus>
<clus scale="   88.889">  7  8 -1 -1</clus>
<clus scale="  107.192">  2  5  1 -1</clus>
<clus scale="  107.192">  2  5  1 -1</clus>
</clustering>
</event>
<event>
 9    2  0.3402837E-005  0.9646694E+02  0.7546771E-02  0.1293563E+00
         -1   -1    0    0    0  501 -0.00000000000E+00  0.00000000000E+00  0.58593913359E+02  0.58593913359E+02  0.00000000000E+00 0.  1.
          2   -1    0    0  502    0  0.00000000000E+00 -0.00000000000E+00 -0.59139154700E+03  0.59139154700E+03  0.00000000000E+00 0. -1.
         23    2    1    2    0    0  0.34559305780E+02 -0.25952582131E+02 -0.10935624286E+03  0.14835410094E+03  0.90455896858E+02 0.  0.
         24    2    1    2    0    0 -0.13858284334E+02  0.29195087953E+02 -0.45534890553E+03  0.46345891346E+03  0.80044571896E+02 0.  0.
        -13    1    4    4    0    0  0.27721188025E+02  0.33990295596E+02 -0.20552518619E+03  0.21015329314E+03  0.00000000000E+00 0.  1.
         14    1    4    4    0    0 -0.41579472359E+02 -0.47952076424E+01 -0.24982371934E+03  0.25330562032E+03  0.00000000000E+00 0. -1.
        -13    1    3    3    0    0  0.41951152465E+02 -0.48021674107E+02 -0.10752197494E+03  0.12500782164E+03  0.00000000000E+00 0. -1.
         13    1    3    3    0    0 -0.73918466851E+01  0.22069091976E+02 -0.18342679255E+01  0.23346279295E+02  0.00000000000E+00 0.  1.
         21    1    1    2  502  501 -0.20701021446E+02 -0.32425058227E+01  0.31907514755E+02  0.38172445962E+02  0.00000000000E+00 0.  1.
<scales pt_clust_5="13000.00000" pt_clust_6="13000.00000" pt_clust_7="13000.00000" pt_clust_8="13000.00000" pt_clust_9="20.95343"></scales>
<clustering>
<clus scale="   20.953">  1  9  2 -1</clus>
<clus scale="   80.045">  5  6 -1 -1</clus>
<clus scale="   86.780">  2  5  1 -1</clus>
<clus scale="   90.456">  7  8 -1 -1</clus>
<clus scale="   86.780">  2  5  1 -1</clus>
</clustering>
</event>
<event>
 9    2  0.3402837E-005  0.1501376E+03  0.7546771E-02  0.1203087E+00
         -1   -1    0    0    0  501 -0.00000000000E+00  0.00000000000E+00  0.13867193296E+03  0.13867193296E+03  0.00000000000E+00 0.  1.
          2   -1    0    0  502    0  0.00000000000E+00 -0.00000000000E+00 -0.42784786010E+03  0.42784786010E+03  0.00000000000E+00 0. -1.
         23    2    1    2    0    0 -0.10647696558E+03  0.84497734434E+01  0.50724502380E+02  0.14833236127E+03  0.89558759420E+02 0.  0.
         24    2    1    2    0    0  0.11280651646E+03 -0.49585083052E+02 -0.34736035406E+03  0.37590472391E+03  0.73899629692E+02 0.  0.
        -13    1    4    4    0    0  0.14654659023E+02  0.18203244518E+02 -0.75292723540E+02  0.78835977575E+02  0.00000000000E+00 0.  1.
         14    1    4    4    0    0  0.98151857434E+02 -0.67788327570E+02 -0.27206763052E+03  0.29706874634E+03  0.00000000000E+00 0. -1.
        -11    1    3    3    0    0 -0.26296904689E+02  0.55444538698E+00 -0.26066340115E+02  0.37030915367E+02  0.00000000000E+00 0. -1.
         11    1    3    3    0    0 -0.80180060886E+02  0.78953280564E+01  0.76790842496E+02  0.11130144590E+03  0.00000000000E+00 0.  1.
         21    1    1    2  502  501 -0.63295508821E+01  0.41135309608E+02  0.74599245431E+01  0.42282707874E+02  0.00000000000E+00 0.  1.
<scales pt_clust_5="13000.00000" pt_clust_6="13000.00000" pt_clust_7="13000.00000" pt_clust_8="13000.00000" pt_clust_9="41.61943"></scales>
<clustering>
<clus scale="   41.619">  1  9  2 -1</clus>
<clus scale="   73.900">  5  6 -1 -1</clus>
<clus scale="   89.559">  7  8 -1 -1</clus>
<clus scale="  141.357">  2  5  1 -1</clus>
<clus scale="  141.357">  2  5  1 -1</clus>
</clustering>
</event>
<event>
 9    2  0.3402837E-005  0.1063823E+03  0.7546771E-02  0.1270647E+00
          2   -1    0    0  502    0  0.00000000000E+00  0.00000000000E+00  0.44241058605E+02  0.44241058605E+02  0.00000000000E+00 0. -1.
         -1   -1    0    0    0  501 -0.00000000000E+00 -0.00000000000E+00 -0.40718467275E+03  0.40718467275E+03  0.00000000000E+00 0.  1.
         23    2    1    2    0    0  0.45399110409E+02  0.45521695860E+01 -0.19919434222E+03  0.22228338661E+03  0.87462657846E+02 0.  0.
         24    2    1    2    0    0 -0.58873630167E+02 -0.35035499975E+02 -0.61588170670E+02  0.12168218131E+03  0.79497546475E+02 0.  0.
        -13    1    4    4    0    0 -0.53399037282E+02  0.51787580119E+01 -0.76679338585E+01  0.54194777672E+02  0.00000000000E+00 0.  1.
         14    1    4    4    0    0 -0.54745928848E+01 -0.40214257987E+02 -0.53920236811E+02  0.67487403643E+02  0.00000000000E+00 0. -1.
        -13    1    3    3    0    0  0.50745569062E+02 -0.28274052334E+02 -0.16341772484E+03  0.17343554309E+03  0.00000000000E+00 0.  1.
         13    1    3    3    0    0 -0.53464586534E+01  0.32826221920E+02 -0.35776617383E+02  0.48847843525E+02  0.00000000000E+00 0. -1.
         21    1    1    2  502  501  0.13474519758E+02  0.30483330389E+02 -0.10216110125E+03  0.10746016342E+03  0.00000000000E+00 0.  1.
<scales pt_clust_5="13000.00000" pt_clust_6="13000.00000" pt_clust_7="13000.00000" pt_clust_8="13000.00000" pt_clust_9="33.32861"></scales>
<clustering>
<clus scale="   33.329">  2  9  1 -1</clus>
<clus scale="   79.498">  5  6 -1 -1</clus>
<clus scale="   87.463">  7  8 -1 -1</clus>
<clus scale="   99.937">  1  5  2 -1</clus>
<clus scale="   99.937">  1  5  2 -1</clus>
</clustering>
</event>
<event>
 9    2  0.3402837E-005  0.1343811E+03  0.7546771E-02  0.1223472E+00
         -1   -1    0    0    0  501 -0.00000000000E+00  0.00000000000E+00  0.15161988815E+03  0.15161988815E+03  0.00000000000E+00 0.  1.
          2   -1    0    0  502    0  0.00000000000E+00 -0.00000000000E+00 -0.59526008072E+03  0.59526008072E+03  0.00000000000E+00 0. -1.
         24    2    1    2    0    0 -0.12547016532E+03 -0.48254205163E+01  0.78904036391E+02  0.16902981072E+03  0.81112162359E+02 0.  0.
         23    2    1    2    0    0  0.97046348695E+02  0.24825573378E+01 -0.53153771356E+03  0.54794555775E+03  0.91037555117E+02 0.  0.
        -11    1    3    3    0    0 -0.56909121152E+02  0.52661741658E+01  0.81662470551E+02  0.99675171217E+02  0.00000000000E+00 0.  1.
         12    1    3    3    0    0 -0.68561044172E+02 -0.10091594682E+02 -0.27584341594E+01  0.69354639500E+02  0.00000000000E+00 0. -1.
        -13    1    4    4    0    0 -0.85668014874E+01  0.23217453695E+02 -0.12324475141E+03  0.12570484873E+03  0.00000000000E+00 0.  1.
         13    1    4    4    0    0  0.10561315018E+03 -0.20734896357E+02 -0.40829296215E+03  0.42224070903E+03  0.00000000000E+00 0. -1.
         21    1    1    2  502  501  0.28423816630E+02  0.23428631784E+01  0.89934845983E+01  0.29904600397E+02  0.00000000000E+00 0.  1.
<scales pt_clust_5="13000.00000" pt_clust_6="13000.00000" pt_clust_7="13000.00000" pt_clust_8="13000.00000" pt_clust_9="28.52021"></scales>
<clustering>
<clus scale="   28.520">  1  9  2 -1</clus>
<clus scale="   81.112">  5  6 -1 -1</clus>
<clus scale="   91.038">  7  8 -1 -1</clus>
<clus scale="  127.866">  1  5  2 -1</clus>
<clus scale="  134.381">  2  5  1 -1</clus>
</clustering>
</event>
<event>
 9    2  0.3402837E-005  0.1129731E+03  0.7546771E-02  0.1258846E+00
          2   -1    0    0  502    0  0.00000000000E+00  0.00000000000E+00  0.16727163654E+03  0.16727163654E+03  0.00000000000E+00 0. -1.
         -1   -1    0    0    0  501 -0.00000000000E+00 -0.00000000000E+00 -0.17436893280E+03  0.17436893280E+03  0.00000000000E+00 0.  1.
         23    2    1    2    0    0  0.15040016417E+02 -0.62652507099E+02 -0.11801307347E+03  0.16243537377E+03  0.91140695643E+02 0.  0.
         24    2    1    2    0    0 -0.72174502355E+01  0.81222646720E+02  0.10982830188E+03  0.15902537323E+03  0.81102426031E+02 0.  0.
        -11    1    4    4    0    0  0.27146701736E+02  0.66749678780E+01  0.97913551879E+01  0.29620419439E+02  0.00000000000E+00 0.  1.
         12    1    4    4    0    0 -0.34364151972E+02  0.74547678842E+02  0.10003694669E+03  0.12940495379E+03  0.00000000000E+00 0. -1.
        -11    1    3    3    0    0  0.23323047994E+02 -0.21851965342E+02 -0.11646827719E+03  0.12077389017E+03  0.00000000000E+00 0.  1.
         11    1    3    3    0    0 -0.82830315765E+01 -0.40800541757E+02 -0.15447962824E+01  0.41661483595E+02  0.00000000000E+00 0. -1.
         21    1    1    2  502  501 -0.78225661818E+01 -0.18570139621E+02  0.10874753382E+01  0.20179822344E+02  0.00000000000E+00 0.  1.
<scales pt_clust_5="13000.00000" pt_clust_6="13000.00000" pt_clust_7="13000.00000" pt_clust_8="13000.00000" pt_clust_9="20.15050"></scales>
<clustering>
<clus scale="   20.150">  1  9  2 -1</clus>
<clus scale="   81.102">  5  6 -1 -1</clus>
<clus scale="   91.141">  7  8 -1 -1</clus>
<clus scale="  105.042">  1  5  2 -1</clus>
<clus scale="   20.150">  1  5  2 -1</clus>
</clustering>
</event>
<event>
 9    2  0.3402837E-005  0.1729633E+03  0.7546771E-02  0.1176173E+00
         -1   -1    0    0    0  501 -0.00000000000E+00  0.00000000000E+00  0.12129557730E+03  0.12129557730E+03  0.00000000000E+00 0.  1.
          2   -1    0    0  502    0  0.00000000000E+00 -0.00000000000E+00 -0.70635478291E+03  0.70635478291E+03  0.00000000000E+00 0. -1.
         23    2    1    2    0    0 -0.17436347307E+03  0.15950072310E+03 -0.29744219730E+03  0.39088824246E+03  0.92079617446E+02 0.  0.
         24    2    1    2    0    0  0.44164240289E+02 -0.10738255177E+03 -0.25643223761E+03  0.29309363157E+03  0.81638788800E+02 0.  0.
        -13    1    4    4    0    0  0.55550315179E+02 -0.98092810243E+02 -0.16103592658E+03  0.19657214093E+03  0.00000000000E+00 0.  1.
         14    1    4    4    0    0 -0.11386074889E+02 -0.92897415312E+01 -0.95396311025E+02  0.96521490645E+02  0.00000000000E+00 0. -1.
        -13    1    3    3    0    0 -0.48912379863E+02  0.36781424225E+02 -0.14883943346E+03  0.16093001903E+03  0.00000000000E+00 0.  1.
         13    1    3    3    0    0 -0.12545109321E+03  0.12271929887E+03 -0.14860276384E+03  0.22995822343E+03  0.00000000000E+00 0. -1.
         21    1    1    2  502  501  0.13019923278E+03 -0.52118171322E+02 -0.31184770706E+02  0.14366848619E+03  0.00000000000E+00 0.  1.
<scales pt_clust_5="13000.00000" pt_clust_6="13000.00000" pt_clust_7="13000.00000" pt_clust_8="13000.00000" pt_clust_9="140.24316"></scales>
<clustering>
<clus scale="   81.639">  5  6 -1 -1</clus>
<clus scale="   92.080">  7  8 -1 -1</clus>
<clus scale="  140.243">  1  9  2 -1</clus>
<clus scale="  167.638">  2  5  1 -1</clus>
<clus scale="  167.638">  2  5  1 -1</clus>
</clustering>
</event>
<event>
 9    2  0.3402837E-005  0.2492177E+03  0.7546771E-02  0.1133987E+00
          2   -1    0    0  502    0  0.00000000000E+00  0.00000000000E+00  0.68065667922E+03  0.68065667922E+03  0.00000000000E+00 0. -1.
         -1   -1    0    0    0  501 -0.00000000000E+00 -0.00000000000E+00 -0.26406305116E+03  0.26406305116E+03  0.00000000000E+00 0.  1.
         23    2    1    2    0    0  0.55616551058E+02  0.10600768986E+03 -0.74243608950E+02  0.16822517573E+03  0.91960672125E+02 0.  0.
         24    2    1    2    0    0  0.17002686455E+03  0.14617774346E+02 -0.34788373089E+02  0.19190261526E+03  0.80582683278E+02 0.  0.
        -11    1    4    4    0    0  0.79960910587E+02  0.31723233955E+02  0.15394400564E+02  0.87390493552E+02  0.00000000000E+00 0.  1.
         12    1    4    4    0    0  0.90065953963E+02 -0.17105459608E+02 -0.50182773653E+02  0.10451212170E+03  0.00000000000E+00 0. -1.
        -13    1    3    3    0    0  0.37157860433E+02  0.43225463261E+02  0.13681893528E+02  0.58620316245E+02  0.00000000000E+00 0. -1.
         13    1    3    3    0    0  0.18458690625E+02  0.62782226595E+02 -0.87925502478E+02  0.10960485948E+03  0.00000000000E+00 0.  1.
         21    1    1    2  502  501 -0.22564341561E+03 -0.12062546420E+03  0.52562561010E+03  0.58459193940E+03  0.00000000000E+00 0. -1.
<scales pt_clust_5="13000.00000" pt_clust_6="13000.00000" pt_clust_7="13000.00000" pt_clust_8="13000.00000" pt_clust_9="235.83026"></scales>
<clustering>
<clus scale="   80.583">  5  6 -1 -1</clus>
<clus scale="   91.961">  7  8 -1 -1</clus>
<clus scale="  150.956">  2  7  1 -1</clus>
<clus scale="  235.830">  1  9  2 -1</clus>
<clus scale="  235.830">  1  5  2 -1</clus>
</clustering>
</event>
<event>
 9    2  0.3402837E-005  0.1181572E+03  0.7546771E-02  0.1246329E+00
         -3   -1    0    0    0  501 -0.00000000000E+00  0.00000000000E+00  0.16963678146E+03  0.16963678146E+03  0.00000000000E+00 0.  1.
          4   -1    0    0  502    0  0.00000000000E+00 -0.00000000000E+00 -0.21183156220E+03  0.21183156220E+03  0.00000000000E+00 0. -1.
         23    2    1    2    0    0  0.47923010086E+02  0.64533645213E+02  0.11890169657E+03  0.16993884092E+03  0.90996647992E+02 0.  0.
         24    2    1    2    0    0 -0.24939417452E+02 -0.38987613273E+02 -0.13128038395E+03  0.16603395678E+03  0.90502635662E+02 0.  0.
        -11    1    4    4    0    0 -0.21085356615E+02  0.93545177256E+01  0.30030317705E+01  0.23261931676E+02  0.00000000000E+00 0.  1.
         12    1    4    4    0    0 -0.38540608372E+01 -0.48342130999E+02 -0.13428341572E+03  0.14277202510E+03  0.00000000000E+00 0. -1.
        -11    1    3    3    0    0  0.70918686701E+02  0.61139525642E+02  0.73884499443E+02  0.11927456132E+03  0.00000000000E+00 0.  1.
         11    1    3    3    0    0 -0.22995676614E+02  0.33941195712E+01  0.45017197129E+02  0.50664279606E+02  0.00000000000E+00 0. -1.
         21    1    1    2  502  501 -0.22983592634E+02 -0.25546031939E+02 -0.29816093368E+02  0.45495545957E+02  0.00000000000E+00 0. -1.
<scales pt_clust_5="13000.00000" pt_clust_6="13000.00000" pt_clust_7="13000.00000" pt_clust_8="13000.00000" pt_clust_9="34.36343"></scales>
<clustering>
<clus scale="   34.363">  2  9  1 -1</clus>
<clus scale="   90.503">  5  6 -1 -1</clus>
<clus scale="   90.997">  7  8 -1 -1</clus>
<clus scale="  117.777">  2  5  1 -1</clus>
<clus scale="   34.363">  2  5  1 -1</clus>
</clustering>
</event>
<event>
 9    2  0.3402837E-005  0.1190027E+03  0.7546771E-02  0.1248028E+00
          2   -1    0    0  502    0  0.00000000000E+00  0.00000000000E+00  0.90754007600E+03  0.90754007600E+03  0.00000000000E+00 0. -1.
         -1   -1    0    0    0  501 -0.00000000000E+00 -0.00000000000E+00 -0.27354016379E+02  0.27354016379E+02  0.00000000000E+00 0.  1.
         23    2    1    2    0    0  0.66722277862E+02  0.52790267642E+02  0.19365476357E+03  0.23069179868E+03  0.92075315919E+02 0.  0.
         24    2    1    2    0    0 -0.34771857168E+02 -0.65646162623E+02  0.61418127561E+03  0.62407346696E+03  0.82039942294E+02 0.  0.
        -11    1    4    4    0    0 -0.45020086426E+02 -0.24485371437E+02  0.16213535113E+03  0.17004179980E+03  0.00000000000E+00 0.  1.
         12    1    4    4    0    0  0.10248229258E+02 -0.41160791187E+02  0.45204592448E+03  0.45403166715E+03  0.00000000000E+00 0. -1.
        -13    1    3    3    0    0  0.34176542600E+02  0.19189910605E+02  0.90154279717E+01  0.40218984008E+02  0.00000000000E+00 0.  1.
         13    1    3    3    0    0  0.32545735262E+02  0.33600357037E+02  0.18463933560E+03  0.19047281467E+03  0.00000000000E+00 0. -1.
         21    1    1    2  502  501 -0.31950420694E+02  0.12855894981E+02  0.72350020443E+02  0.80128826750E+02  0.00000000000E+00 0. -1.
<scales pt_clust_5="13000.00000" pt_clust_6="13000.00000" pt_clust_7="13000.00000" pt_clust_8="13000.00000" pt_clust_9="34.43985"></scales>
<clustering>
<clus scale="   34.440">  2  9  1 -1</clus>
<clus scale="   82.040">  5  6 -1 -1</clus>
<clus scale="   92.075">  7  8 -1 -1</clus>
<clus scale="  111.420">  1  5  2 -1</clus>
<clus scale="  111.420">  1  5  2 -1</clus>
</clustering>
</event>
<event>
 9    2  0.3402837E-005  0.1958531E+03  0.7546771E-02  0.1154445E+00
          2   -1    0    0  502    0  0.00000000000E+00  0.00000000000E+00  0.11156342820E+04  0.11156342820E+04  0.00000000000E+00 0. -1.
         -1   -1    0    0    0  501 -0.00000000000E+00 -0.00000000000E+00 -0.13146422499E+03  0.13146422499E+03  0.00000000000E+00 0.  1.
         23    2    1    2    0    0 -0.41362453083E+02 -0.19111614536E+03  0.25576374902E+03  0.33512778510E+03  0.93055378607E+02 0.  0.
         24    2    1    2    0    0 -0.82392850627E+02  0.15551948748E+03  0.75583429197E+03  0.78030906624E+03  0.81374867826E+02 0.  0.
        -13    1    4    4    0    0 -0.33474658557E+02  0.83041107830E+02  0.22224081435E+03  0.23959832620E+03  0.00000000000E+00 0.  1.
         14    1    4    4    0    0 -0.48918192070E+02  0.72478379647E+02  0.53359347762E+03  0.54071074004E+03  0.00000000000E+00 0. -1.
        -13    1    3    3    0    0  0.25882886472E+02 -0.96218453869E+02  0.10556550371E+03  0.14516194491E+03  0.00000000000E+00 0.  1.
         13    1    3    3    0    0 -0.67245339555E+02 -0.94897691494E+02  0.15019824532E+03  0.18996584019E+03  0.00000000000E+00 0. -1.
         21    1    1    2  502  501  0.12375530371E+03  0.35596657886E+02 -0.27427984038E+02  0.13166165561E+03  0.00000000000E+00 0.  1.
<scales pt_clust_5="13000.00000" pt_clust_6="13000.00000" pt_clust_7="13000.00000" pt_clust_8="13000.00000" pt_clust_9="128.77305"></scales>
<clustering>
<clus scale="   81.375">  5  6 -1 -1</clus>
<clus scale="   93.055">  7  8 -1 -1</clus>
<clus scale="  128.773">  2  9  1 -1</clus>
<clus scale="  190.581">  1  5  2 -1</clus>
<clus scale="  190.581">  1  5  2 -1</clus>
</clustering>
</event>
<event>
 9    2  0.3402837E-005  0.9215601E+02  0.7546771E-02  0.1298818E+00
         -1   -1    0    0    0  501 -0.00000000000E+00  0.00000000000E+00  0.10689845235E+04  0.10689845235E+04  0.00000000000E+00 0.  1.
          2   -1    0    0  502    0  0.00000000000E+00 -0.00000000000E+00 -0.31955494044E+02  0.31955494044E+02  0.00000000000E+00 0. -1.
         24    2    1    2    0    0  0.34653601359E+02 -0.11059026566E+01  0.84349386753E+03  0.84903960623E+03  0.90466862852E+02 0.  0.
         23    2    1    2    0    0 -0.14176874699E+02  0.82903394302E+01  0.43009074654E+02  0.99818146026E+02  0.88567309260E+02 0.  0.
        -13    1    3    3    0    0  0.39386612858E+02  0.75712444661E+01  0.14414478432E+03  0.14962067992E+03  0.00000000000E+00 0.  1.
         14    1    3    3    0    0 -0.47330114994E+01 -0.86771471227E+01  0.69934908322E+03  0.69941892631E+03  0.00000000000E+00 0. -1.
        -13    1    4    4    0    0  0.21388958618E+02  0.13775072559E+02  0.56040610592E+02  0.61545025878E+02  0.00000000000E+00 0.  1.
         13    1    4    4    0    0 -0.35565833317E+02 -0.54847331293E+01 -0.13031535938E+02  0.38273120149E+02  0.00000000000E+00 0. -1.
         21    1    1    2  502  501 -0.20476726660E+02 -0.71844367736E+01  0.15052608726E+03  0.15208226528E+03  0.00000000000E+00 0. -1.
<scales pt_clust_5="13000.00000" pt_clust_6="13000.00000" pt_clust_7="13000.00000" pt_clust_8="13000.00000" pt_clust_9="21.70052"></scales>
<clustering>
<clus scale="   21.701">  1  9  2 -1</clus>
<clus scale="   88.567">  7  8 -1 -1</clus>
<clus scale="   90.292">  2  7  1 -1</clus>
<clus scale="   90.467">  5  6 -1 -1</clus>
<clus scale="   90.292">  2  5  1 -1</clus>
</clustering>
</event>
<event>
 9    2  0.3402837E-005  0.1068714E+03  0.7546771E-02  0.1268385E+00
          2   -1    0    0  502    0  0.00000000000E+00  0.00000000000E+00  0.23265975924E+03  0.23265975924E+03  0.00000000000E+00 0. -1.
         -1   -1    0    0    0  501 -0.00000000000E+00 -0.00000000000E+00 -0.77748914541E+02  0.77748914541E+02  0.00000000000E+00 0.  1.
         24    2    1    2    0    0 -0.43042206532E+02 -0.52336110149E+01 -0.35786385020E+01  0.91946430155E+02  0.81001957614E+02 0.  0.
         23    2    1    2    0    0  0.71524725217E+02 -0.72482613453E+01  0.14807518268E+03  0.18566729487E+03  0.85893894145E+02 0.  0.
        -11    1    3    3    0    0 -0.52235419773E+02 -0.24007551733E+02 -0.24390907244E+02  0.62448522603E+02  0.00000000000E+00 0.  1.
         12    1    3    3    0    0  0.91932132412E+01  0.18773940718E+02  0.20812268742E+02  0.29497907552E+02  0.00000000000E+00 0. -1.
        -11    1    4    4    0    0  0.38377319433E+02  0.11374975629E+02  0.14153741243E+03  0.14708857139E+03  0.00000000000E+00 0.  1.
         11    1    4    4    0    0  0.33147405784E+02 -0.18623236974E+02  0.65377702468E+01  0.38578723481E+02  0.00000000000E+00 0. -1.
         21    1    1    2  502  501 -0.28482518685E+02  0.12481872360E+02  0.10414300525E+02  0.32794948752E+02  0.00000000000E+00 0. -1.
<scales pt_clust_5="13000.00000" pt_clust_6="13000.00000" pt_clust_7="13000.00000" pt_clust_8="13000.00000" pt_clust_9="31.09744"></scales>
<clustering>
<clus scale="   31.097">  2  9  1 -1</clus>
<clus scale="   81.002">  5  6 -1 -1</clus>
<clus scale="   85.894">  7  8 -1 -1</clus>
<clus scale="  102.981">  2  5  1 -1</clus>
<clus scale="  106.871">  1  5  2 -1</clus>
</clustering>
</event>
<event>
 9    2  0.3402837E-005  0.1652310E+03  0.7546771E-02  0.1184122E+00
         -1   -1    0    0    0  501 -0.00000000000E+00  0.00000000000E+00  0.12818295450E+03  0.12818295450E+03  0.00000000000E+00 0.  1.
          2   -1    0    0  502    0  0.00000000000E+00 -0.00000000000E+00 -0.90052161520E+03  0.90052161520E+03  0.00000000000E+00 0. -1.
         23    2    1    2    0    0 -0.14221981535E+02 -0.20122759331E+03 -0.14168825938E+03  0.26301598900E+03  0.91689904329E+02 0.  0.
         24    2    1    2    0    0  0.15804119808E+02  0.12731657520E+03 -0.66626902109E+03  0.68362745816E+03  0.83503368567E+02 0.  0.
        -13    1    4    4    0    0  0.29482226805E+02  0.29127483428E+02 -0.92544322930E+02  0.10140051131E+03  0.00000000000E+00 0.  1.
         14    1    4    4    0    0 -0.13678106997E+02  0.98189091768E+02 -0.57372469816E+03  0.58222694685E+03  0.00000000000E+00 0. -1.
        -13    1    3    3    0    0 -0.29567009261E+02 -0.12915746886E+03 -0.41890374151E+02  0.13896281246E+03  0.00000000000E+00 0.  1.
         13    1    3    3    0    0  0.15345027726E+02 -0.72070124441E+02 -0.99797885232E+02  0.12405317654E+03  0.00000000000E+00 0. -1.
         21    1    1    2  502  501 -0.15821382725E+01  0.73911018109E+02  0.35618619775E+02  0.82061122550E+02  0.00000000000E+00 0.  1.
<scales pt_clust_5="13000.00000" pt_clust_6="13000.00000" pt_clust_7="13000.00000" pt_clust_8="13000.00000" pt_clust_9="73.92795"></scales>
<clustering>
<clus scale="   73.928">  1  9  2 -1</clus>
<clus scale="   83.503">  5  6 -1 -1</clus>
<clus scale="   91.690">  7  8 -1 -1</clus>
<clus scale="  160.832">  2  5  1 -1</clus>
<clus scale="  160.832">  2  5  1 -1</clus>
</clustering>
</event>
<event>
 9    2  0.3402837E-005  0.9448386E+02  0.7546771E-02  0.1298750E+00
         -3   -1    0    0    0  501 -0.00000000000E+00  0.00000000000E+00  0.47073808811E+02  0.47073808811E+02  0.00000000000E+00 0.  1.
          4   -1    0    0  502    0  0.00000000000E+00 -0.00000000000E+00 -0.36002223080E+03  0.36002223080E+03  0.00000000000E+00 0. -1.
         23    2    1    2    0    0 -0.12197441964E+02 -0.30279944362E+02 -0.65689879163E+02  0.11715928146E+03  0.91353622732E+02 0.  0.
         24    2    1    2    0    0  0.27733485368E+02 -0.10165006896E+02 -0.22601501156E+03  0.24168273918E+03  0.80344803121E+02 0.  0.
        -13    1    4    4    0    0  0.25326340737E+02  0.33364807482E+02 -0.10442314671E+03  0.11251145489E+03  0.00000000000E+00 0.  1.
         14    1    4    4    0    0  0.24071446314E+01 -0.43529814378E+02 -0.12159186485E+03  0.12917128428E+03  0.00000000000E+00 0. -1.
        -13    1    3    3    0    0 -0.33176457408E+02  0.22444439358E+02 -0.23404437400E+02  0.46391786711E+02  0.00000000000E+00 0.  1.
         13    1    3    3    0    0  0.20979015444E+02 -0.52724383720E+02 -0.42285441764E+02  0.70767494747E+02  0.00000000000E+00 0. -1.
         21    1    1    2  502  501 -0.15536043404E+02  0.40444951258E+02 -0.21243531264E+02  0.48254018978E+02  0.00000000000E+00 0.  1.
<scales pt_clust_5="13000.00000" pt_clust_6="13000.00000" pt_clust_7="13000.00000" pt_clust_8="13000.00000" pt_clust_9="43.32624"></scales>
<clustering>
<clus scale="   43.326">  1  9  2 -1</clus>
<clus scale="   80.345">  5  6 -1 -1</clus>
<clus scale="   83.887">  2  5  1 -1</clus>
<clus scale="   91.354">  7  8 -1 -1</clus>
<clus scale="   83.887">  2  5  1 -1</clus>
</clustering>
</event>
<event>
 9    2  0.3402837E-005  0.1513596E+03  0.7546771E-02  0.1200859E+00
          2   -1    0    0  502    0  0.00000000000E+00  0.00000000000E+00  0.19638291266E+03  0.19638291266E+03  0.00000000000E+00 0. -1.
         -1   -1    0    0    0  501 -0.00000000000E+00 -0.00000000000E+00 -0.24877697084E+03  0.24877697084E+03  0.00000000000E+00 0.  1.
         24    2    1    2    0    0  0.10249607256E+03  0.88991150083E+02 -0.12041034310E+03  0.19849731739E+03  0.80483940010E+02 0.  0.
         23    2    1    2    0    0 -0.80546506553E+02 -0.84873948106E+02  0.11934340271E+03  0.19068750184E+03  0.91801681914E+02 0.  0.
        -11    1    3    3    0    0  0.10879412250E+03  0.53277776191E+02 -0.98470814156E+02  0.15611272775E+03  0.00000000000E+00 0.  1.
         12    1    3    3    0    0 -0.62980499386E+01  0.35713373893E+02 -0.21939528948E+02  0.42384589632E+02  0.00000000000E+00 0. -1.
        -11    1    4    4    0    0 -0.40230460146E+02 -0.66072609880E+02  0.17154670384E+02  0.79236118127E+02  0.00000000000E+00 0.  1.
         11    1    4    4    0    0 -0.40316046407E+02 -0.18801338226E+02  0.10218873232E+03  0.11145138371E+03  0.00000000000E+00 0. -1.
         21    1    1    2  502  501 -0.21949566008E+02 -0.41172019775E+01 -0.51327117789E+02  0.55975064275E+02  0.00000000000E+00 0. -1.
<scales pt_clust_5="13000.00000" pt_clust_6="13000.00000" pt_clust_7="13000.00000" pt_clust_8="13000.00000" pt_clust_9="22.33237"></scales>
<clustering>
<clus scale="   22.332">  2  9  1 -1</clus>
<clus scale="   80.484">  5  6 -1 -1</clus>
<clus scale="   91.802">  7  8 -1 -1</clus>
<clus scale="  144.775">  2  5  1 -1</clus>
<clus scale="  151.360">  1  5  2 -1</clus>
</clustering>
</event>
<event>
 9    2  0.3402837E-005  0.1345915E+03  0.7546771E-02  0.1224386E+00
          2   -1    0    0  502    0  0.00000000000E+00  0.00000000000E+00  0.69356874529E+02  0.69356874529E+02  0.00000000000E+00 0. -1.
         -1   -1    0    0    0  501 -0.00000000000E+00 -0.00000000000E+00 -0.43692711696E+03  0.43692711696E+03  0.00000000000E+00 0.  1.
         23    2    1    2    0    0  0.99559947368E+02 -0.28981327159E+02 -0.33591942361E+03  0.36329475373E+03  0.91592131152E+02 0.  0.
         24    2    1    2    0    0 -0.76554078624E+02  0.23108773566E+02 -0.10553165695E+02  0.11122655761E+03  0.76586130874E+02 0.  0.
        -13    1    4    4    0    0 -0.63279334291E+02  0.34003280670E+02 -0.36136797513E+02  0.80413713875E+02  0.00000000000E+00 0.  1.
         14    1    4    4    0    0 -0.13274744333E+02 -0.10894507104E+02  0.25583631818E+02  0.30812843737E+02  0.00000000000E+00 0. -1.
        -13    1    3    3    0    0 -0.49191582579E+01 -0.25148230526E+02 -0.27276553134E+02  0.37425151535E+02  0.00000000000E+00 0. -1.
         13    1    3    3    0    0  0.10447910563E+03 -0.38330966329E+01 -0.30864287047E+03  0.32586960220E+03  0.00000000000E+00 0.  1.
         21    1    1    2  502  501 -0.23005868744E+02  0.58725535925E+01 -0.21097653124E+02  0.31762680141E+02  0.00000000000E+00 0.  1.
<scales pt_clust_5="13000.00000" pt_clust_6="13000.00000" pt_clust_7="13000.00000" pt_clust_8="13000.00000" pt_clust_9="23.74357"></scales>
<clustering>
<clus scale="   23.744">  1  9  2 -1</clus>
<clus scale="   76.586">  5  6 -1 -1</clus>
<clus scale="   91.592">  7  8 -1 -1</clus>
<clus scale="  124.865">  1  5  2 -1</clus>
<clus scale="   23.744">  1  5  2 -1</clus>
</clustering>
</event>
<event>
 9    2  0.3402837E-005  0.1000537E+03  0.7546771E-02  0.1284212E+00
         -3   -1    0    0    0  501 -0.00000000000E+00  0.00000000000E+00  0.15441375739E+03  0.15441375739E+03  0.00000000000E+00 0.  1.
          4   -1    0    0  502    0  0.00000000000E+00 -0.00000000000E+00 -0.11632570540E+03  0.11632570540E+03  0.00000000000E+00 0. -1.
         23    2    1    2    0    0  0.22314594289E+02  0.23048524332E+02  0.41825634454E+02  0.10412331339E+03  0.89794794407E+02 0.  0.
         24    2    1    2    0    0 -0.88161370329E+01 -0.49790502818E+02 -0.52527136634E+02  0.10936440394E+03  0.81514749116E+02 0.  0.
        -11    1    4    4    0    0  0.26206784670E+01  0.22174501592E+02 -0.68184209665E+01  0.23346677300E+02  0.00000000000E+00 0.  1.
         12    1    4    4    0    0 -0.11436815500E+02 -0.71965004411E+02 -0.45708715668E+02  0.86017726642E+02  0.00000000000E+00 0. -1.
        -11    1    3    3    0    0  0.49482613091E+01 -0.30776317958E+02 -0.38727672539E+01  0.31411229891E+02  0.00000000000E+00 0. -1.
         11    1    3    3    0    0  0.17366332980E+02  0.53824842290E+02  0.45698401708E+02  0.72712083504E+02  0.00000000000E+00 0.  1.
         21    1    1    2  502  501 -0.13498457256E+02  0.26741978486E+02  0.48789554173E+02  0.57251745458E+02  0.00000000000E+00 0.  1.
<scales pt_clust_5="13000.00000" pt_clust_6="13000.00000" pt_clust_7="13000.00000" pt_clust_8="13000.00000" pt_clust_9="29.95566"></scales>
<clustering>
<clus scale="   29.956">  1  9  2 -1</clus>
<clus scale="   81.515">  5  6 -1 -1</clus>
<clus scale="   89.795">  7  8 -1 -1</clus>
<clus scale="   92.695">  2  5  1 -1</clus>
<clus scale="   92.695">  2  5  1 -1</clus>
</clustering>
</event>
<event>
 9    2  0.3402837E-005  0.1069996E+03  0.7546771E-02  0.1270100E+00
         -1   -1    0    0    0  501 -0.00000000000E+00  0.00000000000E+00  0.54034558197E+02  0.54034558197E+02  0.00000000000E+00 0.  1.
          2   -1    0    0  502    0  0.00000000000E+00 -0.00000000000E+00 -0.36212004383E+03  0.36212004383E+03  0.00000000000E+00 0. -1.
         23    2    1    2    0    0  0.40197526804E+01  0.34160931078E+02 -0.55669667373E+02  0.10769603884E+03  0.85534772421E+02 0.  0.
         24    2    1    2    0    0 -0.56485550959E+02 -0.64483145498E+02 -0.18792536747E+03  0.21996497630E+03  0.75630374449E+02 0.  0.
        -11    1    4    4    0    0 -0.61584631597E+02 -0.15874881778E+02 -0.86350572252E+02  0.10724318183E+03  0.00000000000E+00 0.  1.
         12    1    4    4    0    0  0.50990806377E+01 -0.48608263720E+02 -0.10157479522E+03  0.11272179447E+03  0.00000000000E+00 0. -1.
        -13    1    3    3    0    0 -0.11512917049E+02  0.21083891376E+02 -0.75551361731E+02  0.79278534257E+02  0.00000000000E+00 0. -1.
         13    1    3    3    0    0  0.15532669729E+02  0.13077039702E+02  0.19881694358E+02  0.28417504585E+02  0.00000000000E+00 0.  1.
         21    1    1    2  502  501  0.52465798279E+02  0.30322214420E+02 -0.64490450784E+02  0.88493586879E+02  0.00000000000E+00 0. -1.
<scales pt_clust_5="13000.00000" pt_clust_6="13000.00000" pt_clust_7="13000.00000" pt_clust_8="13000.00000" pt_clust_9="60.59783"></scales>
<clustering>
<clus scale="   60.598">  1  9  2 -1</clus>
<clus scale="   75.630">  5  6 -1 -1</clus>
<clus scale="   85.535">  7  8 -1 -1</clus>
<clus scale="   99.261">  2  5  1 -1</clus>
<clus scale="   99.261">  2  5  1 -1</clus>
</clustering>
</event>
<event>
 9    2  0.3402837E-005  0.1173792E+03  0.7546771E-02  0.1251865E+00
         -1   -1    0    0    0  501 -0.00000000000E+00  0.00000000000E+00  0.17975046573E+03  0.17975046573E+03  0.00000000000E+00 0.  1.
          2   -1    0    0  502    0  0.00000000000E+00 -0.00000000000E+00 -0.23534491800E+03  0.23534491800E+03  0.00000000000E+00 0. -1.
         24    2    1    2    0    0 -0.10659920742E+02  0.74563747163E+02  0.92575993693E+02  0.14245496821E+03  0.77779927095E+02 0.  0.
         23    2    1    2    0    0  0.30937589420E+02 -0.67763186274E+02 -0.19128985829E+03  0.22450814781E+03  0.90901675988E+02 0.  0.
        -13    1    3    3    0    0  0.20210502171E+02  0.12769216453E+01  0.46087207274E+02  0.50340099336E+02  0.00000000000E+00 0.  1.
         14    1    3    3    0    0 -0.30870422913E+02  0.73286825518E+02  0.46488786419E+02  0.92114868876E+02  0.00000000000E+00 0. -1.
        -11    1    4    4    0    0  0.31553176931E+02 -0.89211912480E+02 -0.16817129012E+03  0.19296619166E+03  0.00000000000E+00 0. -1.
         11    1    4    4    0    0 -0.61558751041E+00  0.21448726206E+02 -0.23118568163E+02  0.31541956149E+02  0.00000000000E+00 0.  1.
         21    1    1    2  502  501 -0.20277668678E+02 -0.68005608897E+01  0.43119412328E+02  0.48132267710E+02  0.00000000000E+00 0. -1.
<scales pt_clust_5="13000.00000" pt_clust_6="13000.00000" pt_clust_7="13000.00000" pt_clust_8="13000.00000" pt_clust_9="21.38765"></scales>
<clustering>
<clus scale="   21.388">  1  9  2 -1</clus>
<clus scale="   77.780">  5  6 -1 -1</clus>
<clus scale="   90.902">  7  8 -1 -1</clus>
<clus scale="  107.538">  1  5  2 -1</clus>
<clus scale="  117.379">  2  5  1 -1</clus>
</clustering>
</event>
<event>
 9    2  0.3402837E-005  0.2643132E+03  0.7546771E-02  0.1133772E+00
          2   -1    0    0  502    0  0.00000000000E+00  0.00000000000E+00  0.19082617742E+03  0.19082617742E+03  0.00000000000E+00 0. -1.
         -1   -1    0    0    0  501 -0.00000000000E+00 -0.00000000000E+00 -0.13282996735E+04  0.13282996735E+04  0.00000000000E+00 0.  1.
         24    2    1    2    0    0  0.19286607287E+02 -0.97050170822E+02 -0.43114455442E+03  0.44951873105E+03  0.79942190859E+02 0.  0.
         23    2    1    2    0    0  0.10271339411E+03  0.23392961393E+03  0.61351313757E+02  0.28033343043E+03  0.97722786054E+02 0.  0.
        -13    1    3    3    0    0  0.33630593627E+02 -0.99606661497E+02 -0.41340246897E+03  0.42656078722E+03  0.00000000000E+00 0.  1.
         14    1    3    3    0    0 -0.14343986340E+02  0.25564906746E+01 -0.17742085446E+02  0.22957943825E+02  0.00000000000E+00 0. -1.
        -11    1    4    4    0    0  0.11803459580E+03  0.16544428365E+03  0.49301870805E+02  0.20912831292E+03  0.00000000000E+00 0. -1.
         11    1    4    4    0    0 -0.15321201690E+02  0.68485330282E+02  0.12049442952E+02  0.71205117516E+02  0.00000000000E+00 0.  1.
         21    1    1    2  502  501 -0.12200000140E+03 -0.13687944311E+03 -0.76768025544E+03  0.78927368946E+03  0.00000000000E+00 0.  1.
<scales pt_clust_5="13000.00000" pt_clust_6="13000.00000" pt_clust_7="13000.00000" pt_clust_8="13000.00000" pt_clust_9="245.58446"></scales>
<clustering>
<clus scale="   79.942">  5  6 -1 -1</clus>
<clus scale="   97.723">  7  8 -1 -1</clus>
<clus scale="  127.206">  2  5  1 -1</clus>
<clus scale="  245.584">  2  9  1 -1</clus>
<clus scale="  264.313">  1  5  2 -1</clus>
</clustering>
</event>
<event>
 9    2  0.3402837E-005  0.1331928E+03  0.7546771E-02  0.1225420E+00
         -1   -1    0    0    0  501 -0.00000000000E+00  0.00000000000E+00  0.40206519550E+02  0.40206519550E+02  0.00000000000E+00 0.  1.
          2   -1    0    0  502    0  0.00000000000E+00 -0.00000000000E+00 -0.54632043755E+03  0.54632043755E+03  0.00000000000E+00 0. -1.
         24    2    1    2    0    0  0.15217219464E+02  0.10916355764E+03 -0.17167978289E+03  0.21948106294E+03  0.80930482845E+02 0.  0.
         23    2    1    2    0    0 -0.11139751001E+02 -0.88752198568E+02 -0.30686700798E+03  0.33250322740E+03  0.91596882281E+02 0.  0.
        -13    1    3    3    0    0  0.22539345771E+02  0.87358232860E+02 -0.67191144376E+02  0.11249059000E+03  0.00000000000E+00 0.  1.
         14    1    3    3    0    0 -0.73221263068E+01  0.21805324779E+02 -0.10448863851E+03  0.10699047294E+03  0.00000000000E+00 0. -1.
        -11    1    4    4    0    0 -0.49494455846E+02 -0.43710843576E+02 -0.19623403463E+03  0.20704621550E+03  0.00000000000E+00 0.  1.
         11    1    4    4    0    0  0.38354704845E+02 -0.45041354993E+02 -0.11063297335E+03  0.12545701190E+03  0.00000000000E+00 0. -1.
         21    1    1    2  502  501 -0.40774684634E+01 -0.20411359071E+02 -0.27567127134E+02  0.34542666756E+02  0.00000000000E+00 0.  1.
<scales pt_clust_5="13000.00000" pt_clust_6="13000.00000" pt_clust_7="13000.00000" pt_clust_8="13000.00000" pt_clust_9="20.81464"></scales>
<clustering>
<clus scale="   20.815">  1  9  2 -1</clus>
<clus scale="   80.930">  5  6 -1 -1</clus>
<clus scale="   91.597">  7  8 -1 -1</clus>
<clus scale="  126.096">  1  5  2 -1</clus>
<clus scale="  133.193">  2  5  1 -1</clus>
</clustering>
</event>
<event>
 9    2  0.3402837E-005  0.1719644E+03  0.7546771E-02  0.1177372E+00
         -1   -1    0    0    0  501 -0.00000000000E+00  0.00000000000E+00  0.42293342266E+03  0.42293342266E+03  0.00000000000E+00 0.  1.
          2   -1    0    0  502    0  0.00000000000E+00 -0.00000000000E+00 -0.56538023412E+03  0.56538023412E+03  0.00000000000E+00 0. -1.
         24    2    1    2    0    0 -0.10696888766E+03  0.15498849599E+02  0.25959961259E+03  0.29218118120E+03  0.79343093723E+02 0.  0.
         23    2    1    2    0    0  0.14063075221E+03 -0.45447805627E+02 -0.53145726133E+03  0.55910245736E+03  0.91138497400E+02 0.  0.
        -11    1    3    3    0    0 -0.71110534247E+02 -0.63324836122E+01  0.22997080179E+03  0.24079737977E+03  0.00000000000E+00 0.  1.
         12    1    3    3    0    0 -0.35858353414E+02  0.21831333211E+02  0.29628810804E+02  0.51383801426E+02  0.00000000000E+00 0. -1.
        -13    1    4    4    0    0  0.34217475289E+02  0.19787287671E+02 -0.63604310320E+02  0.74885784096E+02  0.00000000000E+00 0.  1.
         13    1    4    4    0    0  0.10641327692E+03 -0.65235093298E+02 -0.46785295101E+03  0.48421667327E+03  0.00000000000E+00 0. -1.
         21    1    1    2  502  501 -0.33661864548E+02  0.29948956028E+02  0.12941083727E+03  0.13703001822E+03  0.00000000000E+00 0.  1.
<scales pt_clust_5="13000.00000" pt_clust_6="13000.00000" pt_clust_7="13000.00000" pt_clust_8="13000.00000" pt_clust_9="45.05620"></scales>
<clustering>
<clus scale="   45.056">  1  9  2 -1</clus>
<clus scale="   79.343">  5  6 -1 -1</clus>
<clus scale="   91.138">  7  8 -1 -1</clus>
<clus scale="  166.015">  1  5  2 -1</clus>
<clus scale="  171.964">  2  5  1 -1</clus>
</clustering>
</event>
<event>
 9    2  0.3402837E-005  0.2041087E+03  0.7546771E-02  0.1147354E+00
          2   -1    0    0  502    0  0.00000000000E+00  0.00000000000E+00  0.52594711174E+03  0.52594711174E+03  0.00000000000E+00 0. -1.
         -1   -1    0    0    0  501 -0.00000000000E+00 -0.00000000000E+00 -0.11582215285E+03  0.11582215285E+03  0.00000000000E+00 0.  1.
         24    2    1    2    0    0  0.36460628256E+02 -0.20347398920E+03  0.14193842317E+03  0.26295943767E+03  0.79184014762E+02 0.  0.
         23    2    1    2    0    0 -0.19971658157E+02  0.16965064044E+03  0.27909389411E+03  0.33963233946E+03  0.90975366707E+02 0.  0.
        -11    1    3    3    0    0 -0.19004267836E+02 -0.81847576706E+02  0.32108054361E+02  0.89950626254E+02  0.00000000000E+00 0.  1.
         12    1    3    3    0    0  0.55464896092E+02 -0.12162641249E+03  0.10983036881E+03  0.17300881141E+03  0.00000000000E+00 0. -1.
        -13    1    4    4    0    0  0.30331172899E+02  0.86377767965E+02  0.17269870821E+03  0.19546340492E+03  0.00000000000E+00 0. -1.
         13    1    4    4    0    0 -0.50302831056E+02  0.83272872473E+02  0.10639518590E+03  0.14416893454E+03  0.00000000000E+00 0.  1.
         21    1    1    2  502  501 -0.16488970100E+02  0.33823348761E+02 -0.10907358395E+02  0.39177487458E+02  0.00000000000E+00 0. -1.
<scales pt_clust_5="13000.00000" pt_clust_6="13000.00000" pt_clust_7="13000.00000" pt_clust_8="13000.00000" pt_clust_9="37.62851"></scales>
<clustering>
<clus scale="   37.629">  2  9  1 -1</clus>
<clus scale="   79.184">  5  6 -1 -1</clus>
<clus scale="   90.975">  7  8 -1 -1</clus>
<clus scale="  199.133">  2  5  1 -1</clus>
<clus scale="  204.109">  1  5  2 -1</clus>
</clustering>
</event>
<event>
 9    2  0.3402837E-005  0.1619492E+03  0.7546771E-02  0.1188140E+00
         -1   -1    0    0    0  501 -0.00000000000E+00  0.00000000000E+00  0.12788232688E+03  0.12788232688E+03  0.00000000000E+00 0.  1.
          2   -1    0    0  502    0  0.00000000000E+00 -0.00000000000E+00 -0.64506838716E+03  0.64506838716E+03  0.00000000000E+00 0. -1.
         23    2    1    2    0    0  0.79633401122E+02 -0.86178050673E+02 -0.16315907052E+02  0.14903607722E+03  0.90429024644E+02 0.  0.
         24    2    1    2    0    0 -0.95211560554E+02  0.98834088773E+02 -0.54915471378E+03  0.57162455038E+03  0.79688823379E+02 0.  0.
        -13    1    4    4    0    0 -0.27291859803E+02 -0.28222931543E+01 -0.43741902846E+02  0.51634920497E+02  0.00000000000E+00 0.  1.
         14    1    4    4    0    0 -0.67919700751E+02  0.10165638193E+03 -0.50541281093E+03  0.51998962989E+03  0.00000000000E+00 0. -1.
        -13    1    3    3    0    0  0.79121142604E+02 -0.19549022778E+02 -0.81658929015E+01  0.81908493488E+02  0.00000000000E+00 0.  1.
         13    1    3    3    0    0  0.51225851788E+00 -0.66629027895E+02 -0.81500141505E+01  0.67127583732E+02  0.00000000000E+00 0. -1.
         21    1    1    2  502  501  0.15578159431E+02 -0.12656038100E+02  0.48284560549E+02  0.52290086432E+02  0.00000000000E+00 0. -1.
<scales pt_clust_5="13000.00000" pt_clust_6="13000.00000" pt_clust_7="13000.00000" pt_clust_8="13000.00000" pt_clust_9="20.07123"></scales>
<clustering>
<clus scale="   20.071">  1  9  2 -1</clus>
<clus scale="   79.689">  5  6 -1 -1</clus>
<clus scale="   90.429">  7  8 -1 -1</clus>
<clus scale="  156.206">  2  5  1 -1</clus>
<clus scale="  156.206">  2  5  1 -1</clus>
</clustering>
</event>
<event>
 9    2  0.3402837E-005  0.1043872E+03  0.7546771E-02  0.1277647E+00
         -1   -1    0    0    0  501 -0.00000000000E+00  0.00000000000E+00  0.48372004906E+02  0.48372004906E+02  0.00000000000E+00 0.  1.
          2   -1    0    0  502    0  0.00000000000E+00 -0.00000000000E+00 -0.31092816025E+03  0.31092816025E+03  0.00000000000E+00 0. -1.
         24    2    1    2    0    0  0.33858435584E+02  0.34370727215E+02 -0.39549626060E+02  0.10182885434E+03  0.80481066752E+02 0.  0.
         23    2    1    2    0    0 -0.10736826862E+02 -0.40372641829E+02 -0.19664292939E+03  0.22189503827E+03  0.93934746871E+02 0.  0.
        -11    1    3    3    0    0  0.42481207756E+02 -0.85480666832E+01 -0.75985592551E+00  0.43339356680E+02  0.00000000000E+00 0.  1.
         12    1    3    3    0    0 -0.86227721723E+01  0.42918793898E+02 -0.38789770134E+02  0.58489497661E+02  0.00000000000E+00 0. -1.
        -11    1    4    4    0    0 -0.36488696217E+02 -0.15393027913E+02 -0.17621464151E+03  0.18060999458E+03  0.00000000000E+00 0. -1.
         11    1    4    4    0    0  0.25751869356E+02 -0.24979613916E+02 -0.20428287883E+02  0.41285043691E+02  0.00000000000E+00 0.  1.
         21    1    1    2  502  501 -0.23121608722E+02  0.60019146143E+01 -0.26363599894E+02  0.35576272547E+02  0.00000000000E+00 0. -1.
<scales pt_clust_5="13000.00000" pt_clust_6="13000.00000" pt_clust_7="13000.00000" pt_clust_8="13000.00000" pt_clust_9="23.88790"></scales>
<clustering>
<clus scale="   23.888">  2  9  1 -1</clus>
<clus scale="   80.481">  5  6 -1 -1</clus>
<clus scale="   92.467">  1  5  2 -1</clus>
<clus scale="   93.935">  7  8 -1 -1</clus>
<clus scale="   23.888">  2  5  1 -1</clus>
</clustering>
</event>
<event>
 9    2  0.3402837E-005  0.1775922E+03  0.7546771E-02  0.1171786E+00
          2   -1    0    0  502    0  0.00000000000E+00  0.00000000000E+00  0.31094565482E+03  0.31094565482E+03  0.00000000000E+00 0. -1.
         -1   -1    0    0    0  501 -0.00000000000E+00 -0.00000000000E+00 -0.28653731756E+03  0.28653731756E+03  0.00000000000E+00 0.  1.
         23    2    1    2    0    0 -0.10800473175E+03  0.17622148302E+03 -0.43938453554E+02  0.23081866704E+03  0.92885069827E+02 0.  0.
         24    2    1    2    0    0  0.12899039476E+03 -0.62338040858E+02  0.15217476543E+03  0.22370638923E+03  0.79767387265E+02 0.  0.
        -11    1    4    4    0    0  0.29848127571E+02 -0.18348273411E+02 -0.21227613945E+01  0.35100939769E+02  0.00000000000E+00 0.  1.
         12    1    4    4    0    0  0.99142267189E+02 -0.43989767446E+02  0.15429752682E+03  0.18860544946E+03  0.00000000000E+00 0. -1.
        -11    1    3    3    0    0  0.13231605721E+02  0.46019691836E+02 -0.17379806561E+02  0.50940603675E+02  0.00000000000E+00 0. -1.
         11    1    3    3    0    0 -0.12123633747E+03  0.13020179118E+03 -0.26558646993E+02  0.17987806337E+03  0.00000000000E+00 0.  1.
         21    1    1    2  502  501 -0.20985663007E+02 -0.11388344216E+03 -0.83827974619E+02  0.14295791611E+03  0.00000000000E+00 0.  1.
<scales pt_clust_5="13000.00000" pt_clust_6="13000.00000" pt_clust_7="13000.00000" pt_clust_8="13000.00000" pt_clust_9="115.80085"></scales>
<clustering>
<clus scale="   79.767">  5  6 -1 -1</clus>
<clus scale="   92.885">  7  8 -1 -1</clus>
<clus scale="  115.801">  2  9  1 -1</clus>
<clus scale="  171.097">  1  5  2 -1</clus>
<clus scale="  171.097">  1  5  2 -1</clus>
</clustering>
</event>
<event>
 9    2  0.3402837E-005  0.1068845E+03  0.7546771E-02  0.1270344E+00
         -1   -1    0    0    0  501 -0.00000000000E+00  0.00000000000E+00  0.54147383542E+02  0.54147383542E+02  0.00000000000E+00 0.  1.
          2   -1    0    0  502    0  0.00000000000E+00 -0.00000000000E+00 -0.50918605355E+03  0.50918605355E+03  0.00000000000E+00 0. -1.
         23    2    1    2    0    0 -0.61901696306E+02  0.50739130982E+02 -0.50185384284E+02  0.13030747652E+03  0.89750689257E+02 0.  0.
         24    2    1    2    0    0  0.91398624686E+01 -0.12134630584E+01 -0.19779641173E+03  0.21368797490E+03  0.80337541312E+02 0.  0.
        -11    1    4    4    0    0 -0.22861773073E+02  0.25698052970E+02 -0.54767090189E+02  0.64672132811E+02  0.00000000000E+00 0.  1.
         12    1    4    4    0    0  0.32001635542E+02 -0.26911516029E+02 -0.14302932154E+03  0.14901584209E+03  0.00000000000E+00 0. -1.
        -13    1    3    3    0    0 -0.20909349087E+02  0.68544408292E+02 -0.14497019052E+02  0.73114296473E+02  0.00000000000E+00 0.  1.
         13    1    3    3    0    0 -0.40992347219E+02 -0.17805277310E+02 -0.35688365231E+02  0.57193180044E+02  0.00000000000E+00 0. -1.
         21    1    1    2  502  501  0.52761833837E+02 -0.49525667923E+02 -0.20705687399E+03  0.21933798567E+03  0.00000000000E+00 0. -1.
<scales pt_clust_5="13000.00000" pt_clust_6="13000.00000" pt_clust_7="13000.00000" pt_clust_8="13000.00000" pt_clust_9="72.36438"></scales>
<clustering>
<clus scale="   72.364">  2  9  1 -1</clus>
<clus scale="   80.338">  5  6 -1 -1</clus>
<clus scale="   89.751">  7  8 -1 -1</clus>
<clus scale="   99.112">  2  5  1 -1</clus>
<clus scale="   72.364">  2  5  1 -1</clus>
</clustering>
</event>
<event>
 9    2  0.3402837E-005  0.1060142E+03  0.7546771E-02  0.1273139E+00
         -1   -1    0    0    0  501 -0.00000000000E+00  0.00000000000E+00  0.17778563306E+03  0.17778563306E+03  0.00000000000E+00 0.  1.
          2   -1    0    0  502    0  0.00000000000E+00 -0.00000000000E+00 -0.17623550929E+03  0.17623550929E+03  0.00000000000E+00 0. -1.
         23    2    1    2    0    0 -0.47144470675E+02  0.26961486168E+02  0.99386074186E+02  0.14555938003E+03  0.91435324251E+02 0.  0.
         24    2    1    2    0    0  0.33406627642E+02 -0.42445809204E+02 -0.13500532565E+03  0.16591702061E+03  0.79902254574E+02 0.  0.
        -13    1    4    4    0    0  0.31732205494E+01  0.23598781011E+02 -0.33229442559E+02  0.40879917400E+02  0.00000000000E+00 0.  1.
         14    1    4    4    0    0  0.30233407093E+02 -0.66044590215E+02 -0.10177588309E+03  0.12503710321E+03  0.00000000000E+00 0. -1.
        -13    1    3    3    0    0 -0.10736321908E+02 -0.21867376955E+02  0.76845012830E+02  0.80613936636E+02  0.00000000000E+00 0.  1.
         13    1    3    3    0    0 -0.36408148767E+02  0.48828863124E+02  0.22541061356E+02  0.64945443394E+02  0.00000000000E+00 0. -1.
         21    1    1    2  502  501  0.13737843033E+02  0.15484323036E+02  0.37169375233E+02  0.42544741700E+02  0.00000000000E+00 0. -1.
<scales pt_clust_5="13000.00000" pt_clust_6="13000.00000" pt_clust_7="13000.00000" pt_clust_8="13000.00000" pt_clust_9="20.70006"></scales>
<clustering>
<clus scale="   20.700">  1  9  2 -1</clus>
<clus scale="   79.902">  5  6 -1 -1</clus>
<clus scale="   91.435">  7  8 -1 -1</clus>
<clus scale="   96.244">  2  5  1 -1</clus>
<clus scale="   96.244">  2  5  1 -1</clus>
</clustering>
</event>
<event>
 9    2  0.3402837E-005  0.9226574E+02  0.7546771E-02  0.1302305E+00
         -1   -1    0    0    0  501 -0.00000000000E+00  0.00000000000E+00  0.49666174697E+02  0.49666174697E+02  0.00000000000E+00 0.  1.
          2   -1    0    0  502    0  0.00000000000E+00 -0.00000000000E+00 -0.29727347228E+03  0.29727347228E+03  0.00000000000E+00 0. -1.
         23    2    1    2    0    0 -0.25304956263E+02  0.17582259252E+02 -0.26396477452E+02  0.98329293667E+02  0.89567847576E+02 0.  0.
         24    2    1    2    0    0  0.13613901133E+01  0.34782645119E+01 -0.15499926953E+03  0.17512015359E+03  0.81414635866E+02 0.  0.
        -11    1    4    4    0    0  0.40391166854E+02 -0.21311282056E+01 -0.95828118158E+02  0.10401450042E+03  0.00000000000E+00 0.  1.
         12    1    4    4    0    0 -0.39029776741E+02  0.56093927175E+01 -0.59171151371E+02  0.71105653177E+02  0.00000000000E+00 0. -1.
        -11    1    3    3    0    0  0.21910442051E+02  0.88346607228E+01 -0.41703102951E+02  0.47929818451E+02  0.00000000000E+00 0.  1.
         11    1    3    3    0    0 -0.47215398314E+02  0.87475985292E+01  0.15306625499E+02  0.50399475217E+02  0.00000000000E+00 0. -1.
         21    1    1    2  502  501  0.23943566149E+02 -0.21060523764E+02 -0.66211550605E+02  0.73490199719E+02  0.00000000000E+00 0.  1.
<scales pt_clust_5="13000.00000" pt_clust_6="13000.00000" pt_clust_7="13000.00000" pt_clust_8="13000.00000" pt_clust_9="31.88793"></scales>
<clustering>
<clus scale="   31.888">  2  9  1 -1</clus>
<clus scale="   81.415">  5  6 -1 -1</clus>
<clus scale="   84.374">  2  5  1 -1</clus>
<clus scale="   89.568">  7  8 -1 -1</clus>
<clus scale="   31.888">  2  5  1 -1</clus>
</clustering>
</event>
<event>
 9    2  0.3402837E-005  0.1324569E+03  0.7546771E-02  0.1225925E+00
          2   -1    0    0  502    0  0.00000000000E+00  0.00000000000E+00  0.43297749417E+03  0.43297749417E+03  0.00000000000E+00 0. -1.
         -1   -1    0    0    0  501 -0.00000000000E+00 -0.00000000000E+00 -0.18018740105E+03  0.18018740105E+03  0.00000000000E+00 0.  1.
         24    2    1    2    0    0 -0.43220345620E+01  0.71287684304E+02  0.61642963375E+02  0.13689992589E+03  0.99202423652E+02 0.  0.
         23    2    1    2    0    0 -0.26235743662E+02 -0.90891289711E+02  0.31806968460E+03  0.34425203783E+03  0.91605679399E+02 0.  0.
        -13    1    3    3    0    0  0.33964288002E+02  0.63751462406E+02  0.11155723975E+02  0.73090847551E+02  0.00000000000E+00 0.  1.
         14    1    3    3    0    0 -0.38286322564E+02  0.75362218981E+01  0.50487239400E+02  0.63809078337E+02  0.00000000000E+00 0. -1.
        -11    1    4    4    0    0  0.32543229218E+02 -0.48610905981E+02  0.16095776555E+03  0.17125853041E+03  0.00000000000E+00 0.  1.
         11    1    4    4    0    0 -0.58778972880E+02 -0.42280383730E+02  0.15711191905E+03  0.17299350741E+03  0.00000000000E+00 0. -1.
         21    1    1    2  502  501  0.30557778224E+02  0.19603605408E+02 -0.12692255485E+03  0.13201293151E+03  0.00000000000E+00 0.  1.
<scales pt_clust_5="13000.00000" pt_clust_6="13000.00000" pt_clust_7="13000.00000" pt_clust_8="13000.00000" pt_clust_9="36.30536"></scales>
<clustering>
<clus scale="   36.305">  2  9  1 -1</clus>
<clus scale="   91.606">  7  8 -1 -1</clus>
<clus scale="   99.202">  5  6 -1 -1</clus>
<clus scale="  126.867">  1  7  2 -1</clus>
<clus scale="  126.867">  1  5  2 -1</clus>
</clustering>
</event>
<event>
 9    2  0.3402837E-005  0.1223390E+03  0.7546771E-02  0.1244766E+00
         -1   -1    0    0    0  501 -0.00000000000E+00  0.00000000000E+00  0.61568218432E+02  0.61568218432E+02  0.00000000000E+00 0.  1.
          2   -1    0    0  502    0  0.00000000000E+00 -0.00000000000E+00 -0.38930709793E+03  0.38930709793E+03  0.00000000000E+00 0. -1.
         24    2    1    2    0    0  0.30858439449E+02  0.42949877163E+02 -0.18490797390E+02  0.97389756628E+02  0.79661282154E+02 0.  0.
         23    2    1    2    0    0 -0.59528197674E+02 -0.57745607300E+02 -0.28794889053E+03  0.31482648281E+03  0.96555627696E+02 0.  0.
        -13    1    3    3    0    0  0.47217570361E+02  0.28888899776E+02  0.15183469121E+02  0.57398651688E+02  0.00000000000E+00 0.  1.
         14    1    3    3    0    0 -0.16359130911E+02  0.14060977387E+02 -0.33674266512E+02  0.39991104940E+02  0.00000000000E+00 0. -1.
        -13    1    4    4    0    0 -0.32492598035E+02 -0.83213840775E+02 -0.21879270721E+03  0.23632723278E+03  0.00000000000E+00 0.  1.
         13    1    4    4    0    0 -0.27035599639E+02  0.25468233475E+02 -0.69156183313E+02  0.78499250026E+02  0.00000000000E+00 0. -1.
         21    1    1    2  502  501  0.28669758224E+02  0.14795730137E+02 -0.21299191584E+02  0.38659076930E+02  0.00000000000E+00 0.  1.
<scales pt_clust_5="13000.00000" pt_clust_6="13000.00000" pt_clust_7="13000.00000" pt_clust_8="13000.00000" pt_clust_9="32.26250"></scales>
<clustering>
<clus scale="   32.262">  1  9  2 -1</clus>
<clus scale="   79.661">  5  6 -1 -1</clus>
<clus scale="   96.556">  7  8 -1 -1</clus>
<clus scale="  109.498">  1  5  2 -1</clus>
<clus scale="  122.339">  2  5  1 -1</clus>
</clustering>
</event>
<event>
 9    2  0.3402837E-005  0.9803655E+02  0.7546771E-02  0.1290420E+00
          2   -1    0    0  502    0  0.00000000000E+00  0.00000000000E+00  0.33613332460E+03  0.33613332460E+03  0.00000000000E+00 0. -1.
         -1   -1    0    0    0  501 -0.00000000000E+00 -0.00000000000E+00 -0.18270778141E+03  0.18270778141E+03  0.00000000000E+00 0.  1.
         24    2    1    2    0    0 -0.17888696803E+02 -0.78996814478E+02 -0.10085205699E+03  0.15225683460E+03  0.80315030429E+02 0.  0.
         23    2    1    2    0    0  0.20584763046E+02  0.25439527553E+02  0.28751275849E+03  0.30349522716E+03  0.91514286226E+02 0.  0.
        -13    1    3    3    0    0 -0.25160211309E+02 -0.91190225125E+02 -0.10055328250E+03  0.13805671303E+03  0.00000000000E+00 0.  1.
         14    1    3    3    0    0  0.72715145064E+01  0.12193410647E+02 -0.29877449047E+00  0.14200121571E+02  0.00000000000E+00 0. -1.
        -11    1    4    4    0    0  0.35940182225E+02  0.48762093955E+02  0.12866159927E+03  0.14220845837E+03  0.00000000000E+00 0.  1.
         11    1    4    4    0    0 -0.15355419179E+02 -0.23322566402E+02  0.15885115922E+03  0.16128676879E+03  0.00000000000E+00 0. -1.
         21    1    1    2  502  501 -0.26960662432E+01  0.53557286925E+02 -0.33235158310E+02  0.63089044246E+02  0.00000000000E+00 0. -1.
<scales pt_clust_5="13000.00000" pt_clust_6="13000.00000" pt_clust_7="13000.00000" pt_clust_8="13000.00000" pt_clust_9="53.62510"></scales>
<clustering>
<clus scale="   53.625">  2  9  1 -1</clus>
<clus scale="   80.315">  5  6 -1 -1</clus>
<clus scale="   87.674">  2  5  1 -1</clus>
<clus scale="   91.514">  7  8 -1 -1</clus>
<clus scale="   98.037">  1  5  2 -1</clus>
</clustering>
</event>
<event>
 9    2  0.3402837E-005  0.2237821E+03  0.7546771E-02  0.1173605E+00
         -3   -1    0    0    0  501 -0.00000000000E+00  0.00000000000E+00  0.17882935180E+04  0.17882935180E+04  0.00000000000E+00 0.  1.
          4   -1    0    0  502    0  0.00000000000E+00 -0.00000000000E+00 -0.65307318673E+02  0.65307318673E+02  0.00000000000E+00 0. -1.
         23    2    1    2    0    0  0.91816539969E+02  0.18041884938E+03  0.38655017053E+03  0.44585032001E+03  0.91543625086E+02 0.  0.
         24    2    1    2    0    0 -0.93674781782E+01  0.69915052480E+01  0.33164179958E+02  0.88493907510E+02  0.81207623047E+02 0.  0.
        -13    1    4    4    0    0 -0.39577461491E+02 -0.17076231962E+02  0.21353102028E+02  0.48103306771E+02  0.00000000000E+00 0.  1.
         14    1    4    4    0    0  0.30209983313E+02  0.24067737210E+02  0.11811077930E+02  0.40390600739E+02  0.00000000000E+00 0. -1.
        -11    1    3    3    0    0  0.20453058923E+02  0.11284224978E+03  0.14359756750E+03  0.18377149492E+03  0.00000000000E+00 0.  1.
         11    1    3    3    0    0  0.71363481047E+02  0.67576599603E+02  0.24295260303E+03  0.26207882509E+03  0.00000000000E+00 0. -1.
         21    1    1    2  502  501 -0.82449061791E+02 -0.18741035463E+03  0.13032718488E+04  0.13192566092E+04  0.00000000000E+00 0.  1.
<scales pt_clust_5="13000.00000" pt_clust_6="13000.00000" pt_clust_7="13000.00000" pt_clust_8="13000.00000" pt_clust_9="204.20140"></scales>
<clustering>
<clus scale="   81.208">  5  6 -1 -1</clus>
<clus scale="   82.045">  2  5  1 -1</clus>
<clus scale="   91.544">  7  8 -1 -1</clus>
<clus scale="  204.201">  1  9  2 -1</clus>
<clus scale="   82.045">  2  5  1 -1</clus>
</clustering>
</event>
<event>
 9    2  0.3817645E-005  0.2867158E+03  0.7546771E-02  0.1092764E+00
         -1   -1    0    0    0  501 -0.00000000000E+00  0.00000000000E+00  0.22983870745E+03  0.22983870745E+03  0.00000000000E+00 0.  1.
          2   -1    0    0  502    0  0.00000000000E+00 -0.00000000000E+00 -0.97341329285E+03  0.97341329285E+03  0.00000000000E+00 0. -1.
         23    2    1    2    0    0  0.18562520655E+03  0.19170219356E+03  0.95521445621E+02  0.29770148849E+03  0.91078984155E+02 0.  0.
         24    2    1    2    0    0 -0.17447518257E+03 -0.20936267343E+03 -0.83843051476E+03  0.88465413662E+03  0.73300034136E+02 0.  0.
        -13    1    4    4    0    0 -0.99508582567E+02 -0.85796016375E+02 -0.30728778296E+03  0.33419858765E+03  0.00000000000E+00 0.  1.
         14    1    4    4    0    0 -0.74966600004E+02 -0.12356665706E+03 -0.53114273180E+03  0.55045554897E+03  0.00000000000E+00 0. -1.
        -13    1    3    3    0    0  0.13894101298E+03  0.17461308072E+03  0.10576654721E+03  0.24694310186E+03  0.00000000000E+00 0.  1.
         13    1    3    3    0    0  0.46684193572E+02  0.17089112839E+02 -0.10245101592E+02  0.50758386635E+02  0.00000000000E+00 0. -1.
         21    1    1    2  502  501 -0.11150023982E+02  0.17660479873E+02 -0.66551627362E+00  0.20896375189E+02  0.00000000000E+00 0.  1.
<scales pt_clust_5="13000.00000" pt_clust_6="13000.00000" pt_clust_7="13000.00000" pt_clust_8="13000.00000" pt_clust_9="20.88577"></scales>
<clustering>
<clus scale="   20.886">  1  9  2 -1</clus>
<clus scale="   73.300">  5  6 -1 -1</clus>
<clus scale="   91.079">  7  8 -1 -1</clus>
<clus scale="  281.573">  2  5  1 -1</clus>
<clus scale="  281.573">  2  5  1 -1</clus>
</clustering>
</event>
<event>
 9    2  0.3402837E-005  0.1389621E+03  0.7546771E-02  0.1231896E+00
         -1   -1    0    0    0  501 -0.00000000000E+00  0.00000000000E+00  0.88525938256E+02  0.88525938256E+02  0.00000000000E+00 0.  1.
          2   -1    0    0  502    0  0.00000000000E+00 -0.00000000000E+00 -0.75486989758E+03  0.75486989758E+03  0.00000000000E+00 0. -1.
         23    2    1    2    0    0 -0.10693212713E+03  0.24300495450E+02 -0.31804607486E+02  0.14662922846E+03  0.91997846126E+02 0.  0.
         24    2    1    2    0    0  0.59408978798E+01 -0.45381849343E+02 -0.56278045703E+03  0.57109644047E+03  0.85641666146E+02 0.  0.
        -13    1    4    4    0    0 -0.49891108318E+01 -0.33416453478E+02 -0.66867092718E+02  0.74918346741E+02  0.00000000000E+00 0.  1.
         14    1    4    4    0    0  0.10930008712E+02 -0.11965395866E+02 -0.49591336431E+03  0.49617809373E+03  0.00000000000E+00 0. -1.
        -11    1    3    3    0    0 -0.77452742620E+02 -0.14862931730E+02 -0.51073819591E+02  0.93959401481E+02  0.00000000000E+00 0.  1.
         11    1    3    3    0    0 -0.29479384505E+02  0.39163427180E+02  0.19269212105E+02  0.52669826983E+02  0.00000000000E+00 0. -1.
         21    1    1    2  502  501  0.10099122925E+03  0.21081353893E+02 -0.71758894810E+02  0.12567016691E+03  0.00000000000E+00 0.  1.
<scales pt_clust_5="13000.00000" pt_clust_6="13000.00000" pt_clust_7="13000.00000" pt_clust_8="13000.00000" pt_clust_9="104.14828"></scales>
<clustering>
<clus scale="   85.642">  5  6 -1 -1</clus>
<clus scale="   91.998">  7  8 -1 -1</clus>
<clus scale="   97.105">  2  5  1 -1</clus>
<clus scale="  104.148">  2  9  1 -1</clus>
<clus scale="   97.105">  2  5  1 -1</clus>
</clustering>
</event>
<event>
 9    2  0.3402837E-005  0.1045869E+03  0.7546771E-02  0.1278851E+00
         -1   -1    0    0    0  501 -0.00000000000E+00  0.00000000000E+00  0.35952994701E+02  0.35952994701E+02  0.00000000000E+00 0.  1.
          2   -1    0    0  502    0  0.00000000000E+00 -0.00000000000E+00 -0.53668190551E+03  0.53668190551E+03  0.00000000000E+00 0. -1.
         23    2    1    2    0    0  0.24000354293E+02  0.57615727750E+02 -0.20054147749E+03  0.22904543054E+03  0.91374700933E+02 0.  0.
         24    2    1    2    0    0 -0.52171800700E+02 -0.12453102303E+02 -0.26357416972E+03  0.27898432899E+03  0.74053604467E+02 0.  0.
        -13    1    4    4    0    0 -0.35945145542E+02 -0.12385873930E+02 -0.41363111245E+02  0.56181583574E+02  0.00000000000E+00 0.  1.
         14    1    4    4    0    0 -0.16226655158E+02 -0.67228373099E-01 -0.22221105847E+03  0.22280274542E+03  0.00000000000E+00 0. -1.
        -13    1    3    3    0    0 -0.25575372000E+02 -0.90057418104E+01 -0.59193670031E+02  0.65108322127E+02  0.00000000000E+00 0. -1.
         13    1    3    3    0    0  0.49575726293E+02  0.66621469560E+02 -0.14134780745E+03  0.16393710842E+03  0.00000000000E+00 0.  1.
         21    1    1    2  502  501  0.28171446407E+02 -0.45162625447E+02 -0.36613263605E+02  0.64605140676E+02  0.00000000000E+00 0.  1.
<scales pt_clust_5="13000.00000" pt_clust_6="13000.00000" pt_clust_7="13000.00000" pt_clust_8="13000.00000" pt_clust_9="53.22869"></scales>
<clustering>
<clus scale="   53.229">  1  9  2 -1</clus>
<clus scale="   74.054">  5  6 -1 -1</clus>
<clus scale="   89.850">  2  5  1 -1</clus>
<clus scale="   91.375">  7  8 -1 -1</clus>
<clus scale="   89.850">  2  5  1 -1</clus>
</clustering>
</event>
<event>
 9    2  0.3402837E-005  0.1687163E+03  0.7546771E-02  0.1180240E+00
          2   -1    0    0  502    0  0.00000000000E+00  0.00000000000E+00  0.12382402411E+03  0.12382402411E+03  0.00000000000E+00 0. -1.
         -1   -1    0    0    0  501 -0.00000000000E+00 -0.00000000000E+00 -0.42244806699E+03  0.42244806699E+03  0.00000000000E+00 0.  1.
         24    2    1    2    0    0  0.11222742465E+03  0.99605792389E+02 -0.31293973113E+03  0.35713144348E+03  0.84233508073E+02 0.  0.
         23    2    1    2    0    0 -0.84561092950E+02 -0.68283672720E+02  0.28483966788E+02  0.14501309153E+03  0.91674543629E+02 0.  0.
        -11    1    3    3    0    0  0.60009977842E+02  0.98832658887E+02 -0.24929234831E+03  0.27480132247E+03  0.00000000000E+00 0.  1.
         12    1    3    3    0    0  0.52217446808E+02  0.77313350193E+00 -0.63647382821E+02  0.82330121016E+02  0.00000000000E+00 0. -1.
        -13    1    4    4    0    0 -0.23232564855E+01 -0.56800227255E+02 -0.11177881546E+01  0.56858708984E+02  0.00000000000E+00 0.  1.
         13    1    4    4    0    0 -0.82237836465E+02 -0.11483445465E+02  0.29601754943E+02  0.88154382544E+02  0.00000000000E+00 0. -1.
         21    1    1    2  502  501 -0.27666331700E+02 -0.31322119669E+02 -0.14168278536E+02  0.44127556096E+02  0.00000000000E+00 0. -1.
<scales pt_clust_5="13000.00000" pt_clust_6="13000.00000" pt_clust_7="13000.00000" pt_clust_8="13000.00000" pt_clust_9="41.79116"></scales>
<clustering>
<clus scale="   41.791">  1  9  2 -1</clus>
<clus scale="   84.234">  5  6 -1 -1</clus>
<clus scale="   91.675">  7  8 -1 -1</clus>
<clus scale="  164.792">  2  5  1 -1</clus>
<clus scale="   41.791">  1  5  2 -1</clus>
</clustering>
</event>
<event>
 9    2  0.3402837E-005  0.1122608E+03  0.7546771E-02  0.1259967E+00
         -3   -1    0    0    0  501 -0.00000000000E+00  0.00000000000E+00  0.33601948413E+02  0.33601948413E+02  0.00000000000E+00 0.  1.
          4   -1    0    0  502    0  0.00000000000E+00 -0.00000000000E+00 -0.45200615308E+03  0.45200615308E+03  0.00000000000E+00 0. -1.
         24    2    1    2    0    0  0.21542820376E+01  0.61767075028E+02 -0.15032510959E+03  0.18145408328E+03  0.80673002141E+02 0.  0.
         23    2    1    2    0    0  0.19186436992E+02 -0.69616977510E+02 -0.24882304206E+03  0.27435732653E+03  0.90246293225E+02 0.  0.
        -11    1    3    3    0    0  0.12939911161E+01  0.59292017184E+02 -0.41002529120E+02  0.72100104779E+02  0.00000000000E+00 0.  1.
         12    1    3    3    0    0  0.86029092141E+00  0.24750578439E+01 -0.10932258047E+03  0.10935397850E+03  0.00000000000E+00 0. -1.
        -11    1    4    4    0    0  0.25310626548E+02 -0.52550566948E+01 -0.11335233827E+02  0.28226423135E+02  0.00000000000E+00 0.  1.
         11    1    4    4    0    0 -0.61241895555E+01 -0.64361920815E+02 -0.23748780823E+03  0.24613090340E+03  0.00000000000E+00 0. -1.
         21    1    1    2  502  501 -0.21340719030E+02  0.78499024818E+01 -0.19256053017E+02  0.29796691687E+02  0.00000000000E+00 0. -1.
<scales pt_clust_5="13000.00000" pt_clust_6="13000.00000" pt_clust_7="13000.00000" pt_clust_8="13000.00000" pt_clust_9="22.73867"></scales>
<clustering>
<clus scale="   22.739">  1  9  2 -1</clus>
<clus scale="   80.673">  5  6 -1 -1</clus>
<clus scale="   90.246">  7  8 -1 -1</clus>
<clus scale="  104.720">  1  5  2 -1</clus>
<clus scale="  112.261">  2  5  1 -1</clus>
</clustering>
</event>
<event>
 9    2  0.3402837E-005  0.1309708E+03  0.7546771E-02  0.1227013E+00
         -1   -1    0    0    0  501 -0.00000000000E+00  0.00000000000E+00  0.42425082561E+02  0.42425082561E+02  0.00000000000E+00 0.  1.
          2   -1    0    0  502    0  0.00000000000E+00 -0.00000000000E+00 -0.14037852265E+04  0.14037852265E+04  0.00000000000E+00 0. -1.
         23    2    1    2    0    0  0.80703694962E+02  0.89029186339E+02 -0.14652646797E+03  0.20452663785E+03  0.76953605346E+02 0.  0.
         24    2    1    2    0    0 -0.78936959660E+02 -0.62595140041E+02 -0.12071858128E+04  0.12141088644E+04  0.81323754219E+02 0.  0.
        -13    1    4    4    0    0 -0.34240570199E+02 -0.15940388272E+02 -0.14111594958E+03  0.14608293484E+03  0.00000000000E+00 0.  1.
         14    1    4    4    0    0 -0.44696389461E+02 -0.46654751769E+02 -0.10660698632E+04  0.10680259296E+04  0.00000000000E+00 0. -1.
        -11    1    3    3    0    0  0.32844813985E+02  0.69079632943E+01 -0.84780246496E+02  0.91182191016E+02  0.00000000000E+00 0. -1.
         11    1    3    3    0    0  0.47858880978E+02  0.82121223044E+02 -0.61746221470E+02  0.11334444684E+03  0.00000000000E+00 0.  1.
         21    1    1    2  502  501 -0.17667353025E+01 -0.26434046298E+02 -0.76478632151E+01  0.27574806782E+02  0.00000000000E+00 0. -1.
<scales pt_clust_5="13000.00000" pt_clust_6="13000.00000" pt_clust_7="13000.00000" pt_clust_8="13000.00000" pt_clust_9="26.49302"></scales>
<clustering>
<clus scale="   26.493">  1  9  2 -1</clus>
<clus scale="   76.954">  7  8 -1 -1</clus>
<clus scale="   81.324">  5  6 -1 -1</clus>
<clus scale="  128.303">  1  7  2 -1</clus>
<clus scale="  130.971">  2  5  1 -1</clus>
</clustering>
</event>
<event>
 9    2  0.3402837E-005  0.2212591E+03  0.7546771E-02  0.1174349E+00
         -3   -1    0    0    0  501 -0.00000000000E+00  0.00000000000E+00  0.18636077489E+04  0.18636077489E+04  0.00000000000E+00 0.  1.
          4   -1    0    0  502    0  0.00000000000E+00 -0.00000000000E+00 -0.12999084183E+03  0.12999084183E+03  0.00000000000E+00 0. -1.
         23    2    1    2    0    0  0.27100253040E+02 -0.19944420793E+03  0.72774901219E+01  0.22142111498E+03  0.91988762915E+02 0.  0.
         24    2    1    2    0    0  0.19394947643E+02  0.36076668698E+01  0.87116888540E+02  0.12064356689E+03  0.81094628116E+02 0.  0.
        -11    1    4    4    0    0 -0.12021217846E+02  0.25323536957E+02  0.29121788630E+01  0.28182831445E+02  0.00000000000E+00 0.  1.
         12    1    4    4    0    0  0.31416165489E+02 -0.21715870087E+02  0.84204709677E+02  0.92460735448E+02  0.00000000000E+00 0. -1.
        -13    1    3    3    0    0  0.32496499734E+02 -0.13848578579E+03  0.45405522729E+02  0.14931844111E+03  0.00000000000E+00 0.  1.
         13    1    3    3    0    0 -0.53962466941E+01 -0.60958422142E+02 -0.38128032607E+02  0.72102673868E+02  0.00000000000E+00 0. -1.
         21    1    1    2  502  501 -0.46495200683E+02  0.19583654106E+03  0.16392225284E+04  0.16515339088E+04  0.00000000000E+00 0.  1.
<scales pt_clust_5="13000.00000" pt_clust_6="13000.00000" pt_clust_7="13000.00000" pt_clust_8="13000.00000" pt_clust_9="201.23040"></scales>
<clustering>
<clus scale="   81.095">  5  6 -1 -1</clus>
<clus scale="   83.460">  2  5  1 -1</clus>
<clus scale="   91.989">  7  8 -1 -1</clus>
<clus scale="  201.230">  1  9  2 -1</clus>
<clus scale="   83.460">  2  5  1 -1</clus>
</clustering>
</event>
<event>
 9    2  0.3402837E-005  0.1447984E+03  0.7546771E-02  0.1211149E+00
          2   -1    0    0  502    0  0.00000000000E+00  0.00000000000E+00  0.31868215665E+03  0.31868215665E+03  0.00000000000E+00 0. -1.
         -1   -1    0    0    0  501 -0.00000000000E+00 -0.00000000000E+00 -0.21631921824E+03  0.21631921824E+03  0.00000000000E+00 0.  1.
         23    2    1    2    0    0  0.10546825365E+03  0.91545632720E+01 -0.15283790292E+03  0.20930743103E+03  0.96139573318E+02 0.  0.
         24    2    1    2    0    0 -0.12723508821E+03 -0.40391108424E+02  0.23919844759E+03  0.28439511282E+03  0.76449156666E+02 0.  0.
        -13    1    4    4    0    0 -0.55652202716E+02 -0.57651173848E+02  0.12889809521E+03  0.15177465026E+03  0.00000000000E+00 0.  1.
         14    1    4    4    0    0 -0.71582885498E+02  0.17260065424E+02  0.11030035238E+03  0.13262046256E+03  0.00000000000E+00 0. -1.
        -13    1    3    3    0    0  0.74625086987E+02  0.51275767069E+02 -0.90857723735E+02  0.12827015966E+03  0.00000000000E+00 0. -1.
         13    1    3    3    0    0  0.30843166658E+02 -0.42121203797E+02 -0.61980179188E+02  0.81037271370E+02  0.00000000000E+00 0.  1.
         21    1    1    2  502  501  0.21766834568E+02  0.31236545152E+02  0.16002393740E+02  0.41298831043E+02  0.00000000000E+00 0. -1.
<scales pt_clust_5="13000.00000" pt_clust_6="13000.00000" pt_clust_7="13000.00000" pt_clust_8="13000.00000" pt_clust_9="38.07252"></scales>
<clustering>
<clus scale="   38.073">  1  9  2 -1</clus>
<clus scale="   76.449">  5  6 -1 -1</clus>
<clus scale="   96.140">  7  8 -1 -1</clus>
<clus scale="  132.545">  1  5  2 -1</clus>
<clus scale="   38.073">  1  5  2 -1</clus>
</clustering>
</event>
<event>
 9    2  0.3402837E-005  0.9681872E+02  0.7546771E-02  0.1293114E+00
         -1   -1    0    0    0  501 -0.00000000000E+00  0.00000000000E+00  0.13007814607E+03  0.13007814607E+03  0.00000000000E+00 0.  1.
          2   -1    0    0  502    0  0.00000000000E+00 -0.00000000000E+00 -0.16262041939E+03  0.16262041939E+03  0.00000000000E+00 0. -1.
         23    2    1    2    0    0 -0.11379007992E+02  0.23283557062E+02  0.30649366549E+02  0.98898530235E+02  0.90387663763E+02 0.  0.
         24    2    1    2    0    0 -0.18296271303E+02 -0.34607470823E+02 -0.10755170291E+03  0.13924118244E+03  0.79298849351E+02 0.  0.
        -13    1    4    4    0    0  0.15970240933E+02 -0.43737831604E+02 -0.34218286564E+02  0.57783541292E+02  0.00000000000E+00 0.  1.
         14    1    4    4    0    0 -0.34266512235E+02  0.91303607804E+01 -0.73333416342E+02  0.81457641146E+02  0.00000000000E+00 0. -1.
        -13    1    3    3    0    0 -0.14717925508E+02  0.57001834227E+02  0.27165683595E+02  0.64836724174E+02  0.00000000000E+00 0.  1.
         13    1    3    3    0    0  0.33389175152E+01 -0.33718277166E+02  0.34836829542E+01  0.34061806061E+02  0.00000000000E+00 0. -1.
         21    1    1    2  502  501  0.29675279295E+02  0.11323913762E+02  0.44360063038E+02  0.54558852782E+02  0.00000000000E+00 0.  1.
<scales pt_clust_5="13000.00000" pt_clust_6="13000.00000" pt_clust_7="13000.00000" pt_clust_8="13000.00000" pt_clust_9="31.76245"></scales>
<clustering>
<clus scale="   31.762">  1  9  2 -1</clus>
<clus scale="   79.299">  5  6 -1 -1</clus>
<clus scale="   86.558">  2  5  1 -1</clus>
<clus scale="   90.388">  7  8 -1 -1</clus>
<clus scale="   86.558">  2  5  1 -1</clus>
</clustering>
</event>
<event>
 9    2  0.3402837E-005  0.1050495E+03  0.7546771E-02  0.1275555E+00
          2   -1    0    0  502    0  0.00000000000E+00  0.00000000000E+00  0.28498053360E+03  0.28498053360E+03  0.00000000000E+00 0. -1.
         -1   -1    0    0    0  501 -0.00000000000E+00 -0.00000000000E+00 -0.13730077118E+03  0.13730077118E+03  0.00000000000E+00 0.  1.
         24    2    1    2    0    0 -0.27377812699E+00 -0.64284555062E+02 -0.44175238213E+02  0.11072547127E+03  0.78588162872E+02 0.  0.
         23    2    1    2    0    0 -0.58445325383E+02  0.82142855893E+01  0.20242582389E+03  0.22968062029E+03  0.91069438403E+02 0.  0.
        -13    1    3    3    0    0 -0.22111460005E+02 -0.46344315921E+02 -0.59485735001E+02  0.78582854048E+02  0.00000000000E+00 0.  1.
         14    1    3    3    0    0  0.21837681878E+02 -0.17940239141E+02  0.15310496788E+02  0.32142617226E+02  0.00000000000E+00 0. -1.
        -11    1    4    4    0    0 -0.66148699951E+02 -0.12564831107E+02  0.76889884519E+02  0.10220361944E+03  0.00000000000E+00 0.  1.
         11    1    4    4    0    0  0.77033745680E+01  0.20779116696E+02  0.12553593937E+03  0.12747700084E+03  0.00000000000E+00 0. -1.
         21    1    1    2  502  501  0.58719103510E+02  0.56070269473E+02 -0.10570823253E+02  0.81875213221E+02  0.00000000000E+00 0.  1.
<scales pt_clust_5="13000.00000" pt_clust_6="13000.00000" pt_clust_7="13000.00000" pt_clust_8="13000.00000" pt_clust_9="81.18995"></scales>
<clustering>
<clus scale="   78.588">  5  6 -1 -1</clus>
<clus scale="   81.190">  2  9  1 -1</clus>
<clus scale="   91.069">  7  8 -1 -1</clus>
<clus scale="   94.434">  2  5  1 -1</clus>
<clus scale="  105.050">  1  5  2 -1</clus>
</clustering>
</event>
<event>
 9    2  0.3402837E-005  0.1031601E+03  0.7546771E-02  0.1273798E+00
         -1   -1    0    0    0  501 -0.00000000000E+00  0.00000000000E+00  0.12270416523E+03  0.12270416523E+03  0.00000000000E+00 0.  1.
          2   -1    0    0  502    0  0.00000000000E+00 -0.00000000000E+00 -0.23815997867E+03  0.23815997867E+03  0.00000000000E+00 0. -1.
         23    2    1    2    0    0  0.83778809290E+01 -0.39609730847E+02 -0.55944126162E+01  0.10158194009E+03  0.92997168950E+02 0.  0.
         24    2    1    2    0    0 -0.33091222063E+02  0.34008192941E+02 -0.16689598573E+03  0.19687170525E+03  0.93019417918E+02 0.  0.
        -13    1    4    4    0    0 -0.66232107608E+01 -0.32290388863E+02 -0.49322183761E+02  0.59322963047E+02  0.00000000000E+00 0.  1.
         14    1    4    4    0    0 -0.26468011302E+02  0.66298581805E+02 -0.11757380197E+03  0.13754874220E+03  0.00000000000E+00 0. -1.
        -11    1    3    3    0    0 -0.38274235594E+01 -0.66422464177E+02 -0.19033110842E+02  0.69201533414E+02  0.00000000000E+00 0.  1.
         11    1    3    3    0    0  0.12205304488E+02  0.26812733331E+02  0.13438698226E+02  0.32380406673E+02  0.00000000000E+00 0. -1.
         21    1    1    2  502  501  0.24713341134E+02  0.56015379050E+01  0.57034584900E+02  0.62410498569E+02  0.00000000000E+00 0.  1.
<scales pt_clust_5="13000.00000" pt_clust_6="13000.00000" pt_clust_7="13000.00000" pt_clust_8="13000.00000" pt_clust_9="25.34021"></scales>
<clustering>
<clus scale="   25.340">  1  9  2 -1</clus>
<clus scale="   92.997">  7  8 -1 -1</clus>
<clus scale="   93.019">  5  6 -1 -1</clus>
<clus scale="  103.140">  1  7  2 -1</clus>
<clus scale="  103.160">  2  5  1 -1</clus>
</clustering>
</event>
<event>
 9    2  0.3402837E-005  0.8978207E+02  0.7546771E-02  0.1306089E+00
          2   -1    0    0  502    0  0.00000000000E+00  0.00000000000E+00  0.42648458213E+03  0.42648458213E+03  0.00000000000E+00 0. -1.
         -1   -1    0    0    0  501 -0.00000000000E+00 -0.00000000000E+00 -0.42862678374E+02  0.42862678374E+02  0.00000000000E+00 0.  1.
         24    2    1    2    0    0 -0.14955687148E+02 -0.25574771920E+02  0.27594636187E+02  0.91108102908E+02  0.81617895908E+02 0.  0.
         23    2    1    2    0    0  0.20972714262E+02 -0.98802132787E+01  0.28481463706E+03  0.29846134530E+03  0.86152909387E+02 0.  0.
        -11    1    3    3    0    0 -0.16617794401E+02 -0.47014243748E+02 -0.70213871730E+01  0.50356628996E+02  0.00000000000E+00 0.  1.
         12    1    3    3    0    0  0.16621072527E+01  0.21439471829E+02  0.34616023360E+02  0.40751473913E+02  0.00000000000E+00 0. -1.
        -11    1    4    4    0    0 -0.24039809448E+02 -0.28965892325E+01  0.25454945591E+02  0.35131992862E+02  0.00000000000E+00 0.  1.
         11    1    4    4    0    0  0.45012523710E+02 -0.69836240462E+01  0.25935969147E+03  0.26332935243E+03  0.00000000000E+00 0. -1.
         21    1    1    2  502  501 -0.60170271140E+01  0.35454985198E+02  0.71212630509E+02  0.79777812296E+02  0.00000000000E+00 0. -1.
<scales pt_clust_5="13000.00000" pt_clust_6="13000.00000" pt_clust_7="13000.00000" pt_clust_8="13000.00000" pt_clust_9="35.96193"></scales>
<clustering>
<clus scale="   35.962">  1  9  2 -1</clus>
<clus scale="   81.618">  5  6 -1 -1</clus>
<clus scale="   85.440">  2  5  1 -1</clus>
<clus scale="   86.153">  7  8 -1 -1</clus>
<clus scale="   35.962">  1  5  2 -1</clus>
</clustering>
</event>
<event>
 9    2  0.3402837E-005  0.3160558E+03  0.7546771E-02  0.1078148E+00
          2   -1    0    0  502    0  0.00000000000E+00  0.00000000000E+00  0.50185515405E+03  0.50185515405E+03  0.00000000000E+00 0. -1.
         -1   -1    0    0    0  501 -0.00000000000E+00 -0.00000000000E+00 -0.64598373856E+03  0.64598373856E+03  0.00000000000E+00 0.  1.
         24    2    1    2    0    0 -0.23347834514E+03  0.71454438742E+02 -0.14378405482E+03  0.29485763567E+03  0.81543218157E+02 0.  0.
         23    2    1    2    0    0  0.28231612637E+03 -0.14411321731E+03  0.35529290706E+03  0.48672668237E+03  0.10098910293E+03 0.  0.
        -13    1    3    3    0    0 -0.16641490807E+03  0.49674245942E+02 -0.14198378661E+03  0.22432308842E+03  0.00000000000E+00 0.  1.
         14    1    3    3    0    0 -0.67063437068E+02  0.21780192800E+02 -0.18002682065E+01  0.70534547247E+02  0.00000000000E+00 0. -1.
        -13    1    4    4    0    0  0.10356214873E+03 -0.96567321555E+01  0.75550531235E+02  0.12855447832E+03  0.00000000000E+00 0.  1.
         13    1    4    4    0    0  0.17875397764E+03 -0.13445648516E+03  0.27974237582E+03  0.35817220405E+03  0.00000000000E+00 0. -1.
         21    1    1    2  502  501 -0.48837781231E+02  0.72658778571E+02 -0.35563743675E+03  0.36625457458E+03  0.00000000000E+00 0.  1.
<scales pt_clust_5="13000.00000" pt_clust_6="13000.00000" pt_clust_7="13000.00000" pt_clust_8="13000.00000" pt_clust_9="87.54671"></scales>
<clustering>
<clus scale="   81.543">  5  6 -1 -1</clus>
<clus scale="   87.547">  2  9  1 -1</clus>
<clus scale="  100.989">  7  8 -1 -1</clus>
<clus scale="  310.390">  2  5  1 -1</clus>
<clus scale="  316.056">  1  5  2 -1</clus>
</clustering>
</event>
<event>
 9    2  0.3402837E-005  0.1062152E+03  0.7546771E-02  0.1271358E+00
         -1   -1    0    0    0  501 -0.00000000000E+00  0.00000000000E+00  0.33180412473E+02  0.33180412473E+02  0.00000000000E+00 0.  1.
          2   -1    0    0  502    0  0.00000000000E+00 -0.00000000000E+00 -0.71499813161E+03  0.71499813161E+03  0.00000000000E+00 0. -1.
         24    2    1    2    0    0 -0.28393597544E+02 -0.30600595430E+02 -0.13169162562E+03  0.16125374757E+03  0.83171473615E+02 0.  0.
         23    2    1    2    0    0  0.49464215109E+02  0.31157835662E+02 -0.55479438699E+03  0.56533604005E+03  0.91599710938E+02 0.  0.
        -13    1    3    3    0    0  0.65174468971E+01 -0.26733664237E+02 -0.27963571078E+01  0.27658371800E+02  0.00000000000E+00 0.  1.
         14    1    3    3    0    0 -0.34911044442E+02 -0.38669311933E+01 -0.12889526852E+03  0.13359537577E+03  0.00000000000E+00 0. -1.
        -13    1    4    4    0    0 -0.25141266347E+02  0.25904883271E+01 -0.80930470257E+02  0.84785228190E+02  0.00000000000E+00 0.  1.
         13    1    4    4    0    0  0.74605481456E+02  0.28567347335E+02 -0.47386391674E+03  0.48055081186E+03  0.00000000000E+00 0. -1.
         21    1    1    2  502  501 -0.21070617565E+02 -0.55724023242E+00  0.46682934850E+01  0.21588756456E+02  0.00000000000E+00 0. -1.
<scales pt_clust_5="13000.00000" pt_clust_6="13000.00000" pt_clust_7="13000.00000" pt_clust_8="13000.00000" pt_clust_9="21.07798"></scales>
<clustering>
<clus scale="   21.078">  1  9  2 -1</clus>
<clus scale="   83.171">  5  6 -1 -1</clus>
<clus scale="   91.600">  7  8 -1 -1</clus>
<clus scale="   99.039">  1  5  2 -1</clus>
<clus scale="  106.215">  2  5  1 -1</clus>
</clustering>
</event>
<event>
 9    2  0.3402837E-005  0.1094728E+03  0.7546771E-02  0.1268379E+00
          2   -1    0    0  502    0  0.00000000000E+00  0.00000000000E+00  0.27574252699E+03  0.27574252699E+03  0.00000000000E+00 0. -1.
         -1   -1    0    0    0  501 -0.00000000000E+00 -0.00000000000E+00 -0.99751056151E+02  0.99751056151E+02  0.00000000000E+00 0.  1.
         23    2    1    2    0    0 -0.14251862052E+02  0.16680379822E+02  0.47800269563E+02  0.10868602559E+03  0.95112752806E+02 0.  0.
         24    2    1    2    0    0  0.21006527282E+02 -0.68004510333E+02  0.16982442324E+03  0.20037626187E+03  0.79021667763E+02 0.  0.
        -11    1    4    4    0    0 -0.26594299021E+02 -0.37489087277E+02  0.50212191658E+02  0.68073141520E+02  0.00000000000E+00 0.  1.
         12    1    4    4    0    0  0.47600826303E+02 -0.30515423056E+02  0.11961223158E+03  0.13230312035E+03  0.00000000000E+00 0. -1.
        -13    1    3    3    0    0 -0.50045857111E+02  0.27624603531E+01  0.37751232293E+01  0.50264008561E+02  0.00000000000E+00 0.  1.
         13    1    3    3    0    0  0.35793995059E+02  0.13917919469E+02  0.44025146334E+02  0.58422017034E+02  0.00000000000E+00 0. -1.
         21    1    1    2  502  501 -0.67546652302E+01  0.51324130511E+02 -0.41633221963E+02  0.66431295683E+02  0.00000000000E+00 0.  1.
<scales pt_clust_5="13000.00000" pt_clust_6="13000.00000" pt_clust_7="13000.00000" pt_clust_8="13000.00000" pt_clust_9="51.76671"></scales>
<clustering>
<clus scale="   51.767">  2  9  1 -1</clus>
<clus scale="   79.022">  5  6 -1 -1</clus>
<clus scale="   95.113">  7  8 -1 -1</clus>
<clus scale="   95.824">  1  5  2 -1</clus>
<clus scale="   95.824">  1  5  2 -1</clus>
</clustering>
</event>
<event>
 9    2  0.3402837E-005  0.9547881E+02  0.7546771E-02  0.1297084E+00
          4   -1    0    0  502    0  0.00000000000E+00  0.00000000000E+00  0.26878943251E+02  0.26878943251E+02  0.00000000000E+00 0. -1.
         -3   -1    0    0    0  501 -0.00000000000E+00 -0.00000000000E+00 -0.43042090238E+03  0.43042090238E+03  0.00000000000E+00 0.  1.
         24    2    1    2    0    0 -0.38723909196E+02 -0.54855586594E+01 -0.21446816191E+03  0.23208614649E+03  0.79610014582E+02 0.  0.
         23    2    1    2    0    0  0.18735174478E+02 -0.49389875873E+01 -0.11857459172E+03  0.15119776399E+03  0.91790139305E+02 0.  0.
        -13    1    3    3    0    0  0.15019194886E+02 -0.26481894889E+02 -0.62157654032E+02  0.69213011253E+02  0.00000000000E+00 0.  1.
         14    1    3    3    0    0 -0.53743104082E+02  0.20996336230E+02 -0.15231050787E+03  0.16287313523E+03  0.00000000000E+00 0. -1.
        -13    1    4    4    0    0 -0.22338432499E+02 -0.35830531362E+02 -0.58355939140E+02  0.72029495188E+02  0.00000000000E+00 0.  1.
         13    1    4    4    0    0  0.41073606977E+02  0.30891543775E+02 -0.60218652583E+02  0.79168268806E+02  0.00000000000E+00 0. -1.
         21    1    1    2  502  501  0.19988734718E+02  0.10424546247E+02 -0.70499205496E+02  0.74015935147E+02  0.00000000000E+00 0. -1.
<scales pt_clust_5="13000.00000" pt_clust_6="13000.00000" pt_clust_7="13000.00000" pt_clust_8="13000.00000" pt_clust_9="22.54375"></scales>
<clustering>
<clus scale="   22.544">  2  9  1 -1</clus>
<clus scale="   79.610">  5  6 -1 -1</clus>
<clus scale="   83.836">  2  5  1 -1</clus>
<clus scale="   91.790">  7  8 -1 -1</clus>
<clus scale="   95.479">  1  5  2 -1</clus>
</clustering>
</event>
<event>
 9    2  0.3402837E-005  0.9619845E+02  0.7546771E-02  0.1294064E+00
          2   -1    0    0  502    0  0.00000000000E+00  0.00000000000E+00  0.28861877132E+03  0.28861877132E+03  0.00000000000E+00 0. -1.
         -1   -1    0    0    0  501 -0.00000000000E+00 -0.00000000000E+00 -0.71064656208E+02  0.71064656208E+02  0.00000000000E+00 0.  1.
         24    2    1    2    0    0 -0.16660412252E+02 -0.90316158738E+01  0.40190185826E+02  0.91915792695E+02  0.80461931920E+02 0.  0.
         23    2    1    2    0    0  0.66140191956E+01 -0.52839061263E+02  0.17608927885E+03  0.20507365238E+03  0.90620401287E+02 0.  0.
        -13    1    3    3    0    0 -0.37242566204E+02 -0.24196932522E+02  0.15403556160E+00  0.44413106262E+02  0.00000000000E+00 0.  1.
         14    1    3    3    0    0  0.20582153952E+02  0.15165316648E+02  0.40036150264E+02  0.47502686433E+02  0.00000000000E+00 0. -1.
        -13    1    4    4    0    0 -0.16035032774E+02  0.21667983135E+02  0.52037098765E+02  0.58604465846E+02  0.00000000000E+00 0.  1.
         13    1    4    4    0    0  0.22649051970E+02 -0.74507044398E+02  0.12405218008E+03  0.14646918653E+03  0.00000000000E+00 0. -1.
         21    1    1    2  502  501  0.10046393056E+02  0.61870677137E+02  0.12746504421E+01  0.62693982459E+02  0.00000000000E+00 0.  1.
<scales pt_clust_5="13000.00000" pt_clust_6="13000.00000" pt_clust_7="13000.00000" pt_clust_8="13000.00000" pt_clust_9="62.68102"></scales>
<clustering>
<clus scale="   62.681">  2  9  1 -1</clus>
<clus scale="   80.462">  5  6 -1 -1</clus>
<clus scale="   86.696">  2  5  1 -1</clus>
<clus scale="   90.620">  7  8 -1 -1</clus>
<clus scale="   96.198">  1  5  2 -1</clus>
</clustering>
</event>
<event>
 9    2  0.3402837E-005  0.2593495E+03  0.7546771E-02  0.1108317E+00
          2   -1    0    0  502    0  0.00000000000E+00  0.00000000000E+00  0.79894907441E+03  0.79894907441E+03  0.00000000000E+00 0. -1.
         -1   -1    0    0    0  501 -0.00000000000E+00 -0.00000000000E+00 -0.96687287758E+02  0.96687287758E+02  0.00000000000E+00 0.  1.
         23    2    1    2    0    0 -0.19623735122E+03  0.12412414746E+03  0.27521645912E+03  0.37249250809E+03  0.95344990499E+02 0.  0.
         24    2    1    2    0    0  0.21794081136E+03 -0.11872351451E+03  0.42746736404E+03  0.50077456413E+03  0.80332724389E+02 0.  0.
        -13    1    4    4    0    0  0.40365880158E+02 -0.24523046356E+02  0.31695477295E+02  0.56880465579E+02  0.00000000000E+00 0.  1.
         14    1    4    4    0    0  0.17757493120E+03 -0.94200468149E+02  0.39577188674E+03  0.44389409855E+03  0.00000000000E+00 0. -1.
        -13    1    3    3    0    0 -0.80284243950E+02  0.15707334945E+02  0.46540240968E+02  0.94118405358E+02  0.00000000000E+00 0.  1.
         13    1    3    3    0    0 -0.11595310727E+03  0.10841681252E+03  0.22867621815E+03  0.27837410273E+03  0.00000000000E+00 0. -1.
         21    1    1    2  502  501 -0.21703460140E+02 -0.54006329563E+01 -0.42203650210E+00  0.22369289957E+02  0.00000000000E+00 0.  1.
<scales pt_clust_5="13000.00000" pt_clust_6="13000.00000" pt_clust_7="13000.00000" pt_clust_8="13000.00000" pt_clust_9="22.36531"></scales>
<clustering>
<clus scale="   22.365">  2  9  1 -1</clus>
<clus scale="   80.333">  5  6 -1 -1</clus>
<clus scale="   95.345">  7  8 -1 -1</clus>
<clus scale="  254.214">  1  5  2 -1</clus>
<clus scale="  254.214">  1  5  2 -1</clus>
</clustering>
</event>
<event>
 9    2  0.3402837E-005  0.1711559E+03  0.7546771E-02  0.1178626E+00
         -1   -1    0    0    0  501 -0.00000000000E+00  0.00000000000E+00  0.22204270558E+03  0.22204270558E+03  0.00000000000E+00 0.  1.
          2   -1    0    0  502    0  0.00000000000E+00 -0.00000000000E+00 -0.45459723484E+03  0.45459723484E+03  0.00000000000E+00 0. -1.
         23    2    1    2    0    0 -0.11934857418E+03 -0.53981305292E+02  0.12938517524E+03  0.20550946127E+03  0.91299242158E+02 0.  0.
         24    2    1    2    0    0  0.14029677300E+03  0.41277148792E+02 -0.39610374452E+03  0.42908997183E+03  0.76374341073E+02 0.  0.
        -13    1    4    4    0    0  0.30459259494E+02 -0.17823463493E+02 -0.50021381960E+02  0.61217489273E+02  0.00000000000E+00 0.  1.
         14    1    4    4    0    0  0.10983751350E+03  0.59100612285E+02 -0.34608236256E+03  0.36787248256E+03  0.00000000000E+00 0. -1.
        -13    1    3    3    0    0 -0.12557377791E+03 -0.30153992559E+02  0.84559814694E+02  0.15436450119E+03  0.00000000000E+00 0.  1.
         13    1    3    3    0    0  0.62252037279E+01 -0.23827312734E+02  0.44825360545E+02  0.51144960080E+02  0.00000000000E+00 0. -1.
         21    1    1    2  502  501 -0.20948198814E+02  0.12704156500E+02  0.34164040022E+02  0.42040507330E+02  0.00000000000E+00 0. -1.
<scales pt_clust_5="13000.00000" pt_clust_6="13000.00000" pt_clust_7="13000.00000" pt_clust_8="13000.00000" pt_clust_9="24.49944"></scales>
<clustering>
<clus scale="   24.499">  1  9  2 -1</clus>
<clus scale="   76.374">  5  6 -1 -1</clus>
<clus scale="   91.299">  7  8 -1 -1</clus>
<clus scale="  163.682">  2  5  1 -1</clus>
<clus scale="  163.682">  2  5  1 -1</clus>
</clustering>
</event>
<event>
 9    2  0.3402837E-005  0.2810502E+03  0.7546771E-02  0.1149836E+00
          2   -1    0    0  502    0  0.00000000000E+00  0.00000000000E+00  0.91142642357E+03  0.91142642357E+03  0.00000000000E+00 0. -1.
         -1   -1    0    0    0  501 -0.00000000000E+00 -0.00000000000E+00 -0.32489721622E+03  0.32489721622E+03  0.00000000000E+00 0.  1.
         23    2    1    2    0    0  0.61718462392E+02  0.26316039086E+03  0.66478556951E+03  0.72339710125E+03  0.91109564501E+02 0.  0.
         24    2    1    2    0    0 -0.24206661044E+02 -0.25587963942E+00  0.14767817957E+03  0.16425429357E+03  0.67709676729E+02 0.  0.
        -13    1    4    4    0    0 -0.33629546279E+02 -0.19274967981E+02  0.44942658391E+02  0.59349080168E+02  0.00000000000E+00 0.  1.
         14    1    4    4    0    0  0.94228852350E+01  0.19019088342E+02  0.10273552118E+03  0.10490521341E+03  0.00000000000E+00 0. -1.
        -13    1    3    3    0    0  0.67667971320E+02  0.93196985791E+02  0.26673989221E+03  0.29054225614E+03  0.00000000000E+00 0.  1.
         13    1    3    3    0    0 -0.59495089284E+01  0.16996340507E+03  0.39804567730E+03  0.43285484511E+03  0.00000000000E+00 0. -1.
         21    1    1    2  502  501 -0.37511801348E+02 -0.26290451122E+03 -0.22593454174E+03  0.34867224497E+03  0.00000000000E+00 0.  1.
<scales pt_clust_5="13000.00000" pt_clust_6="13000.00000" pt_clust_7="13000.00000" pt_clust_8="13000.00000" pt_clust_9="265.87260"></scales>
<clustering>
<clus scale="   67.710">  5  6 -1 -1</clus>
<clus scale="   71.907">  1  5  2 -1</clus>
<clus scale="   91.110">  7  8 -1 -1</clus>
<clus scale="  265.873">  2  9  1 -1</clus>
<clus scale="   71.907">  1  5  2 -1</clus>
</clustering>
</event>
<event>
 9    2  0.3402837E-005  0.1324689E+03  0.7546771E-02  0.1236343E+00
          2   -1    0    0  502    0  0.00000000000E+00  0.00000000000E+00  0.11958040251E+04  0.11958040251E+04  0.00000000000E+00 0. -1.
         -1   -1    0    0    0  501 -0.00000000000E+00 -0.00000000000E+00 -0.35084433004E+02  0.35084433004E+02  0.00000000000E+00 0.  1.
         24    2    1    2    0    0  0.16756806478E+02  0.81538401764E+02  0.66573562323E+03  0.67561241039E+03  0.79491556212E+02 0.  0.
         23    2    1    2    0    0 -0.36150166881E+02  0.28222244649E+02  0.38620827655E+03  0.39953378252E+03  0.91471748850E+02 0.  0.
        -13    1    3    3    0    0  0.32883854603E+02  0.67521428877E+01  0.12251863934E+03  0.12703446900E+03  0.00000000000E+00 0.  1.
         14    1    3    3    0    0 -0.16127048124E+02  0.74786258876E+02  0.54321698389E+03  0.54857794139E+03  0.00000000000E+00 0. -1.
        -11    1    4    4    0    0 -0.31455552374E+02 -0.30260888357E+02  0.16679969004E+03  0.17241609477E+03  0.00000000000E+00 0.  1.
         11    1    4    4    0    0 -0.46946145068E+01  0.58483133006E+02  0.21940858652E+03  0.22711768775E+03  0.00000000000E+00 0. -1.
         21    1    1    2  502  501  0.19393360403E+02 -0.10976064641E+03  0.10877569230E+03  0.15574226518E+03  0.00000000000E+00 0.  1.
<scales pt_clust_5="13000.00000" pt_clust_6="13000.00000" pt_clust_7="13000.00000" pt_clust_8="13000.00000" pt_clust_9="105.96748"></scales>
<clustering>
<clus scale="   79.492">  5  6 -1 -1</clus>
<clus scale="   91.472">  7  8 -1 -1</clus>
<clus scale="  102.325">  1  7  2 -1</clus>
<clus scale="  105.967">  2  9  1 -1</clus>
<clus scale="  102.325">  1  5  2 -1</clus>
</clustering>
</event>
<event>
 9    2  0.3402837E-005  0.9370760E+02  0.7546771E-02  0.1299725E+00
         -1   -1    0    0    0  501 -0.00000000000E+00  0.00000000000E+00  0.16676370211E+03  0.16676370211E+03  0.00000000000E+00 0.  1.
          2   -1    0    0  502    0  0.00000000000E+00 -0.00000000000E+00 -0.16508438613E+03  0.16508438613E+03  0.00000000000E+00 0. -1.
         24    2    1    2    0    0  0.11677706281E+00 -0.42092452657E+02  0.85268920430E+02  0.12530124066E+03  0.81595489533E+02 0.  0.
         23    2    1    2    0    0 -0.71314521827E+01  0.17796654734E+02 -0.12629200363E+03  0.15691836423E+03  0.91137941179E+02 0.  0.
        -11    1    3    3    0    0 -0.20230125246E+02 -0.36655910850E+02  0.93690024227E+02  0.10261936663E+03  0.00000000000E+00 0.  1.
         12    1    3    3    0    0  0.20346902308E+02 -0.54365418073E+01 -0.84211037975E+01  0.22681874031E+02  0.00000000000E+00 0. -1.
        -11    1    4    4    0    0 -0.26344964255E+02 -0.21783061431E+02 -0.15161561718E+02  0.37395612853E+02  0.00000000000E+00 0.  1.
         11    1    4    4    0    0  0.19213512072E+02  0.39579716164E+02 -0.11113044191E+03  0.11952275138E+03  0.00000000000E+00 0. -1.
         21    1    1    2  502  501  0.70146751199E+01  0.24295797923E+02  0.42702399177E+02  0.49628483346E+02  0.00000000000E+00 0. -1.
<scales pt_clust_5="13000.00000" pt_clust_6="13000.00000" pt_clust_7="13000.00000" pt_clust_8="13000.00000" pt_clust_9="25.28817"></scales>
<clustering>
<clus scale="   25.288">  1  9  2 -1</clus>
<clus scale="   81.595">  5  6 -1 -1</clus>
<clus scale="   84.456">  1  5  2 -1</clus>
<clus scale="   91.138">  7  8 -1 -1</clus>
<clus scale="   93.708">  2  5  1 -1</clus>
</clustering>
</event>
<event>
 9    2  0.3402837E-005  0.1799485E+03  0.7546771E-02  0.1169107E+00
         -1   -1    0    0    0  501 -0.00000000000E+00  0.00000000000E+00  0.32172885636E+02  0.32172885636E+02  0.00000000000E+00 0.  1.
          2   -1    0    0  502    0  0.00000000000E+00 -0.00000000000E+00 -0.11262214215E+04  0.11262214215E+04  0.00000000000E+00 0. -1.
         23    2    1    2    0    0  0.15905632753E+03 -0.96402790532E+00 -0.44733533098E+03  0.48348485283E+03  0.91372095808E+02 0.  0.
         24    2    1    2    0    0 -0.14953408242E+03 -0.18846345859E+02 -0.56972264426E+03  0.59484279155E+03  0.80860551046E+02 0.  0.
        -13    1    4    4    0    0 -0.10265715299E+03  0.19644142816E+02 -0.28078481619E+03  0.29960723691E+03  0.00000000000E+00 0.  1.
         14    1    4    4    0    0 -0.46876929431E+02 -0.38490488675E+02 -0.28893782807E+03  0.29523555464E+03  0.00000000000E+00 0. -1.
        -13    1    3    3    0    0  0.12299919945E+02  0.25271234642E+02 -0.34160564843E+02  0.44236495356E+02  0.00000000000E+00 0.  1.
         13    1    3    3    0    0  0.14675640759E+03 -0.26235262547E+02 -0.41317476614E+03  0.43924835748E+03  0.00000000000E+00 0. -1.
         21    1    1    2  502  501 -0.95222451156E+01  0.19810373764E+02 -0.76990560613E+02  0.80066662752E+02  0.00000000000E+00 0.  1.
<scales pt_clust_5="13000.00000" pt_clust_6="13000.00000" pt_clust_7="13000.00000" pt_clust_8="13000.00000" pt_clust_9="21.98008"></scales>
<clustering>
<clus scale="   21.980">  2  9  1 -1</clus>
<clus scale="   80.861">  5  6 -1 -1</clus>
<clus scale="   91.372">  7  8 -1 -1</clus>
<clus scale="  174.846">  2  5  1 -1</clus>
<clus scale="   21.980">  2  5  1 -1</clus>
</clustering>
</event>
<event>
 9    2  0.3402837E-005  0.9121515E+02  0.7546771E-02  0.1300114E+00
         -1   -1    0    0    0  501 -0.00000000000E+00  0.00000000000E+00  0.32576161159E+02  0.32576161159E+02  0.00000000000E+00 0.  1.
          2   -1    0    0  502    0  0.00000000000E+00 -0.00000000000E+00 -0.12695884860E+04  0.12695884860E+04  0.00000000000E+00 0. -1.
         23    2    1    2    0    0  0.18012779927E+00 -0.10351379888E+02 -0.60211954678E+02  0.10860621392E+03  0.89792241887E+02 0.  0.
         24    2    1    2    0    0  0.48579871515E+02  0.53028032868E+02 -0.97045599606E+03  0.97727890354E+03  0.90095720424E+02 0.  0.
        -11    1    4    4    0    0  0.24530226285E+02 -0.40574863631E+01 -0.63263270062E+02  0.67973793010E+02  0.00000000000E+00 0.  1.
         12    1    4    4    0    0  0.24049645230E+02  0.57085519231E+02 -0.90719272600E+03  0.90930511053E+03  0.00000000000E+00 0. -1.
        -11    1    3    3    0    0  0.12565305178E+02 -0.40440592700E+02 -0.25837780411E+01  0.42426458031E+02  0.00000000000E+00 0.  1.
         11    1    3    3    0    0 -0.12385177378E+02  0.30089212812E+02 -0.57628176637E+02  0.66179755884E+02  0.00000000000E+00 0. -1.
         21    1    1    2  502  501 -0.48759999314E+02 -0.42676652980E+02 -0.20634437408E+03  0.21627952968E+03  0.00000000000E+00 0.  1.
<scales pt_clust_5="13000.00000" pt_clust_6="13000.00000" pt_clust_7="13000.00000" pt_clust_8="13000.00000" pt_clust_9="64.79841"></scales>
<clustering>
<clus scale="   64.798">  2  9  1 -1</clus>
<clus scale="   89.792">  7  8 -1 -1</clus>
<clus scale="   90.096">  5  6 -1 -1</clus>
<clus scale="   90.915">  1  7  2 -1</clus>
<clus scale="   64.798">  2  5  1 -1</clus>
</clustering>
</event>
<event>
 9    2  0.3402837E-005  0.1075363E+03  0.7546771E-02  0.1269185E+00
         -1   -1    0    0    0  501 -0.00000000000E+00  0.00000000000E+00  0.96553370290E+02  0.96553370290E+02  0.00000000000E+00 0.  1.
          2   -1    0    0  502    0  0.00000000000E+00 -0.00000000000E+00 -0.11846387914E+04  0.11846387914E+04  0.00000000000E+00 0. -1.
         23    2    1    2    0    0 -0.58917926833E+02 -0.29638027994E+02 -0.11904777233E+03  0.16321895817E+03  0.90101728078E+02 0.  0.
         24    2    1    2    0    0  0.67060860886E+01  0.60580314010E+02 -0.10282475012E+04  0.10331834164E+04  0.80374761414E+02 0.  0.
        -11    1    4    4    0    0 -0.23398316499E+02  0.18644484937E+02 -0.12771372917E+03  0.13117124172E+03  0.00000000000E+00 0.  1.
         12    1    4    4    0    0  0.30104402588E+02  0.41935829073E+02 -0.90053377202E+03  0.90201217473E+03  0.00000000000E+00 0. -1.
        -11    1    3    3    0    0  0.14866814600E+01  0.27859476119E+02 -0.35771312795E+02  0.45364605701E+02  0.00000000000E+00 0.  1.
         11    1    3    3    0    0 -0.60404608293E+02 -0.57497504113E+02 -0.83276459537E+02  0.11785435247E+03  0.00000000000E+00 0. -1.
         21    1    1    2  502  501  0.52211840745E+02 -0.30942286016E+02  0.59209852385E+02  0.84789787105E+02  0.00000000000E+00 0.  1.
<scales pt_clust_5="13000.00000" pt_clust_6="13000.00000" pt_clust_7="13000.00000" pt_clust_8="13000.00000" pt_clust_9="60.69186"></scales>
<clustering>
<clus scale="   60.692">  1  9  2 -1</clus>
<clus scale="   80.375">  5  6 -1 -1</clus>
<clus scale="   90.102">  7  8 -1 -1</clus>
<clus scale="   99.528">  2  5  1 -1</clus>
<clus scale="   99.528">  2  5  1 -1</clus>
</clustering>
</event>
<event>
 9    2  0.3402837E-005  0.1206268E+03  0.7546771E-02  0.1242559E+00
          4   -1    0    0  502    0  0.00000000000E+00  0.00000000000E+00  0.17500383063E+03  0.17500383063E+03  0.00000000000E+00 0. -1.
         -3   -1    0    0    0  501 -0.00000000000E+00 -0.00000000000E+00 -0.20334596020E+03  0.20334596020E+03  0.00000000000E+00 0.  1.
         23    2    1    2    0    0  0.42899082974E+01  0.73875391072E+02 -0.13942688192E+03  0.17634537555E+03  0.78624801152E+02 0.  0.
         24    2    1    2    0    0 -0.15943644369E+02 -0.91081715538E+02  0.12650087228E+03  0.17612925500E+03  0.80429876759E+02 0.  0.
        -13    1    4    4    0    0 -0.37717522850E+00 -0.10174870390E+03  0.93876345728E+02  0.13844027338E+03  0.00000000000E+00 0.  1.
         14    1    4    4    0    0 -0.15566469140E+02  0.10666988361E+02  0.32624526557E+02  0.37688981616E+02  0.00000000000E+00 0. -1.
        -13    1    3    3    0    0  0.38080697164E+02  0.17548586070E+02 -0.61412712693E+02  0.74361372028E+02  0.00000000000E+00 0.  1.
         13    1    3    3    0    0 -0.33790788867E+02  0.56326805002E+02 -0.78014169225E+02  0.10198400352E+03  0.00000000000E+00 0. -1.
         21    1    1    2  502  501  0.11653736071E+02  0.17206324466E+02 -0.15416119942E+02  0.25875160291E+02  0.00000000000E+00 0.  1.
<scales pt_clust_5="13000.00000" pt_clust_6="13000.00000" pt_clust_7="13000.00000" pt_clust_8="13000.00000" pt_clust_9="20.78141"></scales>
<clustering>
<clus scale="   20.781">  2  9  1 -1</clus>
<clus scale="   78.625">  7  8 -1 -1</clus>
<clus scale="   80.430">  5  6 -1 -1</clus>
<clus scale="  119.431">  2  7  1 -1</clus>
<clus scale="  120.627">  1  5  2 -1</clus>
</clustering>
</event>
<event>
 9    2  0.3402837E-005  0.1017134E+03  0.7546771E-02  0.1282113E+00
          2   -1    0    0  502    0  0.00000000000E+00  0.00000000000E+00  0.79472779239E+03  0.79472779239E+03  0.00000000000E+00 0. -1.
         -1   -1    0    0    0  501 -0.00000000000E+00 -0.00000000000E+00 -0.33885677072E+02  0.33885677072E+02  0.00000000000E+00 0.  1.
         23    2    1    2    0    0  0.38461239841E+02 -0.67479229855E+02  0.13357090697E+03  0.17939880462E+03  0.91159368571E+02 0.  0.
         24    2    1    2    0    0  0.56644198009E+01  0.41486502364E+02  0.54414246824E+03  0.55157715590E+03  0.79956973635E+02 0.  0.
        -11    1    4    4    0    0  0.40179892469E+02  0.32246285433E+02  0.24857582092E+03  0.25385859337E+03  0.00000000000E+00 0.  1.
         12    1    4    4    0    0 -0.34515472668E+02  0.92402169313E+01  0.29556664733E+03  0.29771856253E+03  0.00000000000E+00 0. -1.
        -11    1    3    3    0    0  0.14975194558E+02 -0.38968175202E+02  0.13611452506E+03  0.14237253619E+03  0.00000000000E+00 0. -1.
         11    1    3    3    0    0  0.23486045283E+02 -0.28511054653E+02 -0.25436180901E+01  0.37026268424E+02  0.00000000000E+00 0.  1.
         21    1    1    2  502  501 -0.44125659642E+02  0.25992727490E+02  0.83128740103E+02  0.97637508941E+02  0.00000000000E+00 0. -1.
<scales pt_clust_5="13000.00000" pt_clust_6="13000.00000" pt_clust_7="13000.00000" pt_clust_8="13000.00000" pt_clust_9="51.21226"></scales>
<clustering>
<clus scale="   51.212">  2  9  1 -1</clus>
<clus scale="   79.957">  5  6 -1 -1</clus>
<clus scale="   91.159">  7  8 -1 -1</clus>
<clus scale="   91.808">  1  5  2 -1</clus>
<clus scale="   91.808">  1  5  2 -1</clus>
</clustering>
</event>
<event>
 9    2  0.3402837E-005  0.1164594E+03  0.7546771E-02  0.1252213E+00
          2   -1    0    0  502    0  0.00000000000E+00  0.00000000000E+00  0.24593633674E+03  0.24593633674E+03  0.00000000000E+00 0. -1.
         -1   -1    0    0    0  501 -0.00000000000E+00 -0.00000000000E+00 -0.51162082645E+03  0.51162082645E+03  0.00000000000E+00 0.  1.
         24    2    1    2    0    0 -0.33404182499E+02 -0.97998265802E+01 -0.21767309346E+03  0.23421902849E+03  0.79152395290E+02 0.  0.
         23    2    1    2    0    0  0.24042660375E+02  0.75425107140E+02  0.21847175094E+03  0.24873372235E+03  0.88721825796E+02 0.  0.
        -11    1    3    3    0    0  0.17778812408E+02 -0.26181758592E+02 -0.63527709224E+02  0.70974224145E+02  0.00000000000E+00 0.  1.
         12    1    3    3    0    0 -0.51182994907E+02  0.16381932012E+02 -0.15414538423E+03  0.16324480434E+03  0.00000000000E+00 0. -1.
        -11    1    4    4    0    0  0.53110246906E+02  0.64840163646E+02  0.12692539991E+03  0.15210194703E+03  0.00000000000E+00 0.  1.
         11    1    4    4    0    0 -0.29067586531E+02  0.10584943495E+02  0.91546351029E+02  0.96631775324E+02  0.00000000000E+00 0. -1.
         21    1    1    2  502  501  0.93615221243E+01 -0.65625280560E+02 -0.26648314719E+03  0.27460441235E+03  0.00000000000E+00 0.  1.
<scales pt_clust_5="13000.00000" pt_clust_6="13000.00000" pt_clust_7="13000.00000" pt_clust_8="13000.00000" pt_clust_9="66.28963"></scales>
<clustering>
<clus scale="   66.290">  2  9  1 -1</clus>
<clus scale="   79.152">  5  6 -1 -1</clus>
<clus scale="   88.722">  7  8 -1 -1</clus>
<clus scale="  109.345">  2  5  1 -1</clus>
<clus scale="  116.459">  1  5  2 -1</clus>
</clustering>
</event>
<event>
 9    2  0.3402837E-005  0.9525387E+02  0.7546771E-02  0.1297525E+00
          2   -1    0    0  502    0  0.00000000000E+00  0.00000000000E+00  0.19463762198E+03  0.19463762198E+03  0.00000000000E+00 0. -1.
         -1   -1    0    0    0  501 -0.00000000000E+00 -0.00000000000E+00 -0.88573885657E+02  0.88573885657E+02  0.00000000000E+00 0.  1.
         23    2    1    2    0    0 -0.29505487693E+01 -0.48817399321E+02 -0.23471887922E+02  0.10470927459E+03  0.89561478597E+02 0.  0.
         24    2    1    2    0    0 -0.25991967967E+01  0.29390452948E+02  0.13434401186E+03  0.15773383126E+03  0.77208117800E+02 0.  0.
        -11    1    4    4    0    0  0.27810328758E+02  0.13056714524E+02  0.16366668235E+02  0.34810343419E+02  0.00000000000E+00 0.  1.
         12    1    4    4    0    0 -0.30409525555E+02  0.16333738424E+02  0.11797734362E+03  0.12292348784E+03  0.00000000000E+00 0. -1.
        -11    1    3    3    0    0  0.31882262208E+02 -0.55987403063E+02 -0.25010528659E+02  0.69112911160E+02  0.00000000000E+00 0.  1.
         11    1    3    3    0    0 -0.34832810977E+02  0.71700037425E+01  0.15386407372E+01  0.35596363431E+02  0.00000000000E+00 0. -1.
         21    1    1    2  502  501  0.55497455660E+01  0.19426946373E+02 -0.48083876114E+01  0.20768401784E+02  0.00000000000E+00 0.  1.
<scales pt_clust_5="13000.00000" pt_clust_6="13000.00000" pt_clust_7="13000.00000" pt_clust_8="13000.00000" pt_clust_9="20.20411"></scales>
<clustering>
<clus scale="   20.204">  2  9  1 -1</clus>
<clus scale="   77.208">  5  6 -1 -1</clus>
<clus scale="   83.744">  1  5  2 -1</clus>
<clus scale="   89.561">  7  8 -1 -1</clus>
<clus scale="   83.744">  1  5  2 -1</clus>
</clustering>
</event>
<event>
 9    2  0.3402837E-005  0.9675669E+02  0.7546771E-02  0.1290940E+00
         -1   -1    0    0    0  501 -0.00000000000E+00  0.00000000000E+00  0.57655384748E+02  0.57655384748E+02  0.00000000000E+00 0.  1.
          2   -1    0    0  502    0  0.00000000000E+00 -0.00000000000E+00 -0.30405529525E+03  0.30405529525E+03  0.00000000000E+00 0. -1.
         24    2    1    2    0    0  0.28239553595E+02  0.48146184358E+01 -0.77839476822E+02  0.11715686235E+03  0.82741122216E+02 0.  0.
         23    2    1    2    0    0 -0.22026931503E+02  0.53577263659E+02 -0.14763314596E+03  0.18221474532E+03  0.89727134877E+02 0.  0.
        -13    1    3    3    0    0  0.56016333712E+02 -0.62341548841E+01 -0.40907972863E+02  0.69643065508E+02  0.00000000000E+00 0.  1.
         14    1    3    3    0    0 -0.27776780117E+02  0.11048773320E+02 -0.36931503959E+02  0.47513796841E+02  0.00000000000E+00 0. -1.
        -13    1    4    4    0    0  0.13610214715E+02  0.56904007786E+02 -0.45886951228E+02  0.74356683222E+02  0.00000000000E+00 0. -1.
         13    1    4    4    0    0 -0.35637146219E+02 -0.33267441273E+01 -0.10174619473E+03  0.10785806210E+03  0.00000000000E+00 0.  1.
         21    1    1    2  502  501 -0.62126220914E+01 -0.58391882095E+02 -0.20927287724E+02  0.62339072332E+02  0.00000000000E+00 0.  1.
<scales pt_clust_5="13000.00000" pt_clust_6="13000.00000" pt_clust_7="13000.00000" pt_clust_8="13000.00000" pt_clust_9="58.72145"></scales>
<clustering>
<clus scale="   58.721">  1  9  2 -1</clus>
<clus scale="   82.741">  5  6 -1 -1</clus>
<clus scale="   89.727">  7  8 -1 -1</clus>
<clus scale="   90.316">  1  5  2 -1</clus>
<clus scale="   96.757">  2  5  1 -1</clus>
</clustering>
</event>
<event>
 9    2  0.3402837E-005  0.1116725E+03  0.7546771E-02  0.1265828E+00
         -1   -1    0    0    0  501 -0.00000000000E+00  0.00000000000E+00  0.33262018464E+02  0.33262018464E+02  0.00000000000E+00 0.  1.
          2   -1    0    0  502    0  0.00000000000E+00 -0.00000000000E+00 -0.71055488351E+03  0.71055488351E+03  0.00000000000E+00 0. -1.
         23    2    1    2    0    0 -0.44355391067E+02 -0.70154636114E+02 -0.14788916435E+03  0.19074987041E+03  0.87322588406E+02 0.  0.
         24    2    1    2    0    0  0.44793649671E+02  0.50122255856E+02 -0.52414291966E+03  0.53235075423E+03  0.64442328611E+02 0.  0.
        -11    1    4    4    0    0  0.40809505789E+02  0.31974673904E+02 -0.17020855414E+03  0.17792905169E+03  0.00000000000E+00 0.  1.
         12    1    4    4    0    0  0.39841438822E+01  0.18147581953E+02 -0.35393436552E+03  0.35442170254E+03  0.00000000000E+00 0. -1.
        -13    1    3    3    0    0 -0.18066096023E+02 -0.62177744213E+02 -0.14981618618E+03  0.16320951364E+03  0.00000000000E+00 0. -1.
         13    1    3    3    0    0 -0.26289295044E+02 -0.79768919016E+01  0.19270218269E+01  0.27540356778E+02  0.00000000000E+00 0.  1.
         21    1    1    2  502  501 -0.43825860387E+00  0.20032380258E+02 -0.52607810416E+01  0.20716277334E+02  0.00000000000E+00 0.  1.
<scales pt_clust_5="13000.00000" pt_clust_6="13000.00000" pt_clust_7="13000.00000" pt_clust_8="13000.00000" pt_clust_9="20.03717"></scales>
<clustering>
<clus scale="   20.037">  1  9  2 -1</clus>
<clus scale="   64.442">  5  6 -1 -1</clus>
<clus scale="   87.323">  7  8 -1 -1</clus>
<clus scale="   94.860">  2  5  1 -1</clus>
<clus scale="   94.860">  2  5  1 -1</clus>
</clustering>
</event>
<event>
 9    2  0.3402837E-005  0.1896135E+03  0.7546771E-02  0.1159762E+00
         -3   -1    0    0    0  501 -0.00000000000E+00  0.00000000000E+00  0.10788461323E+03  0.10788461323E+03  0.00000000000E+00 0.  1.
          4   -1    0    0  502    0  0.00000000000E+00 -0.00000000000E+00 -0.37981374230E+03  0.37981374230E+03  0.00000000000E+00 0. -1.
         23    2    1    2    0    0  0.11602455780E+03  0.11673845634E+03 -0.10717138161E+03  0.21595628892E+03  0.89787796982E+02 0.  0.
         24    2    1    2    0    0 -0.10273305529E+03 -0.13486296645E+03 -0.16396104741E+03  0.24925214360E+03  0.80630674395E+02 0.  0.
        -13    1    4    4    0    0 -0.65306795537E+02 -0.23279028825E+02 -0.71384307569E+02  0.99511859060E+02  0.00000000000E+00 0.  1.
         14    1    4    4    0    0 -0.37426259755E+02 -0.11158393763E+03 -0.92576739839E+02  0.14974028454E+03  0.00000000000E+00 0. -1.
        -13    1    3    3    0    0  0.98607006429E+02  0.47390168579E+02 -0.91810528888E+02  0.14282276783E+03  0.00000000000E+00 0. -1.
         13    1    3    3    0    0  0.17417551366E+02  0.69348287760E+02 -0.15360852719E+02  0.73133521090E+02  0.00000000000E+00 0.  1.
         21    1    1    2  502  501 -0.13291502503E+02  0.18124510115E+02 -0.79670005635E+00  0.22489923003E+02  0.00000000000E+00 0.  1.
<scales pt_clust_5="13000.00000" pt_clust_6="13000.00000" pt_clust_7="13000.00000" pt_clust_8="13000.00000" pt_clust_9="22.47581"></scales>
<clustering>
<clus scale="   22.476">  1  9  2 -1</clus>
<clus scale="   80.631">  5  6 -1 -1</clus>
<clus scale="   89.788">  7  8 -1 -1</clus>
<clus scale="  185.453">  2  5  1 -1</clus>
<clus scale="  185.453">  2  5  1 -1</clus>
</clustering>
</event>
<event>
 9    2  0.3402837E-005  0.1551900E+03  0.7546771E-02  0.1196480E+00
          2   -1    0    0  502    0  0.00000000000E+00  0.00000000000E+00  0.99851021313E+03  0.99851021313E+03  0.00000000000E+00 0. -1.
         -1   -1    0    0    0  501 -0.00000000000E+00 -0.00000000000E+00 -0.68510430974E+02  0.68510430974E+02  0.00000000000E+00 0.  1.
         23    2    1    2    0    0 -0.12983230313E+03 -0.12131225578E+03  0.21725258510E+03  0.29498216149E+03  0.90789313954E+02 0.  0.
         24    2    1    2    0    0  0.94754232325E+02  0.68117087284E+02  0.69048711842E+03  0.70454249678E+03  0.77391000413E+02 0.  0.
        -11    1    4    4    0    0  0.40744645320E+01  0.22334498967E+02  0.38547369353E+02  0.44736235753E+02  0.00000000000E+00 0.  1.
         12    1    4    4    0    0  0.90679767793E+02  0.45782588317E+02  0.65193974906E+03  0.65980626103E+03  0.00000000000E+00 0. -1.
        -11    1    3    3    0    0 -0.72149919657E+02 -0.10907508664E+03  0.10321766692E+03  0.16660393812E+03  0.00000000000E+00 0.  1.
         11    1    3    3    0    0 -0.57682383474E+02 -0.12237169134E+02  0.11403491818E+03  0.12837822337E+03  0.00000000000E+00 0. -1.
         21    1    1    2  502  501  0.35078070807E+02  0.53195168494E+02  0.22260078644E+02  0.67495985835E+02  0.00000000000E+00 0. -1.
<scales pt_clust_5="13000.00000" pt_clust_6="13000.00000" pt_clust_7="13000.00000" pt_clust_8="13000.00000" pt_clust_9="63.71968"></scales>
<clustering>
<clus scale="   63.720">  2  9  1 -1</clus>
<clus scale="   77.391">  5  6 -1 -1</clus>
<clus scale="   90.789">  7  8 -1 -1</clus>
<clus scale="  147.752">  1  5  2 -1</clus>
<clus scale="  147.752">  1  5  2 -1</clus>
</clustering>
</event>
<event>
 9    2  0.3402837E-005  0.1373532E+03  0.7546771E-02  0.1219118E+00
          2   -1    0    0  502    0  0.00000000000E+00  0.00000000000E+00  0.38172842752E+03  0.38172842752E+03  0.00000000000E+00 0. -1.
         -1   -1    0    0    0  501 -0.00000000000E+00 -0.00000000000E+00 -0.10397401939E+03  0.10397401939E+03  0.00000000000E+00 0.  1.
         23    2    1    2    0    0 -0.13408940858E+02  0.10737619438E+03 -0.28356949382E+02  0.14368336310E+03  0.90173973174E+02 0.  0.
         24    2    1    2    0    0  0.22758223409E+02 -0.78227183848E+02  0.27717521276E+03  0.29989576043E+03  0.80460794986E+02 0.  0.
        -11    1    4    4    0    0  0.38224600391E+02 -0.12898479514E+02  0.57862027882E+02  0.70537260504E+02  0.00000000000E+00 0.  1.
         12    1    4    4    0    0 -0.15466376982E+02 -0.65328704334E+02  0.21931318488E+03  0.22935849993E+03  0.00000000000E+00 0. -1.
        -13    1    3    3    0    0  0.23700782060E+02  0.71454154565E+02 -0.47027985953E+02  0.88764039665E+02  0.00000000000E+00 0. -1.
         13    1    3    3    0    0 -0.37109722918E+02  0.35922039820E+02  0.18671036572E+02  0.54919323434E+02  0.00000000000E+00 0.  1.
         21    1    1    2  502  501 -0.93492825512E+01 -0.29149010537E+02  0.28936144750E+02  0.42123323379E+02  0.00000000000E+00 0.  1.
<scales pt_clust_5="13000.00000" pt_clust_6="13000.00000" pt_clust_7="13000.00000" pt_clust_8="13000.00000" pt_clust_9="30.61166"></scales>
<clustering>
<clus scale="   30.612">  1  9  2 -1</clus>
<clus scale="   80.461">  5  6 -1 -1</clus>
<clus scale="   90.174">  7  8 -1 -1</clus>
<clus scale="  131.181">  1  5  2 -1</clus>
<clus scale="   30.612">  1  5  2 -1</clus>
</clustering>
</event>
<event>
 9    2  0.3402837E-005  0.2208564E+03  0.7546771E-02  0.1134102E+00
         -1   -1    0    0    0  501 -0.00000000000E+00  0.00000000000E+00  0.30878395822E+03  0.30878395822E+03  0.00000000000E+00 0.  1.
          2   -1    0    0  502    0  0.00000000000E+00 -0.00000000000E+00 -0.19902967692E+03  0.19902967692E+03  0.00000000000E+00 0. -1.
         23    2    1    2    0    0 -0.68370131649E+01  0.19222498216E+03  0.10145626793E+03  0.23587087544E+03  0.91348273471E+02 0.  0.
         24    2    1    2    0    0  0.44188075403E+02 -0.20274154271E+03 -0.21081684762E+02  0.22327175643E+03  0.79681369454E+02 0.  0.
        -13    1    4    4    0    0  0.47960156011E+02 -0.67049083346E+02  0.12643109330E+02  0.83400265920E+02  0.00000000000E+00 0.  1.
         14    1    4    4    0    0 -0.37720806074E+01 -0.13569245937E+03 -0.33724794091E+02  0.13987149051E+03  0.00000000000E+00 0. -1.
        -13    1    3    3    0    0  0.53077937673E+01  0.67353720730E+02  0.86145808820E+02  0.10947966363E+03  0.00000000000E+00 0.  1.
         13    1    3    3    0    0 -0.12144806932E+02  0.12487126143E+03  0.15310459106E+02  0.12639121181E+03  0.00000000000E+00 0. -1.
         21    1    1    2  502  501 -0.37351062238E+02  0.10516560555E+02  0.29379698137E+02  0.48671003266E+02  0.00000000000E+00 0. -1.
<scales pt_clust_5="13000.00000" pt_clust_6="13000.00000" pt_clust_7="13000.00000" pt_clust_8="13000.00000" pt_clust_9="38.80335"></scales>
<clustering>
<clus scale="   38.803">  1  9  2 -1</clus>
<clus scale="   79.681">  5  6 -1 -1</clus>
<clus scale="   91.348">  7  8 -1 -1</clus>
<clus scale="  216.292">  2  5  1 -1</clus>
<clus scale="  216.292">  2  5  1 -1</clus>
</clustering>
</event>
<event>
 9    2  0.3402837E-005  0.1009194E+03  0.7546771E-02  0.1280520E+00
          2   -1    0    0  502    0  0.00000000000E+00  0.00000000000E+00  0.53564284141E+03  0.53564284141E+03  0.00000000000E+00 0. -1.
         -1   -1    0    0    0  501 -0.00000000000E+00 -0.00000000000E+00 -0.70952327194E+02  0.70952327194E+02  0.00000000000E+00 0.  1.
         23    2    1    2    0    0 -0.23119532288E+02 -0.56555740089E+02  0.37067667335E+02  0.11532129281E+03  0.90509248719E+02 0.  0.
         24    2    1    2    0    0  0.41311434235E+02 -0.36972475815E+02  0.36046974677E+03  0.37470625026E+03  0.85981027481E+02 0.  0.
        -13    1    4    4    0    0  0.45688445130E+02 -0.80143852113E+00  0.82081480511E+02  0.93943843678E+02  0.00000000000E+00 0.  1.
         14    1    4    4    0    0 -0.43770108953E+01 -0.36171037294E+02  0.27838826625E+03  0.28076240659E+03  0.00000000000E+00 0. -1.
        -13    1    3    3    0    0  0.23093794363E+02 -0.41206845624E+02  0.45861880356E+02  0.65837979420E+02  0.00000000000E+00 0. -1.
         13    1    3    3    0    0 -0.46213326651E+02 -0.15348894465E+02 -0.87942130213E+01  0.49483313390E+02  0.00000000000E+00 0.  1.
         21    1    1    2  502  501 -0.18191901947E+02  0.93528215903E+02  0.67153100113E+02  0.11656762553E+03  0.00000000000E+00 0.  1.
<scales pt_clust_5="13000.00000" pt_clust_6="13000.00000" pt_clust_7="13000.00000" pt_clust_8="13000.00000" pt_clust_9="95.28102"></scales>
<clustering>
<clus scale="   85.981">  5  6 -1 -1</clus>
<clus scale="   90.509">  7  8 -1 -1</clus>
<clus scale="   95.281">  2  9  1 -1</clus>
<clus scale="   96.879">  1  5  2 -1</clus>
<clus scale="   96.879">  1  5  2 -1</clus>
</clustering>
</event>
<event>
 9    2  0.3402837E-005  0.8797934E+02  0.7546771E-02  0.1312432E+00
          2   -1    0    0  502    0  0.00000000000E+00  0.00000000000E+00  0.17330063335E+03  0.17330063335E+03  0.00000000000E+00 0. -1.
         -1   -1    0    0    0  501 -0.00000000000E+00 -0.00000000000E+00 -0.99972359654E+02  0.99972359654E+02  0.00000000000E+00 0.  1.
         24    2    1    2    0    0  0.33495833999E+01  0.53514196871E+01 -0.38087166568E+02  0.88677989996E+02  0.79832927110E+02 0.  0.
         23    2    1    2    0    0  0.16726306400E+02  0.24715347552E+01  0.12919267824E+03  0.15666168674E+03  0.86984240947E+02 0.  0.
        -11    1    3    3    0    0  0.40861563997E+02 -0.49791287797E+01 -0.18883261257E+02  0.45288372584E+02  0.00000000000E+00 0.  1.
         12    1    3    3    0    0 -0.37511980597E+02  0.10330548467E+02 -0.19203905312E+02  0.43389617412E+02  0.00000000000E+00 0. -1.
        -13    1    4    4    0    0  0.49829911143E+02 -0.38900872823E+01  0.10110318307E+03  0.11278300603E+03  0.00000000000E+00 0.  1.
         13    1    4    4    0    0 -0.33103604742E+02  0.63616220375E+01  0.28089495168E+02  0.43878680708E+02  0.00000000000E+00 0. -1.
         21    1    1    2  502  501 -0.20075889800E+02 -0.78229544423E+01 -0.17777237974E+02  0.27933316263E+02  0.00000000000E+00 0. -1.
<scales pt_clust_5="13000.00000" pt_clust_6="13000.00000" pt_clust_7="13000.00000" pt_clust_8="13000.00000" pt_clust_9="21.54623"></scales>
<clustering>
<clus scale="   21.546">  2  9  1 -1</clus>
<clus scale="   79.833">  5  6 -1 -1</clus>
<clus scale="   80.916">  2  5  1 -1</clus>
<clus scale="   86.984">  7  8 -1 -1</clus>
<clus scale="   87.979">  1  5  2 -1</clus>
</clustering>
</event>
<event>
 9    2  0.3402837E-005  0.1263765E+03  0.7546771E-02  0.1237222E+00
          2   -1    0    0  502    0  0.00000000000E+00  0.00000000000E+00  0.80877032352E+02  0.80877032352E+02  0.00000000000E+00 0. -1.
         -1   -1    0    0    0  501 -0.00000000000E+00 -0.00000000000E+00 -0.28489597543E+03  0.28489597543E+03  0.00000000000E+00 0.  1.
         23    2    1    2    0    0  0.83697049683E+02 -0.79182201119E+01 -0.13254091194E+03  0.18345169174E+03  0.94971235266E+02 0.  0.
         24    2    1    2    0    0 -0.81152999396E+02 -0.38861026628E+02 -0.56169859668E+02  0.13303531163E+03  0.80295406492E+02 0.  0.
        -11    1    4    4    0    0 -0.42677284598E+02  0.12837608051E+02  0.41578381629E+01  0.44759830421E+02  0.00000000000E+00 0.  1.
         12    1    4    4    0    0 -0.38475714798E+02 -0.51698634680E+02 -0.60327697831E+02  0.88275481208E+02  0.00000000000E+00 0. -1.
        -13    1    3    3    0    0  0.33814628870E+02 -0.35456417287E+02 -0.11308446979E+03  0.12324237891E+03  0.00000000000E+00 0.  1.
         13    1    3    3    0    0  0.49882420813E+02  0.27538197175E+02 -0.19456442154E+02  0.60209312827E+02  0.00000000000E+00 0. -1.
         21    1    1    2  502  501 -0.25440502875E+01  0.46779246740E+02 -0.15308171469E+02  0.49286004415E+02  0.00000000000E+00 0.  1.
<scales pt_clust_5="13000.00000" pt_clust_6="13000.00000" pt_clust_7="13000.00000" pt_clust_8="13000.00000" pt_clust_9="46.84837"></scales>
<clustering>
<clus scale="   46.848">  1  9  2 -1</clus>
<clus scale="   80.295">  5  6 -1 -1</clus>
<clus scale="   94.971">  7  8 -1 -1</clus>
<clus scale="  115.753">  1  5  2 -1</clus>
<clus scale="   46.848">  1  5  2 -1</clus>
</clustering>
</event>
<event>
 9    2  0.3402837E-005  0.1026439E+03  0.7546771E-02  0.1280150E+00
         -1   -1    0    0    0  501 -0.00000000000E+00  0.00000000000E+00  0.10558564601E+03  0.10558564601E+03  0.00000000000E+00 0.  1.
          2   -1    0    0  502    0  0.00000000000E+00 -0.00000000000E+00 -0.72004646060E+03  0.72004646060E+03  0.00000000000E+00 0. -1.
         23    2    1    2    0    0 -0.15496789506E+01  0.43564042480E+02  0.57232579572E+02  0.11675633904E+03  0.91957855781E+02 0.  0.
         24    2    1    2    0    0  0.58477875330E+02 -0.81696144258E+02 -0.58146772058E+03  0.59558168607E+03  0.80739784615E+02 0.  0.
        -11    1    4    4    0    0  0.58639335693E+02 -0.12896861907E+02 -0.26267002604E+03  0.26944469436E+03  0.00000000000E+00 0.  1.
         12    1    4    4    0    0 -0.16146036246E+00 -0.68799282351E+02 -0.31879769453E+03  0.32613699171E+03  0.00000000000E+00 0. -1.
        -13    1    3    3    0    0  0.19739811922E+02  0.48349225810E+02  0.73055854598E+02  0.89802370249E+02  0.00000000000E+00 0.  1.
         13    1    3    3    0    0 -0.21289490872E+02 -0.47851833304E+01 -0.15823275027E+02  0.26953968793E+02  0.00000000000E+00 0. -1.
         21    1    1    2  502  501 -0.56928196380E+02  0.38132101778E+02 -0.90225673586E+02  0.11329408150E+03  0.00000000000E+00 0.  1.
<scales pt_clust_5="13000.00000" pt_clust_6="13000.00000" pt_clust_7="13000.00000" pt_clust_8="13000.00000" pt_clust_9="68.51917"></scales>
<clustering>
<clus scale="   68.519">  2  9  1 -1</clus>
<clus scale="   80.740">  5  6 -1 -1</clus>
<clus scale="   91.958">  7  8 -1 -1</clus>
<clus scale="   92.728">  2  5  1 -1</clus>
<clus scale="   68.519">  2  5  1 -1</clus>
</clustering>
</event>
<event>
 9    2  0.3402837E-005  0.9751091E+02  0.7546771E-02  0.1291541E+00
         -1   -1    0    0    0  501 -0.00000000000E+00  0.00000000000E+00  0.14580652699E+03  0.14580652699E+03  0.00000000000E+00 0.  1.
          2   -1    0    0  502    0  0.00000000000E+00 -0.00000000000E+00 -0.22088180826E+03  0.22088180826E+03  0.00000000000E+00 0. -1.
         24    2    1    2    0    0 -0.84281060022E+02  0.20919366313E+02  0.65784215521E+02  0.13557805732E+03  0.80702723936E+02 0.  0.
         23    2    1    2    0    0  0.25631579351E+02  0.13640618914E+01 -0.13881627005E+03  0.16833697523E+03  0.91698101800E+02 0.  0.
        -11    1    3    3    0    0 -0.80214915323E+02  0.70809147237E+01  0.13889114283E+02  0.81715846011E+02  0.00000000000E+00 0.  1.
         12    1    3    3    0    0 -0.40661446985E+01  0.13838451589E+02  0.51895101238E+02  0.53862211313E+02  0.00000000000E+00 0. -1.
        -13    1    4    4    0    0  0.19190080368E+00 -0.33697489340E+02 -0.11298100315E+03  0.11789938374E+03  0.00000000000E+00 0. -1.
         13    1    4    4    0    0  0.25439678548E+02  0.35061551231E+02 -0.25835266902E+02  0.50437591489E+02  0.00000000000E+00 0.  1.
         21    1    1    2  502  501  0.58649480671E+02 -0.22283428204E+02 -0.20432267307E+01  0.62773302693E+02  0.00000000000E+00 0.  1.
<scales pt_clust_5="13000.00000" pt_clust_6="13000.00000" pt_clust_7="13000.00000" pt_clust_8="13000.00000" pt_clust_9="62.74004"></scales>
<clustering>
<clus scale="   62.740">  1  9  2 -1</clus>
<clus scale="   80.703">  5  6 -1 -1</clus>
<clus scale="   87.251">  1  5  2 -1</clus>
<clus scale="   91.698">  7  8 -1 -1</clus>
<clus scale="   97.511">  2  5  1 -1</clus>
</clustering>
</event>
<event>
 9    2  0.3402837E-005  0.9849778E+02  0.7546771E-02  0.1289599E+00
         -1   -1    0    0    0  501 -0.00000000000E+00  0.00000000000E+00  0.29369818314E+02  0.29369818314E+02  0.00000000000E+00 0.  1.
          2   -1    0    0  502    0  0.00000000000E+00 -0.00000000000E+00 -0.91074516873E+03  0.91074516873E+03  0.00000000000E+00 0. -1.
         23    2    1    2    0    0  0.53617807025E+01  0.18242800523E+02 -0.27233764150E+03  0.28770796800E+03  0.90810436681E+02 0.  0.
         24    2    1    2    0    0 -0.17567468697E+02 -0.43206469127E+02 -0.61676957560E+03  0.62356355649E+03  0.79065698383E+02 0.  0.
        -13    1    4    4    0    0 -0.34381572909E+02  0.77318534293E+01 -0.17215742270E+03  0.17572720991E+03  0.00000000000E+00 0.  1.
         14    1    4    4    0    0  0.16814104212E+02 -0.50938322556E+02 -0.44461215290E+03  0.44783634658E+03  0.00000000000E+00 0. -1.
        -13    1    3    3    0    0  0.16461711048E+02 -0.29376534365E+02 -0.18100104343E+03  0.18410688859E+03  0.00000000000E+00 0. -1.
         13    1    3    3    0    0 -0.11099930345E+02  0.47619334889E+02 -0.91336598065E+02  0.10360107941E+03  0.00000000000E+00 0.  1.
         21    1    1    2  502  501  0.12205687994E+02  0.24963668604E+02  0.77318666881E+01  0.28843462553E+02  0.00000000000E+00 0. -1.
<scales pt_clust_5="13000.00000" pt_clust_6="13000.00000" pt_clust_7="13000.00000" pt_clust_8="13000.00000" pt_clust_9="27.78783"></scales>
<clustering>
<clus scale="   27.788">  1  9  2 -1</clus>
<clus scale="   79.066">  5  6 -1 -1</clus>
<clus scale="   87.788">  2  5  1 -1</clus>
<clus scale="   90.810">  7  8 -1 -1</clus>
<clus scale="   87.788">  2  5  1 -1</clus>
</clustering>
</event>
<event>
 9    2  0.3402837E-005  0.9950155E+02  0.7546771E-02  0.1286599E+00
          2   -1    0    0  502    0  0.00000000000E+00  0.00000000000E+00  0.20372495639E+03  0.20372495639E+03  0.00000000000E+00 0. -1.
         -1   -1    0    0    0  501 -0.00000000000E+00 -0.00000000000E+00 -0.18396793509E+03  0.18396793509E+03  0.00000000000E+00 0.  1.
         23    2    1    2    0    0  0.39559887744E+02  0.26774018201E+02 -0.63347879038E+02  0.12249691677E+03  0.93331174163E+02 0.  0.
         24    2    1    2    0    0  0.79349623810E+01 -0.35429843545E+02  0.15438289272E+03  0.17910743715E+03  0.83229556268E+02 0.  0.
        -11    1    4    4    0    0  0.10865159179E+02 -0.23393174479E+02  0.16210951213E+01  0.25844153025E+02  0.00000000000E+00 0.  1.
         12    1    4    4    0    0 -0.29301967977E+01 -0.12036669066E+02  0.15276179760E+03  0.15326328413E+03  0.00000000000E+00 0. -1.
        -11    1    3    3    0    0 -0.15168417845E+02  0.34244854376E+02 -0.55135790241E+02  0.66653929491E+02  0.00000000000E+00 0.  1.
         11    1    3    3    0    0  0.54728305589E+02 -0.74708361752E+01 -0.82120887969E+01  0.55842987279E+02  0.00000000000E+00 0. -1.
         21    1    1    2  502  501 -0.47494850125E+02  0.86558253444E+01 -0.71277992385E+02  0.86088537560E+02  0.00000000000E+00 0.  1.
<scales pt_clust_5="13000.00000" pt_clust_6="13000.00000" pt_clust_7="13000.00000" pt_clust_8="13000.00000" pt_clust_9="48.27716"></scales>
<clustering>
<clus scale="   48.277">  2  9  1 -1</clus>
<clus scale="   83.230">  5  6 -1 -1</clus>
<clus scale="   90.094">  1  5  2 -1</clus>
<clus scale="   93.331">  7  8 -1 -1</clus>
<clus scale="   90.094">  1  5  2 -1</clus>
</clustering>
</event>
<event>
 9    2  0.3402837E-005  0.9693531E+02  0.7546771E-02  0.1292911E+00
          2   -1    0    0  502    0  0.00000000000E+00  0.00000000000E+00  0.28881935910E+03  0.28881935910E+03  0.00000000000E+00 0. -1.
         -1   -1    0    0    0  501 -0.00000000000E+00 -0.00000000000E+00 -0.53377861292E+02  0.53377861292E+02  0.00000000000E+00 0.  1.
         23    2    1    2    0    0  0.21190072258E+02 -0.25856552030E+02  0.21168545707E+02  0.97214111177E+02  0.88796934853E+02 0.  0.
         24    2    1    2    0    0 -0.41149049641E+02  0.37746089891E+02  0.16768685895E+03  0.19292558369E+03  0.77352353482E+02 0.  0.
        -13    1    4    4    0    0 -0.47554833049E+02  0.24986637625E+02  0.46942235858E+02  0.71339804552E+02  0.00000000000E+00 0.  1.
         14    1    4    4    0    0  0.64057834074E+01  0.12759452265E+02  0.12074462309E+03  0.12158577914E+03  0.00000000000E+00 0. -1.
        -13    1    3    3    0    0 -0.18443235842E+02 -0.38374672954E+02  0.33148092391E+02  0.53958914943E+02  0.00000000000E+00 0.  1.
         13    1    3    3    0    0  0.39633308100E+02  0.12518120924E+02 -0.11979546684E+02  0.43255196234E+02  0.00000000000E+00 0. -1.
         21    1    1    2  502  501  0.19958977383E+02 -0.11889537860E+02  0.46586093156E+02  0.52057525530E+02  0.00000000000E+00 0. -1.
<scales pt_clust_5="13000.00000" pt_clust_6="13000.00000" pt_clust_7="13000.00000" pt_clust_8="13000.00000" pt_clust_9="23.23192"></scales>
<clustering>
<clus scale="   23.232">  1  9  2 -1</clus>
<clus scale="   77.352">  5  6 -1 -1</clus>
<clus scale="   86.573">  1  5  2 -1</clus>
<clus scale="   88.797">  7  8 -1 -1</clus>
<clus scale="   23.232">  1  5  2 -1</clus>
</clustering>
</event>
<event>
 9    2  0.3402837E-005  0.3557659E+03  0.7546771E-02  0.1060512E+00
         -1   -1    0    0    0  501 -0.00000000000E+00  0.00000000000E+00  0.11214729946E+03  0.11214729946E+03  0.00000000000E+00 0.  1.
          2   -1    0    0  502    0  0.00000000000E+00 -0.00000000000E+00 -0.12820343790E+04  0.12820343790E+04  0.00000000000E+00 0. -1.
         23    2    1    2    0    0  0.13388298221E+02 -0.33946255392E+03 -0.53178329051E+03  0.63741658145E+03  0.89957535543E+02 0.  0.
         24    2    1    2    0    0  0.96048027793E+01  0.34838892234E+03 -0.63880898021E+03  0.73209000748E+03  0.80073543749E+02 0.  0.
        -13    1    4    4    0    0 -0.22470944035E+02  0.28699563771E+03 -0.52909845868E+03  0.60234260880E+03  0.00000000000E+00 0.  1.
         14    1    4    4    0    0  0.32075746814E+02  0.61393284628E+02 -0.10971052152E+03  0.12974739868E+03  0.00000000000E+00 0. -1.
        -11    1    3    3    0    0  0.32686524885E+02 -0.26108735121E+03 -0.45724072158E+03  0.52754534529E+03  0.00000000000E+00 0. -1.
         11    1    3    3    0    0 -0.19298226664E+02 -0.78375202710E+02 -0.74542568934E+02  0.10987123616E+03  0.00000000000E+00 0.  1.
         21    1    1    2  502  501 -0.22993101000E+02 -0.89263684211E+01  0.70519121537E+00  0.24675089492E+02  0.00000000000E+00 0.  1.
<scales pt_clust_5="13000.00000" pt_clust_6="13000.00000" pt_clust_7="13000.00000" pt_clust_8="13000.00000" pt_clust_9="24.66501"></scales>
<clustering>
<clus scale="   24.665">  1  9  2 -1</clus>
<clus scale="   80.074">  5  6 -1 -1</clus>
<clus scale="   89.958">  7  8 -1 -1</clus>
<clus scale="  353.396">  2  5  1 -1</clus>
<clus scale="  353.396">  2  5  1 -1</clus>
</clustering>
</event>
<event>
 9    2  0.3402837E-005  0.9928237E+02  0.7546771E-02  0.1286977E+00
         -1   -1    0    0    0  501 -0.00000000000E+00  0.00000000000E+00  0.84563790529E+02  0.84563790529E+02  0.00000000000E+00 0.  1.
          2   -1    0    0  502    0  0.00000000000E+00 -0.00000000000E+00 -0.19933425033E+03  0.19933425033E+03  0.00000000000E+00 0. -1.
         24    2    1    2    0    0  0.22051990070E+02 -0.69219090937E+01  0.22127648044E+02  0.88059189961E+02  0.82040142839E+02 0.  0.
         23    2    1    2    0    0 -0.32680730830E+02  0.25799916883E+02 -0.14131403272E+03  0.17372890515E+03  0.92078286057E+02 0.  0.
        -11    1    3    3    0    0  0.71375904723E+01 -0.23845749928E+02  0.47794954666E+02  0.53888056922E+02  0.00000000000E+00 0.  1.
         12    1    3    3    0    0  0.14914399598E+02  0.16923840834E+02 -0.25667306621E+02  0.34171133038E+02  0.00000000000E+00 0. -1.
        -11    1    4    4    0    0 -0.54783896752E+02  0.34810883239E+01 -0.12862896283E+03  0.13985279188E+03  0.00000000000E+00 0. -1.
         11    1    4    4    0    0  0.22103165922E+02  0.22318828559E+02 -0.12685069890E+02  0.33876113268E+02  0.00000000000E+00 0.  1.
         21    1    1    2  502  501  0.10628740760E+02 -0.18878007789E+02  0.44159248765E+01  0.22109945743E+02  0.00000000000E+00 0. -1.
<scales pt_clust_5="13000.00000" pt_clust_6="13000.00000" pt_clust_7="13000.00000" pt_clust_8="13000.00000" pt_clust_9="21.66447"></scales>
<clustering>
<clus scale="   21.664">  1  9  2 -1</clus>
<clus scale="   82.040">  5  6 -1 -1</clus>
<clus scale="   90.051">  1  5  2 -1</clus>
<clus scale="   92.078">  7  8 -1 -1</clus>
<clus scale="   99.282">  2  5  1 -1</clus>
</clustering>
</event>
<event>
 9    2  0.3402837E-005  0.1419366E+03  0.7546771E-02  0.1213099E+00
         -1   -1    0    0    0  501 -0.00000000000E+00  0.00000000000E+00  0.94163458962E+02  0.94163458962E+02  0.00000000000E+00 0.  1.
          2   -1    0    0  502    0  0.00000000000E+00 -0.00000000000E+00 -0.31044154954E+03  0.31044154954E+03  0.00000000000E+00 0. -1.
         24    2    1    2    0    0  0.71627682982E+02 -0.10551320056E+03 -0.36306256206E+02  0.15554052221E+03  0.81308974579E+02 0.  0.
         23    2    1    2    0    0 -0.63028180839E+02  0.77653587275E+02 -0.17096898025E+03  0.21854955763E+03  0.92362794114E+02 0.  0.
        -13    1    3    3    0    0  0.46375477987E+02 -0.32830931490E+02  0.19953852395E+02  0.60222182346E+02  0.00000000000E+00 0.  1.
         14    1    3    3    0    0  0.25252204994E+02 -0.72682269066E+02 -0.56260108601E+02  0.95318339859E+02  0.00000000000E+00 0. -1.
        -11    1    4    4    0    0 -0.76633458701E+02  0.34836713360E+02 -0.75667711394E+02  0.11318960260E+03  0.00000000000E+00 0.  1.
         11    1    4    4    0    0  0.13605277863E+02  0.42816873915E+02 -0.95301268855E+02  0.10535995503E+03  0.00000000000E+00 0. -1.
         21    1    1    2  502  501 -0.85995021430E+01  0.27859613282E+02 -0.90028541271E+01  0.30514928671E+02  0.00000000000E+00 0. -1.
<scales pt_clust_5="13000.00000" pt_clust_6="13000.00000" pt_clust_7="13000.00000" pt_clust_8="13000.00000" pt_clust_9="29.15664"></scales>
<clustering>
<clus scale="   29.157">  1  9  2 -1</clus>
<clus scale="   81.309">  5  6 -1 -1</clus>
<clus scale="   92.363">  7  8 -1 -1</clus>
<clus scale="  135.005">  1  5  2 -1</clus>
<clus scale="  141.937">  2  5  1 -1</clus>
</clustering>
</event>
<event>
 9    2  0.3402837E-005  0.1626974E+03  0.7546771E-02  0.1196853E+00
         -1   -1    0    0    0  501 -0.00000000000E+00  0.00000000000E+00  0.25677693335E+03  0.25677693335E+03  0.00000000000E+00 0.  1.
          2   -1    0    0  502    0  0.00000000000E+00 -0.00000000000E+00 -0.20399544258E+03  0.20399544258E+03  0.00000000000E+00 0. -1.
         24    2    1    2    0    0 -0.58342720814E+02  0.79150386767E+02  0.31365646448E+02  0.13099752913E+03  0.80671507140E+02 0.  0.
         23    2    1    2    0    0 -0.96127468323E+02 -0.94448599836E+02 -0.31527115271E+02  0.16576865294E+03  0.91237377886E+02 0.  0.
        -11    1    3    3    0    0 -0.60095568449E+02  0.80409190467E+02  0.50063145134E+02  0.11217590543E+03  0.00000000000E+00 0.  1.
         12    1    3    3    0    0  0.17528476353E+01 -0.12588036993E+01 -0.18697498686E+02  0.18821623700E+02  0.00000000000E+00 0. -1.
        -11    1    4    4    0    0 -0.68581077760E+02 -0.75511263245E+02  0.20386443623E+02  0.10402366167E+03  0.00000000000E+00 0. -1.
         11    1    4    4    0    0 -0.27546390563E+02 -0.18937336591E+02 -0.51913558893E+02  0.61744991272E+02  0.00000000000E+00 0.  1.
         21    1    1    2  502  501  0.15447018914E+03  0.15298213069E+02  0.52942959590E+02  0.16400619386E+03  0.00000000000E+00 0.  1.
<scales pt_clust_5="13000.00000" pt_clust_6="13000.00000" pt_clust_7="13000.00000" pt_clust_8="13000.00000" pt_clust_9="134.70783"></scales>
<clustering>
<clus scale="   80.672">  5  6 -1 -1</clus>
<clus scale="   91.237">  7  8 -1 -1</clus>
<clus scale="  127.187">  1  5  2 -1</clus>
<clus scale="  134.708">  1  9  2 -1</clus>
<clus scale="  162.697">  2  5  1 -1</clus>
</clustering>
</event>
<event>
 9    2  0.3402837E-005  0.1122374E+03  0.7546771E-02  0.1261053E+00
         -1   -1    0    0    0  501 -0.00000000000E+00  0.00000000000E+00  0.11412224052E+03  0.11412224052E+03  0.00000000000E+00 0.  1.
          2   -1    0    0  502    0  0.00000000000E+00 -0.00000000000E+00 -0.23621017665E+03  0.23621017665E+03  0.00000000000E+00 0. -1.
         23    2    1    2    0    0 -0.36040062405E+02  0.56227706976E+02  0.61247097648E+02  0.12956872730E+03  0.92608892630E+02 0.  0.
         24    2    1    2    0    0  0.33257160686E+02 -0.32585019204E+02 -0.16907122170E+03  0.19301161677E+03  0.80626199122E+02 0.  0.
        -11    1    4    4    0    0  0.26681126911E+02  0.14928158290E+01 -0.75007631193E+01  0.27755584659E+02  0.00000000000E+00 0.  1.
         12    1    4    4    0    0  0.65760337742E+01 -0.34077835033E+02 -0.16157045859E+03  0.16525603211E+03  0.00000000000E+00 0. -1.
        -13    1    3    3    0    0  0.10528219086E+02  0.53881575169E+02  0.62158884929E+02  0.82932469609E+02  0.00000000000E+00 0.  1.
         13    1    3    3    0    0 -0.46568281491E+02  0.23461318073E+01 -0.91178728134E+00  0.46636257692E+02  0.00000000000E+00 0. -1.
         21    1    1    2  502  501  0.27829017190E+01 -0.23642687772E+02 -0.14263812070E+02  0.27752073109E+02  0.00000000000E+00 0. -1.
<scales pt_clust_5="13000.00000" pt_clust_6="13000.00000" pt_clust_7="13000.00000" pt_clust_8="13000.00000" pt_clust_9="23.80591"></scales>
<clustering>
<clus scale="   23.806">  2  9  1 -1</clus>
<clus scale="   80.626">  5  6 -1 -1</clus>
<clus scale="   92.609">  7  8 -1 -1</clus>
<clus scale="  102.574">  2  5  1 -1</clus>
<clus scale="   23.806">  2  5  1 -1</clus>
</clustering>
</event>
<event>
 9    2  0.3402837E-005  0.9653129E+02  0.7546771E-02  0.1294381E+00
          4   -1    0    0  502    0  0.00000000000E+00  0.00000000000E+00  0.16575843980E+03  0.16575843980E+03  0.00000000000E+00 0. -1.
         -3   -1    0    0    0  501 -0.00000000000E+00 -0.00000000000E+00 -0.15965165812E+03  0.15965165812E+03  0.00000000000E+00 0.  1.
         23    2    1    2    0    0 -0.17828443413E+02  0.60077066428E+02 -0.43696609163E+02  0.11933209876E+03  0.91671417775E+02 0.  0.
         24    2    1    2    0    0  0.14978648092E+02 -0.20026062454E+02  0.10726004233E+03  0.13598184341E+03  0.79755513787E+02 0.  0.
        -11    1    4    4    0    0  0.33700232048E+01  0.27023561785E+02  0.69188184973E+02  0.74354790618E+02  0.00000000000E+00 0.  1.
         12    1    4    4    0    0  0.11608624887E+02 -0.47049624239E+02  0.38071857356E+02  0.61627052788E+02  0.00000000000E+00 0. -1.
        -13    1    3    3    0    0  0.27693285410E+01 -0.23632779812E+02 -0.16430747939E+02  0.28916205492E+02  0.00000000000E+00 0. -1.
         13    1    3    3    0    0 -0.20597771954E+02  0.83709846241E+02 -0.27265861223E+02  0.90415893267E+02  0.00000000000E+00 0.  1.
         21    1    1    2  502  501  0.28497953206E+01 -0.40051003974E+02 -0.57456651482E+02  0.70096155759E+02  0.00000000000E+00 0.  1.
<scales pt_clust_5="13000.00000" pt_clust_6="13000.00000" pt_clust_7="13000.00000" pt_clust_8="13000.00000" pt_clust_9="40.15226"></scales>
<clustering>
<clus scale="   40.152">  2  9  1 -1</clus>
<clus scale="   79.756">  5  6 -1 -1</clus>
<clus scale="   85.297">  1  5  2 -1</clus>
<clus scale="   91.671">  7  8 -1 -1</clus>
<clus scale="   85.297">  1  5  2 -1</clus>
</clustering>
</event>
<event>
 9    2  0.3402837E-005  0.1893234E+03  0.7546771E-02  0.1160593E+00
         -1   -1    0    0    0  501 -0.00000000000E+00  0.00000000000E+00  0.20672774343E+03  0.20672774343E+03  0.00000000000E+00 0.  1.
          2   -1    0    0  502    0  0.00000000000E+00 -0.00000000000E+00 -0.43371318106E+03  0.43371318106E+03  0.00000000000E+00 0. -1.
         23    2    1    2    0    0 -0.77399867404E+01 -0.18505254850E+03  0.51927535562E+02  0.21351131635E+03  0.92662075085E+02 0.  0.
         24    2    1    2    0    0 -0.16376347868E+02  0.16101499840E+03 -0.32392818965E+03  0.37048697246E+03  0.78339710444E+02 0.  0.
        -11    1    4    4    0    0  0.18979004013E+02  0.10082583530E+03 -0.13854644272E+03  0.17239828435E+03  0.00000000000E+00 0.  1.
         12    1    4    4    0    0 -0.35355351881E+02  0.60189163105E+02 -0.18538174693E+03  0.19808868811E+03  0.00000000000E+00 0. -1.
        -13    1    3    3    0    0 -0.24123583018E+02 -0.11481653423E+02 -0.99565321363E+01  0.28511544243E+02  0.00000000000E+00 0. -1.
         13    1    3    3    0    0  0.16383596278E+02 -0.17357089508E+03  0.61884067698E+02  0.18499977211E+03  0.00000000000E+00 0.  1.
         21    1    1    2  502  501  0.24116334608E+02  0.24037550098E+02  0.45015216459E+02  0.56442635680E+02  0.00000000000E+00 0.  1.
<scales pt_clust_5="13000.00000" pt_clust_6="13000.00000" pt_clust_7="13000.00000" pt_clust_8="13000.00000" pt_clust_9="34.04998"></scales>
<clustering>
<clus scale="   34.050">  1  9  2 -1</clus>
<clus scale="   78.340">  5  6 -1 -1</clus>
<clus scale="   92.662">  7  8 -1 -1</clus>
<clus scale="  182.741">  2  5  1 -1</clus>
<clus scale="  182.741">  2  5  1 -1</clus>
</clustering>
</event>
<event>
 9    2  0.3402837E-005  0.2371830E+03  0.7546771E-02  0.1124793E+00
          2   -1    0    0  502    0  0.00000000000E+00  0.00000000000E+00  0.63616172761E+03  0.63616172761E+03  0.00000000000E+00 0. -1.
         -1   -1    0    0    0  501 -0.00000000000E+00 -0.00000000000E+00 -0.16186867983E+03  0.16186867983E+03  0.00000000000E+00 0.  1.
         23    2    1    2    0    0  0.15355440785E+03  0.13735336509E+03 -0.14809237416E+02  0.23946878670E+03  0.12116551994E+03 0.  0.
         24    2    1    2    0    0 -0.16793859629E+03 -0.11540100014E+03  0.48456452012E+03  0.53192700950E+03  0.81380626192E+02 0.  0.
        -11    1    4    4    0    0 -0.85632838746E+02 -0.78760555242E+02  0.18008936494E+03  0.21440239621E+03  0.00000000000E+00 0.  1.
         12    1    4    4    0    0 -0.82305757542E+02 -0.36640444902E+02  0.30447515517E+03  0.31752461329E+03  0.00000000000E+00 0. -1.
        -11    1    3    3    0    0  0.72735991951E+02  0.43794301020E+02 -0.64090024214E+02  0.10637667287E+03  0.00000000000E+00 0.  1.
         11    1    3    3    0    0  0.80818415897E+02  0.93559064070E+02  0.49280786798E+02  0.13309211384E+03  0.00000000000E+00 0. -1.
         21    1    1    2  502  501  0.14384188440E+02 -0.21952364947E+02  0.45377650819E+01  0.26634611238E+02  0.00000000000E+00 0.  1.
<scales pt_clust_5="13000.00000" pt_clust_6="13000.00000" pt_clust_7="13000.00000" pt_clust_8="13000.00000" pt_clust_9="26.24521"></scales>
<clustering>
<clus scale="   26.245">  2  9  1 -1</clus>
<clus scale="   81.381">  5  6 -1 -1</clus>
<clus scale="  121.166">  7  8 -1 -1</clus>
<clus scale="  219.539">  1  5  2 -1</clus>
<clus scale="  219.539">  1  5  2 -1</clus>
</clustering>
</event>
<event>
 9    2  0.3402837E-005  0.1287185E+03  0.7546771E-02  0.1233282E+00
          2   -1    0    0  502    0  0.00000000000E+00  0.00000000000E+00  0.44789597219E+03  0.44789597219E+03  0.00000000000E+00 0. -1.
         -1   -1    0    0    0  501 -0.00000000000E+00 -0.00000000000E+00 -0.53445169955E+02  0.53445169955E+02  0.00000000000E+00 0.  1.
         24    2    1    2    0    0  0.89384650332E+02  0.13390143041E+02  0.68900461847E+02  0.13629955150E+03  0.75242158726E+02 0.  0.
         23    2    1    2    0    0 -0.84158766246E+02 -0.41164557041E+02  0.29991300978E+03  0.32688401397E+03  0.90156122686E+02 0.  0.
        -13    1    3    3    0    0  0.97946288044E+02 -0.24677058638E+01  0.49328611210E+02  0.10969447022E+03  0.00000000000E+00 0.  1.
         14    1    3    3    0    0 -0.85616377111E+01  0.15857848905E+02  0.19571850637E+02  0.26605081273E+02  0.00000000000E+00 0. -1.
        -11    1    4    4    0    0 -0.98786113533E+02 -0.19880315011E+02  0.20364217640E+03  0.22720928494E+03  0.00000000000E+00 0. -1.
         11    1    4    4    0    0  0.14627347286E+02 -0.21284242030E+02  0.96270833378E+02  0.99674729028E+02  0.00000000000E+00 0.  1.
         21    1    1    2  502  501 -0.52258840861E+01  0.27774414000E+02  0.25637330603E+02  0.38157576679E+02  0.00000000000E+00 0. -1.
<scales pt_clust_5="13000.00000" pt_clust_6="13000.00000" pt_clust_7="13000.00000" pt_clust_8="13000.00000" pt_clust_9="28.26178"></scales>
<clustering>
<clus scale="   28.262">  2  9  1 -1</clus>
<clus scale="   75.242">  5  6 -1 -1</clus>
<clus scale="   90.156">  7  8 -1 -1</clus>
<clus scale="  118.751">  2  5  1 -1</clus>
<clus scale="  128.719">  1  5  2 -1</clus>
</clustering>
</event>
<event>
 9    2  0.3402837E-005  0.1734017E+03  0.7546771E-02  0.1175663E+00
          2   -1    0    0  502    0  0.00000000000E+00  0.00000000000E+00  0.65504413436E+02  0.65504413436E+02  0.00000000000E+00 0. -1.
         -1   -1    0    0    0  501 -0.00000000000E+00 -0.00000000000E+00 -0.16932388952E+04  0.16932388952E+04  0.00000000000E+00 0.  1.
         24    2    1    2    0    0 -0.39310208995E+02 -0.14398052457E+03 -0.14980554430E+04  0.15077237703E+04  0.82372162456E+02 0.  0.
         23    2    1    2    0    0  0.28854620234E+01  0.12162402491E+03 -0.50198136491E+02  0.16077659351E+03  0.92350044877E+02 0.  0.
        -11    1    3    3    0    0 -0.45485314669E+02 -0.70756790309E+02 -0.50538905719E+03  0.51234123039E+03  0.00000000000E+00 0.  1.
         12    1    3    3    0    0  0.61751056738E+01 -0.73223734259E+02 -0.99266638585E+03  0.99538253992E+03  0.00000000000E+00 0. -1.
        -13    1    4    4    0    0  0.19014053093E+02  0.62723606066E+02  0.19236976678E+02  0.68306999968E+02  0.00000000000E+00 0. -1.
         13    1    4    4    0    0 -0.16128591070E+02  0.58900418842E+02 -0.69435113169E+02  0.92469593546E+02  0.00000000000E+00 0.  1.
         21    1    1    2  502  501  0.36424746972E+02  0.22356499660E+02 -0.79480902241E+02  0.90242944822E+02  0.00000000000E+00 0. -1.
<scales pt_clust_5="13000.00000" pt_clust_6="13000.00000" pt_clust_7="13000.00000" pt_clust_8="13000.00000" pt_clust_9="42.73845"></scales>
<clustering>
<clus scale="   42.738">  1  9  2 -1</clus>
<clus scale="   82.372">  5  6 -1 -1</clus>
<clus scale="   92.350">  7  8 -1 -1</clus>
<clus scale="  168.300">  2  5  1 -1</clus>
<clus scale="   42.738">  1  5  2 -1</clus>
</clustering>
</event>
<event>
 9    2  0.3402837E-005  0.1307692E+03  0.7546771E-02  0.1228938E+00
         -1   -1    0    0    0  501 -0.00000000000E+00  0.00000000000E+00  0.13038777391E+03  0.13038777391E+03  0.00000000000E+00 0.  1.
          2   -1    0    0  502    0  0.00000000000E+00 -0.00000000000E+00 -0.19524321783E+03  0.19524321783E+03  0.00000000000E+00 0. -1.
         23    2    1    2    0    0 -0.92970256365E+02  0.70577722574E+02  0.13502569873E+02  0.14859783670E+03  0.90963257341E+02 0.  0.
         24    2    1    2    0    0  0.58633972029E+02 -0.62298191467E+02 -0.79037502831E+02  0.14170621401E+03  0.80713796211E+02 0.  0.
        -13    1    4    4    0    0  0.38334997435E+02 -0.52948926123E+00  0.12926182566E+01  0.38360438595E+02  0.00000000000E+00 0.  1.
         14    1    4    4    0    0  0.20298974594E+02 -0.61768702206E+02 -0.80330121088E+02  0.10334577541E+03  0.00000000000E+00 0. -1.
        -13    1    3    3    0    0 -0.29706585244E+02  0.62213687303E+02  0.39768025070E+02  0.79589697278E+02  0.00000000000E+00 0.  1.
         13    1    3    3    0    0 -0.63263671120E+02  0.83640352703E+01 -0.26265455197E+02  0.69008139421E+02  0.00000000000E+00 0. -1.
         21    1    1    2  502  501  0.34336284336E+02 -0.82795311061E+01  0.67948903526E+00  0.35326941032E+02  0.00000000000E+00 0.  1.
<scales pt_clust_5="13000.00000" pt_clust_6="13000.00000" pt_clust_7="13000.00000" pt_clust_8="13000.00000" pt_clust_9="35.32041"></scales>
<clustering>
<clus scale="   35.320">  1  9  2 -1</clus>
<clus scale="   80.714">  5  6 -1 -1</clus>
<clus scale="   90.963">  7  8 -1 -1</clus>
<clus scale="  123.859">  2  5  1 -1</clus>
<clus scale="  123.859">  2  5  1 -1</clus>
</clustering>
</event>
<event>
 9    2  0.3402837E-005  0.1348258E+03  0.7546771E-02  0.1223911E+00
          2   -1    0    0  502    0  0.00000000000E+00  0.00000000000E+00  0.12022312478E+04  0.12022312478E+04  0.00000000000E+00 0. -1.
         -1   -1    0    0    0  501 -0.00000000000E+00 -0.00000000000E+00 -0.20217483684E+02  0.20217483684E+02  0.00000000000E+00 0.  1.
         24    2    1    2    0    0  0.96052141274E+02  0.19953276921E+02  0.47264514869E+03  0.48917696730E+03  0.79224501585E+02 0.  0.
         23    2    1    2    0    0 -0.80261988121E+02 -0.62142718286E+02  0.58375158959E+03  0.59982171705E+03  0.93362035792E+02 0.  0.
        -11    1    3    3    0    0  0.39853704247E+02  0.78562876686E+01  0.59451374437E+02  0.72003506307E+02  0.00000000000E+00 0.  1.
         12    1    3    3    0    0  0.56198437027E+02  0.12096989252E+02  0.41319377425E+03  0.41717346099E+03  0.00000000000E+00 0. -1.
        -13    1    4    4    0    0 -0.54799426776E+02 -0.86633264583E+02  0.42535437005E+03  0.43753244431E+03  0.00000000000E+00 0.  1.
         13    1    4    4    0    0 -0.25462561345E+02  0.24490546297E+02  0.15839721954E+03  0.16228927274E+03  0.00000000000E+00 0. -1.
         21    1    1    2  502  501 -0.15790153152E+02  0.42189441365E+02  0.12561702579E+03  0.13345004709E+03  0.00000000000E+00 0. -1.
<scales pt_clust_5="13000.00000" pt_clust_6="13000.00000" pt_clust_7="13000.00000" pt_clust_8="13000.00000" pt_clust_9="45.04751"></scales>
<clustering>
<clus scale="   45.048">  2  9  1 -1</clus>
<clus scale="   79.225">  5  6 -1 -1</clus>
<clus scale="   93.362">  7  8 -1 -1</clus>
<clus scale="  125.451">  2  5  1 -1</clus>
<clus scale="  134.826">  1  5  2 -1</clus>
</clustering>
</event>
<event>
 9    2  0.3402837E-005  0.1015098E+03  0.7546771E-02  0.1283036E+00
         -1   -1    0    0    0  501 -0.00000000000E+00  0.00000000000E+00  0.25871642415E+03  0.25871642415E+03  0.00000000000E+00 0.  1.
          2   -1    0    0  502    0  0.00000000000E+00 -0.00000000000E+00 -0.48948629935E+03  0.48948629935E+03  0.00000000000E+00 0. -1.
         23    2    1    2    0    0  0.38126218386E+02  0.25917946092E+02  0.13948338423E+03  0.17385988667E+03  0.92985467993E+02 0.  0.
         24    2    1    2    0    0 -0.25764771573E+02  0.32884615261E+02 -0.45855059673E+03  0.46753943631E+03  0.81112596859E+02 0.  0.
        -13    1    4    4    0    0 -0.10965599373E+02  0.59495889129E+02 -0.32215962527E+03  0.32779083170E+03  0.00000000000E+00 0.  1.
         14    1    4    4    0    0 -0.14799172200E+02 -0.26611273868E+02 -0.13639097146E+03  0.13974860461E+03  0.00000000000E+00 0. -1.
        -13    1    3    3    0    0 -0.29079713906E+02  0.16348448779E+02  0.29076412977E+02  0.44253127911E+02  0.00000000000E+00 0. -1.
         13    1    3    3    0    0  0.67205932292E+02  0.95694973124E+01  0.11040697125E+03  0.12960675876E+03  0.00000000000E+00 0.  1.
         21    1    1    2  502  501 -0.12361446813E+02 -0.58802561353E+02  0.88297337297E+02  0.10680340052E+03  0.00000000000E+00 0.  1.
<scales pt_clust_5="13000.00000" pt_clust_6="13000.00000" pt_clust_7="13000.00000" pt_clust_8="13000.00000" pt_clust_9="60.08782"></scales>
<clustering>
<clus scale="   60.088">  1  9  2 -1</clus>
<clus scale="   81.113">  5  6 -1 -1</clus>
<clus scale="   90.759">  2  5  1 -1</clus>
<clus scale="   92.985">  7  8 -1 -1</clus>
<clus scale="   90.759">  2  5  1 -1</clus>
</clustering>
</event>
<event>
 9    2  0.3402837E-005  0.1375121E+03  0.7546771E-02  0.1219358E+00
          2   -1    0    0  502    0  0.00000000000E+00  0.00000000000E+00  0.74468762414E+03  0.74468762414E+03  0.00000000000E+00 0. -1.
         -1   -1    0    0    0  501 -0.00000000000E+00 -0.00000000000E+00 -0.37437500987E+02  0.37437500987E+02  0.00000000000E+00 0.  1.
         24    2    1    2    0    0  0.86934191548E+02 -0.36526078989E+02  0.27299128828E+03  0.29976569525E+03  0.80271542057E+02 0.  0.
         23    2    1    2    0    0 -0.10666320106E+03  0.26024161808E+02  0.43699571814E+03  0.45984244494E+03  0.91845092595E+02 0.  0.
        -13    1    3    3    0    0  0.95055544500E+02 -0.49250269898E+02  0.21998444253E+03  0.24465138582E+03  0.00000000000E+00 0.  1.
         14    1    3    3    0    0 -0.81213529522E+01  0.12724190909E+02  0.53006845750E+02  0.55114309434E+02  0.00000000000E+00 0. -1.
        -13    1    4    4    0    0 -0.11534601824E+02 -0.24690659837E+02  0.39507450418E+02  0.47994940993E+02  0.00000000000E+00 0.  1.
         13    1    4    4    0    0 -0.95128599236E+02  0.50714821645E+02  0.39748826773E+03  0.41184750395E+03  0.00000000000E+00 0. -1.
         21    1    1    2  502  501  0.19729009512E+02  0.10501917180E+02 -0.27368832703E+01  0.22516984941E+02  0.00000000000E+00 0.  1.
<scales pt_clust_5="13000.00000" pt_clust_6="13000.00000" pt_clust_7="13000.00000" pt_clust_8="13000.00000" pt_clust_9="22.35004"></scales>
<clustering>
<clus scale="   22.350">  2  9  1 -1</clus>
<clus scale="   80.272">  5  6 -1 -1</clus>
<clus scale="   91.845">  7  8 -1 -1</clus>
<clus scale="  130.068">  2  5  1 -1</clus>
<clus scale="  137.512">  1  5  2 -1</clus>
</clustering>
</event>
<event>
 9    2  0.3402837E-005  0.1074560E+03  0.7546771E-02  0.1274409E+00
          4   -1    0    0  502    0  0.00000000000E+00  0.00000000000E+00  0.31566496569E+03  0.31566496569E+03  0.00000000000E+00 0. -1.
         -3   -1    0    0    0  501 -0.00000000000E+00 -0.00000000000E+00 -0.11843424370E+03  0.11843424370E+03  0.00000000000E+00 0.  1.
         23    2    1    2    0    0  0.12477792249E+02 -0.24905620883E+02 -0.40384812736E+02  0.10522446095E+03  0.93087425748E+02 0.  0.
         24    2    1    2    0    0  0.46566808175E+01  0.56637581650E+02  0.26694780351E+03  0.28238937984E+03  0.72478491393E+02 0.  0.
        -11    1    4    4    0    0  0.11323954492E+02  0.19226882947E+02  0.13438814978E+02  0.26048161570E+02  0.00000000000E+00 0.  1.
         12    1    4    4    0    0 -0.66672736747E+01  0.37410698703E+02  0.25350898854E+03  0.25634121827E+03  0.00000000000E+00 0. -1.
        -13    1    3    3    0    0  0.34663200227E+02 -0.51546628564E+02 -0.30331136646E+02  0.69127203159E+02  0.00000000000E+00 0.  1.
         13    1    3    3    0    0 -0.22185407978E+02  0.26641007681E+02 -0.10053676090E+02  0.36097257795E+02  0.00000000000E+00 0. -1.
         21    1    1    2  502  501 -0.17134473066E+02 -0.31731960767E+02 -0.29332268787E+02  0.46485368597E+02  0.00000000000E+00 0.  1.
<scales pt_clust_5="13000.00000" pt_clust_6="13000.00000" pt_clust_7="13000.00000" pt_clust_8="13000.00000" pt_clust_9="36.06255"></scales>
<clustering>
<clus scale="   36.063">  2  9  1 -1</clus>
<clus scale="   72.478">  5  6 -1 -1</clus>
<clus scale="   90.192">  1  5  2 -1</clus>
<clus scale="   93.087">  7  8 -1 -1</clus>
<clus scale="   90.192">  1  5  2 -1</clus>
</clustering>
</event>
<event>
 9    2  0.3402837E-005  0.9638822E+02  0.7546771E-02  0.1291756E+00
         -1   -1    0    0    0  501 -0.00000000000E+00  0.00000000000E+00  0.26564794918E+02  0.26564794918E+02  0.00000000000E+00 0.  1.
          2   -1    0    0  502    0  0.00000000000E+00 -0.00000000000E+00 -0.61657242689E+03  0.61657242689E+03  0.00000000000E+00 0. -1.
         24    2    1    2    0    0  0.31235622415E+02 -0.24053954774E+02 -0.10791343238E+03  0.14018129750E+03  0.80319551995E+02 0.  0.
         23    2    1    2    0    0 -0.43806975273E+02 -0.92063426804E+01 -0.42061849570E+03  0.43193797962E+03  0.87445362827E+02 0.  0.
        -11    1    3    3    0    0  0.47252153460E+02 -0.12435976621E+02 -0.24895546333E+02  0.54838013716E+02  0.00000000000E+00 0.  1.
         12    1    3    3    0    0 -0.16016531045E+02 -0.11617978153E+02 -0.83017886051E+02  0.85343283786E+02  0.00000000000E+00 0. -1.
        -13    1    4    4    0    0 -0.33305203110E+02  0.35600618941E+02 -0.27277786783E+03  0.27709999242E+03  0.00000000000E+00 0. -1.
         13    1    4    4    0    0 -0.10501772163E+02 -0.44806961621E+02 -0.14784062787E+03  0.15483798719E+03  0.00000000000E+00 0.  1.
         21    1    1    2  502  501  0.12571352858E+02  0.33260297455E+02 -0.61475703881E+02  0.71017944684E+02  0.00000000000E+00 0. -1.
<scales pt_clust_5="13000.00000" pt_clust_6="13000.00000" pt_clust_7="13000.00000" pt_clust_8="13000.00000" pt_clust_9="35.55680"></scales>
<clustering>
<clus scale="   35.557">  1  9  2 -1</clus>
<clus scale="   80.320">  5  6 -1 -1</clus>
<clus scale="   87.445">  7  8 -1 -1</clus>
<clus scale="   89.973">  1  5  2 -1</clus>
<clus scale="   96.388">  2  5  1 -1</clus>
</clustering>
</event>
<event>
 9    2  0.3402837E-005  0.1049551E+03  0.7546771E-02  0.1272886E+00
         -1   -1    0    0    0  501 -0.00000000000E+00  0.00000000000E+00  0.10588204009E+03  0.10588204009E+03  0.00000000000E+00 0.  1.
          2   -1    0    0  502    0  0.00000000000E+00 -0.00000000000E+00 -0.37648285162E+03  0.37648285162E+03  0.00000000000E+00 0. -1.
         23    2    1    2    0    0 -0.98993172323E+01 -0.25633859392E+02 -0.36054271970E+02  0.10267702515E+03  0.92128007341E+02 0.  0.
         24    2    1    2    0    0  0.19464330718E+02  0.52754710785E+02 -0.29518592169E+03  0.31257479236E+03  0.86060169491E+02 0.  0.
        -13    1    4    4    0    0 -0.24049379422E+02 -0.96114508999E+01 -0.93780075916E+02  0.97290571372E+02  0.00000000000E+00 0.  1.
         14    1    4    4    0    0  0.43513710140E+02  0.62366161685E+02 -0.20140584578E+03  0.21528422099E+03  0.00000000000E+00 0. -1.
        -13    1    3    3    0    0 -0.33604277383E+02  0.15870479187E+02  0.76142490334E+01  0.37935423504E+02  0.00000000000E+00 0.  1.
         13    1    3    3    0    0  0.23704960151E+02 -0.41504338579E+02 -0.43668521003E+02  0.64741601642E+02  0.00000000000E+00 0. -1.
         21    1    1    2  502  501 -0.95650134854E+01 -0.27120851393E+02  0.60639382134E+02  0.67113074203E+02  0.00000000000E+00 0.  1.
<scales pt_clust_5="13000.00000" pt_clust_6="13000.00000" pt_clust_7="13000.00000" pt_clust_8="13000.00000" pt_clust_9="28.75813"></scales>
<clustering>
<clus scale="   28.758">  1  9  2 -1</clus>
<clus scale="   86.060">  5  6 -1 -1</clus>
<clus scale="   92.128">  7  8 -1 -1</clus>
<clus scale="   99.671">  2  5  1 -1</clus>
<clus scale="   99.671">  2  5  1 -1</clus>
</clustering>
</event>
<event>
 9    2  0.3402837E-005  0.1747290E+03  0.7546771E-02  0.1174336E+00
          2   -1    0    0  502    0  0.00000000000E+00  0.00000000000E+00  0.69343511103E+03  0.69343511103E+03  0.00000000000E+00 0. -1.
         -1   -1    0    0    0  501 -0.00000000000E+00 -0.00000000000E+00 -0.13549050501E+03  0.13549050501E+03  0.00000000000E+00 0.  1.
         23    2    1    2    0    0 -0.12267239311E+03  0.29364909448E+02 -0.59104956909E+02  0.16618793727E+03  0.90632337643E+02 0.  0.
         24    2    1    2    0    0  0.15233838580E+03  0.23647206528E+01  0.58199545399E+03  0.60691984021E+03  0.80127450228E+02 0.  0.
        -11    1    4    4    0    0  0.19499966476E+02 -0.17058765287E+02  0.34154794077E+02  0.42869571075E+02  0.00000000000E+00 0.  1.
         12    1    4    4    0    0  0.13283841932E+03  0.19423485940E+02  0.54784065992E+03  0.56405026914E+03  0.00000000000E+00 0. -1.
        -11    1    3    3    0    0 -0.89671446902E+02  0.51775660477E+00 -0.77625313538E+02  0.11860407145E+03  0.00000000000E+00 0.  1.
         11    1    3    3    0    0 -0.33000946203E+02  0.28847152843E+02  0.18520356629E+02  0.47583865828E+02  0.00000000000E+00 0. -1.
         21    1    1    2  502  501 -0.29665992693E+02 -0.31729630101E+02  0.35054108935E+02  0.55817838565E+02  0.00000000000E+00 0. -1.
<scales pt_clust_5="13000.00000" pt_clust_6="13000.00000" pt_clust_7="13000.00000" pt_clust_8="13000.00000" pt_clust_9="43.43778"></scales>
<clustering>
<clus scale="   43.438">  2  9  1 -1</clus>
<clus scale="   80.127">  5  6 -1 -1</clus>
<clus scale="   90.632">  7  8 -1 -1</clus>
<clus scale="  169.518">  1  5  2 -1</clus>
<clus scale="  169.518">  1  5  2 -1</clus>
</clustering>
</event>
<event>
 9    2  0.3402837E-005  0.1059365E+03  0.7546771E-02  0.1272550E+00
         -1   -1    0    0    0  501 -0.00000000000E+00  0.00000000000E+00  0.14005587876E+03  0.14005587876E+03  0.00000000000E+00 0.  1.
          2   -1    0    0  502    0  0.00000000000E+00 -0.00000000000E+00 -0.24463025184E+03  0.24463025184E+03  0.00000000000E+00 0. -1.
         23    2    1    2    0    0  0.13582567172E+02  0.15997232436E+02  0.84351809593E+02  0.12631356244E+03  0.91648735390E+02 0.  0.
         24    2    1    2    0    0 -0.38447556024E+02 -0.41730276364E+02 -0.19785212920E+03  0.22149263131E+03  0.81816197466E+02 0.  0.
        -13    1    4    4    0    0 -0.57621948034E+02 -0.48081411057E+02 -0.12412559073E+03  0.14504920979E+03  0.00000000000E+00 0.  1.
         14    1    4    4    0    0  0.19174392010E+02  0.63511346922E+01 -0.73726538465E+02  0.76443421528E+02  0.00000000000E+00 0. -1.
        -11    1    3    3    0    0  0.42076672460E+02  0.36638580300E+02  0.66671336507E+02  0.86936177989E+02  0.00000000000E+00 0.  1.
         11    1    3    3    0    0 -0.28494105288E+02 -0.20641347864E+02  0.17680473086E+02  0.39377384453E+02  0.00000000000E+00 0. -1.
         21    1    1    2  502  501  0.24864988852E+02  0.25733043928E+02  0.89259465304E+01  0.36879936847E+02  0.00000000000E+00 0.  1.
<scales pt_clust_5="13000.00000" pt_clust_6="13000.00000" pt_clust_7="13000.00000" pt_clust_8="13000.00000" pt_clust_9="35.78348"></scales>
<clustering>
<clus scale="   35.783">  1  9  2 -1</clus>
<clus scale="   81.816">  5  6 -1 -1</clus>
<clus scale="   91.649">  7  8 -1 -1</clus>
<clus scale="   97.555">  2  5  1 -1</clus>
<clus scale="   97.555">  2  5  1 -1</clus>
</clustering>
</event>
<event>
 9    2  0.3402837E-005  0.1094886E+03  0.7546771E-02  0.1265009E+00
         -1   -1    0    0    0  501 -0.00000000000E+00  0.00000000000E+00  0.54506585733E+02  0.54506585733E+02  0.00000000000E+00 0.  1.
          2   -1    0    0  502    0  0.00000000000E+00 -0.00000000000E+00 -0.41199534668E+03  0.41199534668E+03  0.00000000000E+00 0. -1.
         23    2    1    2    0    0  0.50159015034E+02 -0.18753969871E+02 -0.14436610147E+03  0.17846541188E+03  0.90225793471E+02 0.  0.
         24    2    1    2    0    0 -0.39620620907E+02  0.62623386426E+02 -0.21644161652E+03  0.24279716891E+03  0.81314265294E+02 0.  0.
        -13    1    4    4    0    0 -0.18286269665E+02 -0.13391068793E+02 -0.17106778602E+02  0.28396307080E+02  0.00000000000E+00 0.  1.
         14    1    4    4    0    0 -0.21334351242E+02  0.76014455219E+02 -0.19933483792E+03  0.21440086183E+03  0.00000000000E+00 0. -1.
        -11    1    3    3    0    0 -0.10249089564E+02 -0.23269507113E+02 -0.42023301253E+01  0.25771561394E+02  0.00000000000E+00 0.  1.
         11    1    3    3    0    0  0.60408104598E+02  0.45155372417E+01 -0.14016377134E+03  0.15269385048E+03  0.00000000000E+00 0. -1.
         21    1    1    2  502  501 -0.10538394128E+02 -0.43869416554E+02  0.33189570461E+01  0.45239351625E+02  0.00000000000E+00 0. -1.
<scales pt_clust_5="13000.00000" pt_clust_6="13000.00000" pt_clust_7="13000.00000" pt_clust_8="13000.00000" pt_clust_9="45.11744"></scales>
<clustering>
<clus scale="   45.117">  1  9  2 -1</clus>
<clus scale="   81.314">  5  6 -1 -1</clus>
<clus scale="   90.226">  7  8 -1 -1</clus>
<clus scale="  102.270">  2  5  1 -1</clus>
<clus scale="  102.270">  2  5  1 -1</clus>
</clustering>
</event>
<event>
 9    2  0.3402837E-005  0.9457636E+02  0.7546771E-02  0.1298051E+00
          2   -1    0    0  502    0  0.00000000000E+00  0.00000000000E+00  0.40142284314E+03  0.40142284314E+03  0.00000000000E+00 0. -1.
         -1   -1    0    0    0  501 -0.00000000000E+00 -0.00000000000E+00 -0.32099358834E+02  0.32099358834E+02  0.00000000000E+00 0.  1.
         23    2    1    2    0    0  0.61373866519E+01 -0.35536712838E+02  0.95324356715E+02  0.13701140363E+03  0.91568915405E+02 0.  0.
         24    2    1    2    0    0 -0.12416318599E+02  0.16338002723E+02  0.25619387436E+03  0.26958418513E+03  0.81358689207E+02 0.  0.
        -13    1    4    4    0    0  0.20945780981E+02 -0.23636501072E+02  0.86681867870E+02  0.92255927404E+02  0.00000000000E+00 0.  1.
         14    1    4    4    0    0 -0.33362099579E+02  0.39974503795E+02  0.16951200649E+03  0.17732825773E+03  0.00000000000E+00 0. -1.
        -11    1    3    3    0    0  0.80485898005E+01  0.30068505410E+02  0.42945609635E+02  0.53039798287E+02  0.00000000000E+00 0. -1.
         11    1    3    3    0    0 -0.19112031486E+01 -0.65605218249E+02  0.52378747080E+02  0.83971605347E+02  0.00000000000E+00 0.  1.
         21    1    1    2  502  501  0.62789319469E+01  0.19198710115E+02  0.17805253221E+02  0.26926613206E+02  0.00000000000E+00 0. -1.
<scales pt_clust_5="13000.00000" pt_clust_6="13000.00000" pt_clust_7="13000.00000" pt_clust_8="13000.00000" pt_clust_9="20.19939"></scales>
<clustering>
<clus scale="   20.199">  2  9  1 -1</clus>
<clus scale="   81.359">  5  6 -1 -1</clus>
<clus scale="   84.729">  1  5  2 -1</clus>
<clus scale="   91.569">  7  8 -1 -1</clus>
<clus scale="   84.729">  1  5  2 -1</clus>
</clustering>
</event>
<event>
 9    2  0.3402837E-005  0.9353089E+02  0.7546771E-02  0.1298309E+00
          2   -1    0    0  502    0  0.00000000000E+00  0.00000000000E+00  0.21335586352E+03  0.21335586352E+03  0.00000000000E+00 0. -1.
         -1   -1    0    0    0  501 -0.00000000000E+00 -0.00000000000E+00 -0.14692968301E+03  0.14692968301E+03  0.00000000000E+00 0.  1.
         24    2    1    2    0    0 -0.13301842433E+02 -0.34954670524E+02 -0.61276997612E+02  0.11085582260E+03  0.84471148711E+02 0.  0.
         23    2    1    2    0    0 -0.24087080120E+02  0.59204975163E+01  0.16439677351E+03  0.18953536131E+03  0.91006122459E+02 0.  0.
        -13    1    3    3    0    0  0.31619598868E+01 -0.23301106650E+02 -0.79969741664E+02  0.83355258642E+02  0.00000000000E+00 0.  1.
         14    1    3    3    0    0 -0.16463802320E+02 -0.11653563874E+02  0.18692744052E+02  0.27500563958E+02  0.00000000000E+00 0. -1.
        -13    1    4    4    0    0 -0.54233360408E+02  0.22014571795E+02  0.11996129947E+03  0.13347888268E+03  0.00000000000E+00 0. -1.
         13    1    4    4    0    0  0.30146280288E+02 -0.16094074279E+02  0.44435474046E+02  0.56056478624E+02  0.00000000000E+00 0.  1.
         21    1    1    2  502  501  0.37388922554E+02  0.29034173008E+02 -0.36693595390E+02  0.59894362628E+02  0.00000000000E+00 0.  1.
<scales pt_clust_5="13000.00000" pt_clust_6="13000.00000" pt_clust_7="13000.00000" pt_clust_8="13000.00000" pt_clust_9="47.33830"></scales>
<clustering>
<clus scale="   47.338">  2  9  1 -1</clus>
<clus scale="   84.471">  5  6 -1 -1</clus>
<clus scale="   87.185">  2  5  1 -1</clus>
<clus scale="   91.006">  7  8 -1 -1</clus>
<clus scale="   93.531">  1  5  2 -1</clus>
</clustering>
</event>
<event>
 9    2  0.3402837E-005  0.1885075E+03  0.7546771E-02  0.1160699E+00
          2   -1    0    0  502    0  0.00000000000E+00  0.00000000000E+00  0.14651796404E+03  0.14651796404E+03  0.00000000000E+00 0. -1.
         -1   -1    0    0    0  501 -0.00000000000E+00 -0.00000000000E+00 -0.48066570025E+03  0.48066570025E+03  0.00000000000E+00 0.  1.
         24    2    1    2    0    0  0.13144826470E+03  0.52731755843E+02 -0.29193667940E+03  0.33476794031E+03  0.82360577446E+02 0.  0.
         23    2    1    2    0    0 -0.12468038109E+03 -0.12193494180E+03  0.21995451461E+02  0.19777238876E+03  0.90646513513E+02 0.  0.
        -11    1    3    3    0    0  0.92737575447E+02  0.43675094781E+02 -0.27120541342E+03  0.28993128164E+03  0.00000000000E+00 0.  1.
         12    1    3    3    0    0  0.38710689253E+02  0.90566610615E+01 -0.20731265974E+02  0.44836658672E+02  0.00000000000E+00 0. -1.
        -13    1    4    4    0    0 -0.13278132677E+03 -0.99870313942E+02  0.36558261469E+02  0.17012191754E+03  0.00000000000E+00 0. -1.
         13    1    4    4    0    0  0.81009456832E+01 -0.22064627861E+02 -0.14562810008E+02  0.27650471225E+02  0.00000000000E+00 0.  1.
         21    1    1    2  502  501 -0.67678836127E+01  0.69203185961E+02 -0.64206508274E+02  0.94643335215E+02  0.00000000000E+00 0.  1.
<scales pt_clust_5="13000.00000" pt_clust_6="13000.00000" pt_clust_7="13000.00000" pt_clust_8="13000.00000" pt_clust_9="69.53334"></scales>
<clustering>
<clus scale="   69.533">  2  9  1 -1</clus>
<clus scale="   82.361">  5  6 -1 -1</clus>
<clus scale="   90.647">  7  8 -1 -1</clus>
<clus scale="  184.666">  2  5  1 -1</clus>
<clus scale="  188.508">  1  5  2 -1</clus>
</clustering>
</event>
<event>
 9    2  0.3402837E-005  0.1954984E+03  0.7546771E-02  0.1158383E+00
         -1   -1    0    0    0  501 -0.00000000000E+00  0.00000000000E+00  0.10571042563E+04  0.10571042563E+04  0.00000000000E+00 0.  1.
          2   -1    0    0  502    0  0.00000000000E+00 -0.00000000000E+00 -0.14453097770E+03  0.14453097770E+03  0.00000000000E+00 0. -1.
         24    2    1    2    0    0  0.15079031865E+03  0.88433299248E+02  0.89461924532E+03  0.91494306295E+03  0.78860926557E+02 0.  0.
         23    2    1    2    0    0 -0.14804742577E+03 -0.45047272247E+02 -0.54631881887E+02  0.20208374427E+03  0.11792328086E+03 0.  0.
        -13    1    3    3    0    0  0.15339603411E+03  0.68364424763E+02  0.84160404002E+03  0.85819659638E+03  0.00000000000E+00 0.  1.
         14    1    3    3    0    0 -0.26057154588E+01  0.20068874485E+02  0.53015205299E+02  0.56746466577E+02  0.00000000000E+00 0. -1.
        -13    1    4    4    0    0 -0.52519270395E+02  0.10390657469E+01 -0.77459214922E+02  0.93591043358E+02  0.00000000000E+00 0.  1.
         13    1    4    4    0    0 -0.95528155371E+02 -0.46086337994E+02  0.22827333035E+02  0.10849270091E+03  0.00000000000E+00 0. -1.
         21    1    1    2  502  501 -0.27428928831E+01 -0.43386027001E+02  0.72585915130E+02  0.84608426741E+02  0.00000000000E+00 0. -1.
<scales pt_clust_5="13000.00000" pt_clust_6="13000.00000" pt_clust_7="13000.00000" pt_clust_8="13000.00000" pt_clust_9="43.47264"></scales>
<clustering>
<clus scale="   43.473">  1  9  2 -1</clus>
<clus scale="   78.861">  5  6 -1 -1</clus>
<clus scale="  117.923">  7  8 -1 -1</clus>
<clus scale="  174.736">  1  5  2 -1</clus>
<clus scale="  195.498">  2  5  1 -1</clus>
</clustering>
</event>
<event>
 9    2  0.3402837E-005  0.2426908E+03  0.7546771E-02  0.1118604E+00
         -1   -1    0    0    0  501 -0.00000000000E+00  0.00000000000E+00  0.19288503021E+03  0.19288503021E+03  0.00000000000E+00 0.  1.
          2   -1    0    0  502    0  0.00000000000E+00 -0.00000000000E+00 -0.67726907278E+03  0.67726907278E+03  0.00000000000E+00 0. -1.
         24    2    1    2    0    0  0.19900308245E+03 -0.15561370092E+03 -0.84102357386E+02  0.27816561778E+03  0.80529830864E+02 0.  0.
         23    2    1    2    0    0 -0.16623346970E+03  0.13980186963E+03 -0.46305833512E+03  0.51942975516E+03  0.90587635011E+02 0.  0.
        -11    1    3    3    0    0  0.17420156749E+03 -0.93692946590E+02 -0.54366996831E+02  0.20513489392E+03  0.00000000000E+00 0.  1.
         12    1    3    3    0    0  0.24801514959E+02 -0.61920754330E+02 -0.29735360555E+02  0.73030723866E+02  0.00000000000E+00 0. -1.
        -11    1    4    4    0    0 -0.95621991453E+02  0.79129990322E+02 -0.16062261427E+03  0.20298951902E+03  0.00000000000E+00 0.  1.
         11    1    4    4    0    0 -0.70611478247E+02  0.60671879312E+02 -0.30243572085E+03  0.31644023613E+03  0.00000000000E+00 0. -1.
         21    1    1    2  502  501 -0.32769612750E+02  0.15811831285E+02  0.62776649941E+02  0.72558730048E+02  0.00000000000E+00 0.  1.
<scales pt_clust_5="13000.00000" pt_clust_6="13000.00000" pt_clust_7="13000.00000" pt_clust_8="13000.00000" pt_clust_9="36.38491"></scales>
<clustering>
<clus scale="   36.385">  1  9  2 -1</clus>
<clus scale="   80.530">  5  6 -1 -1</clus>
<clus scale="   90.588">  7  8 -1 -1</clus>
<clus scale="  239.119">  1  5  2 -1</clus>
<clus scale="  242.691">  2  5  1 -1</clus>
</clustering>
</event>
<event>
 9    2  0.3402837E-005  0.1961406E+03  0.7546771E-02  0.1154432E+00
         -1   -1    0    0    0  501 -0.00000000000E+00  0.00000000000E+00  0.15970998108E+03  0.15970998108E+03  0.00000000000E+00 0.  1.
          2   -1    0    0  502    0  0.00000000000E+00 -0.00000000000E+00 -0.83264356685E+03  0.83264356685E+03  0.00000000000E+00 0. -1.
         24    2    1    2    0    0  0.75235541693E+00 -0.17290982853E+03 -0.13209531610E+03  0.23228428860E+03  0.81292332688E+02 0.  0.
         23    2    1    2    0    0  0.65707390235E+02  0.16131883012E+03 -0.62294573389E+03  0.65380127395E+03  0.95149841652E+02 0.  0.
        -11    1    3    3    0    0 -0.38260667991E+02 -0.11521670939E+03 -0.82376310374E+02  0.14671273070E+03  0.00000000000E+00 0.  1.
         12    1    3    3    0    0  0.39013023408E+02 -0.57693119138E+02 -0.49719005722E+02  0.85571557899E+02  0.00000000000E+00 0. -1.
        -13    1    4    4    0    0  0.19453561565E+02  0.37013799323E+02 -0.47563904667E+02  0.63330777866E+02  0.00000000000E+00 0.  1.
         13    1    4    4    0    0  0.46253828669E+02  0.12430503080E+03 -0.57538182923E+03  0.59047049609E+03  0.00000000000E+00 0. -1.
         21    1    1    2  502  501 -0.66459745651E+02  0.11590998406E+02  0.82107464217E+02  0.10626798538E+03  0.00000000000E+00 0.  1.
<scales pt_clust_5="13000.00000" pt_clust_6="13000.00000" pt_clust_7="13000.00000" pt_clust_8="13000.00000" pt_clust_9="67.46295"></scales>
<clustering>
<clus scale="   67.463">  1  9  2 -1</clus>
<clus scale="   81.292">  5  6 -1 -1</clus>
<clus scale="   95.150">  7  8 -1 -1</clus>
<clus scale="  189.805">  1  5  2 -1</clus>
<clus scale="  196.141">  2  5  1 -1</clus>
</clustering>
</event>
<event>
 9    2  0.3402837E-005  0.1024597E+03  0.7546771E-02  0.1282132E+00
          2   -1    0    0  502    0  0.00000000000E+00  0.00000000000E+00  0.69558830673E+03  0.69558830673E+03  0.00000000000E+00 0. -1.
         -1   -1    0    0    0  501 -0.00000000000E+00 -0.00000000000E+00 -0.33573411598E+02  0.33573411598E+02  0.00000000000E+00 0.  1.
         23    2    1    2    0    0 -0.17945720965E+02 -0.11855972879E+02  0.87321210782E+02  0.12952128045E+03  0.93210274341E+02 0.  0.
         24    2    1    2    0    0  0.46607677247E+02  0.34712607718E+01  0.55783879643E+03  0.56534906313E+03  0.79063994057E+02 0.  0.
        -13    1    4    4    0    0  0.40818930345E+02 -0.13499023010E+02  0.12590270973E+03  0.13304097495E+03  0.00000000000E+00 0.  1.
         14    1    4    4    0    0  0.57887469020E+01  0.16970283782E+02  0.43193608669E+03  0.43230808818E+03  0.00000000000E+00 0. -1.
        -13    1    3    3    0    0 -0.68340474121E+01  0.41033666676E+02  0.39174087453E+02  0.57140835947E+02  0.00000000000E+00 0.  1.
         13    1    3    3    0    0 -0.11111673553E+02 -0.52889639555E+02  0.48147123329E+02  0.72380444502E+02  0.00000000000E+00 0. -1.
         21    1    1    2  502  501 -0.28661956282E+02  0.83847121073E+01  0.16854887921E+02  0.34291374744E+02  0.00000000000E+00 0.  1.
<scales pt_clust_5="13000.00000" pt_clust_6="13000.00000" pt_clust_7="13000.00000" pt_clust_8="13000.00000" pt_clust_9="29.86321"></scales>
<clustering>
<clus scale="   29.863">  2  9  1 -1</clus>
<clus scale="   79.064">  5  6 -1 -1</clus>
<clus scale="   89.783">  1  5  2 -1</clus>
<clus scale="   93.210">  7  8 -1 -1</clus>
<clus scale="   89.783">  1  5  2 -1</clus>
</clustering>
</event>
<event>
 9    2  0.3402837E-005  0.2622117E+03  0.7546771E-02  0.1105923E+00
         -3   -1    0    0    0  501 -0.00000000000E+00  0.00000000000E+00  0.35165064040E+03  0.35165064040E+03  0.00000000000E+00 0.  1.
          4   -1    0    0  502    0  0.00000000000E+00 -0.00000000000E+00 -0.40440005843E+03  0.40440005843E+03  0.00000000000E+00 0. -1.
         23    2    1    2    0    0  0.98155179197E+02 -0.19920506188E+03  0.16862342178E+03  0.29052319674E+03  0.81564536342E+02 0.  0.
         24    2    1    2    0    0 -0.19573503286E+03  0.17142406343E+03 -0.23954344904E+03  0.36245576612E+03  0.79339182001E+02 0.  0.
        -13    1    4    4    0    0 -0.22157628711E+02  0.52533775533E+01  0.53782222881E+00  0.22778229487E+02  0.00000000000E+00 0.  1.
         14    1    4    4    0    0 -0.17357740415E+03  0.16617068588E+03 -0.24008127127E+03  0.33967753663E+03  0.00000000000E+00 0. -1.
        -11    1    3    3    0    0  0.47093506951E+02 -0.11260353939E+03  0.14053641149E+03  0.18613929847E+03  0.00000000000E+00 0.  1.
         11    1    3    3    0    0  0.51061672245E+02 -0.86601522494E+02  0.28087010282E+02  0.10438389827E+03  0.00000000000E+00 0. -1.
         21    1    1    2  502  501  0.97579853668E+02  0.27780998449E+02  0.18170609240E+02  0.10307173597E+03  0.00000000000E+00 0.  1.
<scales pt_clust_5="13000.00000" pt_clust_6="13000.00000" pt_clust_7="13000.00000" pt_clust_8="13000.00000" pt_clust_9="101.45744"></scales>
<clustering>
<clus scale="   79.339">  5  6 -1 -1</clus>
<clus scale="   81.565">  7  8 -1 -1</clus>
<clus scale="  101.457">  1  9  2 -1</clus>
<clus scale="  261.528">  2  5  1 -1</clus>
<clus scale="  261.528">  2  5  1 -1</clus>
</clustering>
</event>
<event>
 9    2  0.3402837E-005  0.9201134E+02  0.7546771E-02  0.1304402E+00
         -3   -1    0    0    0  501 -0.00000000000E+00  0.00000000000E+00  0.44724634058E+02  0.44724634058E+02  0.00000000000E+00 0.  1.
          4   -1    0    0  502    0  0.00000000000E+00 -0.00000000000E+00 -0.39074073285E+03  0.39074073285E+03  0.00000000000E+00 0. -1.
         24    2    1    2    0    0  0.34414811464E+02  0.37855191657E+01 -0.57737118630E+02  0.10531057954E+03  0.80981688616E+02 0.  0.
         23    2    1    2    0    0 -0.51127585426E+01  0.33702464455E+01 -0.28559388777E+03  0.29987236660E+03  0.91225372871E+02 0.  0.
        -11    1    3    3    0    0  0.53442623831E+02 -0.12380737011E+02 -0.16822715313E+02  0.57379442673E+02  0.00000000000E+00 0.  1.
         12    1    3    3    0    0 -0.19027812368E+02  0.16166256176E+02 -0.40914403317E+02  0.47931136864E+02  0.00000000000E+00 0. -1.
        -11    1    4    4    0    0  0.13569880201E+02 -0.40501183207E+02 -0.11268271073E+03  0.12050676656E+03  0.00000000000E+00 0.  1.
         11    1    4    4    0    0 -0.18682638744E+02  0.43871429653E+02 -0.17291117704E+03  0.17936560003E+03  0.00000000000E+00 0. -1.
         21    1    1    2  502  501 -0.29302052921E+02 -0.71557656112E+01 -0.26850923925E+01  0.30282420776E+02  0.00000000000E+00 0. -1.
<scales pt_clust_5="13000.00000" pt_clust_6="13000.00000" pt_clust_7="13000.00000" pt_clust_8="13000.00000" pt_clust_9="30.16314"></scales>
<clustering>
<clus scale="   30.163">  1  9  2 -1</clus>
<clus scale="   80.982">  5  6 -1 -1</clus>
<clus scale="   81.866">  1  5  2 -1</clus>
<clus scale="   91.225">  7  8 -1 -1</clus>
<clus scale="   92.011">  2  5  1 -1</clus>
</clustering>
</event>
<event>
 9    2  0.3402837E-005  0.9380098E+02  0.7546771E-02  0.1300169E+00
         -1   -1    0    0    0  501 -0.00000000000E+00  0.00000000000E+00  0.49154294721E+03  0.49154294721E+03  0.00000000000E+00 0.  1.
          2   -1    0    0  502    0  0.00000000000E+00 -0.00000000000E+00 -0.62532165720E+02  0.62532165720E+02  0.00000000000E+00 0. -1.
         23    2    1    2    0    0  0.54803270058E+02 -0.53234901246E+01  0.30155355135E+03  0.31972628555E+03  0.90876924387E+02 0.  0.
         24    2    1    2    0    0 -0.17933415072E+02 -0.10213260732E+02 -0.16910226847E+02  0.84539817398E+02  0.80219117938E+02 0.  0.
        -13    1    4    4    0    0  0.23956083891E+02  0.13236020014E+02  0.10435505010E+02  0.29291397134E+02  0.00000000000E+00 0.  1.
         14    1    4    4    0    0 -0.41889498963E+02 -0.23449280746E+02 -0.27345731857E+02  0.55248420264E+02  0.00000000000E+00 0. -1.
        -11    1    3    3    0    0 -0.16555959327E+02  0.20743773490E+02  0.12034099587E+03  0.12323294695E+03  0.00000000000E+00 0.  1.
         11    1    3    3    0    0  0.71359229385E+02 -0.26067263614E+02  0.18121255548E+03  0.19649333860E+03  0.00000000000E+00 0. -1.
         21    1    1    2  502  501 -0.36869854986E+02  0.15536750856E+02  0.14436745699E+03  0.14980900998E+03  0.00000000000E+00 0. -1.
<scales pt_clust_5="13000.00000" pt_clust_6="13000.00000" pt_clust_7="13000.00000" pt_clust_8="13000.00000" pt_clust_9="40.00971"></scales>
<clustering>
<clus scale="   40.010">  1  9  2 -1</clus>
<clus scale="   80.219">  5  6 -1 -1</clus>
<clus scale="   83.517">  2  5  1 -1</clus>
<clus scale="   90.877">  7  8 -1 -1</clus>
<clus scale="   83.517">  2  5  1 -1</clus>
</clustering>
</event>
<event>
 9    2  0.3672532E-005  0.1073369E+03  0.7546771E-02  0.1270022E+00
         -1   -1    0    0    0  501 -0.00000000000E+00  0.00000000000E+00  0.19826114660E+03  0.19826114660E+03  0.00000000000E+00 0.  1.
          2   -1    0    0  502    0  0.00000000000E+00 -0.00000000000E+00 -0.51285049074E+03  0.51285049074E+03  0.00000000000E+00 0. -1.
         23    2    1    2    0    0 -0.22495564279E+02 -0.40136719201E+02  0.15289634501E+03  0.18301512224E+03  0.89444038424E+02 0.  0.
         24    2    1    2    0    0  0.43423268100E+02  0.41100272719E+02 -0.48852515054E+03  0.49840550369E+03  0.78590144255E+02 0.  0.
        -11    1    4    4    0    0  0.18143433398E+02  0.44731208433E+02 -0.12518854197E+03  0.13417241231E+03  0.00000000000E+00 0.  1.
         12    1    4    4    0    0  0.25279834702E+02 -0.36309357133E+01 -0.36333660857E+03  0.36423309139E+03  0.00000000000E+00 0. -1.
        -11    1    3    3    0    0 -0.31899466968E+02 -0.15370472217E+02  0.15246212057E+03  0.15652004862E+03  0.00000000000E+00 0.  1.
         11    1    3    3    0    0  0.94039026891E+01 -0.24766246984E+02  0.43422443946E+00  0.26495073623E+02  0.00000000000E+00 0. -1.
         21    1    1    2  502  501 -0.20927703821E+02 -0.96355351855E+00  0.21039461388E+02  0.29691011402E+02  0.00000000000E+00 0. -1.
<scales pt_clust_5="13000.00000" pt_clust_6="13000.00000" pt_clust_7="13000.00000" pt_clust_8="13000.00000" pt_clust_9="20.94987"></scales>
<clustering>
<clus scale="   20.950">  1  9  2 -1</clus>
<clus scale="   78.590">  5  6 -1 -1</clus>
<clus scale="   89.444">  7  8 -1 -1</clus>
<clus scale="   98.475">  2  5  1 -1</clus>
<clus scale="   98.475">  2  5  1 -1</clus>
</clustering>
</event>
<event>
 9    2  0.3402837E-005  0.9425748E+02  0.7546771E-02  0.1300735E+00
         -1   -1    0    0    0  501 -0.00000000000E+00  0.00000000000E+00  0.19594959960E+03  0.19594959960E+03  0.00000000000E+00 0.  1.
          2   -1    0    0  502    0  0.00000000000E+00 -0.00000000000E+00 -0.21372662330E+03  0.21372662330E+03  0.00000000000E+00 0. -1.
         24    2    1    2    0    0 -0.20777359702E+01 -0.33127548236E+01  0.12160814199E+03  0.14412799742E+03  0.77259615007E+02 0.  0.
         23    2    1    2    0    0  0.37482935054E+01  0.27437413117E+02 -0.18839452318E+03  0.21089745219E+03  0.90655268095E+02 0.  0.
        -13    1    3    3    0    0  0.11453946967E+02 -0.24351538204E+02  0.84032180129E+01  0.28192275307E+02  0.00000000000E+00 0.  1.
         14    1    3    3    0    0 -0.13531682937E+02  0.21038783381E+02  0.11320492398E+03  0.11593572212E+03  0.00000000000E+00 0. -1.
        -11    1    4    4    0    0 -0.40079249232E+02  0.30110538441E+02 -0.87104382015E+02  0.10049957269E+03  0.00000000000E+00 0.  1.
         11    1    4    4    0    0  0.43827542738E+02 -0.26731253236E+01 -0.10129014116E+03  0.11039787950E+03  0.00000000000E+00 0. -1.
         21    1    1    2  502  501 -0.16705575352E+01 -0.24124658293E+02  0.49009357486E+02  0.54650773292E+02  0.00000000000E+00 0.  1.
<scales pt_clust_5="13000.00000" pt_clust_6="13000.00000" pt_clust_7="13000.00000" pt_clust_8="13000.00000" pt_clust_9="24.18243"></scales>
<clustering>
<clus scale="   24.182">  1  9  2 -1</clus>
<clus scale="   77.260">  5  6 -1 -1</clus>
<clus scale="   81.456">  1  5  2 -1</clus>
<clus scale="   90.655">  7  8 -1 -1</clus>
<clus scale="   94.257">  2  5  1 -1</clus>
</clustering>
</event>
<event>
 9    2  0.3402837E-005  0.1407545E+03  0.7546771E-02  0.1214077E+00
          2   -1    0    0  502    0  0.00000000000E+00  0.00000000000E+00  0.56908860996E+03  0.56908860996E+03  0.00000000000E+00 0. -1.
         -1   -1    0    0    0  501 -0.00000000000E+00 -0.00000000000E+00 -0.71752940608E+02  0.71752940608E+02  0.00000000000E+00 0.  1.
         23    2    1    2    0    0 -0.18616037817E+02 -0.12304392681E+03  0.67622032774E+02  0.16896106602E+03  0.92134346059E+02 0.  0.
         24    2    1    2    0    0  0.27746106580E+01  0.10291882388E+03  0.42569258297E+03  0.44595483210E+03  0.84033054847E+02 0.  0.
        -11    1    4    4    0    0  0.43011515272E+02  0.51413869486E+02  0.19609277479E+03  0.20723357051E+03  0.00000000000E+00 0.  1.
         12    1    4    4    0    0 -0.40236904614E+02  0.51504954391E+02  0.22959980818E+03  0.23872126159E+03  0.00000000000E+00 0. -1.
        -11    1    3    3    0    0  0.24349886053E+02 -0.92483264312E+02  0.19555637929E+02  0.97614005673E+02  0.00000000000E+00 0.  1.
         11    1    3    3    0    0 -0.42965923871E+02 -0.30560662502E+02  0.48066394845E+02  0.71347060346E+02  0.00000000000E+00 0. -1.
         21    1    1    2  502  501  0.15841427159E+02  0.20125102937E+02  0.40210536066E+01  0.25925652447E+02  0.00000000000E+00 0.  1.
<scales pt_clust_5="13000.00000" pt_clust_6="13000.00000" pt_clust_7="13000.00000" pt_clust_8="13000.00000" pt_clust_9="25.61192"></scales>
<clustering>
<clus scale="   25.612">  2  9  1 -1</clus>
<clus scale="   84.033">  5  6 -1 -1</clus>
<clus scale="   92.134">  7  8 -1 -1</clus>
<clus scale="  135.590">  1  5  2 -1</clus>
<clus scale="  135.590">  1  5  2 -1</clus>
</clustering>
</event>
<event>
 9    2  0.3402837E-005  0.9658217E+02  0.7546771E-02  0.1294734E+00
          2   -1    0    0  502    0  0.00000000000E+00  0.00000000000E+00  0.17358715498E+03  0.17358715498E+03  0.00000000000E+00 0. -1.
         -1   -1    0    0    0  501 -0.00000000000E+00 -0.00000000000E+00 -0.15979904460E+03  0.15979904460E+03  0.00000000000E+00 0.  1.
         23    2    1    2    0    0 -0.54187701320E+02 -0.30592808553E+02 -0.49678486770E+02  0.12031610573E+03  0.90198593896E+02 0.  0.
         24    2    1    2    0    0 -0.10750235278E+02  0.35219873219E+02  0.10530200318E+03  0.13568439404E+03  0.77238176333E+02 0.  0.
        -11    1    4    4    0    0 -0.44184619751E+02  0.15980175872E+02  0.58668730835E+02  0.75164264256E+02  0.00000000000E+00 0.  1.
         12    1    4    4    0    0  0.33434384472E+02  0.19239697347E+02  0.46633272347E+02  0.60520129782E+02  0.00000000000E+00 0. -1.
        -13    1    3    3    0    0 -0.35421781249E+02 -0.60547384879E+02 -0.47865478622E+02  0.84922272969E+02  0.00000000000E+00 0.  1.
         13    1    3    3    0    0 -0.18765920071E+02  0.29954576326E+02 -0.18130081476E+01  0.35393832761E+02  0.00000000000E+00 0. -1.
         21    1    1    2  502  501  0.64937936598E+02 -0.46270646661E+01 -0.41835406040E+02  0.77385699813E+02  0.00000000000E+00 0. -1.
<scales pt_clust_5="13000.00000" pt_clust_6="13000.00000" pt_clust_7="13000.00000" pt_clust_8="13000.00000" pt_clust_9="65.10258"></scales>
<clustering>
<clus scale="   65.103">  2  9  1 -1</clus>
<clus scale="   77.238">  5  6 -1 -1</clus>
<clus scale="   84.605">  1  5  2 -1</clus>
<clus scale="   90.199">  7  8 -1 -1</clus>
<clus scale="   84.605">  1  5  2 -1</clus>
</clustering>
</event>
<event>
 9    2  0.3402837E-005  0.1103369E+03  0.7546771E-02  0.1267504E+00
         -1   -1    0    0    0  501 -0.00000000000E+00  0.00000000000E+00  0.11201865798E+03  0.11201865798E+03  0.00000000000E+00 0.  1.
          2   -1    0    0  502    0  0.00000000000E+00 -0.00000000000E+00 -0.33887925359E+03  0.33887925359E+03  0.00000000000E+00 0. -1.
         24    2    1    2    0    0 -0.85802314362E+02  0.23685355238E+02 -0.28455778496E+01  0.11827761300E+03  0.77836130569E+02 0.  0.
         23    2    1    2    0    0  0.46551879963E+02  0.21184141999E+02 -0.24614990788E+03  0.26902924776E+03  0.95765931319E+02 0.  0.
        -11    1    3    3    0    0 -0.69607156339E+02  0.11954794490E+02  0.32439462632E+02  0.77719959217E+02  0.00000000000E+00 0.  1.
         12    1    3    3    0    0 -0.16195158023E+02  0.11730560748E+02 -0.35285040482E+02  0.40557653786E+02  0.00000000000E+00 0. -1.
        -13    1    4    4    0    0  0.76789714746E+01  0.53918995846E+02 -0.94260742827E+02  0.10886373296E+03  0.00000000000E+00 0.  1.
         13    1    4    4    0    0  0.38872908488E+02 -0.32734853847E+02 -0.15188916505E+03  0.16016551480E+03  0.00000000000E+00 0. -1.
         21    1    1    2  502  501  0.39250434399E+02 -0.44869497237E+02  0.22134890113E+02  0.63591050810E+02  0.00000000000E+00 0.  1.
<scales pt_clust_5="13000.00000" pt_clust_6="13000.00000" pt_clust_7="13000.00000" pt_clust_8="13000.00000" pt_clust_9="59.61433"></scales>
<clustering>
<clus scale="   59.614">  1  9  2 -1</clus>
<clus scale="   77.836">  5  6 -1 -1</clus>
<clus scale="   95.192">  1  5  2 -1</clus>
<clus scale="   95.766">  7  8 -1 -1</clus>
<clus scale="  110.337">  2  5  1 -1</clus>
</clustering>
</event>
<event>
 9    2  0.3402837E-005  0.9818442E+02  0.7546771E-02  0.1289165E+00
         -1   -1    0    0    0  501 -0.00000000000E+00  0.00000000000E+00  0.20347304438E+03  0.20347304438E+03  0.00000000000E+00 0.  1.
          2   -1    0    0  502    0  0.00000000000E+00 -0.00000000000E+00 -0.23582166682E+03  0.23582166682E+03  0.00000000000E+00 0. -1.
         24    2    1    2    0    0 -0.31512784512E+02  0.27842394477E+02  0.62553612359E+02  0.11044134628E+03  0.80722252385E+02 0.  0.
         23    2    1    2    0    0  0.17278083237E+01 -0.39316026921E+02 -0.19785895114E+03  0.22106248178E+03  0.90397571935E+02 0.  0.
        -13    1    3    3    0    0  0.27354752303E+02  0.96037827838E+01  0.24929391472E+02  0.38235973591E+02  0.00000000000E+00 0.  1.
         14    1    3    3    0    0 -0.58867536814E+02  0.18238611693E+02  0.37624220887E+02  0.72205372684E+02  0.00000000000E+00 0. -1.
        -11    1    4    4    0    0  0.19323192803E+02 -0.64792191896E+02 -0.13371870973E+03  0.14984027243E+03  0.00000000000E+00 0.  1.
         11    1    4    4    0    0 -0.17595384480E+02  0.25476164974E+02 -0.64140241409E+02  0.71222209351E+02  0.00000000000E+00 0. -1.
         21    1    1    2  502  501  0.29784976188E+02  0.11473632445E+02  0.10295671634E+03  0.10779088314E+03  0.00000000000E+00 0.  1.
<scales pt_clust_5="13000.00000" pt_clust_6="13000.00000" pt_clust_7="13000.00000" pt_clust_8="13000.00000" pt_clust_9="31.91848"></scales>
<clustering>
<clus scale="   31.918">  1  9  2 -1</clus>
<clus scale="   80.722">  5  6 -1 -1</clus>
<clus scale="   89.356">  1  5  2 -1</clus>
<clus scale="   90.398">  7  8 -1 -1</clus>
<clus scale="   98.184">  2  5  1 -1</clus>
</clustering>
</event>
<event>
 9    2  0.3402837E-005  0.1390769E+03  0.7546771E-02  0.1233259E+00
         -3   -1    0    0    0  501 -0.00000000000E+00  0.00000000000E+00  0.10903155420E+03  0.10903155420E+03  0.00000000000E+00 0.  1.
          4   -1    0    0  502    0  0.00000000000E+00 -0.00000000000E+00 -0.77245095781E+03  0.77245095781E+03  0.00000000000E+00 0. -1.
         23    2    1    2    0    0  0.21398288880E+02 -0.98485230984E+01 -0.43601193271E+02  0.10379112970E+03  0.91195692750E+02 0.  0.
         24    2    1    2    0    0  0.92597788612E+02  0.63445524458E+02 -0.63587311126E+03  0.65070514651E+03  0.80516389859E+02 0.  0.
        -11    1    4    4    0    0  0.18284585855E+02  0.26631609397E+02 -0.53798395498E+02  0.62752179700E+02  0.00000000000E+00 0.  1.
         12    1    4    4    0    0  0.74313202758E+02  0.36813915061E+02 -0.58207471576E+03  0.58795296681E+03  0.00000000000E+00 0. -1.
        -13    1    3    3    0    0 -0.28815640996E+02 -0.10673566454E+02 -0.43879848834E+02  0.53569649248E+02  0.00000000000E+00 0.  1.
         13    1    3    3    0    0  0.50213929877E+02  0.82504335576E+00  0.27865556276E+00  0.50221480455E+02  0.00000000000E+00 0. -1.
         21    1    1    2  502  501 -0.11399607749E+03 -0.53597001359E+02  0.16054900919E+02  0.12698623580E+03  0.00000000000E+00 0.  1.
<scales pt_clust_5="13000.00000" pt_clust_6="13000.00000" pt_clust_7="13000.00000" pt_clust_8="13000.00000" pt_clust_9="113.39966"></scales>
<clustering>
<clus scale="   80.516">  5  6 -1 -1</clus>
<clus scale="   91.196">  7  8 -1 -1</clus>
<clus scale="   94.189">  1  7  2 -1</clus>
<clus scale="  113.400">  1  9  2 -1</clus>
<clus scale="  139.077">  2  5  1 -1</clus>
</clustering>
</event>
<event>
 9    2  0.3402837E-005  0.1301947E+03  0.7546771E-02  0.1230635E+00
         -1   -1    0    0    0  501 -0.00000000000E+00  0.00000000000E+00  0.79406521170E+02  0.79406521170E+02  0.00000000000E+00 0.  1.
          2   -1    0    0  502    0  0.00000000000E+00 -0.00000000000E+00 -0.55176390062E+03  0.55176390062E+03  0.00000000000E+00 0. -1.
         23    2    1    2    0    0  0.56067889027E+02 -0.80014187391E+02 -0.60394247776E+02  0.14703845527E+03  0.91798495635E+02 0.  0.
         24    2    1    2    0    0 -0.69908131018E+02  0.59497686225E+02 -0.43430680387E+03  0.45078951900E+03  0.78496299958E+02 0.  0.
        -13    1    4    4    0    0 -0.25223399177E+02  0.50419323962E+02 -0.11320331243E+03  0.12646469089E+03  0.00000000000E+00 0.  1.
         14    1    4    4    0    0 -0.44684731841E+02  0.90783622631E+01 -0.32110349144E+03  0.32432482812E+03  0.00000000000E+00 0. -1.
        -13    1    3    3    0    0  0.26068620108E+02 -0.90174605792E+02 -0.66166573365E+02  0.11484358021E+03  0.00000000000E+00 0.  1.
         13    1    3    3    0    0  0.29999268919E+02  0.10160418402E+02  0.57723255884E+01  0.32194875065E+02  0.00000000000E+00 0. -1.
         21    1    1    2  502  501  0.13840241991E+02  0.20516501165E+02  0.22343672202E+02  0.33342447509E+02  0.00000000000E+00 0. -1.
<scales pt_clust_5="13000.00000" pt_clust_6="13000.00000" pt_clust_7="13000.00000" pt_clust_8="13000.00000" pt_clust_9="24.74832"></scales>
<clustering>
<clus scale="   24.748">  1  9  2 -1</clus>
<clus scale="   78.496">  5  6 -1 -1</clus>
<clus scale="   91.798">  7  8 -1 -1</clus>
<clus scale="  121.183">  2  5  1 -1</clus>
<clus scale="  121.183">  2  5  1 -1</clus>
</clustering>
</event>
<event>
 9    2  0.3402837E-005  0.9810229E+02  0.7546771E-02  0.1292278E+00
          2   -1    0    0  502    0  0.00000000000E+00  0.00000000000E+00  0.48719266112E+03  0.48719266112E+03  0.00000000000E+00 0. -1.
         -1   -1    0    0    0  501 -0.00000000000E+00 -0.00000000000E+00 -0.74006039704E+02  0.74006039704E+02  0.00000000000E+00 0.  1.
         23    2    1    2    0    0  0.29929389451E+02 -0.28018977635E+02  0.30686713108E+01  0.10199599525E+03  0.93343102812E+02 0.  0.
         24    2    1    2    0    0  0.76094832467E+01  0.29989790014E+02  0.41289452353E+03  0.42150972977E+03  0.78938412638E+02 0.  0.
        -11    1    4    4    0    0 -0.25209538686E+02 -0.39455542332E+01  0.56407437688E+02  0.61910316309E+02  0.00000000000E+00 0.  1.
         12    1    4    4    0    0  0.32819021933E+02  0.33935344247E+02  0.35648708584E+03  0.35959941346E+03  0.00000000000E+00 0. -1.
        -13    1    3    3    0    0  0.20451125635E+02  0.99728778454E+00 -0.42484424212E+02  0.47161100743E+02  0.00000000000E+00 0.  1.
         13    1    3    3    0    0  0.94782638162E+01 -0.29016265420E+02  0.45553095522E+02  0.54834894507E+02  0.00000000000E+00 0. -1.
         21    1    1    2  502  501 -0.37538872697E+02 -0.19708123786E+01 -0.27765734264E+01  0.37692975802E+02  0.00000000000E+00 0.  1.
<scales pt_clust_5="13000.00000" pt_clust_6="13000.00000" pt_clust_7="13000.00000" pt_clust_8="13000.00000" pt_clust_9="37.59057"></scales>
<clustering>
<clus scale="   37.591">  2  9  1 -1</clus>
<clus scale="   78.938">  5  6 -1 -1</clus>
<clus scale="   84.513">  1  5  2 -1</clus>
<clus scale="   93.343">  7  8 -1 -1</clus>
<clus scale="   84.513">  1  5  2 -1</clus>
</clustering>
</event>
<event>
 9    2  0.3402837E-005  0.2162265E+03  0.7546771E-02  0.1137873E+00
          2   -1    0    0  502    0  0.00000000000E+00  0.00000000000E+00  0.12839016975E+04  0.12839016975E+04  0.00000000000E+00 0. -1.
         -1   -1    0    0    0  501 -0.00000000000E+00 -0.00000000000E+00 -0.45587388006E+02  0.45587388006E+02  0.00000000000E+00 0.  1.
         24    2    1    2    0    0  0.19734728062E+03  0.75955853439E+02  0.45714994697E+03  0.51013465270E+03  0.80845834920E+02 0.  0.
         23    2    1    2    0    0 -0.16522508594E+03 -0.83086828523E+02  0.72514443338E+03  0.75438583533E+03  0.95188177825E+02 0.  0.
        -11    1    3    3    0    0  0.11153223570E+03  0.33332757926E+02  0.15962763823E+03  0.19756390165E+03  0.00000000000E+00 0.  1.
         12    1    3    3    0    0  0.85815044926E+02  0.42623095513E+02  0.29752230874E+03  0.31257075104E+03  0.00000000000E+00 0. -1.
        -13    1    4    4    0    0 -0.92049633771E+02 -0.20187815217E+02  0.50943355181E+03  0.51807646797E+03  0.00000000000E+00 0. -1.
         13    1    4    4    0    0 -0.73175452169E+02 -0.62899013306E+02  0.21571088157E+03  0.23630936736E+03  0.00000000000E+00 0.  1.
         21    1    1    2  502  501 -0.32122194683E+02  0.71309750835E+01  0.56019929161E+02  0.64968597492E+02  0.00000000000E+00 0. -1.
<scales pt_clust_5="13000.00000" pt_clust_6="13000.00000" pt_clust_7="13000.00000" pt_clust_8="13000.00000" pt_clust_9="32.90420"></scales>
<clustering>
<clus scale="   32.904">  2  9  1 -1</clus>
<clus scale="   80.846">  5  6 -1 -1</clus>
<clus scale="   95.188">  7  8 -1 -1</clus>
<clus scale="  210.307">  2  5  1 -1</clus>
<clus scale="  216.227">  1  5  2 -1</clus>
</clustering>
</event>
<event>
 9    2  0.3402837E-005  0.1381747E+03  0.7546771E-02  0.1218576E+00
          2   -1    0    0  502    0  0.00000000000E+00  0.00000000000E+00  0.93196859264E+03  0.93196859264E+03  0.00000000000E+00 0. -1.
         -1   -1    0    0    0  501 -0.00000000000E+00 -0.00000000000E+00 -0.77738069923E+02  0.77738069923E+02  0.00000000000E+00 0.  1.
         23    2    1    2    0    0  0.79752307482E+02  0.71508078819E+02  0.10436866013E+03  0.17597620768E+03  0.92741428525E+02 0.  0.
         24    2    1    2    0    0 -0.52872697512E+02 -0.87614039155E+02  0.77967339685E+03  0.79047952465E+03  0.80594857994E+02 0.  0.
        -11    1    4    4    0    0 -0.25518479478E+02  0.10897499354E+02  0.14643421100E+03  0.14904001623E+03  0.00000000000E+00 0.  1.
         12    1    4    4    0    0 -0.27354218034E+02 -0.98511538509E+02  0.63323918585E+03  0.64143950841E+03  0.00000000000E+00 0. -1.
        -11    1    3    3    0    0  0.73769067535E+01  0.46447668435E+02  0.63907670233E+00  0.47034169232E+02  0.00000000000E+00 0.  1.
         11    1    3    3    0    0  0.72375400729E+02  0.25060410384E+02  0.10372958343E+03  0.12894203844E+03  0.00000000000E+00 0. -1.
         21    1    1    2  502  501 -0.26879609970E+02  0.16105960336E+02 -0.29811534270E+02  0.43250930233E+02  0.00000000000E+00 0.  1.
<scales pt_clust_5="13000.00000" pt_clust_6="13000.00000" pt_clust_7="13000.00000" pt_clust_8="13000.00000" pt_clust_9="31.33553"></scales>
<clustering>
<clus scale="   31.336">  2  9  1 -1</clus>
<clus scale="   80.595">  5  6 -1 -1</clus>
<clus scale="   92.741">  7  8 -1 -1</clus>
<clus scale="  130.333">  1  5  2 -1</clus>
<clus scale="  130.333">  1  5  2 -1</clus>
</clustering>
</event>
<event>
 9    2  0.3402837E-005  0.1641913E+03  0.7546771E-02  0.1186007E+00
         -1   -1    0    0    0  501 -0.00000000000E+00  0.00000000000E+00  0.29992130349E+03  0.29992130349E+03  0.00000000000E+00 0.  1.
          2   -1    0    0  502    0  0.00000000000E+00 -0.00000000000E+00 -0.61840119627E+03  0.61840119627E+03  0.00000000000E+00 0. -1.
         24    2    1    2    0    0  0.14413185009E+03  0.64663001298E+02  0.21990417906E+03  0.28254869320E+03  0.80750369123E+02 0.  0.
         23    2    1    2    0    0 -0.13288839279E+03 -0.17596258830E+02 -0.55954651796E+03  0.58295768492E+03  0.93693134109E+02 0.  0.
        -13    1    3    3    0    0  0.14649775478E+03  0.61593604033E+02  0.22542029385E+03  0.27580731153E+03  0.00000000000E+00 0.  1.
         14    1    3    3    0    0 -0.23659046846E+01  0.30693972650E+01 -0.55161147875E+01  0.67413816756E+01  0.00000000000E+00 0. -1.
        -13    1    4    4    0    0 -0.75189089439E+02 -0.54001337353E+02 -0.26808772842E+03  0.28362047482E+03  0.00000000000E+00 0.  1.
         13    1    4    4    0    0 -0.57699303347E+02  0.36405078523E+02 -0.29145878954E+03  0.29933721010E+03  0.00000000000E+00 0. -1.
         21    1    1    2  502  501 -0.11243457309E+02 -0.47066742468E+02  0.21162446125E+02  0.52816121638E+02  0.00000000000E+00 0. -1.
<scales pt_clust_5="13000.00000" pt_clust_6="13000.00000" pt_clust_7="13000.00000" pt_clust_8="13000.00000" pt_clust_9="48.39105"></scales>
<clustering>
<clus scale="   48.391">  1  9  2 -1</clus>
<clus scale="   80.750">  5  6 -1 -1</clus>
<clus scale="   93.693">  7  8 -1 -1</clus>
<clus scale="  157.165">  1  5  2 -1</clus>
<clus scale="  164.191">  2  5  1 -1</clus>
</clustering>
</event>
<event>
 9    2  0.3402837E-005  0.1241965E+03  0.7546771E-02  0.1239358E+00
          2   -1    0    0  502    0  0.00000000000E+00  0.00000000000E+00  0.56410592311E+03  0.56410592311E+03  0.00000000000E+00 0. -1.
         -1   -1    0    0    0  501 -0.00000000000E+00 -0.00000000000E+00 -0.32519200110E+02  0.32519200110E+02  0.00000000000E+00 0.  1.
         23    2    1    2    0    0  0.62223191753E+02 -0.53257954829E+02  0.20804043014E+03  0.24153518861E+03  0.91379928958E+02 0.  0.
         24    2    1    2    0    0 -0.78763666545E+02  0.39009931150E+02  0.23200610965E+03  0.26098255644E+03  0.80991172084E+02 0.  0.
        -13    1    4    4    0    0 -0.89612413709E+02  0.30972120852E+02  0.14709430258E+03  0.17500397370E+03  0.00000000000E+00 0.  1.
         14    1    4    4    0    0  0.10848747164E+02  0.80378102982E+01  0.84911807073E+02  0.85978582739E+02  0.00000000000E+00 0. -1.
        -13    1    3    3    0    0  0.41793495400E+02 -0.76644914768E+02  0.12164660343E+03  0.14972987459E+03  0.00000000000E+00 0. -1.
         13    1    3    3    0    0  0.20429696353E+02  0.23386959939E+02  0.86393826710E+02  0.91805314017E+02  0.00000000000E+00 0.  1.
         21    1    1    2  502  501  0.16540474791E+02  0.14248023679E+02  0.91540183211E+02  0.94107378177E+02  0.00000000000E+00 0. -1.
<scales pt_clust_5="13000.00000" pt_clust_6="13000.00000" pt_clust_7="13000.00000" pt_clust_8="13000.00000" pt_clust_9="21.83102"></scales>
<clustering>
<clus scale="   21.831">  1  9  2 -1</clus>
<clus scale="   80.991">  5  6 -1 -1</clus>
<clus scale="   91.380">  7  8 -1 -1</clus>
<clus scale="  116.765">  1  5  2 -1</clus>
<clus scale="   21.831">  1  5  2 -1</clus>
</clustering>
</event>
<event>
 9    2  0.3402837E-005  0.1262735E+03  0.7546771E-02  0.1235441E+00
         -1   -1    0    0    0  501 -0.00000000000E+00  0.00000000000E+00  0.46514064200E+02  0.46514064200E+02  0.00000000000E+00 0.  1.
          2   -1    0    0  502    0  0.00000000000E+00 -0.00000000000E+00 -0.60104527157E+03  0.60104527157E+03  0.00000000000E+00 0. -1.
         23    2    1    2    0    0  0.70726882081E+02  0.16314145348E+02 -0.86708955363E+02  0.14423605181E+03  0.89538553230E+02 0.  0.
         24    2    1    2    0    0 -0.89891247303E+02 -0.26443472877E+02 -0.46530727376E+03  0.48150124725E+03  0.80949975258E+02 0.  0.
        -11    1    4    4    0    0 -0.85505723371E+02 -0.47343616204E+02 -0.42256631939E+03  0.43372219335E+03  0.00000000000E+00 0.  1.
         12    1    4    4    0    0 -0.43855239321E+01  0.20900143327E+02 -0.42740954370E+02  0.47779053901E+02  0.00000000000E+00 0. -1.
        -11    1    3    3    0    0 -0.20524645432E+02 -0.48230119299E+01 -0.10900610703E+02  0.23734907371E+02  0.00000000000E+00 0.  1.
         11    1    3    3    0    0  0.91251527513E+02  0.21137157278E+02 -0.75808344660E+02  0.12050114444E+03  0.00000000000E+00 0. -1.
         21    1    1    2  502  501  0.19164365221E+02  0.10129327529E+02 -0.25149782515E+01  0.21822036709E+02  0.00000000000E+00 0.  1.
<scales pt_clust_5="13000.00000" pt_clust_6="13000.00000" pt_clust_7="13000.00000" pt_clust_8="13000.00000" pt_clust_9="21.67663"></scales>
<clustering>
<clus scale="   21.677">  1  9  2 -1</clus>
<clus scale="   80.950">  5  6 -1 -1</clus>
<clus scale="   89.539">  7  8 -1 -1</clus>
<clus scale="  120.336">  2  5  1 -1</clus>
<clus scale="  120.336">  2  5  1 -1</clus>
</clustering>
</event>
<event>
 9    2  0.3508769E-005  0.1003641E+03  0.7546771E-02  0.1284752E+00
          2   -1    0    0  502    0  0.00000000000E+00  0.00000000000E+00  0.20010362288E+03  0.20010362288E+03  0.00000000000E+00 0. -1.
         -1   -1    0    0    0  501 -0.00000000000E+00 -0.00000000000E+00 -0.44320843325E+03  0.44320843325E+03  0.00000000000E+00 0.  1.
         24    2    1    2    0    0 -0.63715767894E+02 -0.19027579693E+02 -0.39206067763E+03  0.40586631722E+03  0.81204338821E+02 0.  0.
         23    2    1    2    0    0  0.39602479804E+02 -0.69535877462E+01  0.16922387588E+03  0.19661359596E+03  0.91670481384E+02 0.  0.
        -11    1    3    3    0    0 -0.52120336076E+02  0.21797279281E+02 -0.28791696057E+03  0.29340727155E+03  0.00000000000E+00 0.  1.
         12    1    3    3    0    0 -0.11595431819E+02 -0.40824858974E+02 -0.10414371706E+03  0.11245904567E+03  0.00000000000E+00 0. -1.
        -13    1    4    4    0    0  0.68787223061E+02 -0.13719148339E+02  0.11838511810E+03  0.13760426329E+03  0.00000000000E+00 0. -1.
         13    1    4    4    0    0 -0.29184743257E+02  0.67655605933E+01  0.50838757784E+02  0.59009332670E+02  0.00000000000E+00 0.  1.
         21    1    1    2  502  501  0.24113288091E+02  0.25981167439E+02 -0.20268008618E+02  0.40832142944E+02  0.00000000000E+00 0.  1.
<scales pt_clust_5="13000.00000" pt_clust_6="13000.00000" pt_clust_7="13000.00000" pt_clust_8="13000.00000" pt_clust_9="35.44674"></scales>
<clustering>
<clus scale="   35.447">  2  9  1 -1</clus>
<clus scale="   81.204">  5  6 -1 -1</clus>
<clus scale="   90.905">  2  5  1 -1</clus>
<clus scale="   91.670">  7  8 -1 -1</clus>
<clus scale="  100.364">  1  5  2 -1</clus>
</clustering>
</event>
<event>
 9    2  0.3402837E-005  0.2119536E+03  0.7546771E-02  0.1161579E+00
         -1   -1    0    0    0  501 -0.00000000000E+00  0.00000000000E+00  0.88456268386E+03  0.88456268386E+03  0.00000000000E+00 0.  1.
          2   -1    0    0  502    0  0.00000000000E+00 -0.00000000000E+00 -0.16003923833E+03  0.16003923833E+03  0.00000000000E+00 0. -1.
         23    2    1    2    0    0 -0.20854548871E+02 -0.84204260660E+02  0.12828380026E+03  0.18071520750E+03  0.93144957404E+02 0.  0.
         24    2    1    2    0    0 -0.14292444483E+03  0.14277747666E+03 -0.25084253813E+02  0.21867530129E+03  0.79855261788E+02 0.  0.
        -11    1    4    4    0    0 -0.22245623513E+01  0.26361421728E+02  0.16770338295E+02  0.31322794890E+02  0.00000000000E+00 0.  1.
         12    1    4    4    0    0 -0.14069988248E+03  0.11641605493E+03 -0.41854592108E+02  0.18735250641E+03  0.00000000000E+00 0. -1.
        -11    1    3    3    0    0 -0.48266495480E+02 -0.46121434714E+02  0.11321516902E+03  0.13143255237E+03  0.00000000000E+00 0. -1.
         11    1    3    3    0    0  0.27411946609E+02 -0.38082825946E+02  0.15068631237E+02  0.49282655126E+02  0.00000000000E+00 0.  1.
         21    1    1    2  502  501  0.16377899370E+03 -0.58573216001E+02  0.62132389909E+03  0.64521141340E+03  0.00000000000E+00 0.  1.
<scales pt_clust_5="13000.00000" pt_clust_6="13000.00000" pt_clust_7="13000.00000" pt_clust_8="13000.00000" pt_clust_9="196.33507"></scales>
<clustering>
<clus scale="   79.855">  5  6 -1 -1</clus>
<clus scale="   93.145">  7  8 -1 -1</clus>
<clus scale="  127.284">  1  7  2 -1</clus>
<clus scale="  196.335">  1  9  2 -1</clus>
<clus scale="  211.954">  2  5  1 -1</clus>
</clustering>
</event>
<event>
 9    2  0.3402837E-005  0.1198982E+03  0.7546771E-02  0.1243609E+00
          2   -1    0    0  502    0  0.00000000000E+00  0.00000000000E+00  0.63743725117E+02  0.63743725117E+02  0.00000000000E+00 0. -1.
         -1   -1    0    0    0  501 -0.00000000000E+00 -0.00000000000E+00 -0.29372102707E+03  0.29372102707E+03  0.00000000000E+00 0.  1.
         23    2    1    2    0    0 -0.40886436822E+02 -0.77707031304E+02 -0.11501514859E+03  0.16667527937E+03  0.82716872028E+02 0.  0.
         24    2    1    2    0    0  0.20451046091E+02  0.84758113870E+02 -0.64002887424E+02  0.13543452955E+03  0.81510484243E+02 0.  0.
        -13    1    4    4    0    0  0.36197703342E+02  0.55639163969E+02 -0.75371079161E+02  0.10043301185E+03  0.00000000000E+00 0.  1.
         14    1    4    4    0    0 -0.15746657252E+02  0.29118949901E+02  0.11368191737E+02  0.35001517700E+02  0.00000000000E+00 0. -1.
        -13    1    3    3    0    0 -0.65815094019E+02 -0.46140584834E+02 -0.78448162305E+02  0.11231515632E+03  0.00000000000E+00 0. -1.
         13    1    3    3    0    0  0.24928657197E+02 -0.31566446470E+02 -0.36566986288E+02  0.54360123055E+02  0.00000000000E+00 0.  1.
         21    1    1    2  502  501  0.20435390732E+02 -0.70510825663E+01 -0.50959265938E+02  0.55354943272E+02  0.00000000000E+00 0. -1.
<scales pt_clust_5="13000.00000" pt_clust_6="13000.00000" pt_clust_7="13000.00000" pt_clust_8="13000.00000" pt_clust_9="21.61765"></scales>
<clustering>
<clus scale="   21.618">  2  9  1 -1</clus>
<clus scale="   81.510">  5  6 -1 -1</clus>
<clus scale="   82.717">  7  8 -1 -1</clus>
<clus scale="  119.069">  1  5  2 -1</clus>
<clus scale="  119.069">  1  5  2 -1</clus>
</clustering>
</event>
<event>
 9    2  0.3402837E-005  0.1306063E+03  0.7546771E-02  0.1229589E+00
          2   -1    0    0  502    0  0.00000000000E+00  0.00000000000E+00  0.22984543709E+03  0.22984543709E+03  0.00000000000E+00 0. -1.
         -1   -1    0    0    0  501 -0.00000000000E+00 -0.00000000000E+00 -0.89952492889E+02  0.89952492889E+02  0.00000000000E+00 0.  1.
         23    2    1    2    0    0 -0.94469028648E+02 -0.32954111640E+02  0.52871574071E+02  0.14606747729E+03  0.92357640336E+02 0.  0.
         24    2    1    2    0    0  0.88389739599E+02  0.54375658320E+01  0.81748790631E+02  0.14506133789E+03  0.80731739691E+02 0.  0.
        -13    1    4    4    0    0  0.33685814249E+02 -0.21955934834E+01 -0.12353436495E+02  0.35946656389E+02  0.00000000000E+00 0.  1.
         14    1    4    4    0    0  0.54703925351E+02  0.76331593155E+01  0.94102227126E+02  0.10911468151E+03  0.00000000000E+00 0. -1.
        -11    1    3    3    0    0 -0.82501712787E+01 -0.37448976362E+02  0.45372164553E+02  0.59406434609E+02  0.00000000000E+00 0. -1.
         11    1    3    3    0    0 -0.86218857369E+02  0.44948647217E+01  0.74994095182E+01  0.86661042678E+02  0.00000000000E+00 0.  1.
         21    1    1    2  502  501  0.60792890482E+01  0.27516545808E+02  0.52725794964E+01  0.28669114795E+02  0.00000000000E+00 0.  1.
<scales pt_clust_5="13000.00000" pt_clust_6="13000.00000" pt_clust_7="13000.00000" pt_clust_8="13000.00000" pt_clust_9="28.18010"></scales>
<clustering>
<clus scale="   28.180">  2  9  1 -1</clus>
<clus scale="   80.732">  5  6 -1 -1</clus>
<clus scale="   92.358">  7  8 -1 -1</clus>
<clus scale="  122.661">  1  5  2 -1</clus>
<clus scale="  122.661">  1  5  2 -1</clus>
</clustering>
</event>
<event>
 9    2  0.3402837E-005  0.1339636E+03  0.7546771E-02  0.1226127E+00
          2   -1    0    0  502    0  0.00000000000E+00  0.00000000000E+00  0.13624339647E+03  0.13624339647E+03  0.00000000000E+00 0. -1.
         -1   -1    0    0    0  501 -0.00000000000E+00 -0.00000000000E+00 -0.32808301052E+03  0.32808301052E+03  0.00000000000E+00 0.  1.
         24    2    1    2    0    0 -0.78801678706E+01  0.72542513051E+02 -0.21911437435E+03  0.24575592972E+03  0.84025916831E+02 0.  0.
         23    2    1    2    0    0  0.20057570713E+02 -0.89015320830E+02  0.83078412374E+02  0.15912562787E+03  0.10046347274E+03 0.  0.
        -13    1    3    3    0    0  0.32771074893E+02  0.57568431404E+02 -0.15285186045E+03  0.16658859170E+03  0.00000000000E+00 0.  1.
         14    1    3    3    0    0 -0.40651242764E+02  0.14974081647E+02 -0.66262513904E+02  0.79167338014E+02  0.00000000000E+00 0. -1.
        -11    1    4    4    0    0 -0.41404474268E+01  0.21398886264E+02  0.70765938598E+01  0.22915798456E+02  0.00000000000E+00 0.  1.
         11    1    4    4    0    0  0.24198018140E+02 -0.11041420709E+03  0.76001818514E+02  0.13620982941E+03  0.00000000000E+00 0. -1.
         21    1    1    2  502  501 -0.12177402843E+02  0.16472807780E+02 -0.55803652075E+02  0.59444849408E+02  0.00000000000E+00 0.  1.
<scales pt_clust_5="13000.00000" pt_clust_6="13000.00000" pt_clust_7="13000.00000" pt_clust_8="13000.00000" pt_clust_9="20.48518"></scales>
<clustering>
<clus scale="   20.485">  2  9  1 -1</clus>
<clus scale="   84.026">  5  6 -1 -1</clus>
<clus scale="  100.463">  7  8 -1 -1</clus>
<clus scale="  122.122">  2  5  1 -1</clus>
<clus scale="  133.964">  1  5  2 -1</clus>
</clustering>
</event>
<event>
 9    2  0.3402837E-005  0.9772323E+02  0.7546771E-02  0.1291875E+00
         -1   -1    0    0    0  501 -0.00000000000E+00  0.00000000000E+00  0.17631195369E+03  0.17631195369E+03  0.00000000000E+00 0.  1.
          2   -1    0    0  502    0  0.00000000000E+00 -0.00000000000E+00 -0.15548592574E+03  0.15548592574E+03  0.00000000000E+00 0. -1.
         23    2    1    2    0    0 -0.20372718344E+02 -0.17538876225E+02  0.31518440236E+02  0.99998965000E+02  0.91014949839E+02 0.  0.
         24    2    1    2    0    0  0.37978415750E+02  0.63229992828E+01 -0.10419624900E+03  0.13599325719E+03  0.78453599751E+02 0.  0.
        -11    1    4    4    0    0  0.40886571488E+02 -0.23525403520E+02 -0.92442755548E+02  0.10378255823E+03  0.00000000000E+00 0.  1.
         12    1    4    4    0    0 -0.29081557379E+01  0.29848402803E+02 -0.11753493453E+02  0.32210698968E+02  0.00000000000E+00 0. -1.
        -11    1    3    3    0    0 -0.23024142421E+02  0.39738005450E+01  0.59895122489E+02  0.64290962996E+02  0.00000000000E+00 0.  1.
         11    1    3    3    0    0  0.26514240763E+01 -0.21512676770E+02 -0.28376682253E+02  0.35708002004E+02  0.00000000000E+00 0. -1.
         21    1    1    2  502  501 -0.17605697405E+02  0.11215876942E+02  0.93503836713E+02  0.95805657228E+02  0.00000000000E+00 0.  1.
<scales pt_clust_5="13000.00000" pt_clust_6="13000.00000" pt_clust_7="13000.00000" pt_clust_8="13000.00000" pt_clust_9="20.87478"></scales>
<clustering>
<clus scale="   20.875">  1  9  2 -1</clus>
<clus scale="   78.454">  5  6 -1 -1</clus>
<clus scale="   86.146">  2  5  1 -1</clus>
<clus scale="   91.015">  7  8 -1 -1</clus>
<clus scale="   86.146">  2  5  1 -1</clus>
</clustering>
</event>
<event>
 9    2  0.3402837E-005  0.1767700E+03  0.7546771E-02  0.1171237E+00
          2   -1    0    0  502    0  0.00000000000E+00  0.00000000000E+00  0.33719716451E+03  0.33719716451E+03  0.00000000000E+00 0. -1.
         -1   -1    0    0    0  501 -0.00000000000E+00 -0.00000000000E+00 -0.16128145447E+03  0.16128145447E+03  0.00000000000E+00 0.  1.
         24    2    1    2    0    0  0.16057851275E+03 -0.50329550408E+02  0.11438434881E+03  0.22201466427E+03  0.88815592642E+02 0.  0.
         23    2    1    2    0    0 -0.12859226457E+03  0.52403572823E+02  0.12336512513E+03  0.20681601145E+03  0.90949455975E+02 0.  0.
        -13    1    3    3    0    0  0.80431838205E+02 -0.36666567769E+02  0.89119185490E+01  0.88843345735E+02  0.00000000000E+00 0.  1.
         14    1    3    3    0    0  0.80146674548E+02 -0.13662982639E+02  0.10547243026E+03  0.13317131854E+03  0.00000000000E+00 0. -1.
        -13    1    4    4    0    0 -0.23527772749E+02  0.31751489040E+01 -0.13562056997E+02  0.27341672427E+02  0.00000000000E+00 0.  1.
         13    1    4    4    0    0 -0.10506449182E+03  0.49228423919E+02  0.13692718212E+03  0.17947433902E+03  0.00000000000E+00 0. -1.
         21    1    1    2  502  501 -0.31986248186E+02 -0.20740224150E+01 -0.61833763904E+02  0.69647943261E+02  0.00000000000E+00 0.  1.
<scales pt_clust_5="13000.00000" pt_clust_6="13000.00000" pt_clust_7="13000.00000" pt_clust_8="13000.00000" pt_clust_9="32.05342"></scales>
<clustering>
<clus scale="   32.053">  2  9  1 -1</clus>
<clus scale="   88.816">  5  6 -1 -1</clus>
<clus scale="   90.949">  7  8 -1 -1</clus>
<clus scale="  175.682">  2  5  1 -1</clus>
<clus scale="  176.770">  1  5  2 -1</clus>
</clustering>
</event>
<event>
 9    2  0.3402837E-005  0.9225134E+02  0.7546771E-02  0.1303169E+00
         -1   -1    0    0    0  501 -0.00000000000E+00  0.00000000000E+00  0.96463922996E+02  0.96463922996E+02  0.00000000000E+00 0.  1.
          2   -1    0    0  502    0  0.00000000000E+00 -0.00000000000E+00 -0.18499811141E+03  0.18499811141E+03  0.00000000000E+00 0. -1.
         24    2    1    2    0    0  0.35635068538E+02  0.73009253228E+01  0.89077177297E+01  0.89063922651E+02  0.80807631215E+02 0.  0.
         23    2    1    2    0    0 -0.68890241926E+01  0.20081003199E+02 -0.11608536638E+03  0.14853829319E+03  0.90205913961E+02 0.  0.
        -11    1    3    3    0    0 -0.20118499482E+02 -0.17486326870E+02 -0.32375439307E+01  0.26851579832E+02  0.00000000000E+00 0.  1.
         12    1    3    3    0    0  0.55753568019E+02  0.24787252193E+02  0.12145261660E+02  0.62212342818E+02  0.00000000000E+00 0. -1.
        -13    1    4    4    0    0 -0.45066844686E+02  0.27594568539E+02 -0.76983826558E+02  0.93375533489E+02  0.00000000000E+00 0. -1.
         13    1    4    4    0    0  0.38177820494E+02 -0.75135653403E+01 -0.39101539817E+02  0.55162759701E+02  0.00000000000E+00 0.  1.
         21    1    1    2  502  501 -0.28746044345E+02 -0.27381928521E+02  0.18643460233E+02  0.43859818564E+02  0.00000000000E+00 0.  1.
<scales pt_clust_5="13000.00000" pt_clust_6="13000.00000" pt_clust_7="13000.00000" pt_clust_8="13000.00000" pt_clust_9="39.70019"></scales>
<clustering>
<clus scale="   39.700">  1  9  2 -1</clus>
<clus scale="   80.808">  5  6 -1 -1</clus>
<clus scale="   83.085">  1  5  2 -1</clus>
<clus scale="   90.206">  7  8 -1 -1</clus>
<clus scale="   92.251">  2  5  1 -1</clus>
</clustering>
</event>
<event>
 9    2  0.3402837E-005  0.1340065E+03  0.7546771E-02  0.1256406E+00
          2   -1    0    0  502    0  0.00000000000E+00  0.00000000000E+00  0.19083152651E+03  0.19083152651E+03  0.00000000000E+00 0. -1.
         -1   -1    0    0    0  501 -0.00000000000E+00 -0.00000000000E+00 -0.17922045870E+03  0.17922045870E+03  0.00000000000E+00 0.  1.
         24    2    1    2    0    0 -0.24244339905E+02 -0.24388027895E+02 -0.44356859246E+02  0.79555740204E+02  0.56382806912E+02 0.  0.
         23    2    1    2    0    0  0.19784249787E+02  0.10422160865E+03  0.12305874320E+03  0.18611966414E+03  0.90793804030E+02 0.  0.
        -13    1    3    3    0    0 -0.19720548245E+00 -0.35146188822E+02 -0.10548803671E+02  0.36695650118E+02  0.00000000000E+00 0.  1.
         14    1    3    3    0    0 -0.24047134423E+02  0.10758160927E+02 -0.33808055575E+02  0.42860090086E+02  0.00000000000E+00 0. -1.
        -13    1    4    4    0    0  0.23430925855E+02  0.25778849282E+02 -0.57044884871E+01  0.35300121043E+02  0.00000000000E+00 0.  1.
         13    1    4    4    0    0 -0.36466760680E+01  0.78442759371E+02  0.12876323169E+03  0.15081954310E+03  0.00000000000E+00 0. -1.
         21    1    1    2  502  501  0.44600901180E+01 -0.79833580758E+02 -0.67090816148E+02  0.10437658086E+03  0.00000000000E+00 0.  1.
<scales pt_clust_5="13000.00000" pt_clust_6="13000.00000" pt_clust_7="13000.00000" pt_clust_8="13000.00000" pt_clust_9="98.56083"></scales>
<clustering>
<clus scale="   56.383">  5  6 -1 -1</clus>
<clus scale="   66.042">  2  5  1 -1</clus>
<clus scale="   90.794">  7  8 -1 -1</clus>
<clus scale="   98.561">  2  9  1 -1</clus>
<clus scale="  134.007">  1  5  2 -1</clus>
</clustering>
</event>
<event>
 9    2  0.3402837E-005  0.9674487E+02  0.7546771E-02  0.1292875E+00
          2   -1    0    0  502    0  0.00000000000E+00  0.00000000000E+00  0.37244883992E+03  0.37244883992E+03  0.00000000000E+00 0. -1.
         -1   -1    0    0    0  501 -0.00000000000E+00 -0.00000000000E+00 -0.12790360119E+03  0.12790360119E+03  0.00000000000E+00 0.  1.
         23    2    1    2    0    0  0.33697555244E+02  0.38801789220E+02  0.71718926735E+00  0.10508991987E+03  0.91663912317E+02 0.  0.
         24    2    1    2    0    0  0.39359459392E+02  0.10621809440E+02  0.28406458923E+03  0.29831408843E+03  0.81465419780E+02 0.  0.
        -11    1    4    4    0    0  0.49473309569E+02  0.17694898283E+02  0.28062571068E+03  0.28550220188E+03  0.00000000000E+00 0.  1.
         12    1    4    4    0    0 -0.10113850177E+02 -0.70730888430E+01  0.34388785528E+01  0.12811886547E+02  0.00000000000E+00 0. -1.
        -11    1    3    3    0    0  0.29616282545E+02  0.68359405166E+02  0.61831101240E+01  0.74755356445E+02  0.00000000000E+00 0.  1.
         11    1    3    3    0    0  0.40812726995E+01 -0.29557615946E+02 -0.54659208567E+01  0.30334563423E+02  0.00000000000E+00 0. -1.
         21    1    1    2  502  501 -0.73057014636E+02 -0.49423598661E+02 -0.40236539771E+02  0.96948432813E+02  0.00000000000E+00 0. -1.
<scales pt_clust_5="13000.00000" pt_clust_6="13000.00000" pt_clust_7="13000.00000" pt_clust_8="13000.00000" pt_clust_9="88.20442"></scales>
<clustering>
<clus scale="   81.465">  5  6 -1 -1</clus>
<clus scale="   88.204">  2  9  1 -1</clus>
<clus scale="   87.143">  1  5  2 -1</clus>
<clus scale="   91.664">  7  8 -1 -1</clus>
<clus scale="   87.143">  1  5  2 -1</clus>
</clustering>
</event>
<event>
 9    2  0.3402837E-005  0.1636238E+03  0.7546771E-02  0.1185934E+00
         -1   -1    0    0    0  501 -0.00000000000E+00  0.00000000000E+00  0.29888651436E+03  0.29888651436E+03  0.00000000000E+00 0.  1.
          2   -1    0    0  502    0  0.00000000000E+00 -0.00000000000E+00 -0.23648633430E+03  0.23648633430E+03  0.00000000000E+00 0. -1.
         24    2    1    2    0    0 -0.47944703920E+02  0.62457155736E+02  0.15224924998E+03  0.18957085849E+03  0.80979536493E+02 0.  0.
         23    2    1    2    0    0  0.10491101349E+03 -0.10687914428E+03 -0.16598391739E+03  0.24084967485E+03  0.89601522369E+02 0.  0.
        -11    1    3    3    0    0 -0.14907730574E+02  0.40356304160E+02  0.14220961770E+03  0.14857471886E+03  0.00000000000E+00 0.  1.
         12    1    3    3    0    0 -0.33036973346E+02  0.22100851576E+02  0.10039632280E+02  0.40996139630E+02  0.00000000000E+00 0. -1.
        -13    1    4    4    0    0  0.28799449594E+02  0.10361088819E+02 -0.52639891283E+02  0.60891038854E+02  0.00000000000E+00 0.  1.
         13    1    4    4    0    0  0.76111563901E+02 -0.11724023310E+03 -0.11334402610E+03  0.17995863600E+03  0.00000000000E+00 0. -1.
         21    1    1    2  502  501 -0.56966309575E+02  0.44421988548E+02  0.76134847468E+02  0.10495231532E+03  0.00000000000E+00 0.  1.
<scales pt_clust_5="13000.00000" pt_clust_6="13000.00000" pt_clust_7="13000.00000" pt_clust_8="13000.00000" pt_clust_9="72.23900"></scales>
<clustering>
<clus scale="   72.239">  1  9  2 -1</clus>
<clus scale="   80.980">  5  6 -1 -1</clus>
<clus scale="   89.602">  7  8 -1 -1</clus>
<clus scale="  159.066">  1  5  2 -1</clus>
<clus scale="  163.624">  2  5  1 -1</clus>
</clustering>
</event>
<event>
 9    2  0.3402837E-005  0.1055738E+03  0.7546771E-02  0.1273485E+00
         -1   -1    0    0    0  501 -0.00000000000E+00  0.00000000000E+00  0.35611500456E+02  0.35611500456E+02  0.00000000000E+00 0.  1.
          2   -1    0    0  502    0  0.00000000000E+00 -0.00000000000E+00 -0.77162719714E+03  0.77162719714E+03  0.00000000000E+00 0. -1.
         23    2    1    2    0    0  0.17383929444E+02  0.67925137472E+02 -0.15931198237E+03  0.19651417862E+03  0.91222197780E+02 0.  0.
         24    2    1    2    0    0 -0.24275594133E+02 -0.43677388558E+02 -0.57772065345E+03  0.58549591349E+03  0.80915341863E+02 0.  0.
        -11    1    4    4    0    0  0.14767407590E+02 -0.46321470634E+02 -0.20315392703E+03  0.20889057671E+03  0.00000000000E+00 0.  1.
         12    1    4    4    0    0 -0.39043001722E+02  0.26440820762E+01 -0.37456672641E+03  0.37660533678E+03  0.00000000000E+00 0. -1.
        -13    1    3    3    0    0  0.32550460638E+02  0.54378523785E+02 -0.38825090664E+02  0.74323239986E+02  0.00000000000E+00 0.  1.
         13    1    3    3    0    0 -0.15166531195E+02  0.13546613686E+02 -0.12048689171E+03  0.12219093863E+03  0.00000000000E+00 0. -1.
         21    1    1    2  502  501  0.68916646889E+01 -0.24247748914E+02  0.10169391386E+01  0.25228605486E+02  0.00000000000E+00 0.  1.
<scales pt_clust_5="13000.00000" pt_clust_6="13000.00000" pt_clust_7="13000.00000" pt_clust_8="13000.00000" pt_clust_9="25.20810"></scales>
<clustering>
<clus scale="   25.208">  1  9  2 -1</clus>
<clus scale="   80.915">  5  6 -1 -1</clus>
<clus scale="   91.222">  7  8 -1 -1</clus>
<clus scale="   96.807">  2  5  1 -1</clus>
<clus scale="   96.807">  2  5  1 -1</clus>
</clustering>
</event>
<event>
 9    2  0.3402837E-005  0.8748758E+02  0.7546771E-02  0.1313223E+00
         -3   -1    0    0    0  501 -0.00000000000E+00  0.00000000000E+00  0.23687048174E+03  0.23687048174E+03  0.00000000000E+00 0.  1.
          4   -1    0    0  502    0  0.00000000000E+00 -0.00000000000E+00 -0.92817972836E+02  0.92817972836E+02  0.00000000000E+00 0. -1.
         23    2    1    2    0    0 -0.77344077697E+01  0.85640901042E+01  0.59534846808E+02  0.94480831334E+02  0.72450429967E+02 0.  0.
         24    2    1    2    0    0  0.11556888706E+02  0.54907689086E+02 -0.32020209191E+02  0.10245087743E+03  0.79513976711E+02 0.  0.
        -11    1    4    4    0    0 -0.46296169124E+01  0.23335368250E+02  0.25496228297E+02  0.34871627744E+02  0.00000000000E+00 0.  1.
         12    1    4    4    0    0  0.16186505618E+02  0.31572320836E+02 -0.57516437487E+02  0.67579249687E+02  0.00000000000E+00 0. -1.
        -11    1    3    3    0    0  0.21110153543E+02  0.55281738362E+01 -0.61545593984E+01  0.22673285821E+02  0.00000000000E+00 0.  1.
         11    1    3    3    0    0 -0.28844561312E+02  0.30359162680E+01  0.65689406206E+02  0.71807545513E+02  0.00000000000E+00 0. -1.
         21    1    1    2  502  501 -0.38224809363E+01 -0.63471779190E+02  0.11653787129E+03  0.13275674581E+03  0.00000000000E+00 0.  1.
<scales pt_clust_5="13000.00000" pt_clust_6="13000.00000" pt_clust_7="13000.00000" pt_clust_8="13000.00000" pt_clust_9="63.58678"></scales>
<clustering>
<clus scale="   63.587">  1  9  2 -1</clus>
<clus scale="   72.450">  7  8 -1 -1</clus>
<clus scale="   79.514">  5  6 -1 -1</clus>
<clus scale="   81.121">  1  7  2 -1</clus>
<clus scale="   87.488">  2  5  1 -1</clus>
</clustering>
</event>
<event>
 9    2  0.3402837E-005  0.1017279E+03  0.7546771E-02  0.1285309E+00
          2   -1    0    0  502    0  0.00000000000E+00  0.00000000000E+00  0.24128229995E+02  0.24128229995E+02  0.00000000000E+00 0. -1.
         -1   -1    0    0    0  501 -0.00000000000E+00 -0.00000000000E+00 -0.83495841827E+03  0.83495841827E+03  0.00000000000E+00 0.  1.
         24    2    1    2    0    0 -0.31229307238E+00  0.63077752980E+02 -0.32287295461E+03  0.33881752879E+03  0.81064619580E+02 0.  0.
         23    2    1    2    0    0 -0.79233817997E+01 -0.12017508987E+02 -0.15661570368E+03  0.18491529983E+03  0.97252192632E+02 0.  0.
        -13    1    3    3    0    0  0.37538850750E+01  0.81298245270E+02 -0.28779608303E+03  0.29908206523E+03  0.00000000000E+00 0.  1.
         14    1    3    3    0    0 -0.40661781474E+01 -0.18220492290E+02 -0.35076871577E+02  0.39735463552E+02  0.00000000000E+00 0. -1.
        -13    1    4    4    0    0  0.31705146709E+02 -0.12444700559E+02 -0.13608419495E+03  0.14028184136E+03  0.00000000000E+00 0.  1.
         13    1    4    4    0    0 -0.39628528509E+02  0.42719157224E+00 -0.20531508726E+02  0.44633458470E+02  0.00000000000E+00 0. -1.
         21    1    1    2  502  501  0.82356748721E+01 -0.51060243993E+02 -0.33134152999E+03  0.33535381965E+03  0.00000000000E+00 0. -1.
<scales pt_clust_5="13000.00000" pt_clust_6="13000.00000" pt_clust_7="13000.00000" pt_clust_8="13000.00000" pt_clust_9="51.72016"></scales>
<clustering>
<clus scale="   51.720">  2  9  1 -1</clus>
<clus scale="   81.065">  5  6 -1 -1</clus>
<clus scale="   86.383">  2  5  1 -1</clus>
<clus scale="   97.252">  7  8 -1 -1</clus>
<clus scale="  101.728">  1  5  2 -1</clus>
</clustering>
</event>
<event>
 9    2  0.3402837E-005  0.2293093E+03  0.7546771E-02  0.1170590E+00
          2   -1    0    0  502    0  0.00000000000E+00  0.00000000000E+00  0.89279315399E+03  0.89279315399E+03  0.00000000000E+00 0. -1.
         -1   -1    0    0    0  501 -0.00000000000E+00 -0.00000000000E+00 -0.10814389855E+03  0.10814389855E+03  0.00000000000E+00 0.  1.
         23    2    1    2    0    0  0.21204916222E+03  0.14958746391E+02  0.43052349411E+03  0.48851947787E+03  0.90067696663E+02 0.  0.
         24    2    1    2    0    0 -0.19580152627E+01 -0.48122717206E+01  0.27634202397E+03  0.28815979715E+03  0.81511733530E+02 0.  0.
        -11    1    4    4    0    0 -0.23065231160E+02  0.30981381403E+02  0.10584707486E+03  0.11267410589E+03  0.00000000000E+00 0.  1.
         12    1    4    4    0    0  0.21107215897E+02 -0.35793653123E+02  0.17049494911E+03  0.17548569127E+03  0.00000000000E+00 0. -1.
        -11    1    3    3    0    0  0.18864588066E+03 -0.17232351912E+02  0.33166138468E+03  0.38194698104E+03  0.00000000000E+00 0.  1.
         11    1    3    3    0    0  0.23403281565E+02  0.32191098303E+02  0.98862109433E+02  0.10657249683E+03  0.00000000000E+00 0. -1.
         21    1    1    2  502  501 -0.21009114696E+03 -0.10146474671E+02  0.77783737360E+02  0.22425777752E+03  0.00000000000E+00 0. -1.
<scales pt_clust_5="13000.00000" pt_clust_6="13000.00000" pt_clust_7="13000.00000" pt_clust_8="13000.00000" pt_clust_9="210.88042"></scales>
<clustering>
<clus scale="   81.512">  5  6 -1 -1</clus>
<clus scale="   81.677">  1  5  2 -1</clus>
<clus scale="   90.068">  7  8 -1 -1</clus>
<clus scale="  210.880">  2  9  1 -1</clus>
<clus scale="   81.677">  1  5  2 -1</clus>
</clustering>
</event>
<event>
 9    2  0.3402837E-005  0.1061915E+03  0.7546771E-02  0.1272478E+00
          2   -1    0    0  502    0  0.00000000000E+00  0.00000000000E+00  0.43280877837E+03  0.43280877837E+03  0.00000000000E+00 0. -1.
         -1   -1    0    0    0  501 -0.00000000000E+00 -0.00000000000E+00 -0.66744609645E+02  0.66744609645E+02  0.00000000000E+00 0.  1.
         23    2    1    2    0    0  0.24142281922E+02  0.42988314175E+02  0.19262355115E+02  0.10520319120E+03  0.90916600141E+02 0.  0.
         24    2    1    2    0    0 -0.59969330960E+02  0.89119970636E-01  0.31377208398E+03  0.32931016441E+03  0.79974590371E+02 0.  0.
        -13    1    4    4    0    0 -0.10434318916E+02 -0.19082645005E+02  0.16420165230E+02  0.27251498634E+02  0.00000000000E+00 0.  1.
         14    1    4    4    0    0 -0.49535012044E+02  0.19171764975E+02  0.29735191875E+03  0.30205866578E+03  0.00000000000E+00 0. -1.
        -13    1    3    3    0    0  0.37699126355E+02  0.85830599354E+01 -0.26121585040E+02  0.46660799937E+02  0.00000000000E+00 0.  1.
         13    1    3    3    0    0 -0.13556844433E+02  0.34405254240E+02  0.45383940154E+02  0.58542391258E+02  0.00000000000E+00 0. -1.
         21    1    1    2  502  501  0.35827049038E+02 -0.43077434146E+02  0.33029729628E+02  0.65040032400E+02  0.00000000000E+00 0. -1.
<scales pt_clust_5="13000.00000" pt_clust_6="13000.00000" pt_clust_7="13000.00000" pt_clust_8="13000.00000" pt_clust_9="56.02895"></scales>
<clustering>
<clus scale="   56.029">  2  9  1 -1</clus>
<clus scale="   79.975">  5  6 -1 -1</clus>
<clus scale="   90.917">  7  8 -1 -1</clus>
<clus scale="   96.988">  1  5  2 -1</clus>
<clus scale="   96.988">  1  5  2 -1</clus>
</clustering>
</event>
<event>
 9    2  0.3402837E-005  0.9151473E+02  0.7546771E-02  0.1302329E+00
         -1   -1    0    0    0  501 -0.00000000000E+00  0.00000000000E+00  0.11088717851E+02  0.11088717851E+02  0.00000000000E+00 0.  1.
          2   -1    0    0  502    0  0.00000000000E+00 -0.00000000000E+00 -0.12732291886E+04  0.12732291886E+04  0.00000000000E+00 0. -1.
         23    2    1    2    0    0  0.49195842025E+02  0.13972898170E+02 -0.42997137374E+03  0.44066718793E+03  0.81833462143E+02 0.  0.
         24    2    1    2    0    0 -0.37485823606E+02  0.59635098080E+01 -0.79723472832E+03  0.80175805794E+03  0.76105328414E+02 0.  0.
        -11    1    4    4    0    0 -0.38454165023E+02  0.80747327773E-01 -0.16222580733E+03  0.16672115010E+03  0.00000000000E+00 0.  1.
         12    1    4    4    0    0  0.96834141694E+00  0.58827624803E+01 -0.63500892099E+03  0.63503690784E+03  0.00000000000E+00 0. -1.
        -11    1    3    3    0    0  0.44571117501E+02 -0.28920661197E+02 -0.25216926455E+03  0.25770589272E+03  0.00000000000E+00 0.  1.
         11    1    3    3    0    0  0.46247245243E+01  0.42893559368E+02 -0.17780210919E+03  0.18296129521E+03  0.00000000000E+00 0. -1.
         21    1    1    2  502  501 -0.11710018420E+02 -0.19936407979E+02 -0.34934368664E+02  0.41892660555E+02  0.00000000000E+00 0. -1.
<scales pt_clust_5="13000.00000" pt_clust_6="13000.00000" pt_clust_7="13000.00000" pt_clust_8="13000.00000" pt_clust_9="23.12109"></scales>
<clustering>
<clus scale="   23.121">  1  9  2 -1</clus>
<clus scale="   76.105">  5  6 -1 -1</clus>
<clus scale="   81.833">  7  8 -1 -1</clus>
<clus scale="   86.431">  2  5  1 -1</clus>
<clus scale="   86.431">  2  5  1 -1</clus>
</clustering>
</event>
<event>
 9    2  0.3402837E-005  0.1296002E+03  0.7546771E-02  0.1230845E+00
          2   -1    0    0  502    0  0.00000000000E+00  0.00000000000E+00  0.18717631007E+03  0.18717631007E+03  0.00000000000E+00 0. -1.
         -1   -1    0    0    0  501 -0.00000000000E+00 -0.00000000000E+00 -0.76158279899E+03  0.76158279899E+03  0.00000000000E+00 0.  1.
         24    2    1    2    0    0 -0.85447019542E+02  0.37317410195E+02 -0.65799173560E+03  0.66929599182E+03  0.79436882471E+02 0.  0.
         23    2    1    2    0    0  0.50639118701E+02 -0.98638363176E+02  0.13147826238E+03  0.19422468583E+03  0.90237730895E+02 0.  0.
        -11    1    3    3    0    0 -0.85683675031E+02  0.25691890999E+02 -0.35552303032E+03  0.36660386048E+03  0.00000000000E+00 0.  1.
         12    1    3    3    0    0  0.23665548939E+00  0.11625519197E+02 -0.30246870529E+03  0.30269213135E+03  0.00000000000E+00 0. -1.
        -11    1    4    4    0    0  0.21401880458E+02 -0.64128456463E+02  0.14967297424E+02  0.69242468237E+02  0.00000000000E+00 0. -1.
         11    1    4    4    0    0  0.29237238243E+02 -0.34509906714E+02  0.11651096495E+03  0.12498221760E+03  0.00000000000E+00 0.  1.
         21    1    1    2  502  501  0.34807900840E+02  0.61320952981E+02 -0.47893015697E+02  0.85238431403E+02  0.00000000000E+00 0.  1.
<scales pt_clust_5="13000.00000" pt_clust_6="13000.00000" pt_clust_7="13000.00000" pt_clust_8="13000.00000" pt_clust_9="70.51134"></scales>
<clustering>
<clus scale="   70.511">  1  9  2 -1</clus>
<clus scale="   79.437">  5  6 -1 -1</clus>
<clus scale="   90.238">  7  8 -1 -1</clus>
<clus scale="  122.326">  2  5  1 -1</clus>
<clus scale="   70.511">  1  5  2 -1</clus>
</clustering>
</event>
<event>
 9    2  0.3402837E-005  0.1006981E+03  0.7546771E-02  0.1280437E+00
          2   -1    0    0  502    0  0.00000000000E+00  0.00000000000E+00  0.22685322439E+03  0.22685322439E+03  0.00000000000E+00 0. -1.
         -1   -1    0    0    0  501 -0.00000000000E+00 -0.00000000000E+00 -0.15254843812E+03  0.15254843812E+03  0.00000000000E+00 0.  1.
         24    2    1    2    0    0 -0.45979494811E+02 -0.37847523293E+02 -0.43227219068E+02  0.10883208285E+03  0.80182796321E+02 0.  0.
         23    2    1    2    0    0 -0.24822148438E+02 -0.29434072183E+02  0.13470387100E+03  0.17140023587E+03  0.98744135696E+02 0.  0.
        -11    1    3    3    0    0 -0.81608047767E+01 -0.44010349285E+02 -0.52916489850E+02  0.69308473341E+02  0.00000000000E+00 0.  1.
         12    1    3    3    0    0 -0.37818690034E+02  0.61628259918E+01  0.96892707815E+01  0.39523609506E+02  0.00000000000E+00 0. -1.
        -13    1    4    4    0    0 -0.38719444239E+02 -0.46542566860E+02  0.13646128965E+03  0.14928861130E+03  0.00000000000E+00 0.  1.
         13    1    4    4    0    0  0.13897295801E+02  0.17108494677E+02 -0.17574186443E+01  0.22111624567E+02  0.00000000000E+00 0. -1.
         21    1    1    2  502  501  0.70801643249E+02  0.67281595476E+02 -0.17171865667E+02  0.99169343786E+02  0.00000000000E+00 0. -1.
<scales pt_clust_5="13000.00000" pt_clust_6="13000.00000" pt_clust_7="13000.00000" pt_clust_8="13000.00000" pt_clust_9="97.67132"></scales>
<clustering>
<clus scale="   80.183">  5  6 -1 -1</clus>
<clus scale="   97.671">  2  9  1 -1</clus>
<clus scale="   97.671">  2  5  1 -1</clus>
<clus scale="   98.744">  7  8 -1 -1</clus>
<clus scale="  100.698">  1  5  2 -1</clus>
</clustering>
</event>
<event>
 9    2  0.3402837E-005  0.1603780E+03  0.7546771E-02  0.1190602E+00
          2   -1    0    0  502    0  0.00000000000E+00  0.00000000000E+00  0.10762037748E+04  0.10762037748E+04  0.00000000000E+00 0. -1.
         -1   -1    0    0    0  501 -0.00000000000E+00 -0.00000000000E+00 -0.10546279209E+03  0.10546279209E+03  0.00000000000E+00 0.  1.
         24    2    1    2    0    0 -0.13025897290E+03  0.11277110750E+03  0.35684179548E+03  0.40420796025E+03  0.79770203819E+02 0.  0.
         23    2    1    2    0    0  0.90685507413E+02 -0.71144348098E+02  0.67638913729E+03  0.69258316767E+03  0.94253910155E+02 0.  0.
        -11    1    3    3    0    0 -0.10759380509E+03  0.10517634692E+03  0.22802464085E+03  0.27319174160E+03  0.00000000000E+00 0.  1.
         12    1    3    3    0    0 -0.22665167809E+02  0.75947605771E+01  0.12881715464E+03  0.13101621865E+03  0.00000000000E+00 0. -1.
        -11    1    4    4    0    0  0.52488812371E+01  0.21145237505E+02  0.70951488437E+02  0.74221193299E+02  0.00000000000E+00 0.  1.
         11    1    4    4    0    0  0.85436626176E+02 -0.92289585603E+02  0.60543764885E+03  0.61836197437E+03  0.00000000000E+00 0. -1.
         21    1    1    2  502  501  0.39573465491E+02 -0.41626759402E+02 -0.62489950104E+02  0.84875438928E+02  0.00000000000E+00 0.  1.
<scales pt_clust_5="13000.00000" pt_clust_6="13000.00000" pt_clust_7="13000.00000" pt_clust_8="13000.00000" pt_clust_9="57.43558"></scales>
<clustering>
<clus scale="   57.436">  2  9  1 -1</clus>
<clus scale="   79.770">  5  6 -1 -1</clus>
<clus scale="   94.254">  7  8 -1 -1</clus>
<clus scale="  152.317">  2  5  1 -1</clus>
<clus scale="  160.378">  1  5  2 -1</clus>
</clustering>
</event>
<event>
 9    2  0.3402837E-005  0.1423997E+03  0.7546771E-02  0.1213599E+00
          2   -1    0    0  502    0  0.00000000000E+00  0.00000000000E+00  0.86320519996E+03  0.86320519996E+03  0.00000000000E+00 0. -1.
         -1   -1    0    0    0  501 -0.00000000000E+00 -0.00000000000E+00 -0.31552705955E+02  0.31552705955E+02  0.00000000000E+00 0.  1.
         23    2    1    2    0    0 -0.87346777436E+02 -0.64433503578E+02  0.29581132117E+03  0.32922157381E+03  0.95401105964E+02 0.  0.
         24    2    1    2    0    0  0.67311353315E+02  0.81055173429E+02  0.51651567293E+03  0.53311453273E+03  0.79510409362E+02 0.  0.
        -13    1    4    4    0    0  0.29209260518E+02  0.37500230810E+02  0.82148897948E+02  0.94909902775E+02  0.00000000000E+00 0.  1.
         14    1    4    4    0    0  0.38102092797E+02  0.43554942620E+02  0.43436677498E+03  0.43820462995E+03  0.00000000000E+00 0. -1.
        -11    1    3    3    0    0 -0.55251372854E+02 -0.82128618861E+02  0.15654810061E+03  0.18521644647E+03  0.00000000000E+00 0.  1.
         11    1    3    3    0    0 -0.32095404581E+02  0.17695115283E+02  0.13926322056E+03  0.14400512734E+03  0.00000000000E+00 0. -1.
         21    1    1    2  502  501  0.20035424121E+02 -0.16621669851E+02  0.19325499910E+02  0.32421799381E+02  0.00000000000E+00 0.  1.
<scales pt_clust_5="13000.00000" pt_clust_6="13000.00000" pt_clust_7="13000.00000" pt_clust_8="13000.00000" pt_clust_9="26.03264"></scales>
<clustering>
<clus scale="   26.033">  2  9  1 -1</clus>
<clus scale="   79.510">  5  6 -1 -1</clus>
<clus scale="   95.401">  7  8 -1 -1</clus>
<clus scale="  132.281">  1  5  2 -1</clus>
<clus scale="  132.281">  1  5  2 -1</clus>
</clustering>
</event>
<event>
 9    2  0.3402837E-005  0.1721963E+03  0.7546771E-02  0.1177217E+00
          2   -1    0    0  502    0  0.00000000000E+00  0.00000000000E+00  0.73606916040E+03  0.73606916040E+03  0.00000000000E+00 0. -1.
         -1   -1    0    0    0  501 -0.00000000000E+00 -0.00000000000E+00 -0.28403124274E+03  0.28403124274E+03  0.00000000000E+00 0.  1.
         23    2    1    2    0    0  0.58761283174E+02 -0.17131349184E+03 -0.19755687559E+03  0.28323071511E+03  0.91595403850E+02 0.  0.
         24    2    1    2    0    0 -0.77844877627E+02  0.12178167516E+03  0.66212809596E+03  0.68232916990E+03  0.79176254424E+02 0.  0.
        -13    1    4    4    0    0  0.70952758996E+01  0.54671069226E+02  0.18297625786E+03  0.19110096727E+03  0.00000000000E+00 0.  1.
         14    1    4    4    0    0 -0.84940153526E+02  0.67110605930E+02  0.47915183809E+03  0.49122820263E+03  0.00000000000E+00 0. -1.
        -13    1    3    3    0    0 -0.47042452584E+01 -0.32492784983E+02  0.92280640979E+00  0.32844521172E+02  0.00000000000E+00 0. -1.
         13    1    3    3    0    0  0.63465528432E+02 -0.13882070685E+03 -0.19847968200E+03  0.25038619394E+03  0.00000000000E+00 0.  1.
         21    1    1    2  502  501  0.19083594453E+02  0.49531816680E+02 -0.12533302707E+02  0.54540518128E+02  0.00000000000E+00 0.  1.
<scales pt_clust_5="13000.00000" pt_clust_6="13000.00000" pt_clust_7="13000.00000" pt_clust_8="13000.00000" pt_clust_9="53.08092"></scales>
<clustering>
<clus scale="   53.081">  2  9  1 -1</clus>
<clus scale="   79.176">  5  6 -1 -1</clus>
<clus scale="   91.595">  7  8 -1 -1</clus>
<clus scale="  165.924">  1  5  2 -1</clus>
<clus scale="  165.924">  1  5  2 -1</clus>
</clustering>
</event>
<event>
 9    2  0.3402837E-005  0.1060657E+03  0.7546771E-02  0.1272122E+00
          2   -1    0    0  502    0  0.00000000000E+00  0.00000000000E+00  0.88192190658E+03  0.88192190658E+03  0.00000000000E+00 0. -1.
         -1   -1    0    0    0  501 -0.00000000000E+00 -0.00000000000E+00 -0.45374405674E+02  0.45374405674E+02  0.00000000000E+00 0.  1.
         23    2    1    2    0    0 -0.74348531154E+02  0.29667154296E+02  0.24465905640E+03  0.27263740524E+03  0.89806774399E+02 0.  0.
         24    2    1    2    0    0  0.30684454294E+01 -0.59977416723E+02  0.56324325227E+03  0.57207495175E+03  0.80125422373E+02 0.  0.
        -13    1    4    4    0    0 -0.31320779937E+02 -0.22297237376E+02  0.12256118573E+03  0.12844999921E+03  0.00000000000E+00 0.  1.
         14    1    4    4    0    0  0.34389225366E+02 -0.37680179347E+02  0.44068206655E+03  0.44362495254E+03  0.00000000000E+00 0. -1.
        -13    1    3    3    0    0 -0.12300661843E+02  0.39102997491E+02  0.35375763846E+02  0.54146055833E+02  0.00000000000E+00 0.  1.
         13    1    3    3    0    0 -0.62047869310E+02 -0.94358431955E+01  0.20928329256E+03  0.21849134941E+03  0.00000000000E+00 0. -1.
         21    1    1    2  502  501  0.71280085724E+02  0.30310262427E+02  0.28645192228E+02  0.82583955264E+02  0.00000000000E+00 0.  1.
<scales pt_clust_5="13000.00000" pt_clust_6="13000.00000" pt_clust_7="13000.00000" pt_clust_8="13000.00000" pt_clust_9="77.45684"></scales>
<clustering>
<clus scale="   77.457">  2  9  1 -1</clus>
<clus scale="   80.125">  5  6 -1 -1</clus>
<clus scale="   89.807">  7  8 -1 -1</clus>
<clus scale="   98.004">  1  5  2 -1</clus>
<clus scale="   98.004">  1  5  2 -1</clus>
</clustering>
</event>
<event>
 9    2  0.3402837E-005  0.1008263E+03  0.7546771E-02  0.1282816E+00
          2   -1    0    0  502    0  0.00000000000E+00  0.00000000000E+00  0.37714126351E+03  0.37714126351E+03  0.00000000000E+00 0. -1.
         -1   -1    0    0    0  501 -0.00000000000E+00 -0.00000000000E+00 -0.47858080007E+02  0.47858080007E+02  0.00000000000E+00 0.  1.
         23    2    1    2    0    0 -0.56078620340E+02 -0.93318906657E+01  0.11435843960E+03  0.15656732886E+03  0.90573615997E+02 0.  0.
         24    2    1    2    0    0  0.38121987416E+02 -0.15575778601E+02  0.21908318612E+03  0.23744612601E+03  0.81776093779E+02 0.  0.
        -11    1    4    4    0    0  0.20133523572E+02 -0.24581930293E+02  0.20427603981E+02  0.37774555891E+02  0.00000000000E+00 0.  1.
         12    1    4    4    0    0  0.17988463845E+02  0.90061516916E+01  0.19865558213E+03  0.19967157012E+03  0.00000000000E+00 0. -1.
        -13    1    3    3    0    0 -0.36485291411E+01  0.28018498022E+02  0.36313421319E+01  0.28487447095E+02  0.00000000000E+00 0.  1.
         13    1    3    3    0    0 -0.52430091199E+02 -0.37350388688E+02  0.11072709747E+03  0.12807988176E+03  0.00000000000E+00 0. -1.
         21    1    1    2  502  501  0.17956632924E+02  0.24907669267E+02 -0.41584422090E+01  0.30985888657E+02  0.00000000000E+00 0.  1.
<scales pt_clust_5="13000.00000" pt_clust_6="13000.00000" pt_clust_7="13000.00000" pt_clust_8="13000.00000" pt_clust_9="30.70558"></scales>
<clustering>
<clus scale="   30.706">  2  9  1 -1</clus>
<clus scale="   81.776">  5  6 -1 -1</clus>
<clus scale="   90.574">  7  8 -1 -1</clus>
<clus scale="   93.004">  1  5  2 -1</clus>
<clus scale="   93.004">  1  5  2 -1</clus>
</clustering>
</event>
<event>
 9    2  0.3402837E-005  0.1106815E+03  0.7546771E-02  0.1261516E+00
         -1   -1    0    0    0  501 -0.00000000000E+00  0.00000000000E+00  0.10289527289E+03  0.10289527289E+03  0.00000000000E+00 0.  1.
          2   -1    0    0  502    0  0.00000000000E+00 -0.00000000000E+00 -0.39566574249E+03  0.39566574249E+03  0.00000000000E+00 0. -1.
         23    2    1    2    0    0 -0.55458385138E+02  0.85280330429E+01  0.17912089155E+02  0.10744819822E+03  0.89866081100E+02 0.  0.
         24    2    1    2    0    0  0.42326533490E+02 -0.52778032698E+02 -0.32528017518E+03  0.34270209106E+03  0.84026630759E+02 0.  0.
        -11    1    4    4    0    0 -0.22570300632E+02 -0.22176352421E+02 -0.59294201706E+02  0.67208715456E+02  0.00000000000E+00 0.  1.
         12    1    4    4    0    0  0.64896834122E+02 -0.30601680278E+02 -0.26598597347E+03  0.27549337560E+03  0.00000000000E+00 0. -1.
        -13    1    3    3    0    0 -0.13958304123E+02  0.14580960280E+02  0.50468695543E+02  0.54355569048E+02  0.00000000000E+00 0.  1.
         13    1    3    3    0    0 -0.41500081015E+02 -0.60529272374E+01 -0.32556606388E+02  0.53092629168E+02  0.00000000000E+00 0. -1.
         21    1    1    2  502  501  0.13131851648E+02  0.44249999655E+02  0.14597616429E+02  0.48410726111E+02  0.00000000000E+00 0.  1.
<scales pt_clust_5="13000.00000" pt_clust_6="13000.00000" pt_clust_7="13000.00000" pt_clust_8="13000.00000" pt_clust_9="46.15743"></scales>
<clustering>
<clus scale="   46.157">  1  9  2 -1</clus>
<clus scale="   84.027">  5  6 -1 -1</clus>
<clus scale="   89.866">  7  8 -1 -1</clus>
<clus scale="  105.995">  2  5  1 -1</clus>
<clus scale="  105.995">  2  5  1 -1</clus>
</clustering>
</event>
<event>
 9    2  0.3402837E-005  0.2724504E+03  0.7546771E-02  0.1100518E+00
         -1   -1    0    0    0  501 -0.00000000000E+00  0.00000000000E+00  0.10438703277E+03  0.10438703277E+03  0.00000000000E+00 0.  1.
          2   -1    0    0  502    0  0.00000000000E+00 -0.00000000000E+00 -0.98984173730E+03  0.98984173730E+03  0.00000000000E+00 0. -1.
         24    2    1    2    0    0 -0.21846016682E+03  0.41243190266E+02 -0.18488656865E+03  0.29966429036E+03  0.78675271945E+02 0.  0.
         23    2    1    2    0    0  0.26785291446E+03 -0.55637446437E+02 -0.68064454825E+03  0.73939394887E+03  0.92659059646E+02 0.  0.
        -13    1    3    3    0    0 -0.66026048819E+02  0.78161043058E+01 -0.13444743844E+02  0.67832822042E+02  0.00000000000E+00 0.  1.
         14    1    3    3    0    0 -0.15243411801E+03  0.33427085960E+02 -0.17144182481E+03  0.23183146832E+03  0.00000000000E+00 0. -1.
        -11    1    4    4    0    0  0.18640399710E+03 -0.42025586828E+02 -0.35185696330E+03  0.40039470864E+03  0.00000000000E+00 0.  1.
         11    1    4    4    0    0  0.81448917359E+02 -0.13611859609E+02 -0.32878758495E+03  0.33899924023E+03  0.00000000000E+00 0. -1.
         21    1    1    2  502  501 -0.49392747634E+02  0.14394256171E+02 -0.19923587624E+02  0.55170530841E+02  0.00000000000E+00 0. -1.
<scales pt_clust_5="13000.00000" pt_clust_6="13000.00000" pt_clust_7="13000.00000" pt_clust_8="13000.00000" pt_clust_9="51.44743"></scales>
<clustering>
<clus scale="   51.447">  1  9  2 -1</clus>
<clus scale="   78.675">  5  6 -1 -1</clus>
<clus scale="   92.659">  7  8 -1 -1</clus>
<clus scale="  268.017">  1  5  2 -1</clus>
<clus scale="  272.450">  2  5  1 -1</clus>
</clustering>
</event>
<event>
 9    2  0.3402837E-005  0.8935933E+02  0.7546771E-02  0.1310378E+00
         -3   -1    0    0    0  501 -0.00000000000E+00  0.00000000000E+00  0.63920328957E+02  0.63920328957E+02  0.00000000000E+00 0.  1.
          4   -1    0    0  502    0  0.00000000000E+00 -0.00000000000E+00 -0.42296472885E+03  0.42296472885E+03  0.00000000000E+00 0. -1.
         24    2    1    2    0    0 -0.13986735570E+02  0.26677251610E+02 -0.25501721889E+02  0.89062954739E+02  0.79840889036E+02 0.  0.
         23    2    1    2    0    0  0.32366589798E+02  0.36390759544E+02 -0.31962172728E+03  0.33067163068E+03  0.69381519656E+02 0.  0.
        -13    1    3    3    0    0 -0.31564849470E+02  0.47953126539E+02 -0.20834335794E+02  0.61073002341E+02  0.00000000000E+00 0.  1.
         14    1    3    3    0    0  0.17578113900E+02 -0.21275874929E+02 -0.46673860958E+01  0.27989952398E+02  0.00000000000E+00 0. -1.
        -13    1    4    4    0    0  0.53325610426E+02  0.29108679437E+02 -0.20054315409E+03  0.20954353390E+03  0.00000000000E+00 0. -1.
         13    1    4    4    0    0 -0.20959020629E+02  0.72820801068E+01 -0.11907857319E+03  0.12112809678E+03  0.00000000000E+00 0.  1.
         21    1    1    2  502  501 -0.18379854228E+02 -0.63068011154E+02 -0.13920950715E+02  0.67150472382E+02  0.00000000000E+00 0.  1.
<scales pt_clust_5="13000.00000" pt_clust_6="13000.00000" pt_clust_7="13000.00000" pt_clust_8="13000.00000" pt_clust_9="65.69165"></scales>
<clustering>
<clus scale="   65.692">  1  9  2 -1</clus>
<clus scale="   69.382">  7  8 -1 -1</clus>
<clus scale="   79.841">  5  6 -1 -1</clus>
<clus scale="   80.152">  2  7  1 -1</clus>
<clus scale="   80.152">  2  5  1 -1</clus>
</clustering>
</event>
<event>
 9    2  0.3402837E-005  0.8974441E+02  0.7546771E-02  0.1307081E+00
          2   -1    0    0  502    0  0.00000000000E+00  0.00000000000E+00  0.24624787154E+03  0.24624787154E+03  0.00000000000E+00 0. -1.
         -1   -1    0    0    0  501 -0.00000000000E+00 -0.00000000000E+00 -0.15282313131E+03  0.15282313131E+03  0.00000000000E+00 0.  1.
         23    2    1    2    0    0  0.10499830197E+02 -0.37532315282E+01  0.21583749635E+02  0.90703395653E+02  0.87389441889E+02 0.  0.
         24    2    1    2    0    0  0.21605027069E+02  0.17481109351E+02  0.17739618600E+03  0.19718723228E+03  0.81492523499E+02 0.  0.
        -11    1    4    4    0    0  0.35583123105E+02 -0.14265800288E+02  0.14407372956E+03  0.14908692517E+03  0.00000000000E+00 0.  1.
         12    1    4    4    0    0 -0.13978096036E+02  0.31746909639E+02  0.33322456446E+02  0.48100307110E+02  0.00000000000E+00 0. -1.
        -11    1    3    3    0    0 -0.54914516737E+01  0.23218148887E+02  0.45427503732E+02  0.51311758638E+02  0.00000000000E+00 0. -1.
         11    1    3    3    0    0  0.15991281871E+02 -0.26971380415E+02 -0.23843754097E+02  0.39391637016E+02  0.00000000000E+00 0.  1.
         21    1    1    2  502  501 -0.32104857266E+02 -0.13727877823E+02 -0.10555519541E+03  0.11118037492E+03  0.00000000000E+00 0.  1.
<scales pt_clust_5="13000.00000" pt_clust_6="13000.00000" pt_clust_7="13000.00000" pt_clust_8="13000.00000" pt_clust_9="34.91671"></scales>
<clustering>
<clus scale="   34.917">  2  9  1 -1</clus>
<clus scale="   81.493">  5  6 -1 -1</clus>
<clus scale="   84.013">  1  5  2 -1</clus>
<clus scale="   87.389">  7  8 -1 -1</clus>
<clus scale="   84.013">  1  5  2 -1</clus>
</clustering>
</event>
<event>
 9    2  0.3402837E-005  0.1015022E+03  0.7546771E-02  0.1282654E+00
         -3   -1    0    0    0  501 -0.00000000000E+00  0.00000000000E+00  0.36072814729E+02  0.36072814729E+02  0.00000000000E+00 0.  1.
          4   -1    0    0  502    0  0.00000000000E+00 -0.00000000000E+00 -0.75839110844E+03  0.75839110844E+03  0.00000000000E+00 0. -1.
         23    2    1    2    0    0 -0.76285223536E+02  0.15395198848E+02 -0.19620227286E+03  0.23032004696E+03  0.92171279046E+02 0.  0.
         24    2    1    2    0    0  0.34907604958E+02  0.52650280233E+01 -0.50610201048E+03  0.51375029621E+03  0.80955916654E+02 0.  0.
        -13    1    4    4    0    0 -0.76427042971E+01 -0.22914846163E+02 -0.59125411095E+02  0.63869518088E+02  0.00000000000E+00 0.  1.
         14    1    4    4    0    0  0.42550309255E+02  0.28179874187E+02 -0.44697659939E+03  0.44988077812E+03  0.00000000000E+00 0. -1.
        -11    1    3    3    0    0 -0.46831648636E+02  0.27318771936E+02 -0.31757799283E+02  0.62833720480E+02  0.00000000000E+00 0.  1.
         11    1    3    3    0    0 -0.29453574900E+02 -0.11923573088E+02 -0.16444447357E+03  0.16748632648E+03  0.00000000000E+00 0. -1.
         21    1    1    2  502  501  0.41377618578E+02 -0.20660226871E+02 -0.20014010374E+02  0.50393579996E+02  0.00000000000E+00 0. -1.
<scales pt_clust_5="13000.00000" pt_clust_6="13000.00000" pt_clust_7="13000.00000" pt_clust_8="13000.00000" pt_clust_9="46.24881"></scales>
<clustering>
<clus scale="   46.249">  1  9  2 -1</clus>
<clus scale="   80.956">  5  6 -1 -1</clus>
<clus scale="   91.439">  2  5  1 -1</clus>
<clus scale="   92.171">  7  8 -1 -1</clus>
<clus scale="   91.439">  2  5  1 -1</clus>
</clustering>
</event>
<event>
 9    2  0.3402837E-005  0.1587427E+03  0.7546771E-02  0.1193002E+00
          2   -1    0    0  502    0  0.00000000000E+00  0.00000000000E+00  0.49667674169E+03  0.49667674169E+03  0.00000000000E+00 0. -1.
         -1   -1    0    0    0  501 -0.00000000000E+00 -0.00000000000E+00 -0.12085127504E+03  0.12085127504E+03  0.00000000000E+00 0.  1.
         24    2    1    2    0    0 -0.10820297660E+03 -0.17846598865E+02 -0.49353040491E+02  0.14359332588E+03  0.78466141708E+02 0.  0.
         23    2    1    2    0    0  0.12366289605E+03  0.38200494450E+02  0.41717257036E+03  0.44715064339E+03  0.95702428316E+02 0.  0.
        -13    1    3    3    0    0 -0.60117552901E+02 -0.46237064550E+02 -0.43538120808E+02  0.87450295989E+02  0.00000000000E+00 0.  1.
         14    1    3    3    0    0 -0.48085423701E+02  0.28390465685E+02 -0.58149196830E+01  0.56143029890E+02  0.00000000000E+00 0. -1.
        -11    1    4    4    0    0  0.48111239964E+02  0.53314044029E+02  0.11729012508E+03  0.13752836850E+03  0.00000000000E+00 0.  1.
         11    1    4    4    0    0  0.75551656083E+02 -0.15113549579E+02  0.29988244528E+03  0.30962227489E+03  0.00000000000E+00 0. -1.
         21    1    1    2  502  501 -0.15459919444E+02 -0.20353895585E+02  0.80059367743E+01  0.26784047460E+02  0.00000000000E+00 0. -1.
<scales pt_clust_5="13000.00000" pt_clust_6="13000.00000" pt_clust_7="13000.00000" pt_clust_8="13000.00000" pt_clust_9="25.55954"></scales>
<clustering>
<clus scale="   25.560">  2  9  1 -1</clus>
<clus scale="   78.466">  5  6 -1 -1</clus>
<clus scale="   95.702">  7  8 -1 -1</clus>
<clus scale="  148.987">  2  5  1 -1</clus>
<clus scale="  158.743">  1  5  2 -1</clus>
</clustering>
</event>
<event>
 9    2  0.3402837E-005  0.1896816E+03  0.7546771E-02  0.1160080E+00
         -1   -1    0    0    0  501 -0.00000000000E+00  0.00000000000E+00  0.91237006719E+02  0.91237006719E+02  0.00000000000E+00 0.  1.
          2   -1    0    0  502    0  0.00000000000E+00 -0.00000000000E+00 -0.15675137913E+04  0.15675137913E+04  0.00000000000E+00 0. -1.
         23    2    1    2    0    0 -0.11323687097E+03 -0.32067163765E+02 -0.20476414429E+02  0.15106326791E+03  0.92465860849E+02 0.  0.
         24    2    1    2    0    0  0.14562705469E+03  0.88795515885E+02 -0.14214637636E+04  0.14338889361E+04  0.79914748436E+02 0.  0.
        -13    1    4    4    0    0  0.19243940276E+02  0.45844372875E+02 -0.25411325225E+03  0.25893161400E+03  0.00000000000E+00 0.  1.
         14    1    4    4    0    0  0.12638311441E+03  0.42951143010E+02 -0.11673505114E+04  0.11749573221E+04  0.00000000000E+00 0. -1.
        -13    1    3    3    0    0 -0.71019378829E+02 -0.30756032587E+02 -0.56279628813E+02  0.95692645115E+02  0.00000000000E+00 0. -1.
         13    1    3    3    0    0 -0.42217492145E+02 -0.13111311778E+01  0.35803214384E+02  0.55370622791E+02  0.00000000000E+00 0.  1.
         21    1    1    2  502  501 -0.32390183714E+02 -0.56728352120E+02 -0.34336606551E+02  0.73798594056E+02  0.00000000000E+00 0.  1.
<scales pt_clust_5="13000.00000" pt_clust_6="13000.00000" pt_clust_7="13000.00000" pt_clust_8="13000.00000" pt_clust_9="65.32404"></scales>
<clustering>
<clus scale="   65.324">  1  9  2 -1</clus>
<clus scale="   79.915">  5  6 -1 -1</clus>
<clus scale="   92.466">  7  8 -1 -1</clus>
<clus scale="  183.890">  2  5  1 -1</clus>
<clus scale="  183.890">  2  5  1 -1</clus>
</clustering>
</event>
<event>
 9    2  0.3402837E-005  0.1649489E+03  0.7546771E-02  0.1205195E+00
          2   -1    0    0  502    0  0.00000000000E+00  0.00000000000E+00  0.64210961267E+03  0.64210961267E+03  0.00000000000E+00 0. -1.
         -1   -1    0    0    0  501 -0.00000000000E+00 -0.00000000000E+00 -0.12097852335E+03  0.12097852335E+03  0.00000000000E+00 0.  1.
         23    2    1    2    0    0  0.29537232639E+02  0.13052272327E+03 -0.15305200920E+01  0.15713677905E+03  0.82346799791E+02 0.  0.
         24    2    1    2    0    0  0.32353770971E+02  0.53800835786E+02  0.11082597209E+03  0.15052379641E+03  0.80210477923E+02 0.  0.
        -11    1    4    4    0    0  0.47296652907E+02  0.65436095661E+02  0.76003848577E+02  0.11088480955E+03  0.00000000000E+00 0.  1.
         12    1    4    4    0    0 -0.14942881936E+02 -0.11635259875E+02  0.34822123513E+02  0.39638986855E+02  0.00000000000E+00 0. -1.
        -11    1    3    3    0    0  0.57747225227E+02  0.90233922507E+02  0.63860906421E+01  0.10732047776E+03  0.00000000000E+00 0.  1.
         11    1    3    3    0    0 -0.28209992587E+02  0.40288800763E+02 -0.79166107341E+01  0.49816301290E+02  0.00000000000E+00 0. -1.
         21    1    1    2  502  501 -0.61891003610E+02 -0.18432355906E+03  0.41183563732E+03  0.45542756056E+03  0.00000000000E+00 0. -1.
<scales pt_clust_5="13000.00000" pt_clust_6="13000.00000" pt_clust_7="13000.00000" pt_clust_8="13000.00000" pt_clust_9="142.92356"></scales>
<clustering>
<clus scale="   80.210">  5  6 -1 -1</clus>
<clus scale="   82.347">  7  8 -1 -1</clus>
<clus scale="  101.858">  1  5  2 -1</clus>
<clus scale="  142.924">  1  9  2 -1</clus>
<clus scale="  101.858">  1  5  2 -1</clus>
</clustering>
</event>
<event>
 9    2  0.3402837E-005  0.1232685E+03  0.7546771E-02  0.1242423E+00
          2   -1    0    0  502    0  0.00000000000E+00  0.00000000000E+00  0.41787646335E+03  0.41787646335E+03  0.00000000000E+00 0. -1.
         -1   -1    0    0    0  501 -0.00000000000E+00 -0.00000000000E+00 -0.19999866616E+03  0.19999866616E+03  0.00000000000E+00 0.  1.
         24    2    1    2    0    0  0.76309120557E+02  0.73432912497E+02 -0.14292588738E+03  0.19420461065E+03  0.77923982173E+02 0.  0.
         23    2    1    2    0    0 -0.61837607785E+02 -0.49689673044E+02  0.37355787526E+03  0.39307909061E+03  0.93127503784E+02 0.  0.
        -13    1    3    3    0    0  0.55902827235E+02  0.34127077399E+02 -0.13382338266E+03  0.14899154758E+03  0.00000000000E+00 0.  1.
         14    1    3    3    0    0  0.20406293322E+02  0.39305835099E+02 -0.91025047181E+01  0.45213063069E+02  0.00000000000E+00 0. -1.
        -13    1    4    4    0    0 -0.70621921894E+02 -0.26897332325E+02  0.35345656502E+03  0.36144496911E+03  0.00000000000E+00 0. -1.
         13    1    4    4    0    0  0.87843141091E+01 -0.22792340718E+02  0.20101310245E+02  0.31634121504E+02  0.00000000000E+00 0.  1.
         21    1    1    2  502  501 -0.14471512772E+02 -0.23743239454E+02 -0.12754190696E+02  0.30591428243E+02  0.00000000000E+00 0.  1.
<scales pt_clust_5="13000.00000" pt_clust_6="13000.00000" pt_clust_7="13000.00000" pt_clust_8="13000.00000" pt_clust_9="27.80586"></scales>
<clustering>
<clus scale="   27.806">  2  9  1 -1</clus>
<clus scale="   77.924">  5  6 -1 -1</clus>
<clus scale="   93.128">  7  8 -1 -1</clus>
<clus scale="  112.225">  2  5  1 -1</clus>
<clus scale="  123.268">  1  5  2 -1</clus>
</clustering>
</event>
<event>
 9    2  0.3402837E-005  0.1079837E+03  0.7546771E-02  0.1267947E+00
          2   -1    0    0  502    0  0.00000000000E+00  0.00000000000E+00  0.26939662158E+03  0.26939662158E+03  0.00000000000E+00 0. -1.
         -1   -1    0    0    0  501 -0.00000000000E+00 -0.00000000000E+00 -0.75949210065E+02  0.75949210065E+02  0.00000000000E+00 0.  1.
         23    2    1    2    0    0  0.35209760797E+02  0.70493769591E+02  0.40473414435E+02  0.12598896146E+03  0.89588070232E+02 0.  0.
         24    2    1    2    0    0 -0.36027279590E+02 -0.41498364963E+02  0.16187587212E+03  0.18901473437E+03  0.80639274961E+02 0.  0.
        -13    1    4    4    0    0 -0.96661752017E-01 -0.50966738964E+02  0.51096036264E+02  0.72169403115E+02  0.00000000000E+00 0.  1.
         14    1    4    4    0    0 -0.35930617838E+02  0.94683740014E+01  0.11077983586E+03  0.11684533126E+03  0.00000000000E+00 0. -1.
        -11    1    3    3    0    0  0.32756214501E+02 -0.73676800667E+01  0.34058738108E+02  0.47825201928E+02  0.00000000000E+00 0.  1.
         11    1    3    3    0    0  0.24535462958E+01  0.77861449658E+02  0.64146763276E+01  0.78163759535E+02  0.00000000000E+00 0. -1.
         21    1    1    2  502  501  0.81751879316E+00 -0.28995404628E+02 -0.89018750366E+01  0.30342135813E+02  0.00000000000E+00 0.  1.
<scales pt_clust_5="13000.00000" pt_clust_6="13000.00000" pt_clust_7="13000.00000" pt_clust_8="13000.00000" pt_clust_9="29.00693"></scales>
<clustering>
<clus scale="   29.007">  2  9  1 -1</clus>
<clus scale="   80.639">  5  6 -1 -1</clus>
<clus scale="   89.588">  7  8 -1 -1</clus>
<clus scale="  100.683">  1  5  2 -1</clus>
<clus scale="  100.683">  1  5  2 -1</clus>
</clustering>
</event>
<event>
 9    2  0.3402837E-005  0.2307498E+03  0.7546771E-02  0.1126795E+00
          2   -1    0    0  502    0  0.00000000000E+00  0.00000000000E+00  0.19787785717E+03  0.19787785717E+03  0.00000000000E+00 0. -1.
         -1   -1    0    0    0  501 -0.00000000000E+00 -0.00000000000E+00 -0.46719315335E+03  0.46719315335E+03  0.00000000000E+00 0.  1.
         24    2    1    2    0    0 -0.64354564073E+02  0.18340851801E+03 -0.28560107523E+03  0.35477662209E+03  0.80735884318E+02 0.  0.
         23    2    1    2    0    0  0.45129132997E+02 -0.21249258534E+03  0.70486406417E+02  0.24584899930E+03  0.91014611467E+02 0.  0.
        -11    1    3    3    0    0 -0.15216505045E+02  0.55270050511E+02 -0.15526889892E+03  0.16551359908E+03  0.00000000000E+00 0.  1.
         12    1    3    3    0    0 -0.49138059028E+02  0.12813846750E+03 -0.13033217631E+03  0.18926302301E+03  0.00000000000E+00 0. -1.
        -13    1    4    4    0    0  0.48514724738E+02 -0.39843310073E+02  0.21390116840E+02  0.66322733451E+02  0.00000000000E+00 0.  1.
         13    1    4    4    0    0 -0.33855917410E+01 -0.17264927526E+03  0.49096289578E+02  0.17952626585E+03  0.00000000000E+00 0. -1.
         21    1    1    2  502  501  0.19225431076E+02  0.29084067327E+02 -0.54200627368E+02  0.64445389125E+02  0.00000000000E+00 0.  1.
<scales pt_clust_5="13000.00000" pt_clust_6="13000.00000" pt_clust_7="13000.00000" pt_clust_8="13000.00000" pt_clust_9="34.86402"></scales>
<clustering>
<clus scale="   34.864">  2  9  1 -1</clus>
<clus scale="   80.736">  5  6 -1 -1</clus>
<clus scale="   91.015">  7  8 -1 -1</clus>
<clus scale="  226.892">  2  5  1 -1</clus>
<clus scale="  230.750">  1  5  2 -1</clus>
</clustering>
</event>
<event>
 9    2  0.3402837E-005  0.1631970E+03  0.7546771E-02  0.1186704E+00
          2   -1    0    0  502    0  0.00000000000E+00  0.00000000000E+00  0.10287600653E+03  0.10287600653E+03  0.00000000000E+00 0. -1.
         -1   -1    0    0    0  501 -0.00000000000E+00 -0.00000000000E+00 -0.70714144661E+03  0.70714144661E+03  0.00000000000E+00 0.  1.
         23    2    1    2    0    0 -0.48714069702E+01  0.22049505067E+03 -0.27790925361E+03  0.36628309981E+03  0.91038222661E+02 0.  0.
         24    2    1    2    0    0 -0.50120369064E+02 -0.99564979739E+02 -0.68452083148E+02  0.15362626315E+03  0.80561184547E+02 0.  0.
        -11    1    4    4    0    0 -0.72271837490E-01 -0.64639324831E+02 -0.66245839734E+02  0.92556787000E+02  0.00000000000E+00 0.  1.
         12    1    4    4    0    0 -0.50048097227E+02 -0.34925654908E+02 -0.22062434142E+01  0.61069476146E+02  0.00000000000E+00 0. -1.
        -11    1    3    3    0    0 -0.78711427697E+01  0.73796126392E+02 -0.33980806375E+02  0.81624251059E+02  0.00000000000E+00 0. -1.
         11    1    3    3    0    0  0.29997357995E+01  0.14669892427E+03 -0.24392844724E+03  0.28465884875E+03  0.00000000000E+00 0.  1.
         21    1    1    2  502  501  0.54991776035E+02 -0.12093007093E+03 -0.25790410331E+03  0.29010809019E+03  0.00000000000E+00 0.  1.
<scales pt_clust_5="13000.00000" pt_clust_6="13000.00000" pt_clust_7="13000.00000" pt_clust_8="13000.00000" pt_clust_9="132.84644"></scales>
<clustering>
<clus scale="   80.561">  5  6 -1 -1</clus>
<clus scale="   91.038">  7  8 -1 -1</clus>
<clus scale="  132.846">  2  9  1 -1</clus>
<clus scale="  157.593">  1  5  2 -1</clus>
<clus scale="  157.593">  1  5  2 -1</clus>
</clustering>
</event>
<event>
 9    2  0.3402837E-005  0.1281271E+03  0.7546771E-02  0.1233749E+00
          2   -1    0    0  502    0  0.00000000000E+00  0.00000000000E+00  0.32629019457E+03  0.32629019457E+03  0.00000000000E+00 0. -1.
         -1   -1    0    0    0  501 -0.00000000000E+00 -0.00000000000E+00 -0.60804318474E+02  0.60804318474E+02  0.00000000000E+00 0.  1.
         23    2    1    2    0    0 -0.10043287807E+03  0.17180279538E+02  0.98324568755E+02  0.16856804703E+03  0.91463329568E+02 0.  0.
         24    2    1    2    0    0  0.76572121170E+02  0.24044864233E+01  0.13463428936E+03  0.17368334306E+03  0.78552151393E+02 0.  0.
        -13    1    4    4    0    0  0.75542465697E+02  0.85149920448E+01  0.55054086292E+02  0.93862248165E+02  0.00000000000E+00 0.  1.
         14    1    4    4    0    0  0.10296554726E+01 -0.61105056216E+01  0.79580203070E+02  0.79821094893E+02  0.00000000000E+00 0. -1.
        -11    1    3    3    0    0 -0.40386590896E+02 -0.36944697433E+02  0.28308854645E+02  0.61622874356E+02  0.00000000000E+00 0.  1.
         11    1    3    3    0    0 -0.60046287179E+02  0.54124976971E+02  0.70015714110E+02  0.10694517267E+03  0.00000000000E+00 0. -1.
         21    1    1    2  502  501  0.23860756905E+02 -0.19584765961E+02  0.32527017984E+02  0.44843122959E+02  0.00000000000E+00 0.  1.
<scales pt_clust_5="13000.00000" pt_clust_6="13000.00000" pt_clust_7="13000.00000" pt_clust_8="13000.00000" pt_clust_9="30.86906"></scales>
<clustering>
<clus scale="   30.869">  1  9  2 -1</clus>
<clus scale="   78.552">  5  6 -1 -1</clus>
<clus scale="   91.463">  7  8 -1 -1</clus>
<clus scale="  119.254">  1  5  2 -1</clus>
<clus scale="   30.869">  1  5  2 -1</clus>
</clustering>
</event>
<event>
 9    2  0.3402837E-005  0.1040079E+03  0.7546771E-02  0.1279624E+00
         -1   -1    0    0    0  501 -0.00000000000E+00  0.00000000000E+00  0.92695978880E+02  0.92695978880E+02  0.00000000000E+00 0.  1.
          2   -1    0    0  502    0  0.00000000000E+00 -0.00000000000E+00 -0.29916029484E+03  0.29916029484E+03  0.00000000000E+00 0. -1.
         24    2    1    2    0    0  0.24958452033E+02 -0.17456311859E+02  0.43241003153E+02  0.92744737837E+02  0.76185004372E+02 0.  0.
         23    2    1    2    0    0 -0.50597556902E+02  0.75921082742E+01 -0.25029918162E+03  0.27163392894E+03  0.92290617932E+02 0.  0.
        -13    1    3    3    0    0 -0.22039134661E+02 -0.13640629257E+01  0.36435652377E+02  0.42604470287E+02  0.00000000000E+00 0.  1.
         14    1    3    3    0    0  0.46997586694E+02 -0.16092248934E+02  0.68053507757E+01  0.50140267550E+02  0.00000000000E+00 0. -1.
        -11    1    4    4    0    0 -0.17979750507E+02 -0.38777900741E+02 -0.64495773256E+02  0.77373779680E+02  0.00000000000E+00 0.  1.
         11    1    4    4    0    0 -0.32617806395E+02  0.46370009015E+02 -0.18580340836E+03  0.19426014926E+03  0.00000000000E+00 0. -1.
         21    1    1    2  502  501  0.25639104868E+02  0.98642035853E+01  0.59386250478E+00  0.27477606946E+02  0.00000000000E+00 0. -1.
<scales pt_clust_5="13000.00000" pt_clust_6="13000.00000" pt_clust_7="13000.00000" pt_clust_8="13000.00000" pt_clust_9="27.47119"></scales>
<clustering>
<clus scale="   27.471">  1  9  2 -1</clus>
<clus scale="   76.185">  5  6 -1 -1</clus>
<clus scale="   90.024">  1  5  2 -1</clus>
<clus scale="   92.291">  7  8 -1 -1</clus>
<clus scale="  104.008">  2  5  1 -1</clus>
</clustering>
</event>
<event>
 9    2  0.3402837E-005  0.2457536E+03  0.7546771E-02  0.1156318E+00
         -1   -1    0    0    0  501 -0.00000000000E+00  0.00000000000E+00  0.82693925865E+02  0.82693925865E+02  0.00000000000E+00 0.  1.
          2   -1    0    0  502    0  0.00000000000E+00 -0.00000000000E+00 -0.11185095399E+04  0.11185095399E+04  0.00000000000E+00 0. -1.
         23    2    1    2    0    0 -0.92268405431E+00 -0.12788492813E+02 -0.65448053513E+02  0.11316286598E+03  0.91422041289E+02 0.  0.
         24    2    1    2    0    0  0.19796020984E+03 -0.11431452524E+03 -0.35776805412E+03  0.43210072524E+03  0.80355465557E+02 0.  0.
        -13    1    4    4    0    0  0.14764357514E+03 -0.51386012375E+02 -0.27667276204E+03  0.31778446281E+03  0.00000000000E+00 0.  1.
         14    1    4    4    0    0  0.50316634703E+02 -0.62928512868E+02 -0.81095292082E+02  0.11431626244E+03  0.00000000000E+00 0. -1.
        -11    1    3    3    0    0  0.24219125648E+02 -0.58414697383E+01  0.14665734048E+02  0.28909731424E+02  0.00000000000E+00 0.  1.
         11    1    3    3    0    0 -0.25141809702E+02 -0.69470230751E+01 -0.80113787561E+02  0.84253134553E+02  0.00000000000E+00 0. -1.
         21    1    1    2  502  501 -0.19703752579E+03  0.12710301806E+03 -0.61259950636E+03  0.65593987450E+03  0.00000000000E+00 0. -1.
<scales pt_clust_5="13000.00000" pt_clust_6="13000.00000" pt_clust_7="13000.00000" pt_clust_8="13000.00000" pt_clust_9="232.24521"></scales>
<clustering>
<clus scale="   80.355">  5  6 -1 -1</clus>
<clus scale="   91.422">  7  8 -1 -1</clus>
<clus scale="   92.317">  1  7  2 -1</clus>
<clus scale="  232.245">  2  9  1 -1</clus>
<clus scale="  232.245">  2  5  1 -1</clus>
</clustering>
</event>
<event>
 9    2  0.3402837E-005  0.1328611E+03  0.7546771E-02  0.1227387E+00
          2   -1    0    0  502    0  0.00000000000E+00  0.00000000000E+00  0.31920977298E+03  0.31920977298E+03  0.00000000000E+00 0. -1.
         -1   -1    0    0    0  501 -0.00000000000E+00 -0.00000000000E+00 -0.14761517998E+03  0.14761517998E+03  0.00000000000E+00 0.  1.
         23    2    1    2    0    0  0.74426253221E+02  0.36016452560E+02 -0.48861013335E+02  0.13682211225E+03  0.97449678056E+02 0.  0.
         24    2    1    2    0    0 -0.71574692696E+02 -0.57361660364E+02  0.25850677855E+03  0.28628052374E+03  0.81960276958E+02 0.  0.
        -11    1    4    4    0    0  0.11367437683E+02 -0.27760094101E+02  0.35273732934E+02  0.46304186626E+02  0.00000000000E+00 0.  1.
         12    1    4    4    0    0 -0.82942130379E+02 -0.29601566263E+02  0.22323304562E+03  0.23997633711E+03  0.00000000000E+00 0. -1.
        -11    1    3    3    0    0  0.96209988373E+02  0.42299512258E+02 -0.41323014648E+02  0.11293007633E+03  0.00000000000E+00 0.  1.
         11    1    3    3    0    0 -0.21783735152E+02 -0.62830596973E+01 -0.75379986865E+01  0.23892035923E+02  0.00000000000E+00 0. -1.
         21    1    1    2  502  501 -0.28515605245E+01  0.21345207804E+02 -0.38051172223E+02  0.43722316969E+02  0.00000000000E+00 0. -1.
<scales pt_clust_5="13000.00000" pt_clust_6="13000.00000" pt_clust_7="13000.00000" pt_clust_8="13000.00000" pt_clust_9="21.53484"></scales>
<clustering>
<clus scale="   21.535">  2  9  1 -1</clus>
<clus scale="   81.960">  5  6 -1 -1</clus>
<clus scale="   97.450">  7  8 -1 -1</clus>
<clus scale="  121.955">  1  5  2 -1</clus>
<clus scale="  121.955">  1  5  2 -1</clus>
</clustering>
</event>
<event>
 9    2  0.3402837E-005  0.9902696E+02  0.7546771E-02  0.1289471E+00
         -1   -1    0    0    0  501 -0.00000000000E+00  0.00000000000E+00  0.49835100155E+03  0.49835100155E+03  0.00000000000E+00 0.  1.
          2   -1    0    0  502    0  0.00000000000E+00 -0.00000000000E+00 -0.33244568127E+02  0.33244568127E+02  0.00000000000E+00 0. -1.
         23    2    1    2    0    0 -0.19304000177E+02 -0.21063651695E+01  0.27612030474E+03  0.29189048607E+03  0.92631268872E+02 0.  0.
         24    2    1    2    0    0  0.39214313559E+02 -0.49624439093E+01  0.55325631209E+02  0.10438502882E+03  0.79201771045E+02 0.  0.
        -13    1    4    4    0    0  0.11541038835E+02  0.36589903837E+02  0.20361778272E+02  0.43435223662E+02  0.00000000000E+00 0.  1.
         14    1    4    4    0    0  0.27673274723E+02 -0.41552347746E+02  0.34963852937E+02  0.60949805162E+02  0.00000000000E+00 0. -1.
        -13    1    3    3    0    0 -0.29186602893E+02 -0.39405678074E+02  0.20700036031E+03  0.21272943948E+03  0.00000000000E+00 0. -1.
         13    1    3    3    0    0  0.98826027151E+01  0.37299312905E+02  0.69119944427E+02  0.79161046590E+02  0.00000000000E+00 0.  1.
         21    1    1    2  502  501 -0.19910313381E+02  0.70688090788E+01  0.13366049748E+03  0.13532005478E+03  0.00000000000E+00 0.  1.
<scales pt_clust_5="13000.00000" pt_clust_6="13000.00000" pt_clust_7="13000.00000" pt_clust_8="13000.00000" pt_clust_9="21.12791"></scales>
<clustering>
<clus scale="   21.128">  1  9  2 -1</clus>
<clus scale="   79.202">  5  6 -1 -1</clus>
<clus scale="   86.595">  2  5  1 -1</clus>
<clus scale="   92.631">  7  8 -1 -1</clus>
<clus scale="   86.595">  2  5  1 -1</clus>
</clustering>
</event>
<event>
 9    2  0.3402837E-005  0.1169698E+03  0.7546771E-02  0.1252171E+00
          2   -1    0    0  502    0  0.00000000000E+00  0.00000000000E+00  0.17947129904E+03  0.17947129904E+03  0.00000000000E+00 0. -1.
         -1   -1    0    0    0  501 -0.00000000000E+00 -0.00000000000E+00 -0.12836101200E+03  0.12836101200E+03  0.00000000000E+00 0.  1.
         23    2    1    2    0    0  0.25076520002E+02  0.69860366679E+02 -0.67302001565E+02  0.13625522096E+03  0.92339715921E+02 0.  0.
         24    2    1    2    0    0 -0.53707100686E+01 -0.64611122564E+02  0.10289200328E+03  0.14594990207E+03  0.80691808070E+02 0.  0.
        -13    1    4    4    0    0  0.36606203221E+02 -0.24326520772E+02  0.56229267854E+02  0.71368930849E+02  0.00000000000E+00 0.  1.
         14    1    4    4    0    0 -0.41976913289E+02 -0.40284601792E+02  0.46662735429E+02  0.74580971223E+02  0.00000000000E+00 0. -1.
        -13    1    3    3    0    0  0.40185789824E+01  0.41240341145E+02  0.16987331859E+02  0.44782632331E+02  0.00000000000E+00 0. -1.
         13    1    3    3    0    0  0.21057941019E+02  0.28620025534E+02 -0.84289333423E+02  0.91472588629E+02  0.00000000000E+00 0.  1.
         21    1    1    2  502  501 -0.19705809933E+02 -0.52492441152E+01  0.15520285322E+02  0.25627188012E+02  0.00000000000E+00 0. -1.
<scales pt_clust_5="13000.00000" pt_clust_6="13000.00000" pt_clust_7="13000.00000" pt_clust_8="13000.00000" pt_clust_9="20.39298"></scales>
<clustering>
<clus scale="   20.393">  1  9  2 -1</clus>
<clus scale="   80.692">  5  6 -1 -1</clus>
<clus scale="   92.340">  7  8 -1 -1</clus>
<clus scale="  108.011">  1  5  2 -1</clus>
<clus scale="   20.393">  1  5  2 -1</clus>
</clustering>
</event>
<event>
 9    2  0.3402837E-005  0.1280459E+03  0.7546771E-02  0.1232624E+00
         -1   -1    0    0    0  501 -0.00000000000E+00  0.00000000000E+00  0.12752910348E+03  0.12752910348E+03  0.00000000000E+00 0.  1.
          2   -1    0    0  502    0  0.00000000000E+00 -0.00000000000E+00 -0.70290553655E+03  0.70290553655E+03  0.00000000000E+00 0. -1.
         23    2    1    2    0    0 -0.73081918736E+02  0.38485501057E+01  0.49665374942E+02  0.12648518155E+03  0.90421642872E+02 0.  0.
         24    2    1    2    0    0  0.91689684425E+02  0.50006181375E+01 -0.65561616414E+03  0.66708012197E+03  0.82044683170E+02 0.  0.
        -11    1    4    4    0    0  0.75059336922E+01 -0.29684789484E+02 -0.12407188956E+03  0.12779420780E+03  0.00000000000E+00 0.  1.
         12    1    4    4    0    0  0.84183750733E+02  0.34685407621E+02 -0.53154427458E+03  0.53928591417E+03  0.00000000000E+00 0. -1.
        -11    1    3    3    0    0 -0.94651278250E+02  0.41716388064E+01  0.41143966943E+02  0.10329130196E+03  0.00000000000E+00 0.  1.
         11    1    3    3    0    0  0.21569359514E+02 -0.32308870078E+00  0.85214080000E+01  0.23193879591E+02  0.00000000000E+00 0. -1.
         21    1    1    2  502  501 -0.18607765689E+02 -0.88491682432E+01  0.30574356127E+02  0.36869336516E+02  0.00000000000E+00 0.  1.
<scales pt_clust_5="13000.00000" pt_clust_6="13000.00000" pt_clust_7="13000.00000" pt_clust_8="13000.00000" pt_clust_9="20.60477"></scales>
<clustering>
<clus scale="   20.605">  1  9  2 -1</clus>
<clus scale="   82.045">  5  6 -1 -1</clus>
<clus scale="   90.422">  7  8 -1 -1</clus>
<clus scale="  122.274">  2  5  1 -1</clus>
<clus scale="  122.274">  2  5  1 -1</clus>
</clustering>
</event>
<event>
 9    2  0.3402837E-005  0.1189611E+03  0.7546771E-02  0.1247163E+00
          2   -1    0    0  502    0  0.00000000000E+00  0.00000000000E+00  0.14341613489E+03  0.14341613489E+03  0.00000000000E+00 0. -1.
         -1   -1    0    0    0  501 -0.00000000000E+00 -0.00000000000E+00 -0.22671465370E+03  0.22671465370E+03  0.00000000000E+00 0.  1.
         23    2    1    2    0    0  0.14007078709E+02  0.75129372003E+02 -0.16612969695E+03  0.20388665514E+03  0.90166907132E+02 0.  0.
         24    2    1    2    0    0  0.71460864374E+01 -0.77829404013E+02  0.88455874780E+02  0.14419002316E+03  0.82812066238E+02 0.  0.
        -13    1    4    4    0    0  0.19918852634E+02 -0.41626484701E+02 -0.17237984569E+01  0.46178960577E+02  0.00000000000E+00 0.  1.
         14    1    4    4    0    0 -0.12772766197E+02 -0.36202919312E+02  0.90179673237E+02  0.98011062581E+02  0.00000000000E+00 0. -1.
        -13    1    3    3    0    0 -0.88062788456E+01  0.48649436779E+02 -0.16117247799E+03  0.16858495161E+03  0.00000000000E+00 0.  1.
         13    1    3    3    0    0  0.22813357554E+02  0.26479935224E+02 -0.49572189615E+01  0.35301703531E+02  0.00000000000E+00 0. -1.
         21    1    1    2  502  501 -0.21153165146E+02  0.27000320102E+01 -0.56246966463E+01  0.22054110295E+02  0.00000000000E+00 0. -1.
<scales pt_clust_5="13000.00000" pt_clust_6="13000.00000" pt_clust_7="13000.00000" pt_clust_8="13000.00000" pt_clust_9="21.32479"></scales>
<clustering>
<clus scale="   21.325">  2  9  1 -1</clus>
<clus scale="   82.812">  5  6 -1 -1</clus>
<clus scale="   90.167">  7  8 -1 -1</clus>
<clus scale="  113.488">  1  5  2 -1</clus>
<clus scale="  113.488">  1  5  2 -1</clus>
</clustering>
</event>
<event>
 9    2  0.3402837E-005  0.2752042E+03  0.7546771E-02  0.1098782E+00
          2   -1    0    0  502    0  0.00000000000E+00  0.00000000000E+00  0.11958642524E+04  0.11958642524E+04  0.00000000000E+00 0. -1.
         -1   -1    0    0    0  501 -0.00000000000E+00 -0.00000000000E+00 -0.11463641888E+03  0.11463641888E+03  0.00000000000E+00 0.  1.
         24    2    1    2    0    0  0.10644026059E+03  0.22366553560E+03  0.12111978217E+03  0.28707845286E+03  0.79926438542E+02 0.  0.
         23    2    1    2    0    0 -0.78934085421E+02 -0.25141860650E+03  0.93811786535E+03  0.97858483563E+03  0.90117954424E+02 0.  0.
        -13    1    3    3    0    0  0.66855345410E+02  0.10643127219E+03  0.19978985050E+02  0.12726512780E+03  0.00000000000E+00 0.  1.
         14    1    3    3    0    0  0.39584915175E+02  0.11723426340E+03  0.10114079712E+03  0.15981332506E+03  0.00000000000E+00 0. -1.
        -11    1    4    4    0    0 -0.59849266754E+02 -0.94820027056E+02  0.27545505567E+03  0.29740252178E+03  0.00000000000E+00 0.  1.
         11    1    4    4    0    0 -0.19084818667E+02 -0.15659857945E+03  0.66266280967E+03  0.68118231386E+03  0.00000000000E+00 0. -1.
         21    1    1    2  502  501 -0.27506175164E+02  0.27753070905E+02  0.21990186049E+02  0.44837382833E+02  0.00000000000E+00 0.  1.
<scales pt_clust_5="13000.00000" pt_clust_6="13000.00000" pt_clust_7="13000.00000" pt_clust_8="13000.00000" pt_clust_9="39.07458"></scales>
<clustering>
<clus scale="   39.075">  2  9  1 -1</clus>
<clus scale="   79.926">  5  6 -1 -1</clus>
<clus scale="   90.118">  7  8 -1 -1</clus>
<clus scale="  272.037">  2  5  1 -1</clus>
<clus scale="  275.204">  1  5  2 -1</clus>
</clustering>
</event>
<event>
 9    2  0.3402837E-005  0.1088107E+03  0.7546771E-02  0.1265184E+00
          2   -1    0    0  502    0  0.00000000000E+00  0.00000000000E+00  0.50561503994E+02  0.50561503994E+02  0.00000000000E+00 0. -1.
         -1   -1    0    0    0  501 -0.00000000000E+00 -0.00000000000E+00 -0.42924549740E+03  0.42924549740E+03  0.00000000000E+00 0.  1.
         23    2    1    2    0    0  0.21459390271E+02 -0.26185134724E+02 -0.18863568156E+03  0.21121242657E+03  0.88775571361E+02 0.  0.
         24    2    1    2    0    0 -0.77118262621E+02  0.21106067564E+02 -0.66055591107E+02  0.13258758312E+03  0.82604077165E+02 0.  0.
        -11    1    4    4    0    0 -0.64372275039E+02  0.45678353975E+02 -0.24482775242E+02  0.82642048009E+02  0.00000000000E+00 0.  1.
         12    1    4    4    0    0 -0.12745987582E+02 -0.24572286411E+02 -0.41572815865E+02  0.49945535114E+02  0.00000000000E+00 0. -1.
        -13    1    3    3    0    0  0.22120646520E+01 -0.57884210433E+02 -0.11465247572E+03  0.12845491519E+03  0.00000000000E+00 0.  1.
         13    1    3    3    0    0  0.19247325619E+02  0.31699075709E+02 -0.73983205842E+02  0.82757511387E+02  0.00000000000E+00 0. -1.
         21    1    1    2  502  501  0.55658872350E+02  0.50790671594E+01 -0.12399272074E+03  0.13600699170E+03  0.00000000000E+00 0. -1.
<scales pt_clust_5="13000.00000" pt_clust_6="13000.00000" pt_clust_7="13000.00000" pt_clust_8="13000.00000" pt_clust_9="55.89013"></scales>
<clustering>
<clus scale="   55.890">  2  9  1 -1</clus>
<clus scale="   82.604">  5  6 -1 -1</clus>
<clus scale="   88.776">  7  8 -1 -1</clus>
<clus scale="  103.837">  1  5  2 -1</clus>
<clus scale="  103.837">  1  5  2 -1</clus>
</clustering>
</event>
<event>
 9    2  0.3402837E-005  0.1283934E+03  0.7546771E-02  0.1249097E+00
          2   -1    0    0  502    0  0.00000000000E+00  0.00000000000E+00  0.72005158171E+03  0.72005158171E+03  0.00000000000E+00 0. -1.
         -1   -1    0    0    0  501 -0.00000000000E+00 -0.00000000000E+00 -0.10072540226E+03  0.10072540226E+03  0.00000000000E+00 0.  1.
         23    2    1    2    0    0  0.51815868580E+02  0.71899423824E+02 -0.36651281648E+02  0.13137916574E+03  0.89792858073E+02 0.  0.
         24    2    1    2    0    0  0.30397549888E+02  0.18490690846E+02  0.21691027036E+03  0.23364633223E+03  0.79212539961E+02 0.  0.
        -13    1    4    4    0    0  0.10348267052E+02 -0.31318612715E+02  0.89506955033E+02  0.95390969869E+02  0.00000000000E+00 0.  1.
         14    1    4    4    0    0  0.20049282837E+02  0.49809303561E+02  0.12740331533E+03  0.13825536236E+03  0.00000000000E+00 0. -1.
        -11    1    3    3    0    0  0.83789782820E+01  0.61721573160E+02 -0.55043160203E+02  0.83123458515E+02  0.00000000000E+00 0. -1.
         11    1    3    3    0    0  0.43436890298E+02  0.10177850664E+02  0.18391878555E+02  0.48255707224E+02  0.00000000000E+00 0.  1.
         21    1    1    2  502  501 -0.82213418469E+02 -0.90390114670E+02  0.43906719073E+03  0.45575148599E+03  0.00000000000E+00 0.  1.
<scales pt_clust_5="13000.00000" pt_clust_6="13000.00000" pt_clust_7="13000.00000" pt_clust_8="13000.00000" pt_clust_9="91.77204"></scales>
<clustering>
<clus scale="   79.213">  5  6 -1 -1</clus>
<clus scale="   86.836">  1  5  2 -1</clus>
<clus scale="   89.793">  7  8 -1 -1</clus>
<clus scale="   91.772">  1  9  2 -1</clus>
<clus scale="   86.836">  1  5  2 -1</clus>
</clustering>
</event>
<event>
 9    2  0.3402837E-005  0.1378140E+03  0.7546771E-02  0.1220374E+00
         -1   -1    0    0    0  501 -0.00000000000E+00  0.00000000000E+00  0.24800614142E+03  0.24800614142E+03  0.00000000000E+00 0.  1.
          2   -1    0    0  502    0  0.00000000000E+00 -0.00000000000E+00 -0.45589881338E+03  0.45589881338E+03  0.00000000000E+00 0. -1.
         23    2    1    2    0    0  0.92501203324E+02 -0.29860211612E+02  0.14264256961E+03  0.19848251201E+03  0.97981120910E+02 0.  0.
         24    2    1    2    0    0 -0.82304614215E+02  0.51429869890E+02 -0.41647979023E+03  0.43529467308E+03  0.81283182136E+02 0.  0.
        -13    1    4    4    0    0 -0.12194572916E+02 -0.20535013204E+02 -0.52028208427E+02  0.57247959336E+02  0.00000000000E+00 0.  1.
         14    1    4    4    0    0 -0.70110041298E+02  0.71964883094E+02 -0.36445158180E+03  0.37804671374E+03  0.00000000000E+00 0. -1.
        -11    1    3    3    0    0  0.88036118853E+02 -0.53663215355E+02  0.14035852967E+03  0.17415687111E+03  0.00000000000E+00 0.  1.
         11    1    3    3    0    0  0.44650844708E+01  0.23803003743E+02  0.22840399386E+01  0.24325640895E+02  0.00000000000E+00 0. -1.
         21    1    1    2  502  501 -0.10196589109E+02 -0.21569658278E+02  0.65944548665E+02  0.70127769723E+02  0.00000000000E+00 0. -1.
<scales pt_clust_5="13000.00000" pt_clust_6="13000.00000" pt_clust_7="13000.00000" pt_clust_8="13000.00000" pt_clust_9="23.85834"></scales>
<clustering>
<clus scale="   23.858">  1  9  2 -1</clus>
<clus scale="   81.283">  5  6 -1 -1</clus>
<clus scale="   97.981">  7  8 -1 -1</clus>
<clus scale="  126.489">  2  5  1 -1</clus>
<clus scale="  126.489">  2  5  1 -1</clus>
</clustering>
</event>
<event>
 9    2  0.3402837E-005  0.1017647E+03  0.7546771E-02  0.1280024E+00
         -1   -1    0    0    0  501 -0.00000000000E+00  0.00000000000E+00  0.16181069936E+03  0.16181069936E+03  0.00000000000E+00 0.  1.
          2   -1    0    0  502    0  0.00000000000E+00 -0.00000000000E+00 -0.26779967416E+03  0.26779967416E+03  0.00000000000E+00 0. -1.
         23    2    1    2    0    0 -0.12243952396E+02  0.39048911551E+02  0.40342489604E+02  0.10961879296E+03  0.93348976632E+02 0.  0.
         24    2    1    2    0    0 -0.30464676433E+02 -0.30621446829E+02 -0.21670698111E+03  0.23724037218E+03  0.86344131317E+02 0.  0.
        -13    1    4    4    0    0  0.28358464157E+02  0.29330913536E+01 -0.55735325879E+02  0.62603770374E+02  0.00000000000E+00 0.  1.
         14    1    4    4    0    0 -0.58823140590E+02 -0.33554538183E+02 -0.16097165523E+03  0.17463660180E+03  0.00000000000E+00 0. -1.
        -13    1    3    3    0    0 -0.30887972821E+02  0.61146807838E+02  0.42513730739E+02  0.80625159070E+02  0.00000000000E+00 0.  1.
         13    1    3    3    0    0  0.18644020425E+02 -0.22097896287E+02 -0.21712411346E+01  0.28993633887E+02  0.00000000000E+00 0. -1.
         21    1    1    2  502  501  0.42708628829E+02 -0.84274647217E+01  0.70375516708E+02  0.82751208390E+02  0.00000000000E+00 0.  1.
<scales pt_clust_5="13000.00000" pt_clust_6="13000.00000" pt_clust_7="13000.00000" pt_clust_8="13000.00000" pt_clust_9="43.53216"></scales>
<clustering>
<clus scale="   43.532">  1  9  2 -1</clus>
<clus scale="   86.344">  5  6 -1 -1</clus>
<clus scale="   93.349">  7  8 -1 -1</clus>
<clus scale="   95.380">  2  5  1 -1</clus>
<clus scale="   95.380">  2  5  1 -1</clus>
</clustering>
</event>
<event>
 9    2  0.3402837E-005  0.2038795E+03  0.7546771E-02  0.1172355E+00
         -1   -1    0    0    0  501 -0.00000000000E+00  0.00000000000E+00  0.18338701242E+03  0.18338701242E+03  0.00000000000E+00 0.  1.
          2   -1    0    0  502    0  0.00000000000E+00 -0.00000000000E+00 -0.10919923940E+04  0.10919923940E+04  0.00000000000E+00 0. -1.
         24    2    1    2    0    0  0.15256682236E+02  0.77822440493E+02  0.92162918419E+02  0.14475552583E+03  0.78556095424E+02 0.  0.
         23    2    1    2    0    0 -0.17852705745E+03  0.32509363885E+02 -0.87149674661E+03  0.89495152967E+03  0.92211127910E+02 0.  0.
        -13    1    3    3    0    0 -0.10323592781E+01  0.73241321578E+02  0.28031031022E+02  0.78428921020E+02  0.00000000000E+00 0.  1.
         14    1    3    3    0    0  0.16289041514E+02  0.45811189151E+01  0.64131887397E+02  0.66326604805E+02  0.00000000000E+00 0. -1.
        -11    1    4    4    0    0 -0.23441215529E+01  0.27120661612E+02 -0.12421070967E+03  0.12715866305E+03  0.00000000000E+00 0.  1.
         11    1    4    4    0    0 -0.17618293590E+03  0.53887022729E+01 -0.74728603695E+03  0.76779286662E+03  0.00000000000E+00 0. -1.
         21    1    1    2  502  501  0.16327037522E+03 -0.11033180438E+03 -0.12927155340E+03  0.23567235094E+03  0.00000000000E+00 0.  1.
<scales pt_clust_5="13000.00000" pt_clust_6="13000.00000" pt_clust_7="13000.00000" pt_clust_8="13000.00000" pt_clust_9="181.83495"></scales>
<clustering>
<clus scale="   78.556">  5  6 -1 -1</clus>
<clus scale="   92.211">  7  8 -1 -1</clus>
<clus scale="  111.625">  1  5  2 -1</clus>
<clus scale="  181.835">  1  9  2 -1</clus>
<clus scale="  203.879">  2  5  1 -1</clus>
</clustering>
</event>
<event>
 9    2  0.3402837E-005  0.1069693E+03  0.7546771E-02  0.1274257E+00
         -1   -1    0    0    0  501 -0.00000000000E+00  0.00000000000E+00  0.54790991090E+02  0.54790991090E+02  0.00000000000E+00 0.  1.
          2   -1    0    0  502    0  0.00000000000E+00 -0.00000000000E+00 -0.87928103172E+03  0.87928103172E+03  0.00000000000E+00 0. -1.
         23    2    1    2    0    0 -0.68408625613E+02  0.43933658708E+02 -0.63594664405E+02  0.13728425326E+03  0.90513968129E+02 0.  0.
         24    2    1    2    0    0  0.40613135978E+02 -0.37558764060E+02 -0.76283665325E+03  0.76820460873E+03  0.71822515732E+02 0.  0.
        -13    1    4    4    0    0  0.43816376220E+02 -0.26345369114E+02 -0.24698835932E+03  0.25222450899E+03  0.00000000000E+00 0.  1.
         14    1    4    4    0    0 -0.32032402423E+01 -0.11213394945E+02 -0.51584829393E+03  0.51598009974E+03  0.00000000000E+00 0. -1.
        -11    1    3    3    0    0 -0.34354395133E+02 -0.19811223077E+02  0.19673864119E+01  0.39706166197E+02  0.00000000000E+00 0. -1.
         11    1    3    3    0    0 -0.34054230480E+02  0.63744881785E+02 -0.65562050817E+02  0.97578087062E+02  0.00000000000E+00 0.  1.
         21    1    1    2  502  501  0.27795489635E+02 -0.63748946480E+01  0.19412770248E+01  0.28583160817E+02  0.00000000000E+00 0. -1.
<scales pt_clust_5="13000.00000" pt_clust_6="13000.00000" pt_clust_7="13000.00000" pt_clust_8="13000.00000" pt_clust_9="28.51716"></scales>
<clustering>
<clus scale="   28.517">  1  9  2 -1</clus>
<clus scale="   71.823">  5  6 -1 -1</clus>
<clus scale="   90.514">  7  8 -1 -1</clus>
<clus scale="   91.696">  2  5  1 -1</clus>
<clus scale="   91.696">  2  5  1 -1</clus>
</clustering>
</event>
<event>
 9    2  0.3402837E-005  0.9670805E+02  0.7546771E-02  0.1293557E+00
          2   -1    0    0  502    0  0.00000000000E+00  0.00000000000E+00  0.35872152455E+03  0.35872152455E+03  0.00000000000E+00 0. -1.
         -1   -1    0    0    0  501 -0.00000000000E+00 -0.00000000000E+00 -0.51494290506E+02  0.51494290506E+02  0.00000000000E+00 0.  1.
         23    2    1    2    0    0 -0.13645735341E+01  0.21451216846E+02  0.40732701736E+02  0.10190557541E+03  0.90904216310E+02 0.  0.
         24    2    1    2    0    0 -0.42592999411E+02  0.29513747764E+01  0.22723813479E+03  0.24452294120E+03  0.79570249848E+02 0.  0.
        -13    1    4    4    0    0 -0.52869780028E+02 -0.18769620773E+01  0.74551963179E+02  0.91415161984E+02  0.00000000000E+00 0.  1.
         14    1    4    4    0    0  0.10276780617E+02  0.48283368538E+01  0.15268617161E+03  0.15310777922E+03  0.00000000000E+00 0. -1.
        -11    1    3    3    0    0 -0.35193476655E+02 -0.13844312447E+02  0.36945422802E+02  0.52869746096E+02  0.00000000000E+00 0.  1.
         11    1    3    3    0    0  0.33828903121E+02  0.35295529293E+02  0.37872789334E+01  0.49035829310E+02  0.00000000000E+00 0. -1.
         21    1    1    2  502  501  0.43957572945E+02 -0.24402591623E+02  0.39256397524E+02  0.63787298451E+02  0.00000000000E+00 0.  1.
<scales pt_clust_5="13000.00000" pt_clust_6="13000.00000" pt_clust_7="13000.00000" pt_clust_8="13000.00000" pt_clust_9="50.27678"></scales>
<clustering>
<clus scale="   50.277">  2  9  1 -1</clus>
<clus scale="   79.570">  5  6 -1 -1</clus>
<clus scale="   86.141">  1  5  2 -1</clus>
<clus scale="   90.904">  7  8 -1 -1</clus>
<clus scale="   86.141">  1  5  2 -1</clus>
</clustering>
</event>
<event>
 9    2  0.3402837E-005  0.2426180E+03  0.7546771E-02  0.1118686E+00
          2   -1    0    0  502    0  0.00000000000E+00  0.00000000000E+00  0.90825094689E+03  0.90825094689E+03  0.00000000000E+00 0. -1.
         -1   -1    0    0    0  501 -0.00000000000E+00 -0.00000000000E+00 -0.24699555455E+03  0.24699555455E+03  0.00000000000E+00 0.  1.
         23    2    1    2    0    0  0.22926695337E+03  0.98756335440E+02  0.43344856132E+02  0.26930388402E+03  0.91266947459E+02 0.  0.
         24    2    1    2    0    0 -0.20129135465E+03  0.13146427713E+03  0.60229002978E+03  0.65350302356E+03  0.80696073073E+02 0.  0.
        -11    1    4    4    0    0 -0.35542321488E+02  0.51129550811E+02  0.22794518085E+03  0.23629746730E+03  0.00000000000E+00 0.  1.
         12    1    4    4    0    0 -0.16574903316E+03  0.80334726314E+02  0.37434484893E+03  0.41720555625E+03  0.00000000000E+00 0. -1.
        -11    1    3    3    0    0  0.95316750137E+02  0.14151686217E+02 -0.20454880813E+02  0.98508655602E+02  0.00000000000E+00 0.  1.
         11    1    3    3    0    0  0.13395020323E+03  0.84604649222E+02  0.63799736945E+02  0.17079522842E+03  0.00000000000E+00 0. -1.
         21    1    1    2  502  501 -0.27975598718E+02 -0.23022061257E+03  0.15620506433E+02  0.23243959386E+03  0.00000000000E+00 0. -1.
<scales pt_clust_5="13000.00000" pt_clust_6="13000.00000" pt_clust_7="13000.00000" pt_clust_8="13000.00000" pt_clust_9="231.91413"></scales>
<clustering>
<clus scale="   80.696">  5  6 -1 -1</clus>
<clus scale="   91.267">  7  8 -1 -1</clus>
<clus scale="  231.914">  2  9  1 -1</clus>
<clus scale="  238.842">  1  5  2 -1</clus>
<clus scale="  238.842">  1  5  2 -1</clus>
</clustering>
</event>
<event>
 9    2  0.3402837E-005  0.9765508E+02  0.7546771E-02  0.1292947E+00
         -1   -1    0    0    0  501 -0.00000000000E+00  0.00000000000E+00  0.30773050355E+03  0.30773050355E+03  0.00000000000E+00 0.  1.
          2   -1    0    0  502    0  0.00000000000E+00 -0.00000000000E+00 -0.31135357022E+03  0.31135357022E+03  0.00000000000E+00 0. -1.
         24    2    1    2    0    0  0.57550050811E+01  0.67717172551E+00  0.24110788542E+03  0.25346356906E+03  0.77956332519E+02 0.  0.
         23    2    1    2    0    0  0.24601263560E+02  0.23655268866E+02 -0.28988031302E+03  0.30602154915E+03  0.91944541739E+02 0.  0.
        -11    1    3    3    0    0  0.41924878646E+02  0.12202603926E+01  0.12471157536E+03  0.13157568740E+03  0.00000000000E+00 0.  1.
         12    1    3    3    0    0 -0.36169873565E+02 -0.54308866713E+00  0.11639631006E+03  0.12188788166E+03  0.00000000000E+00 0. -1.
        -11    1    4    4    0    0  0.23960013120E+02 -0.30660888446E+02 -0.76399597759E+02  0.85738386075E+02  0.00000000000E+00 0.  1.
         11    1    4    4    0    0  0.64125044037E+00  0.54316157312E+02 -0.21348071526E+03  0.22028316308E+03  0.00000000000E+00 0. -1.
         21    1    1    2  502  501 -0.30356268641E+02 -0.24332440592E+02  0.45149360930E+02  0.59598955556E+02  0.00000000000E+00 0. -1.
<scales pt_clust_5="13000.00000" pt_clust_6="13000.00000" pt_clust_7="13000.00000" pt_clust_8="13000.00000" pt_clust_9="38.90464"></scales>
<clustering>
<clus scale="   38.905">  1  9  2 -1</clus>
<clus scale="   77.956">  5  6 -1 -1</clus>
<clus scale="   84.616">  1  5  2 -1</clus>
<clus scale="   91.945">  7  8 -1 -1</clus>
<clus scale="   97.655">  2  5  1 -1</clus>
</clustering>
</event>
<event>
 9    2  0.3402837E-005  0.1089347E+03  0.7546771E-02  0.1266876E+00
          2   -1    0    0  502    0  0.00000000000E+00  0.00000000000E+00  0.11377315367E+04  0.11377315367E+04  0.00000000000E+00 0. -1.
         -1   -1    0    0    0  501 -0.00000000000E+00 -0.00000000000E+00 -0.27377200744E+02  0.27377200744E+02  0.00000000000E+00 0.  1.
         23    2    1    2    0    0 -0.72089258829E+02 -0.32069320419E+02  0.55321253120E+03  0.56614991046E+03  0.90864260793E+02 0.  0.
         24    2    1    2    0    0  0.46117091439E+02  0.16058414021E+02  0.56047034539E+03  0.56826710516E+03  0.80098913641E+02 0.  0.
        -11    1    4    4    0    0  0.65386761675E+02  0.50553284349E+01  0.31258812142E+03  0.31939367339E+03  0.00000000000E+00 0.  1.
         12    1    4    4    0    0 -0.19269670235E+02  0.11003085586E+02  0.24788222397E+03  0.24887343177E+03  0.00000000000E+00 0. -1.
        -13    1    3    3    0    0 -0.51164731277E+02  0.24700893639E+02  0.20534345106E+03  0.21305843510E+03  0.00000000000E+00 0.  1.
         13    1    3    3    0    0 -0.20924527551E+02 -0.56770214059E+02  0.34786908014E+03  0.35309147536E+03  0.00000000000E+00 0. -1.
         21    1    1    2  502  501  0.25972167390E+02  0.16010906399E+02 -0.33285406749E+01  0.30691721777E+02  0.00000000000E+00 0.  1.
<scales pt_clust_5="13000.00000" pt_clust_6="13000.00000" pt_clust_7="13000.00000" pt_clust_8="13000.00000" pt_clust_9="30.51070"></scales>
<clustering>
<clus scale="   30.511">  2  9  1 -1</clus>
<clus scale="   80.099">  5  6 -1 -1</clus>
<clus scale="   90.864">  7  8 -1 -1</clus>
<clus scale="  100.131">  1  5  2 -1</clus>
<clus scale="  100.131">  1  5  2 -1</clus>
</clustering>
</event>
<event>
 9    2  0.3402837E-005  0.8806159E+02  0.7546771E-02  0.1308675E+00
         -1   -1    0    0    0  501 -0.00000000000E+00  0.00000000000E+00  0.11242498835E+03  0.11242498835E+03  0.00000000000E+00 0.  1.
          2   -1    0    0  502    0  0.00000000000E+00 -0.00000000000E+00 -0.14390133176E+03  0.14390133176E+03  0.00000000000E+00 0. -1.
         23    2    1    2    0    0 -0.88090082073E+00  0.44718294544E+01  0.58017287832E+02  0.10412855735E+03  0.86348002434E+02 0.  0.
         24    2    1    2    0    0  0.55684510217E+00  0.22026913124E+02 -0.90271463639E+02  0.12568562604E+03  0.84631226311E+02 0.  0.
        -11    1    4    4    0    0 -0.18718074421E+02  0.37197913675E+02 -0.11525214952E+02  0.43207426115E+02  0.00000000000E+00 0.  1.
         12    1    4    4    0    0  0.19274919523E+02 -0.15171000551E+02 -0.78746248686E+02  0.82478199923E+02  0.00000000000E+00 0. -1.
        -11    1    3    3    0    0  0.26445820538E+02  0.22263477487E+02 -0.32523540424E+01  0.34722063023E+02  0.00000000000E+00 0. -1.
         11    1    3    3    0    0 -0.27326721358E+02 -0.17791648033E+02  0.61269641874E+02  0.69406494331E+02  0.00000000000E+00 0.  1.
         21    1    1    2  502  501  0.32405571856E+00 -0.26498742578E+02  0.77783239273E+00  0.26512136722E+02  0.00000000000E+00 0.  1.
<scales pt_clust_5="13000.00000" pt_clust_6="13000.00000" pt_clust_7="13000.00000" pt_clust_8="13000.00000" pt_clust_9="26.50072"></scales>
<clustering>
<clus scale="   26.501">  1  9  2 -1</clus>
<clus scale="   84.631">  5  6 -1 -1</clus>
<clus scale="   86.348">  7  8 -1 -1</clus>
<clus scale="   86.379">  2  5  1 -1</clus>
<clus scale="   86.379">  2  5  1 -1</clus>
</clustering>
</event>
<event>
 9    2  0.3402837E-005  0.1071555E+03  0.7546771E-02  0.1266952E+00
         -1   -1    0    0    0  501 -0.00000000000E+00  0.00000000000E+00  0.65864945916E+02  0.65864945916E+02  0.00000000000E+00 0.  1.
          2   -1    0    0  502    0  0.00000000000E+00 -0.00000000000E+00 -0.31011368880E+03  0.31011368880E+03  0.00000000000E+00 0. -1.
         23    2    1    2    0    0  0.15500389840E+02 -0.33726331597E+02 -0.13973731508E+02  0.99547213039E+02  0.91305284203E+02 0.  0.
         24    2    1    2    0    0 -0.88497262909E+01  0.55901058458E+02 -0.22830105339E+03  0.25319682792E+03  0.93723085186E+02 0.  0.
        -11    1    4    4    0    0 -0.26968307810E+02 -0.76584366596E+01 -0.14067164309E+03  0.14343797422E+03  0.00000000000E+00 0.  1.
         12    1    4    4    0    0  0.18118581520E+02  0.63559495118E+02 -0.87629410297E+02  0.10975885370E+03  0.00000000000E+00 0. -1.
        -11    1    3    3    0    0  0.91671404642E+01 -0.65460145619E+02 -0.11513851329E+02  0.67094231504E+02  0.00000000000E+00 0.  1.
         11    1    3    3    0    0  0.63332493760E+01  0.31733814022E+02 -0.24598801786E+01  0.32452981535E+02  0.00000000000E+00 0. -1.
         21    1    1    2  502  501 -0.66506635493E+01 -0.22174726861E+02 -0.19739579879E+01  0.23234593759E+02  0.00000000000E+00 0.  1.
<scales pt_clust_5="13000.00000" pt_clust_6="13000.00000" pt_clust_7="13000.00000" pt_clust_8="13000.00000" pt_clust_9="23.15059"></scales>
<clustering>
<clus scale="   23.151">  1  9  2 -1</clus>
<clus scale="   91.305">  7  8 -1 -1</clus>
<clus scale="   93.723">  5  6 -1 -1</clus>
<clus scale="  105.047">  1  7  2 -1</clus>
<clus scale="  107.155">  2  5  1 -1</clus>
</clustering>
</event>
<event>
 9    2  0.3402837E-005  0.1424311E+03  0.7546771E-02  0.1212222E+00
         -1   -1    0    0    0  501 -0.00000000000E+00  0.00000000000E+00  0.19415664097E+03  0.19415664097E+03  0.00000000000E+00 0.  1.
          2   -1    0    0  502    0  0.00000000000E+00 -0.00000000000E+00 -0.29466444901E+03  0.29466444901E+03  0.00000000000E+00 0. -1.
         23    2    1    2    0    0 -0.13762157085E+03  0.47211272747E+02  0.73872803385E+02  0.18669290254E+03  0.90710791749E+02 0.  0.
         24    2    1    2    0    0  0.10544189297E+03  0.67186250289E+01 -0.19509564358E+03  0.23599893446E+03  0.80436647166E+02 0.  0.
        -13    1    4    4    0    0  0.10615936110E+03  0.23704859069E+02 -0.13405006280E+03  0.17263009479E+03  0.00000000000E+00 0.  1.
         14    1    4    4    0    0 -0.71746813144E+00 -0.16986234040E+02 -0.61045580789E+02  0.63368839671E+02  0.00000000000E+00 0. -1.
        -11    1    3    3    0    0 -0.10320869660E+03 -0.10057329836E+02  0.35278691979E+02  0.10953433729E+03  0.00000000000E+00 0. -1.
         11    1    3    3    0    0 -0.34412874251E+02  0.57268602583E+02  0.38594111406E+02  0.77158565249E+02  0.00000000000E+00 0.  1.
         21    1    1    2  502  501  0.32179677882E+02 -0.53929897776E+02  0.20715032157E+02  0.66129252982E+02  0.00000000000E+00 0.  1.
<scales pt_clust_5="13000.00000" pt_clust_6="13000.00000" pt_clust_7="13000.00000" pt_clust_8="13000.00000" pt_clust_9="62.80100"></scales>
<clustering>
<clus scale="   62.801">  1  9  2 -1</clus>
<clus scale="   80.437">  5  6 -1 -1</clus>
<clus scale="   90.711">  7  8 -1 -1</clus>
<clus scale="  136.118">  2  5  1 -1</clus>
<clus scale="  136.118">  2  5  1 -1</clus>
</clustering>
</event>
<event>
 9    2  0.3402837E-005  0.1769698E+03  0.7546771E-02  0.1200213E+00
         -1   -1    0    0    0  501 -0.00000000000E+00  0.00000000000E+00  0.77012682612E+03  0.77012682612E+03  0.00000000000E+00 0.  1.
          2   -1    0    0  502    0  0.00000000000E+00 -0.00000000000E+00 -0.13073672721E+03  0.13073672721E+03  0.00000000000E+00 0. -1.
         23    2    1    2    0    0 -0.15209196645E+03 -0.31470678954E+02  0.15528470966E+03  0.23808205985E+03  0.91909500464E+02 0.  0.
         24    2    1    2    0    0  0.11917651109E+01  0.45997885964E+02 -0.52067186897E+02  0.10558947818E+03  0.79504214569E+02 0.  0.
        -11    1    4    4    0    0  0.27004770948E+02  0.14988849565E+02  0.92033474765E+01  0.32227703456E+02  0.00000000000E+00 0.  1.
         12    1    4    4    0    0 -0.25813005837E+02  0.31009036398E+02 -0.61270534373E+02  0.73361774727E+02  0.00000000000E+00 0. -1.
        -11    1    3    3    0    0 -0.10670515362E+03  0.14280671302E+02  0.60581876360E+02  0.12353174137E+03  0.00000000000E+00 0.  1.
         11    1    3    3    0    0 -0.45386812829E+02 -0.45751350257E+02  0.94702833305E+02  0.11455031849E+03  0.00000000000E+00 0. -1.
         21    1    1    2  502  501  0.15090020134E+03 -0.14527207009E+02  0.53617257614E+03  0.55719201530E+03  0.00000000000E+00 0.  1.
<scales pt_clust_5="13000.00000" pt_clust_6="13000.00000" pt_clust_7="13000.00000" pt_clust_8="13000.00000" pt_clust_9="151.23141"></scales>
<clustering>
<clus scale="   79.504">  5  6 -1 -1</clus>
<clus scale="   91.859">  2  5  1 -1</clus>
<clus scale="   91.910">  7  8 -1 -1</clus>
<clus scale="  151.231">  1  9  2 -1</clus>
<clus scale="   91.859">  2  5  1 -1</clus>
</clustering>
</event>
<event>
 9    2  0.3402837E-005  0.1126659E+03  0.7546771E-02  0.1263500E+00
         -1   -1    0    0    0  501 -0.00000000000E+00  0.00000000000E+00  0.38951748578E+02  0.38951748578E+02  0.00000000000E+00 0.  1.
          2   -1    0    0  502    0  0.00000000000E+00 -0.00000000000E+00 -0.64231685847E+03  0.64231685847E+03  0.00000000000E+00 0. -1.
         24    2    1    2    0    0 -0.37471621879E+02 -0.56730265265E+02 -0.12183823701E+03  0.16125153814E+03  0.80839700099E+02 0.  0.
         23    2    1    2    0    0 -0.20621263906E+02 -0.23335852713E+02 -0.21523063276E+03  0.23594127949E+03  0.91511002313E+02 0.  0.
        -11    1    3    3    0    0 -0.33825583397E+02 -0.74242735402E+02 -0.73878507275E+02  0.11006447060E+03  0.00000000000E+00 0.  1.
         12    1    3    3    0    0 -0.36460384823E+01  0.17512470137E+02 -0.47959729732E+02  0.51187067536E+02  0.00000000000E+00 0. -1.
        -13    1    4    4    0    0  0.91675168108E+01 -0.47036607028E+02 -0.17098591141E+03  0.17757440037E+03  0.00000000000E+00 0.  1.
         13    1    4    4    0    0 -0.29788780717E+02  0.23700754315E+02 -0.44244721349E+02  0.58366879126E+02  0.00000000000E+00 0. -1.
         21    1    1    2  502  501  0.58092885785E+02  0.80066117979E+02 -0.26629624012E+03  0.28407578941E+03  0.00000000000E+00 0. -1.
<scales pt_clust_5="13000.00000" pt_clust_6="13000.00000" pt_clust_7="13000.00000" pt_clust_8="13000.00000" pt_clust_9="78.47639"></scales>
<clustering>
<clus scale="   80.840">  5  6 -1 -1</clus>
<clus scale="   91.511">  7  8 -1 -1</clus>
<clus scale="   96.665">  2  7  1 -1</clus>
<clus scale="   78.476">  2  9  1 -1</clus>
<clus scale="   96.665">  2  5  1 -1</clus>
</clustering>
</event>
<event>
 9    2  0.3402837E-005  0.1041504E+03  0.7546771E-02  0.1285412E+00
          2   -1    0    0  502    0  0.00000000000E+00  0.00000000000E+00  0.44479843492E+03  0.44479843492E+03  0.00000000000E+00 0. -1.
         -1   -1    0    0    0  501 -0.00000000000E+00 -0.00000000000E+00 -0.44078002541E+02  0.44078002541E+02  0.00000000000E+00 0.  1.
         23    2    1    2    0    0 -0.68539665172E+02 -0.36645579559E+02  0.11707924117E+03  0.16972927257E+03  0.95183470473E+02 0.  0.
         24    2    1    2    0    0  0.33300324500E+02  0.10456801547E+02  0.25604314804E+03  0.26728855701E+03  0.68314147432E+02 0.  0.
        -13    1    4    4    0    0  0.51385049364E+02  0.27362371289E+01  0.22279958755E+03  0.22866474696E+03  0.00000000000E+00 0.  1.
         14    1    4    4    0    0 -0.18084724864E+02  0.77205644184E+01  0.33243560495E+02  0.38623810050E+02  0.00000000000E+00 0. -1.
        -13    1    3    3    0    0 -0.32205788047E+02  0.14714214666E+02  0.97671186976E+02  0.10389120108E+03  0.00000000000E+00 0. -1.
         13    1    3    3    0    0 -0.36333877126E+02 -0.51359794225E+02  0.19408054194E+02  0.65838071489E+02  0.00000000000E+00 0.  1.
         21    1    1    2  502  501  0.35239340672E+02  0.26188778011E+02  0.27598043170E+02  0.51858607883E+02  0.00000000000E+00 0.  1.
<scales pt_clust_5="13000.00000" pt_clust_6="13000.00000" pt_clust_7="13000.00000" pt_clust_8="13000.00000" pt_clust_9="43.90516"></scales>
<clustering>
<clus scale="   43.905">  2  9  1 -1</clus>
<clus scale="   68.314">  5  6 -1 -1</clus>
<clus scale="   80.338">  1  5  2 -1</clus>
<clus scale="   95.183">  7  8 -1 -1</clus>
<clus scale="   80.338">  1  5  2 -1</clus>
</clustering>
</event>
<event>
 9    2  0.3402837E-005  0.1813618E+03  0.7546771E-02  0.1197686E+00
         -1   -1    0    0    0  501 -0.00000000000E+00  0.00000000000E+00  0.67633157219E+02  0.67633157219E+02  0.00000000000E+00 0.  1.
          2   -1    0    0  502    0  0.00000000000E+00 -0.00000000000E+00 -0.80107436824E+03  0.80107436824E+03  0.00000000000E+00 0. -1.
         23    2    1    2    0    0 -0.64012717706E+02 -0.12864157672E+03 -0.16033669590E+03  0.23419605466E+03  0.92161014949E+02 0.  0.
         24    2    1    2    0    0 -0.35734090599E+02 -0.21815464238E+02 -0.22473933482E+03  0.24215315779E+03  0.79859523543E+02 0.  0.
        -13    1    4    4    0    0 -0.54888568825E+02 -0.23036267857E+02 -0.10344334699E+03  0.11934802328E+03  0.00000000000E+00 0.  1.
         14    1    4    4    0    0  0.19154478226E+02  0.12208036200E+01 -0.12129598784E+03  0.12280513451E+03  0.00000000000E+00 0. -1.
        -13    1    3    3    0    0 -0.16288001851E+01 -0.21115601175E+02 -0.87693803019E+02  0.90214880651E+02  0.00000000000E+00 0. -1.
         13    1    3    3    0    0 -0.62383917521E+02 -0.10752597555E+03 -0.72642892881E+02  0.14398117401E+03  0.00000000000E+00 0.  1.
         21    1    1    2  502  501  0.99746808305E+02  0.15045704096E+03 -0.34836518030E+03  0.39235831301E+03  0.00000000000E+00 0. -1.
<scales pt_clust_5="13000.00000" pt_clust_6="13000.00000" pt_clust_7="13000.00000" pt_clust_8="13000.00000" pt_clust_9="156.20007"></scales>
<clustering>
<clus scale="   79.860">  5  6 -1 -1</clus>
<clus scale="   90.169">  2  5  1 -1</clus>
<clus scale="   92.161">  7  8 -1 -1</clus>
<clus scale="  156.200">  2  9  1 -1</clus>
<clus scale="   90.169">  2  5  1 -1</clus>
</clustering>
</event>
<event>
 9    2  0.3402837E-005  0.9605473E+02  0.7546771E-02  0.1295068E+00
         -1   -1    0    0    0  501 -0.00000000000E+00  0.00000000000E+00  0.95927722500E+02  0.95927722500E+02  0.00000000000E+00 0.  1.
          2   -1    0    0  502    0  0.00000000000E+00 -0.00000000000E+00 -0.21842705506E+03  0.21842705506E+03  0.00000000000E+00 0. -1.
         23    2    1    2    0    0  0.24578654606E+02 -0.63822923401E+01 -0.20785309456E+02  0.96106430398E+02  0.90330354571E+02 0.  0.
         24    2    1    2    0    0 -0.33205043794E+02 -0.15167709905E+02 -0.14501493534E+03  0.16911804910E+03  0.78987016050E+02 0.  0.
        -11    1    4    4    0    0 -0.29460805278E+02 -0.17472491065E+02 -0.12396334511E+02  0.36426585085E+02  0.00000000000E+00 0.  1.
         12    1    4    4    0    0 -0.37442385157E+01  0.23047811605E+01 -0.13261860082E+03  0.13269146402E+03  0.00000000000E+00 0. -1.
        -13    1    3    3    0    0  0.32683541199E+02  0.36379363079E+02 -0.27113343793E+01  0.48979825004E+02  0.00000000000E+00 0.  1.
         13    1    3    3    0    0 -0.81048865924E+01 -0.42761655419E+02 -0.18073975077E+02  0.47126605394E+02  0.00000000000E+00 0. -1.
         21    1    1    2  502  501  0.86263891879E+01  0.21550002245E+02  0.43300912232E+02  0.49130298058E+02  0.00000000000E+00 0.  1.
<scales pt_clust_5="13000.00000" pt_clust_6="13000.00000" pt_clust_7="13000.00000" pt_clust_8="13000.00000" pt_clust_9="23.21244"></scales>
<clustering>
<clus scale="   23.212">  1  9  2 -1</clus>
<clus scale="   78.987">  5  6 -1 -1</clus>
<clus scale="   85.474">  2  5  1 -1</clus>
<clus scale="   90.330">  7  8 -1 -1</clus>
<clus scale="   85.474">  2  5  1 -1</clus>
</clustering>
</event>
<event>
 9    2  0.3402837E-005  0.9472834E+02  0.7546771E-02  0.1300845E+00
         -1   -1    0    0    0  501 -0.00000000000E+00  0.00000000000E+00  0.73964586064E+02  0.73964586064E+02  0.00000000000E+00 0.  1.
          2   -1    0    0  502    0  0.00000000000E+00 -0.00000000000E+00 -0.51364977447E+03  0.51364977447E+03  0.00000000000E+00 0. -1.
         24    2    1    2    0    0 -0.20506930711E+02 -0.25561551202E+02  0.22990545608E+02  0.89198370243E+02  0.79711084296E+02 0.  0.
         23    2    1    2    0    0 -0.24982801134E+01  0.61663977363E+01 -0.45834605114E+03  0.46801602554E+03  0.94412031551E+02 0.  0.
        -13    1    3    3    0    0 -0.40826049547E+02 -0.42933905305E+02  0.12971662008E+02  0.60649406936E+02  0.00000000000E+00 0.  1.
         14    1    3    3    0    0  0.20319118836E+02  0.17372354103E+02  0.10018883600E+02  0.28548963307E+02  0.00000000000E+00 0. -1.
        -13    1    4    4    0    0 -0.38946479083E+02 -0.24931330896E+02 -0.20133821696E+03  0.20658043737E+03  0.00000000000E+00 0.  1.
         13    1    4    4    0    0  0.36448198970E+02  0.31097728633E+02 -0.25700783418E+03  0.26143558817E+03  0.00000000000E+00 0. -1.
         21    1    1    2  502  501  0.23005210825E+02  0.19395153466E+02 -0.43296828720E+01  0.30399964750E+02  0.00000000000E+00 0.  1.
<scales pt_clust_5="13000.00000" pt_clust_6="13000.00000" pt_clust_7="13000.00000" pt_clust_8="13000.00000" pt_clust_9="30.09006"></scales>
<clustering>
<clus scale="   30.090">  1  9  2 -1</clus>
<clus scale="   79.711">  5  6 -1 -1</clus>
<clus scale="   80.085">  1  5  2 -1</clus>
<clus scale="   94.412">  7  8 -1 -1</clus>
<clus scale="   94.728">  2  5  1 -1</clus>
</clustering>
</event>
<event>
 9    2  0.3402837E-005  0.9341448E+02  0.7546771E-02  0.1301784E+00
          2   -1    0    0  502    0  0.00000000000E+00  0.00000000000E+00  0.69989604994E+03  0.69989604994E+03  0.00000000000E+00 0. -1.
         -1   -1    0    0    0  501 -0.00000000000E+00 -0.00000000000E+00 -0.27375796385E+02  0.27375796385E+02  0.00000000000E+00 0.  1.
         24    2    1    2    0    0 -0.35977339434E+02  0.33002854032E+02  0.14355334994E+03  0.17162281273E+03  0.80394454065E+02 0.  0.
         23    2    1    2    0    0  0.39916314480E+01  0.27690778279E+02  0.37447538232E+03  0.38660929663E+03  0.91935977495E+02 0.  0.
        -11    1    3    3    0    0 -0.18418678857E+02  0.59158174342E+02  0.10399589263E+03  0.12105404994E+03  0.00000000000E+00 0.  1.
         12    1    3    3    0    0 -0.17558660577E+02 -0.26155320310E+02  0.39557457305E+02  0.50568762791E+02  0.00000000000E+00 0. -1.
        -11    1    4    4    0    0 -0.57174295701E+01 -0.33570529798E+02  0.13640037029E+03  0.14058709218E+03  0.00000000000E+00 0. -1.
         11    1    4    4    0    0  0.97090610181E+01  0.61261308076E+02  0.23807501203E+03  0.24602220445E+03  0.00000000000E+00 0.  1.
         21    1    1    2  502  501  0.31985707986E+02 -0.60693632311E+02  0.15449152129E+03  0.16903973695E+03  0.00000000000E+00 0. -1.
<scales pt_clust_5="13000.00000" pt_clust_6="13000.00000" pt_clust_7="13000.00000" pt_clust_8="13000.00000" pt_clust_9="68.60614"></scales>
<clustering>
<clus scale="   68.606">  2  9  1 -1</clus>
<clus scale="   80.394">  5  6 -1 -1</clus>
<clus scale="   82.081">  2  5  1 -1</clus>
<clus scale="   91.936">  7  8 -1 -1</clus>
<clus scale="   93.414">  1  5  2 -1</clus>
</clustering>
</event>
<event>
 9    2  0.3402837E-005  0.1295762E+03  0.7546771E-02  0.1230369E+00
          2   -1    0    0  502    0  0.00000000000E+00  0.00000000000E+00  0.64763189316E+03  0.64763189316E+03  0.00000000000E+00 0. -1.
         -1   -1    0    0    0  501 -0.00000000000E+00 -0.00000000000E+00 -0.76096271739E+02  0.76096271739E+02  0.00000000000E+00 0.  1.
         23    2    1    2    0    0 -0.93255715659E+01  0.12754591984E+03  0.10499629523E+03  0.18802755606E+03  0.89304041741E+02 0.  0.
         24    2    1    2    0    0  0.55665450216E+02 -0.71459263913E+02  0.44296460162E+03  0.45922273645E+03  0.80391632899E+02 0.  0.
        -11    1    4    4    0    0 -0.52793235754E+01 -0.46112019087E+02  0.10393227050E+03  0.11382489365E+03  0.00000000000E+00 0.  1.
         12    1    4    4    0    0  0.60944773792E+02 -0.25347244825E+02  0.33903233111E+03  0.34539784280E+03  0.00000000000E+00 0. -1.
        -11    1    3    3    0    0 -0.43423335844E+02  0.78094144874E+02  0.35445356160E+02  0.96128324820E+02  0.00000000000E+00 0.  1.
         11    1    3    3    0    0  0.34097764278E+02  0.49451774970E+02  0.69550939074E+02  0.91899231240E+02  0.00000000000E+00 0. -1.
         21    1    1    2  502  501 -0.46339878650E+02 -0.56086655931E+02  0.23574724572E+02  0.76477872391E+02  0.00000000000E+00 0.  1.
<scales pt_clust_5="13000.00000" pt_clust_6="13000.00000" pt_clust_7="13000.00000" pt_clust_8="13000.00000" pt_clust_9="72.75368"></scales>
<clustering>
<clus scale="   72.754">  2  9  1 -1</clus>
<clus scale="   80.392">  5  6 -1 -1</clus>
<clus scale="   89.304">  7  8 -1 -1</clus>
<clus scale="  123.603">  1  5  2 -1</clus>
<clus scale="  123.603">  1  5  2 -1</clus>
</clustering>
</event>
<event>
 9    2  0.3402837E-005  0.1070462E+03  0.7546771E-02  0.1271705E+00
          2   -1    0    0  502    0  0.00000000000E+00  0.00000000000E+00  0.16457220381E+03  0.16457220381E+03  0.00000000000E+00 0. -1.
         -1   -1    0    0    0  501 -0.00000000000E+00 -0.00000000000E+00 -0.20405157406E+03  0.20405157406E+03  0.00000000000E+00 0.  1.
         23    2    1    2    0    0 -0.28266945735E+02 -0.38652523555E+01 -0.15630801724E+03  0.18450255335E+03  0.93781850808E+02 0.  0.
         24    2    1    2    0    0  0.53810451940E+02 -0.41840659747E+01  0.12274865593E+03  0.15669297740E+03  0.81070250316E+02 0.  0.
        -11    1    4    4    0    0 -0.11381366206E+02 -0.17010289543E+02  0.43470828535E+01  0.20923254441E+02  0.00000000000E+00 0.  1.
         12    1    4    4    0    0  0.65191818146E+02  0.12826223569E+02  0.11840157308E+03  0.13576972296E+03  0.00000000000E+00 0. -1.
        -11    1    3    3    0    0  0.20679935165E+02 -0.23323796415E+00 -0.12049701666E-01  0.20681253916E+02  0.00000000000E+00 0. -1.
         11    1    3    3    0    0 -0.48946880900E+02 -0.36320143914E+01 -0.15629596754E+03  0.16382129943E+03  0.00000000000E+00 0.  1.
         21    1    1    2  502  501 -0.25543506205E+02  0.80493183302E+01 -0.59200089399E+01  0.27428247131E+02  0.00000000000E+00 0.  1.
<scales pt_clust_5="13000.00000" pt_clust_6="13000.00000" pt_clust_7="13000.00000" pt_clust_8="13000.00000" pt_clust_9="26.78175"></scales>
<clustering>
<clus scale="   26.782">  2  9  1 -1</clus>
<clus scale="   81.070">  5  6 -1 -1</clus>
<clus scale="   93.782">  7  8 -1 -1</clus>
<clus scale="   96.105">  1  5  2 -1</clus>
<clus scale="   96.105">  1  5  2 -1</clus>
</clustering>
</event>
<event>
 9    2  0.3402837E-005  0.9343635E+02  0.7546771E-02  0.1303548E+00
          2   -1    0    0  502    0  0.00000000000E+00  0.00000000000E+00  0.11656914233E+04  0.11656914233E+04  0.00000000000E+00 0. -1.
         -1   -1    0    0    0  501 -0.00000000000E+00 -0.00000000000E+00 -0.10944996754E+02  0.10944996754E+02  0.00000000000E+00 0.  1.
         23    2    1    2    0    0  0.18059244994E+02 -0.11480784356E+02  0.30134895097E+03  0.31543372729E+03  0.90715496583E+02 0.  0.
         24    2    1    2    0    0  0.21282829475E+01  0.25431822307E+02  0.77244029908E+03  0.77660817657E+03  0.76190137782E+02 0.  0.
        -13    1    4    4    0    0 -0.54107519741E-02 -0.24121748722E+02  0.12738188611E+03  0.12964568523E+03  0.00000000000E+00 0.  1.
         14    1    4    4    0    0  0.21336936995E+01  0.49553571029E+02  0.64505841297E+03  0.64696249134E+03  0.00000000000E+00 0. -1.
        -13    1    3    3    0    0 -0.21697860445E+02  0.12076407514E+02  0.24961557276E+02  0.35209602497E+02  0.00000000000E+00 0. -1.
         13    1    3    3    0    0  0.39757105438E+02 -0.23557191870E+02  0.27638739369E+03  0.28022412479E+03  0.00000000000E+00 0.  1.
         21    1    1    2  502  501 -0.20187527941E+02 -0.13951037951E+02  0.80957176451E+02  0.84594516153E+02  0.00000000000E+00 0.  1.
<scales pt_clust_5="13000.00000" pt_clust_6="13000.00000" pt_clust_7="13000.00000" pt_clust_8="13000.00000" pt_clust_9="24.53911"></scales>
<clustering>
<clus scale="   24.539">  2  9  1 -1</clus>
<clus scale="   76.190">  5  6 -1 -1</clus>
<clus scale="   79.410">  1  5  2 -1</clus>
<clus scale="   90.715">  7  8 -1 -1</clus>
<clus scale="   79.410">  1  5  2 -1</clus>
</clustering>
</event>
<event>
 9    2  0.3402837E-005  0.1038960E+03  0.7546771E-02  0.1274559E+00
         -1   -1    0    0    0  501 -0.00000000000E+00  0.00000000000E+00  0.14615607207E+03  0.14615607207E+03  0.00000000000E+00 0.  1.
          2   -1    0    0  502    0  0.00000000000E+00 -0.00000000000E+00 -0.35766959814E+03  0.35766959814E+03  0.00000000000E+00 0. -1.
         23    2    1    2    0    0  0.19356085647E+02  0.20748266765E+02  0.50970183575E+02  0.10404074029E+03  0.86147358644E+02 0.  0.
         24    2    1    2    0    0 -0.30229323287E+02  0.58423300274E+02 -0.29549297478E+03  0.31332120394E+03  0.80789756141E+02 0.  0.
        -13    1    4    4    0    0 -0.49100290377E+02  0.11791102295E+02 -0.10842210460E+03  0.11960443710E+03  0.00000000000E+00 0.  1.
         14    1    4    4    0    0  0.18870967090E+02  0.46632197979E+02 -0.18707087018E+03  0.19371676684E+03  0.00000000000E+00 0. -1.
        -13    1    3    3    0    0  0.51713909661E+02  0.22352999557E+02  0.21680080976E+02  0.60365643812E+02  0.00000000000E+00 0.  1.
         13    1    3    3    0    0 -0.32357824014E+02 -0.16047327922E+01  0.29290102598E+02  0.43675096479E+02  0.00000000000E+00 0. -1.
         21    1    1    2  502  501  0.10873237640E+02 -0.79171567039E+02  0.33009265138E+02  0.86463725973E+02  0.00000000000E+00 0.  1.
<scales pt_clust_5="13000.00000" pt_clust_6="13000.00000" pt_clust_7="13000.00000" pt_clust_8="13000.00000" pt_clust_9="79.91473"></scales>
<clustering>
<clus scale="   79.915">  1  9  2 -1</clus>
<clus scale="   80.790">  5  6 -1 -1</clus>
<clus scale="   86.147">  7  8 -1 -1</clus>
<clus scale="   99.499">  2  5  1 -1</clus>
<clus scale="   99.499">  2  5  1 -1</clus>
</clustering>
</event>
<event>
 9    2  0.3402837E-005  0.1161701E+03  0.7546771E-02  0.1253238E+00
         -1   -1    0    0    0  501 -0.00000000000E+00  0.00000000000E+00  0.96074346693E+02  0.96074346693E+02  0.00000000000E+00 0.  1.
          2   -1    0    0  502    0  0.00000000000E+00 -0.00000000000E+00 -0.28497409102E+03  0.28497409102E+03  0.00000000000E+00 0. -1.
         24    2    1    2    0    0 -0.26153981228E+02  0.51847454301E+02  0.27028050800E+02  0.10315672069E+03  0.80861636400E+02 0.  0.
         23    2    1    2    0    0  0.62582934136E+02 -0.43512051260E+02 -0.20798200547E+03  0.23968591737E+03  0.91558189908E+02 0.  0.
        -13    1    3    3    0    0 -0.28193748482E+02  0.40407086994E+02  0.54414476392E+02  0.73406780162E+02  0.00000000000E+00 0.  1.
         14    1    3    3    0    0  0.20397672541E+01  0.11440367307E+02 -0.27386425591E+02  0.29749940525E+02  0.00000000000E+00 0. -1.
        -11    1    4    4    0    0  0.23906709866E+02 -0.17358596344E+01  0.86113152024E-01  0.23969801851E+02  0.00000000000E+00 0.  1.
         11    1    4    4    0    0  0.38676224270E+02 -0.41776191625E+02 -0.20806811862E+03  0.21571611552E+03  0.00000000000E+00 0. -1.
         21    1    1    2  502  501 -0.36428952908E+02 -0.83354030412E+01 -0.79457896616E+01  0.38205799654E+02  0.00000000000E+00 0. -1.
<scales pt_clust_5="13000.00000" pt_clust_6="13000.00000" pt_clust_7="13000.00000" pt_clust_8="13000.00000" pt_clust_9="37.37041"></scales>
<clustering>
<clus scale="   37.370">  1  9  2 -1</clus>
<clus scale="   80.862">  5  6 -1 -1</clus>
<clus scale="   91.558">  7  8 -1 -1</clus>
<clus scale="  107.941">  1  5  2 -1</clus>
<clus scale="  116.170">  2  5  1 -1</clus>
</clustering>
</event>
<event>
 9    2  0.3402837E-005  0.9458104E+02  0.7546771E-02  0.1298989E+00
          2   -1    0    0  502    0  0.00000000000E+00  0.00000000000E+00  0.38609407582E+03  0.38609407582E+03  0.00000000000E+00 0. -1.
         -1   -1    0    0    0  501 -0.00000000000E+00 -0.00000000000E+00 -0.95191633018E+02  0.95191633018E+02  0.00000000000E+00 0.  1.
         23    2    1    2    0    0 -0.70720528116E+01 -0.43288379610E+02  0.53017392456E+02  0.11464911142E+03  0.91704291647E+02 0.  0.
         24    2    1    2    0    0  0.17757824775E+02  0.11683508001E+02  0.29175943443E+03  0.30326860161E+03  0.79977699663E+02 0.  0.
        -11    1    4    4    0    0  0.23652885931E+02 -0.16195659329E+02  0.36440961519E+02  0.46364879709E+02  0.00000000000E+00 0.  1.
         12    1    4    4    0    0 -0.58950611559E+01  0.27879167330E+02  0.25531847291E+03  0.25690372190E+03  0.00000000000E+00 0. -1.
        -13    1    3    3    0    0  0.32087399121E+01  0.26454750674E+02  0.30813107300E+02  0.40738156887E+02  0.00000000000E+00 0. -1.
         13    1    3    3    0    0 -0.10280792724E+02 -0.69743130284E+02  0.22204285156E+02  0.73910954534E+02  0.00000000000E+00 0.  1.
         21    1    1    2  502  501 -0.10685771963E+02  0.31604871609E+02 -0.53874384086E+02  0.63367995806E+02  0.00000000000E+00 0.  1.
<scales pt_clust_5="13000.00000" pt_clust_6="13000.00000" pt_clust_7="13000.00000" pt_clust_8="13000.00000" pt_clust_9="33.36246"></scales>
<clustering>
<clus scale="   33.362">  2  9  1 -1</clus>
<clus scale="   79.978">  5  6 -1 -1</clus>
<clus scale="   83.261">  1  5  2 -1</clus>
<clus scale="   91.704">  7  8 -1 -1</clus>
<clus scale="   83.261">  1  5  2 -1</clus>
</clustering>
</event>
<event>
 9    2  0.3402837E-005  0.1357666E+03  0.7546771E-02  0.1220621E+00
          4   -1    0    0  502    0  0.00000000000E+00  0.00000000000E+00  0.30550595322E+03  0.30550595322E+03  0.00000000000E+00 0. -1.
         -3   -1    0    0    0  501 -0.00000000000E+00 -0.00000000000E+00 -0.16375425730E+03  0.16375425730E+03  0.00000000000E+00 0.  1.
         24    2    1    2    0    0 -0.52645523541E+02 -0.38330706749E+02 -0.93266572410E+02  0.13909008181E+03  0.80041258743E+02 0.  0.
         23    2    1    2    0    0  0.85243039685E+02  0.70850881573E+02  0.24547600938E+03  0.28295229121E+03  0.86702391473E+02 0.  0.
        -13    1    3    3    0    0  0.20262986847E+02 -0.16134880328E+02 -0.32861468115E+02  0.41842551139E+02  0.00000000000E+00 0.  1.
         14    1    3    3    0    0 -0.72908510388E+02 -0.22195826421E+02 -0.60405104295E+02  0.97247530675E+02  0.00000000000E+00 0. -1.
        -13    1    4    4    0    0  0.57140079370E+02  0.60102974208E+02  0.23787862598E+03  0.25191982232E+03  0.00000000000E+00 0.  1.
         13    1    4    4    0    0  0.28102960315E+02  0.10747907365E+02  0.75973834013E+01  0.31032468895E+02  0.00000000000E+00 0. -1.
         21    1    1    2  502  501 -0.32597516144E+02 -0.32520174824E+02 -0.10457741045E+02  0.47217837489E+02  0.00000000000E+00 0.  1.
<scales pt_clust_5="13000.00000" pt_clust_6="13000.00000" pt_clust_7="13000.00000" pt_clust_8="13000.00000" pt_clust_9="46.04519"></scales>
<clustering>
<clus scale="   46.045">  2  9  1 -1</clus>
<clus scale="   80.041">  5  6 -1 -1</clus>
<clus scale="   86.702">  7  8 -1 -1</clus>
<clus scale="  131.613">  2  5  1 -1</clus>
<clus scale="  135.767">  1  5  2 -1</clus>
</clustering>
</event>
<event>
 9    2  0.3402837E-005  0.1859185E+03  0.7546771E-02  0.1165024E+00
         -1   -1    0    0    0  501 -0.00000000000E+00  0.00000000000E+00  0.16236421098E+03  0.16236421098E+03  0.00000000000E+00 0.  1.
          2   -1    0    0  502    0  0.00000000000E+00 -0.00000000000E+00 -0.23067566250E+03  0.23067566250E+03  0.00000000000E+00 0. -1.
         23    2    1    2    0    0  0.53614514718E+02 -0.15837781470E+03 -0.97712190652E+01  0.19619451547E+03  0.10217026379E+03 0.  0.
         24    2    1    2    0    0 -0.42903407107E+02  0.13573501458E+03 -0.53890562103E+02  0.17136902276E+03  0.78730253108E+02 0.  0.
        -11    1    4    4    0    0 -0.27954619959E+02  0.27086977631E+02  0.15156831696E+02  0.41771936528E+02  0.00000000000E+00 0.  1.
         12    1    4    4    0    0 -0.14948787148E+02  0.10864803695E+03 -0.69047393800E+02  0.12959708624E+03  0.00000000000E+00 0. -1.
        -13    1    3    3    0    0  0.62969530289E+02 -0.51941012249E+02 -0.30896519462E+02  0.87279009006E+02  0.00000000000E+00 0. -1.
         13    1    3    3    0    0 -0.93550155706E+01 -0.10643680245E+03  0.21125300397E+02  0.10891550647E+03  0.00000000000E+00 0.  1.
         21    1    1    2  502  501 -0.10711107611E+02  0.22642800116E+02 -0.46496703469E+01  0.25476335249E+02  0.00000000000E+00 0.  1.
<scales pt_clust_5="13000.00000" pt_clust_6="13000.00000" pt_clust_7="13000.00000" pt_clust_8="13000.00000" pt_clust_9="25.04844"></scales>
<clustering>
<clus scale="   25.048">  2  9  1 -1</clus>
<clus scale="   78.730">  5  6 -1 -1</clus>
<clus scale="  102.170">  7  8 -1 -1</clus>
<clus scale="  174.142">  2  5  1 -1</clus>
<clus scale="   25.048">  2  5  1 -1</clus>
</clustering>
</event>
<event>
 9    2  0.3402837E-005  0.9202565E+02  0.7546771E-02  0.1299649E+00
          2   -1    0    0  502    0  0.00000000000E+00  0.00000000000E+00  0.48252927493E+03  0.48252927493E+03  0.00000000000E+00 0. -1.
         -1   -1    0    0    0  501 -0.00000000000E+00 -0.00000000000E+00 -0.76956483580E+02  0.76956483580E+02  0.00000000000E+00 0.  1.
         23    2    1    2    0    0 -0.21871412393E+01  0.38289041563E+01 -0.34930110958E+02  0.91762180771E+02  0.84739253445E+02 0.  0.
         24    2    1    2    0    0  0.28661242175E+02  0.26169289908E+02  0.40246830629E+03  0.41252031550E+03  0.81767809046E+02 0.  0.
        -11    1    4    4    0    0  0.33980681697E+02 -0.21830031554E+02  0.22511746614E+03  0.22871185051E+03  0.00000000000E+00 0.  1.
         12    1    4    4    0    0 -0.53194395229E+01  0.47999321461E+02  0.17735084015E+03  0.18380846499E+03  0.00000000000E+00 0. -1.
        -11    1    3    3    0    0 -0.17243148593E+02 -0.23136646103E+02 -0.49745320618E+02  0.57508499282E+02  0.00000000000E+00 0.  1.
         11    1    3    3    0    0  0.15056007354E+02  0.26965550260E+02  0.14815209660E+02  0.34253681488E+02  0.00000000000E+00 0. -1.
         21    1    1    2  502  501 -0.26474100935E+02 -0.29998194064E+02  0.38034596019E+02  0.55203262238E+02  0.00000000000E+00 0. -1.
<scales pt_clust_5="13000.00000" pt_clust_6="13000.00000" pt_clust_7="13000.00000" pt_clust_8="13000.00000" pt_clust_9="40.00962"></scales>
<clustering>
<clus scale="   40.010">  2  9  1 -1</clus>
<clus scale="   81.768">  5  6 -1 -1</clus>
<clus scale="   84.739">  7  8 -1 -1</clus>
<clus scale="   89.297">  1  5  2 -1</clus>
<clus scale="   89.297">  1  5  2 -1</clus>
</clustering>
</event>
<event>
 9    2  0.3402837E-005  0.1042497E+03  0.7546771E-02  0.1275364E+00
         -1   -1    0    0    0  501 -0.00000000000E+00  0.00000000000E+00  0.26464057248E+03  0.26464057248E+03  0.00000000000E+00 0.  1.
          2   -1    0    0  502    0  0.00000000000E+00 -0.00000000000E+00 -0.14598227862E+03  0.14598227862E+03  0.00000000000E+00 0. -1.
         24    2    1    2    0    0  0.30790963083E+02  0.17225308419E+02  0.16906823647E+03  0.19127185341E+03  0.82195247232E+02 0.  0.
         23    2    1    2    0    0 -0.32889808900E+02 -0.42393540990E+02 -0.11140977286E+03  0.15332960438E+03  0.90658029123E+02 0.  0.
        -11    1    3    3    0    0  0.39524296362E+02  0.12956253210E+02  0.17500603150E+03  0.17988092051E+03  0.00000000000E+00 0.  1.
         12    1    3    3    0    0 -0.87333332791E+01  0.42690552086E+01 -0.59377950356E+01  0.11390932904E+02  0.00000000000E+00 0. -1.
        -13    1    4    4    0    0  0.18811628534E+02  0.11082981204E+02 -0.32688374777E+01  0.22077027403E+02  0.00000000000E+00 0.  1.
         13    1    4    4    0    0 -0.51701437434E+02 -0.53476522195E+02 -0.10814093538E+03  0.13125257698E+03  0.00000000000E+00 0. -1.
         21    1    1    2  502  501  0.20988458167E+01  0.25168232572E+02  0.60999830243E+02  0.66021393307E+02  0.00000000000E+00 0.  1.
<scales pt_clust_5="13000.00000" pt_clust_6="13000.00000" pt_clust_7="13000.00000" pt_clust_8="13000.00000" pt_clust_9="25.25560"></scales>
<clustering>
<clus scale="   25.256">  1  9  2 -1</clus>
<clus scale="   82.195">  5  6 -1 -1</clus>
<clus scale="   90.658">  7  8 -1 -1</clus>
<clus scale="   96.980">  1  5  2 -1</clus>
<clus scale="  104.250">  2  5  1 -1</clus>
</clustering>
</event>
<event>
 9    2  0.3402837E-005  0.9041142E+02  0.7546771E-02  0.1308519E+00
         -1   -1    0    0    0  501 -0.00000000000E+00  0.00000000000E+00  0.23726963149E+02  0.23726963149E+02  0.00000000000E+00 0.  1.
          2   -1    0    0  502    0  0.00000000000E+00 -0.00000000000E+00 -0.63530262923E+03  0.63530262923E+03  0.00000000000E+00 0. -1.
         24    2    1    2    0    0  0.14610872287E+02  0.24596523471E+02 -0.10057300710E+03  0.13062245000E+03  0.78286832419E+02 0.  0.
         23    2    1    2    0    0  0.74271617313E+01 -0.14211827966E+02 -0.48265874641E+03  0.49103209423E+03  0.88858951697E+02 0.  0.
        -13    1    3    3    0    0 -0.12636383141E+02 -0.20031609429E+02 -0.93235816625E+01  0.25453344186E+02  0.00000000000E+00 0.  1.
         14    1    3    3    0    0  0.27247255428E+02  0.44628132900E+02 -0.91249425437E+02  0.10516910581E+03  0.00000000000E+00 0. -1.
        -11    1    4    4    0    0  0.32872664591E+01 -0.51963514209E+02 -0.29687486311E+03  0.30140619980E+03  0.00000000000E+00 0.  1.
         11    1    4    4    0    0  0.41398952722E+01  0.37751686243E+02 -0.18578388330E+03  0.18962589444E+03  0.00000000000E+00 0. -1.
         21    1    1    2  502  501 -0.22038034018E+02 -0.10384695506E+02 -0.28343912572E+02  0.37375048148E+02  0.00000000000E+00 0.  1.
<scales pt_clust_5="13000.00000" pt_clust_6="13000.00000" pt_clust_7="13000.00000" pt_clust_8="13000.00000" pt_clust_9="24.36220"></scales>
<clustering>
<clus scale="   24.362">  1  9  2 -1</clus>
<clus scale="   78.287">  5  6 -1 -1</clus>
<clus scale="   80.045">  1  5  2 -1</clus>
<clus scale="   88.859">  7  8 -1 -1</clus>
<clus scale="   90.411">  2  5  1 -1</clus>
</clustering>
</event>
<event>
 9    2  0.3402837E-005  0.1363812E+03  0.7546771E-02  0.1222441E+00
          2   -1    0    0  502    0  0.00000000000E+00  0.00000000000E+00  0.24383108109E+03  0.24383108109E+03  0.00000000000E+00 0. -1.
         -1   -1    0    0    0  501 -0.00000000000E+00 -0.00000000000E+00 -0.13053665903E+03  0.13053665903E+03  0.00000000000E+00 0.  1.
         23    2    1    2    0    0 -0.10017519612E+03  0.62747372346E+02  0.22734448509E+02  0.15233692441E+03  0.93366914566E+02 0.  0.
         24    2    1    2    0    0  0.79808323714E+02 -0.46979896598E+02  0.12888082914E+03  0.17585819660E+03  0.75758550494E+02 0.  0.
        -13    1    4    4    0    0  0.11007259345E+02  0.20094007932E+02  0.32495285156E+02  0.39760187002E+02  0.00000000000E+00 0.  1.
         14    1    4    4    0    0  0.68801064369E+02 -0.67073904530E+02  0.96385543984E+02  0.13609800960E+03  0.00000000000E+00 0. -1.
        -13    1    3    3    0    0 -0.11504275491E+03  0.48605585856E+02  0.46339789697E+01  0.12497524633E+03  0.00000000000E+00 0.  1.
         13    1    3    3    0    0  0.14867558795E+02  0.14141786491E+02  0.18100469539E+02  0.27361678077E+02  0.00000000000E+00 0. -1.
         21    1    1    2  502  501  0.20366872403E+02 -0.15767475749E+02 -0.38320855592E+02  0.46172619119E+02  0.00000000000E+00 0.  1.
<scales pt_clust_5="13000.00000" pt_clust_6="13000.00000" pt_clust_7="13000.00000" pt_clust_8="13000.00000" pt_clust_9="25.75699"></scales>
<clustering>
<clus scale="   25.757">  2  9  1 -1</clus>
<clus scale="   75.759">  5  6 -1 -1</clus>
<clus scale="   93.367">  7  8 -1 -1</clus>
<clus scale="  124.987">  1  5  2 -1</clus>
<clus scale="  124.987">  1  5  2 -1</clus>
</clustering>
</event>
<event>
 9    2  0.3402837E-005  0.1577212E+03  0.7546771E-02  0.1197687E+00
          2   -1    0    0  502    0  0.00000000000E+00  0.00000000000E+00  0.13817437689E+04  0.13817437689E+04  0.00000000000E+00 0. -1.
         -1   -1    0    0    0  501 -0.00000000000E+00 -0.00000000000E+00 -0.43079863610E+03  0.43079863610E+03  0.00000000000E+00 0.  1.
         23    2    1    2    0    0  0.10179378705E+03  0.40624593762E+01 -0.30308484132E+03  0.33264807403E+03  0.91737895441E+02 0.  0.
         24    2    1    2    0    0 -0.41661767181E+02 -0.13127282714E+03  0.13164170895E+04  0.13259771791E+04  0.79330120173E+02 0.  0.
        -13    1    4    4    0    0 -0.19545246836E+02 -0.71186789325E+02  0.36399311656E+03  0.37140350638E+03  0.00000000000E+00 0.  1.
         14    1    4    4    0    0 -0.22116520345E+02 -0.60086037819E+02  0.95242397296E+03  0.95457367274E+03  0.00000000000E+00 0. -1.
        -11    1    3    3    0    0  0.28899110388E+02 -0.31078542362E+02 -0.43626757256E+02  0.60863193519E+02  0.00000000000E+00 0. -1.
         11    1    3    3    0    0  0.72894676662E+02  0.35141001738E+02 -0.25945808406E+03  0.27178488051E+03  0.00000000000E+00 0.  1.
         21    1    1    2  502  501 -0.60132019868E+02  0.12721036777E+03 -0.62387115370E+02  0.15391715189E+03  0.00000000000E+00 0.  1.
<scales pt_clust_5="13000.00000" pt_clust_6="13000.00000" pt_clust_7="13000.00000" pt_clust_8="13000.00000" pt_clust_9="136.31838"></scales>
<clustering>
<clus scale="   79.330">  5  6 -1 -1</clus>
<clus scale="   91.738">  7  8 -1 -1</clus>
<clus scale="  137.092">  2  7  1 -1</clus>
<clus scale="  136.318">  2  9  1 -1</clus>
<clus scale="  157.721">  1  5  2 -1</clus>
</clustering>
</event>
<event>
 9    2  0.3402837E-005  0.1104634E+03  0.7546771E-02  0.1264481E+00
         -1   -1    0    0    0  501 -0.00000000000E+00  0.00000000000E+00  0.10311860616E+03  0.10311860616E+03  0.00000000000E+00 0.  1.
          2   -1    0    0  502    0  0.00000000000E+00 -0.00000000000E+00 -0.21025258660E+03  0.21025258660E+03  0.00000000000E+00 0. -1.
         24    2    1    2    0    0  0.87227656009E+02 -0.10878022025E+02 -0.46212711021E+01  0.11886701965E+03  0.79881267381E+02 0.  0.
         23    2    1    2    0    0 -0.51267593220E+02  0.56888751678E+01 -0.11505223544E+03  0.15606860266E+03  0.91976423290E+02 0.  0.
        -13    1    3    3    0    0  0.55663082270E+02  0.17802327521E+02  0.28355508792E+02  0.64956419789E+02  0.00000000000E+00 0.  1.
         14    1    3    3    0    0  0.31564573739E+02 -0.28680349546E+02 -0.32976779894E+02  0.53910599863E+02  0.00000000000E+00 0. -1.
        -13    1    4    4    0    0 -0.37153267319E+02  0.44680165248E+02 -0.91463106605E+02  0.10836135062E+03  0.00000000000E+00 0.  1.
         13    1    4    4    0    0 -0.14114325901E+02 -0.38991290080E+02 -0.23589128837E+02  0.47707252039E+02  0.00000000000E+00 0. -1.
         21    1    1    2  502  501 -0.35960062788E+02  0.51891468569E+01  0.12539526106E+02  0.38435570450E+02  0.00000000000E+00 0.  1.
<scales pt_clust_5="13000.00000" pt_clust_6="13000.00000" pt_clust_7="13000.00000" pt_clust_8="13000.00000" pt_clust_9="36.33254"></scales>
<clustering>
<clus scale="   36.333">  1  9  2 -1</clus>
<clus scale="   79.881">  5  6 -1 -1</clus>
<clus scale="   91.976">  7  8 -1 -1</clus>
<clus scale="  100.616">  1  5  2 -1</clus>
<clus scale="  110.463">  2  5  1 -1</clus>
</clustering>
</event>
<event>
 9    2  0.3402837E-005  0.1935951E+03  0.7546771E-02  0.1175977E+00
         -1   -1    0    0    0  501 -0.00000000000E+00  0.00000000000E+00  0.10470282094E+04  0.10470282094E+04  0.00000000000E+00 0.  1.
          2   -1    0    0  502    0  0.00000000000E+00 -0.00000000000E+00 -0.60833407144E+02  0.60833407144E+02  0.00000000000E+00 0. -1.
         23    2    1    2    0    0 -0.11962612913E+02 -0.21644669626E+03  0.63390306521E+03  0.67629826745E+03  0.92487696717E+02 0.  0.
         24    2    1    2    0    0  0.11792465409E+02  0.88004184733E+02  0.15355075981E+03  0.19492970029E+03  0.80845243800E+02 0.  0.
        -11    1    4    4    0    0  0.23976268226E+01  0.27260859559E+02  0.12352930305E+03  0.12652427352E+03  0.00000000000E+00 0.  1.
         12    1    4    4    0    0  0.93948385865E+01  0.60743325174E+02  0.30021456762E+02  0.68405426768E+02  0.00000000000E+00 0. -1.
        -13    1    3    3    0    0 -0.41067023445E+02 -0.19029586089E+03  0.55648302333E+03  0.58955268665E+03  0.00000000000E+00 0.  1.
         13    1    3    3    0    0  0.29104410532E+02 -0.26150835369E+02  0.77420041877E+02  0.86745580793E+02  0.00000000000E+00 0. -1.
         21    1    1    2  502  501  0.17014750398E+00  0.12844251152E+03  0.19874097725E+03  0.23663364882E+03  0.00000000000E+00 0. -1.
<scales pt_clust_5="13000.00000" pt_clust_6="13000.00000" pt_clust_7="13000.00000" pt_clust_8="13000.00000" pt_clust_9="170.07372"></scales>
<clustering>
<clus scale="   80.845">  5  6 -1 -1</clus>
<clus scale="   92.488">  7  8 -1 -1</clus>
<clus scale="  120.082">  2  5  1 -1</clus>
<clus scale="  170.074">  2  9  1 -1</clus>
<clus scale="  120.082">  2  5  1 -1</clus>
</clustering>
</event>
<event>
 9    2  0.3402837E-005  0.1438801E+03  0.7546771E-02  0.1211123E+00
         -1   -1    0    0    0  501 -0.00000000000E+00  0.00000000000E+00  0.76338560682E+02  0.76338560682E+02  0.00000000000E+00 0.  1.
          2   -1    0    0  502    0  0.00000000000E+00 -0.00000000000E+00 -0.40696811317E+03  0.40696811317E+03  0.00000000000E+00 0. -1.
         24    2    1    2    0    0 -0.19586419991E+02 -0.10584026098E+03 -0.33123481705E+02  0.13769200306E+03  0.79222054838E+02 0.  0.
         23    2    1    2    0    0 -0.15282306756E+01  0.11065633394E+03 -0.28723266519E+03  0.32164456662E+03  0.93303073687E+02 0.  0.
        -11    1    3    3    0    0  0.16384019103E+02 -0.90889597455E+02 -0.11304493893E+02  0.93043788560E+02  0.00000000000E+00 0.  1.
         12    1    3    3    0    0 -0.35970439094E+02 -0.14950663525E+02 -0.21818987812E+02  0.44648214495E+02  0.00000000000E+00 0. -1.
        -13    1    4    4    0    0  0.41377497676E+02  0.37680797286E+02 -0.78567502881E+02  0.96461351364E+02  0.00000000000E+00 0.  1.
         13    1    4    4    0    0 -0.42905728352E+02  0.72975536652E+02 -0.20866516230E+03  0.22518321526E+03  0.00000000000E+00 0. -1.
         21    1    1    2  502  501  0.21114650666E+02 -0.48160729577E+01 -0.10273405598E+02  0.23970104173E+02  0.00000000000E+00 0.  1.
<scales pt_clust_5="13000.00000" pt_clust_6="13000.00000" pt_clust_7="13000.00000" pt_clust_8="13000.00000" pt_clust_9="21.65694"></scales>
<clustering>
<clus scale="   21.657">  1  9  2 -1</clus>
<clus scale="   79.222">  5  6 -1 -1</clus>
<clus scale="   93.303">  7  8 -1 -1</clus>
<clus scale="  135.175">  1  5  2 -1</clus>
<clus scale="  143.880">  2  5  1 -1</clus>
</clustering>
</event>
<event>
 9    2  0.3402837E-005  0.1155178E+03  0.7546771E-02  0.1254242E+00
          2   -1    0    0  502    0  0.00000000000E+00  0.00000000000E+00  0.17168696651E+03  0.17168696651E+03  0.00000000000E+00 0. -1.
         -1   -1    0    0    0  501 -0.00000000000E+00 -0.00000000000E+00 -0.10483536582E+03  0.10483536582E+03  0.00000000000E+00 0.  1.
         24    2    1    2    0    0  0.26033450227E+02  0.78502160351E+02 -0.61844289956E+01  0.11578528192E+03  0.80793902218E+02 0.  0.
         23    2    1    2    0    0 -0.36436255905E+02 -0.55282075799E+02  0.74905816045E+02  0.13522456732E+03  0.91055442894E+02 0.  0.
        -11    1    3    3    0    0  0.33793562074E+01  0.69902685309E+02 -0.34906967133E+02  0.78206788812E+02  0.00000000000E+00 0.  1.
         12    1    3    3    0    0  0.22654094019E+02  0.85994750422E+01  0.28722538138E+02  0.37578493103E+02  0.00000000000E+00 0. -1.
        -13    1    4    4    0    0 -0.67740276296E+01  0.21907480693E+02  0.38633749519E+02  0.44926515139E+02  0.00000000000E+00 0. -1.
         13    1    4    4    0    0 -0.29662228275E+02 -0.77189556492E+02  0.36272066525E+02  0.90298052181E+02  0.00000000000E+00 0.  1.
         21    1    1    2  502  501  0.10402805678E+02 -0.23220084552E+02 -0.18697863632E+01  0.25512483094E+02  0.00000000000E+00 0.  1.
<scales pt_clust_5="13000.00000" pt_clust_6="13000.00000" pt_clust_7="13000.00000" pt_clust_8="13000.00000" pt_clust_9="25.44387"></scales>
<clustering>
<clus scale="   25.444">  2  9  1 -1</clus>
<clus scale="   80.794">  5  6 -1 -1</clus>
<clus scale="   91.055">  7  8 -1 -1</clus>
<clus scale="  107.615">  2  5  1 -1</clus>
<clus scale="  115.518">  1  5  2 -1</clus>
</clustering>
</event>
<event>
 9    2  0.3402837E-005  0.9942590E+02  0.7546771E-02  0.1287413E+00
          4   -1    0    0  502    0  0.00000000000E+00  0.00000000000E+00  0.23517232097E+02  0.23517232097E+02  0.00000000000E+00 0. -1.
         -3   -1    0    0    0  501 -0.00000000000E+00 -0.00000000000E+00 -0.58707719979E+03  0.58707719979E+03  0.00000000000E+00 0.  1.
         23    2    1    2    0    0  0.98476214078E+01  0.20822449466E+02 -0.20899541246E+03  0.22936843724E+03  0.91652864248E+02 0.  0.
         24    2    1    2    0    0 -0.11308823930E+02 -0.51138735402E+02 -0.17840551927E+03  0.20247136321E+03  0.80144019483E+02 0.  0.
        -13    1    4    4    0    0 -0.29667587353E+02 -0.36574695675E+02 -0.17178009454E+03  0.17811871037E+03  0.00000000000E+00 0.  1.
         14    1    4    4    0    0  0.18358763423E+02 -0.14564039727E+02 -0.66254247227E+01  0.24352652840E+02  0.00000000000E+00 0. -1.
        -11    1    3    3    0    0 -0.21103042908E+02  0.29776449729E+02 -0.29286273196E+02  0.46793815576E+02  0.00000000000E+00 0.  1.
         11    1    3    3    0    0  0.30950664315E+02 -0.89540002631E+01 -0.17970913926E+03  0.18257462166E+03  0.00000000000E+00 0. -1.
         21    1    1    2  502  501  0.14612025225E+01  0.30316285937E+02 -0.17615903597E+03  0.17875463143E+03  0.00000000000E+00 0.  1.
<scales pt_clust_5="13000.00000" pt_clust_6="13000.00000" pt_clust_7="13000.00000" pt_clust_8="13000.00000" pt_clust_9="30.35148"></scales>
<clustering>
<clus scale="   30.351">  2  9  1 -1</clus>
<clus scale="   80.144">  5  6 -1 -1</clus>
<clus scale="   88.929">  1  5  2 -1</clus>
<clus scale="   91.653">  7  8 -1 -1</clus>
<clus scale="   88.929">  1  5  2 -1</clus>
</clustering>
</event>
<event>
 9    2  0.3402837E-005  0.1428952E+03  0.7546771E-02  0.1220176E+00
          2   -1    0    0  502    0  0.00000000000E+00  0.00000000000E+00  0.64414751887E+03  0.64414751887E+03  0.00000000000E+00 0. -1.
         -1   -1    0    0    0  501 -0.00000000000E+00 -0.00000000000E+00 -0.62702060196E+02  0.62702060196E+02  0.00000000000E+00 0.  1.
         23    2    1    2    0    0  0.72433435271E+02  0.53946238449E+02  0.12828360122E+03  0.18182965737E+03  0.91915954916E+02 0.  0.
         24    2    1    2    0    0  0.72284292867E+02 -0.34343538330E+02  0.25075606878E+03  0.27542907656E+03  0.81105317734E+02 0.  0.
        -13    1    4    4    0    0  0.81857554918E+02 -0.30119018093E+02  0.14540421720E+03  0.16955884208E+03  0.00000000000E+00 0.  1.
         14    1    4    4    0    0 -0.95732620514E+01 -0.42245202369E+01  0.10535185158E+03  0.10587023448E+03  0.00000000000E+00 0. -1.
        -13    1    3    3    0    0  0.11808024194E+02  0.30918344194E+02 -0.51276054417E+01  0.33491279173E+02  0.00000000000E+00 0.  1.
         13    1    3    3    0    0  0.60625411077E+02  0.23027894254E+02  0.13341120666E+03  0.14833837819E+03  0.00000000000E+00 0. -1.
         21    1    1    2  502  501 -0.14471772814E+03 -0.19602700119E+02  0.20240578868E+03  0.24959084515E+03  0.00000000000E+00 0. -1.
<scales pt_clust_5="13000.00000" pt_clust_6="13000.00000" pt_clust_7="13000.00000" pt_clust_8="13000.00000" pt_clust_9="109.40982"></scales>
<clustering>
<clus scale="   81.105">  5  6 -1 -1</clus>
<clus scale="   91.916">  7  8 -1 -1</clus>
<clus scale="  113.941">  1  5  2 -1</clus>
<clus scale="  109.410">  1  9  2 -1</clus>
<clus scale="  113.941">  1  5  2 -1</clus>
</clustering>
</event>
<event>
 9    2  0.3402837E-005  0.1168145E+03  0.7546771E-02  0.1253809E+00
          2   -1    0    0  502    0  0.00000000000E+00  0.00000000000E+00  0.54174966768E+03  0.54174966768E+03  0.00000000000E+00 0. -1.
         -1   -1    0    0    0  501 -0.00000000000E+00 -0.00000000000E+00 -0.16017237499E+03  0.16017237499E+03  0.00000000000E+00 0.  1.
         24    2    1    2    0    0 -0.10124609863E+02  0.37433092440E+02  0.35670163392E+02  0.90828889235E+02  0.73985014894E+02 0.  0.
         23    2    1    2    0    0  0.56271111923E+02 -0.65149841447E+02  0.46447184585E+03  0.48088059705E+03  0.90006184020E+02 0.  0.
        -13    1    3    3    0    0 -0.30876103951E+02  0.36894421505E+02 -0.16347012130E+01  0.48137349132E+02  0.00000000000E+00 0.  1.
         14    1    3    3    0    0  0.20751494088E+02  0.53867093566E+00  0.37304864605E+02  0.42691540104E+02  0.00000000000E+00 0. -1.
        -13    1    4    4    0    0 -0.70666757403E+01 -0.47715074424E+02  0.10627188564E+03  0.11670638333E+03  0.00000000000E+00 0.  1.
         13    1    4    4    0    0  0.63337787663E+02 -0.17434767023E+02  0.35819996021E+03  0.36417421372E+03  0.00000000000E+00 0. -1.
         21    1    1    2  502  501 -0.46146502060E+02  0.27716749007E+02 -0.11856471655E+03  0.13021255638E+03  0.00000000000E+00 0.  1.
<scales pt_clust_5="13000.00000" pt_clust_6="13000.00000" pt_clust_7="13000.00000" pt_clust_8="13000.00000" pt_clust_9="53.83045"></scales>
<clustering>
<clus scale="   53.830">  2  9  1 -1</clus>
<clus scale="   73.985">  5  6 -1 -1</clus>
<clus scale="   90.006">  7  8 -1 -1</clus>
<clus scale="  104.968">  2  5  1 -1</clus>
<clus scale="  116.814">  1  5  2 -1</clus>
</clustering>
</event>
<event>
 9    2  0.3402837E-005  0.9873240E+02  0.7546771E-02  0.1288597E+00
          2   -1    0    0  502    0  0.00000000000E+00  0.00000000000E+00  0.40465012984E+03  0.40465012984E+03  0.00000000000E+00 0. -1.
         -1   -1    0    0    0  501 -0.00000000000E+00 -0.00000000000E+00 -0.63014865104E+02  0.63014865104E+02  0.00000000000E+00 0.  1.
         24    2    1    2    0    0 -0.63443949087E+02  0.12687596760E+02  0.10873093702E+03  0.14966524096E+03  0.79944717768E+02 0.  0.
         23    2    1    2    0    0  0.27436277854E+02  0.13612810200E+02  0.25190717655E+03  0.26952943257E+03  0.90834087656E+02 0.  0.
        -13    1    3    3    0    0 -0.42493769879E+02 -0.26378840000E+02  0.27377908086E+02  0.57018536718E+02  0.00000000000E+00 0.  1.
         14    1    3    3    0    0 -0.20950179207E+02  0.39066436760E+02  0.81353028939E+02  0.92646704245E+02  0.00000000000E+00 0. -1.
        -13    1    4    4    0    0  0.68503473426E+01 -0.36203817230E+02  0.62016944015E+02  0.72136987639E+02  0.00000000000E+00 0.  1.
         13    1    4    4    0    0  0.20585930511E+02  0.49816627430E+02  0.18989023253E+03  0.19739244493E+03  0.00000000000E+00 0. -1.
         21    1    1    2  502  501  0.36007671233E+02 -0.26300406959E+02 -0.19002848837E+02  0.48470321412E+02  0.00000000000E+00 0.  1.
<scales pt_clust_5="13000.00000" pt_clust_6="13000.00000" pt_clust_7="13000.00000" pt_clust_8="13000.00000" pt_clust_9="44.58995"></scales>
<clustering>
<clus scale="   44.590">  2  9  1 -1</clus>
<clus scale="   79.945">  5  6 -1 -1</clus>
<clus scale="   88.817">  2  5  1 -1</clus>
<clus scale="   90.834">  7  8 -1 -1</clus>
<clus scale="   98.732">  1  5  2 -1</clus>
</clustering>
</event>
<event>
 9    2  0.3402837E-005  0.1431449E+03  0.7546771E-02  0.1211012E+00
         -3   -1    0    0    0  501 -0.00000000000E+00  0.00000000000E+00  0.24775041205E+03  0.24775041205E+03  0.00000000000E+00 0.  1.
          4   -1    0    0  502    0  0.00000000000E+00 -0.00000000000E+00 -0.14643339189E+03  0.14643339189E+03  0.00000000000E+00 0. -1.
         24    2    1    2    0    0 -0.51492719889E+02  0.10161936526E+03  0.13344422516E+03  0.19304808464E+03  0.80512149117E+02 0.  0.
         23    2    1    2    0    0  0.85004391505E+02 -0.74181084408E+02 -0.52355458765E+02  0.15333327542E+03  0.89673961834E+02 0.  0.
        -11    1    3    3    0    0 -0.77731584975E+01  0.90036187522E+02  0.10915672548E+03  0.14171142429E+03  0.00000000000E+00 0.  1.
         12    1    3    3    0    0 -0.43719561392E+02  0.11583177743E+02  0.24287499674E+02  0.51336660344E+02  0.00000000000E+00 0. -1.
        -11    1    4    4    0    0  0.60998150149E+02 -0.57888541902E+02  0.98748105220E+01  0.84672129346E+02  0.00000000000E+00 0.  1.
         11    1    4    4    0    0  0.24006241356E+02 -0.16292542506E+02 -0.62230269287E+02  0.68661146079E+02  0.00000000000E+00 0. -1.
         21    1    1    2  502  501 -0.33511671616E+02 -0.27438280857E+02  0.20228253769E+02  0.47802443885E+02  0.00000000000E+00 0. -1.
<scales pt_clust_5="13000.00000" pt_clust_6="13000.00000" pt_clust_7="13000.00000" pt_clust_8="13000.00000" pt_clust_9="43.31156"></scales>
<clustering>
<clus scale="   43.312">  1  9  2 -1</clus>
<clus scale="   80.512">  5  6 -1 -1</clus>
<clus scale="   89.674">  7  8 -1 -1</clus>
<clus scale="  137.591">  1  5  2 -1</clus>
<clus scale="  143.145">  2  5  1 -1</clus>
</clustering>
</event>
<event>
 9    2  0.3402837E-005  0.1730511E+03  0.7546771E-02  0.1176248E+00
         -1   -1    0    0    0  501 -0.00000000000E+00  0.00000000000E+00  0.45398928240E+02  0.45398928240E+02  0.00000000000E+00 0.  1.
          2   -1    0    0  502    0  0.00000000000E+00 -0.00000000000E+00 -0.99377957769E+03  0.99377957769E+03  0.00000000000E+00 0. -1.
         24    2    1    2    0    0 -0.10584330373E+03 -0.12624457214E+03 -0.27693503663E+03  0.33191699595E+03  0.79595105027E+02 0.  0.
         23    2    1    2    0    0  0.91024494166E+02  0.10655327774E+03 -0.65849227297E+03  0.67942029584E+03  0.91437439289E+02 0.  0.
        -11    1    3    3    0    0 -0.67149606528E+02 -0.12007947151E+03 -0.17428811806E+03  0.22204616014E+03  0.00000000000E+00 0.  1.
         12    1    3    3    0    0 -0.38693697206E+02 -0.61651006293E+01 -0.10264691857E+03  0.10987083581E+03  0.00000000000E+00 0. -1.
        -13    1    4    4    0    0 -0.13154038182E+02  0.36317343354E+02 -0.21641834091E+03  0.21983829609E+03  0.00000000000E+00 0. -1.
         13    1    4    4    0    0  0.10417853235E+03  0.70235934389E+02 -0.44207393206E+03  0.45958199975E+03  0.00000000000E+00 0.  1.
         21    1    1    2  502  501  0.14818809569E+02  0.19691294393E+02 -0.12953339853E+02  0.27841214148E+02  0.00000000000E+00 0.  1.
<scales pt_clust_5="13000.00000" pt_clust_6="13000.00000" pt_clust_7="13000.00000" pt_clust_8="13000.00000" pt_clust_9="24.64435"></scales>
<clustering>
<clus scale="   24.644">  1  9  2 -1</clus>
<clus scale="   79.595">  5  6 -1 -1</clus>
<clus scale="   91.437">  7  8 -1 -1</clus>
<clus scale="  167.097">  1  5  2 -1</clus>
<clus scale="  173.051">  2  5  1 -1</clus>
</clustering>
</event>
<event>
 9    2  0.3402837E-005  0.9671348E+02  0.7546771E-02  0.1294302E+00
          2   -1    0    0  502    0  0.00000000000E+00  0.00000000000E+00  0.13058721933E+04  0.13058721933E+04  0.00000000000E+00 0. -1.
         -1   -1    0    0    0  501 -0.00000000000E+00 -0.00000000000E+00 -0.26083807950E+02  0.26083807950E+02  0.00000000000E+00 0.  1.
         23    2    1    2    0    0  0.36493299799E+02 -0.17938972549E+02  0.10875793562E+03  0.14878323207E+03  0.93030069978E+02 0.  0.
         24    2    1    2    0    0 -0.22671876003E+02 -0.14100917150E+02  0.11069272202E+04  0.11101877685E+04  0.80722739437E+02 0.  0.
        -11    1    4    4    0    0 -0.10529334977E+02  0.23376772916E+02  0.13211237129E+03  0.13457718623E+03  0.00000000000E+00 0.  1.
         12    1    4    4    0    0 -0.12142541027E+02 -0.37477690067E+02  0.97481484892E+03  0.97561058226E+03  0.00000000000E+00 0. -1.
        -13    1    3    3    0    0  0.13067911550E+02  0.37908641486E+02  0.33995597220E+02  0.52569345079E+02  0.00000000000E+00 0.  1.
         13    1    3    3    0    0  0.23425388249E+02 -0.55847614035E+02  0.74762338397E+02  0.96213886995E+02  0.00000000000E+00 0. -1.
         21    1    1    2  502  501 -0.13821423796E+02  0.32039889699E+02  0.64103229491E+02  0.72985000642E+02  0.00000000000E+00 0.  1.
<scales pt_clust_5="13000.00000" pt_clust_6="13000.00000" pt_clust_7="13000.00000" pt_clust_8="13000.00000" pt_clust_9="34.89393"></scales>
<clustering>
<clus scale="   34.894">  2  9  1 -1</clus>
<clus scale="   80.723">  5  6 -1 -1</clus>
<clus scale="   84.942">  1  5  2 -1</clus>
<clus scale="   93.030">  7  8 -1 -1</clus>
<clus scale="   84.942">  1  5  2 -1</clus>
</clustering>
</event>
<event>
 9    2  0.3402837E-005  0.1193215E+03  0.7546771E-02  0.1258235E+00
         -1   -1    0    0    0  501 -0.00000000000E+00  0.00000000000E+00  0.33371860201E+02  0.33371860201E+02  0.00000000000E+00 0.  1.
          2   -1    0    0  502    0  0.00000000000E+00 -0.00000000000E+00 -0.81412026553E+03  0.81412026553E+03  0.00000000000E+00 0. -1.
         23    2    1    2    0    0 -0.54876576042E+00  0.45167292095E+02 -0.18113693724E+03  0.21207553093E+03  0.10062333411E+03 0.  0.
         24    2    1    2    0    0 -0.17231122043E+02 -0.66714935358E+02 -0.60020633271E+03  0.60747416820E+03  0.63477783862E+02 0.  0.
        -11    1    4    4    0    0 -0.19424266999E+02 -0.42800367712E+02 -0.16386856258E+03  0.17047603769E+03  0.00000000000E+00 0.  1.
         12    1    4    4    0    0  0.21931449563E+01 -0.23914567646E+02 -0.43633777013E+03  0.43699813051E+03  0.00000000000E+00 0. -1.
        -11    1    3    3    0    0 -0.21659711203E+02  0.26970209775E+02 -0.18092648808E+03  0.18420349995E+03  0.00000000000E+00 0. -1.
         11    1    3    3    0    0  0.21110945443E+02  0.18197082320E+02 -0.21044916662E+00  0.27872030986E+02  0.00000000000E+00 0.  1.
         21    1    1    2  502  501  0.17779887804E+02  0.21547643263E+02  0.59486461568E+00  0.27942426602E+02  0.00000000000E+00 0.  1.
<scales pt_clust_5="13000.00000" pt_clust_6="13000.00000" pt_clust_7="13000.00000" pt_clust_8="13000.00000" pt_clust_9="27.93609"></scales>
<clustering>
<clus scale="   27.936">  1  9  2 -1</clus>
<clus scale="   63.478">  5  6 -1 -1</clus>
<clus scale="   90.233">  2  5  1 -1</clus>
<clus scale="  100.623">  7  8 -1 -1</clus>
<clus scale="   90.233">  2  5  1 -1</clus>
</clustering>
</event>
<event>
 9    2  0.3402837E-005  0.1036390E+03  0.7546771E-02  0.1278516E+00
         -1   -1    0    0    0  501 -0.00000000000E+00  0.00000000000E+00  0.12288344828E+03  0.12288344828E+03  0.00000000000E+00 0.  1.
          2   -1    0    0  502    0  0.00000000000E+00 -0.00000000000E+00 -0.14570894124E+03  0.14570894124E+03  0.00000000000E+00 0. -1.
         23    2    1    2    0    0  0.35908883027E+02 -0.36627223980E+02 -0.15598555251E+02  0.10503619282E+03  0.90323227685E+02 0.  0.
         24    2    1    2    0    0 -0.12125921611E+02  0.52071619401E+02 -0.54075843278E+02  0.10879326621E+03  0.77802868997E+02 0.  0.
        -11    1    4    4    0    0  0.27664584786E+01 -0.20107617951E+02 -0.15962266514E+02  0.25821764937E+02  0.00000000000E+00 0.  1.
         12    1    4    4    0    0 -0.14892380090E+02  0.72179237353E+02 -0.38113576764E+02  0.82971501272E+02  0.00000000000E+00 0. -1.
        -11    1    3    3    0    0  0.48555423240E+02 -0.13409966666E+02  0.25274146805E+02  0.56358130103E+02  0.00000000000E+00 0.  1.
         11    1    3    3    0    0 -0.12646540213E+02 -0.23217257314E+02 -0.40872702055E+02  0.48678062717E+02  0.00000000000E+00 0. -1.
         21    1    1    2  502  501 -0.23782961416E+02 -0.15444395422E+02  0.46848905568E+02  0.54762930496E+02  0.00000000000E+00 0. -1.
<scales pt_clust_5="13000.00000" pt_clust_6="13000.00000" pt_clust_7="13000.00000" pt_clust_8="13000.00000" pt_clust_9="28.35769"></scales>
<clustering>
<clus scale="   28.358">  1  9  2 -1</clus>
<clus scale="   77.803">  5  6 -1 -1</clus>
<clus scale="   90.323">  7  8 -1 -1</clus>
<clus scale="   92.930">  2  5  1 -1</clus>
<clus scale="   92.930">  2  5  1 -1</clus>
</clustering>
</event>
<event>
 9    2  0.3402837E-005  0.2738360E+03  0.7546771E-02  0.1099701E+00
          2   -1    0    0  502    0  0.00000000000E+00  0.00000000000E+00  0.77490973442E+03  0.77490973442E+03  0.00000000000E+00 0. -1.
         -1   -1    0    0    0  501 -0.00000000000E+00 -0.00000000000E+00 -0.54047262403E+03  0.54047262403E+03  0.00000000000E+00 0.  1.
         23    2    1    2    0    0  0.23912842681E+03  0.39859670373E+02 -0.37313004756E+03  0.45440354114E+03  0.92115948550E+02 0.  0.
         24    2    1    2    0    0 -0.25751885451E+03 -0.26099564217E+02  0.70801290806E+03  0.75794048917E+03  0.78704253152E+02 0.  0.
        -13    1    4    4    0    0 -0.38808038512E+02 -0.19304891032E+01  0.20878793234E+03  0.21237276505E+03  0.00000000000E+00 0.  1.
         14    1    4    4    0    0 -0.21871081600E+03 -0.24169075113E+02  0.49922497572E+03  0.54556772412E+03  0.00000000000E+00 0. -1.
        -11    1    3    3    0    0  0.14601101886E+03  0.63189465442E+02 -0.27092813030E+03  0.31418812511E+03  0.00000000000E+00 0.  1.
         11    1    3    3    0    0  0.93117407949E+02 -0.23329795069E+02 -0.10220191726E+03  0.14021541603E+03  0.00000000000E+00 0. -1.
         21    1    1    2  502  501  0.18390427699E+02 -0.13760106156E+02 -0.10044575011E+03  0.10303832815E+03  0.00000000000E+00 0.  1.
<scales pt_clust_5="13000.00000" pt_clust_6="13000.00000" pt_clust_7="13000.00000" pt_clust_8="13000.00000" pt_clust_9="22.96842"></scales>
<clustering>
<clus scale="   22.968">  2  9  1 -1</clus>
<clus scale="   78.704">  5  6 -1 -1</clus>
<clus scale="   92.116">  7  8 -1 -1</clus>
<clus scale="  269.620">  1  5  2 -1</clus>
<clus scale="  269.620">  1  5  2 -1</clus>
</clustering>
</event>
<event>
 9    2  0.3402837E-005  0.1075603E+03  0.7546771E-02  0.1270165E+00
         -1   -1    0    0    0  501 -0.00000000000E+00  0.00000000000E+00  0.24767720233E+03  0.24767720233E+03  0.00000000000E+00 0.  1.
          2   -1    0    0  502    0  0.00000000000E+00 -0.00000000000E+00 -0.13336566081E+03  0.13336566081E+03  0.00000000000E+00 0. -1.
         23    2    1    2    0    0 -0.18551870947E+02  0.24517304479E+02  0.15965490609E+03  0.18689052916E+03  0.92158074613E+02 0.  0.
         24    2    1    2    0    0 -0.33139659508E+02 -0.52162064417E+02 -0.77245918345E+02  0.12741388921E+03  0.80300991689E+02 0.  0.
        -11    1    4    4    0    0  0.21110847472E+02 -0.30890660797E+02 -0.10604700987E+02  0.38889079295E+02  0.00000000000E+00 0.  1.
         12    1    4    4    0    0 -0.54250506980E+02 -0.21271403620E+02 -0.66641217358E+02  0.88524809915E+02  0.00000000000E+00 0. -1.
        -11    1    3    3    0    0 -0.33111647618E+02 -0.23339389032E+02  0.38807459541E+02  0.56099262066E+02  0.00000000000E+00 0. -1.
         11    1    3    3    0    0  0.14559776670E+02  0.47856693511E+02  0.12084744655E+03  0.13079126709E+03  0.00000000000E+00 0.  1.
         21    1    1    2  502  501  0.51691530456E+02  0.27644759939E+02  0.31902553784E+02  0.66738444774E+02  0.00000000000E+00 0. -1.
<scales pt_clust_5="13000.00000" pt_clust_6="13000.00000" pt_clust_7="13000.00000" pt_clust_8="13000.00000" pt_clust_9="58.61951"></scales>
<clustering>
<clus scale="   58.620">  1  9  2 -1</clus>
<clus scale="   80.301">  5  6 -1 -1</clus>
<clus scale="   92.158">  7  8 -1 -1</clus>
<clus scale="   97.593">  2  5  1 -1</clus>
<clus scale="   97.593">  2  5  1 -1</clus>
</clustering>
</event>
<event>
 9    2  0.3402837E-005  0.1198639E+03  0.7546771E-02  0.1248249E+00
          2   -1    0    0  502    0  0.00000000000E+00  0.00000000000E+00  0.38394588147E+03  0.38394588147E+03  0.00000000000E+00 0. -1.
         -1   -1    0    0    0  501 -0.00000000000E+00 -0.00000000000E+00 -0.55541978107E+02  0.55541978107E+02  0.00000000000E+00 0.  1.
         24    2    1    2    0    0  0.60080641203E+02  0.16090303868E+01  0.38973924158E+02  0.11496952970E+03  0.89926378612E+02 0.  0.
         23    2    1    2    0    0 -0.58670844368E+02  0.20085111257E+02  0.26871841280E+03  0.29449180341E+03  0.10329645309E+03 0.  0.
        -13    1    3    3    0    0  0.43763438652E+02  0.20798108633E+01 -0.23971440343E+02  0.49941907532E+02  0.00000000000E+00 0.  1.
         14    1    3    3    0    0  0.16317202551E+02 -0.47078047643E+00  0.62945364500E+02  0.65027622173E+02  0.00000000000E+00 0. -1.
        -11    1    4    4    0    0 -0.88397649473E+02  0.17131374904E+02  0.21349585610E+03  0.23170694640E+03  0.00000000000E+00 0. -1.
         11    1    4    4    0    0  0.29726805106E+02  0.29537363525E+01  0.55222556702E+02  0.62784857003E+02  0.00000000000E+00 0.  1.
         21    1    1    2  502  501 -0.14097968351E+01 -0.21694141644E+02  0.20711566397E+02  0.30026526462E+02  0.00000000000E+00 0. -1.
<scales pt_clust_5="13000.00000" pt_clust_6="13000.00000" pt_clust_7="13000.00000" pt_clust_8="13000.00000" pt_clust_9="21.73990"></scales>
<clustering>
<clus scale="   21.740">  2  9  1 -1</clus>
<clus scale="   89.926">  5  6 -1 -1</clus>
<clus scale="  103.296">  7  8 -1 -1</clus>
<clus scale="  108.554">  2  5  1 -1</clus>
<clus scale="  119.864">  1  5  2 -1</clus>
</clustering>
</event>
<event>
 9    2  0.3402837E-005  0.1428356E+03  0.7546771E-02  0.1212614E+00
          2   -1    0    0  502    0  0.00000000000E+00  0.00000000000E+00  0.61340927457E+03  0.61340927457E+03  0.00000000000E+00 0. -1.
         -1   -1    0    0    0  501 -0.00000000000E+00 -0.00000000000E+00 -0.68579969688E+02  0.68579969688E+02  0.00000000000E+00 0.  1.
         23    2    1    2    0    0 -0.73910188258E+02  0.92317186583E+02  0.15611652580E+03  0.21674057745E+03  0.92838189453E+02 0.  0.
         24    2    1    2    0    0 -0.21835941617E+02 -0.11615327331E+03  0.30308783463E+03  0.33460751123E+03  0.78304277172E+02 0.  0.
        -11    1    4    4    0    0 -0.23063024198E+02 -0.12707361085E+03  0.26238621992E+03  0.29244851523E+03  0.00000000000E+00 0.  1.
         12    1    4    4    0    0  0.12270825808E+01  0.10920337532E+02  0.40701614707E+02  0.42158995994E+02  0.00000000000E+00 0. -1.
        -13    1    3    3    0    0  0.21976345229E+02  0.23064702929E+02  0.37921048581E+02  0.49527226818E+02  0.00000000000E+00 0.  1.
         13    1    3    3    0    0 -0.95886533487E+02  0.69252483654E+02  0.11819547722E+03  0.16721335064E+03  0.00000000000E+00 0. -1.
         21    1    1    2  502  501  0.95746129875E+02  0.23836086730E+02  0.85624944455E+02  0.13064115557E+03  0.00000000000E+00 0.  1.
<scales pt_clust_5="13000.00000" pt_clust_6="13000.00000" pt_clust_7="13000.00000" pt_clust_8="13000.00000" pt_clust_9="98.66854"></scales>
<clustering>
<clus scale="   78.304">  5  6 -1 -1</clus>
<clus scale="   92.838">  7  8 -1 -1</clus>
<clus scale="   98.669">  2  9  1 -1</clus>
<clus scale="  133.846">  1  5  2 -1</clus>
<clus scale="  133.846">  1  5  2 -1</clus>
</clustering>
</event>
<event>
 9    2  0.3402837E-005  0.9897400E+02  0.7546771E-02  0.1286464E+00
          2   -1    0    0  502    0  0.00000000000E+00  0.00000000000E+00  0.31542566687E+03  0.31542566687E+03  0.00000000000E+00 0. -1.
         -1   -1    0    0    0  501 -0.00000000000E+00 -0.00000000000E+00 -0.10292075669E+03  0.10292075669E+03  0.00000000000E+00 0.  1.
         24    2    1    2    0    0  0.70506631206E+02  0.16901356363E+01  0.27001136661E+01  0.10812523547E+03  0.81912968013E+02 0.  0.
         23    2    1    2    0    0 -0.35732722378E+02 -0.67686831350E+01  0.24314960507E+03  0.26177645012E+03  0.89902930281E+02 0.  0.
        -11    1    3    3    0    0  0.40646073899E+01 -0.32864357052E+02 -0.11653547069E+01  0.33135253874E+02  0.00000000000E+00 0.  1.
         12    1    3    3    0    0  0.66442023817E+02  0.34554492689E+02  0.38654683730E+01  0.74989981595E+02  0.00000000000E+00 0. -1.
        -13    1    4    4    0    0 -0.42363752761E+02 -0.42834245835E+02  0.14645321926E+03  0.15836036624E+03  0.00000000000E+00 0.  1.
         13    1    4    4    0    0  0.66310303831E+01  0.36065562700E+02  0.96696385808E+02  0.10341608388E+03  0.00000000000E+00 0. -1.
         21    1    1    2  502  501 -0.34773908828E+02  0.50785474988E+01 -0.33344808557E+02  0.48444737976E+02  0.00000000000E+00 0. -1.
<scales pt_clust_5="13000.00000" pt_clust_6="13000.00000" pt_clust_7="13000.00000" pt_clust_8="13000.00000" pt_clust_9="35.14280"></scales>
<clustering>
<clus scale="   35.143">  2  9  1 -1</clus>
<clus scale="   81.913">  5  6 -1 -1</clus>
<clus scale="   89.903">  7  8 -1 -1</clus>
<clus scale="   91.777">  2  5  1 -1</clus>
<clus scale="   98.974">  1  5  2 -1</clus>
</clustering>
</event>
<event>
 9    2  0.3402837E-005  0.1454003E+03  0.7546771E-02  0.1208648E+00
          2   -1    0    0  502    0  0.00000000000E+00  0.00000000000E+00  0.10535092462E+04  0.10535092462E+04  0.00000000000E+00 0. -1.
         -1   -1    0    0    0  501 -0.00000000000E+00 -0.00000000000E+00 -0.66155829617E+02  0.66155829617E+02  0.00000000000E+00 0.  1.
         23    2    1    2    0    0  0.84083001643E+02 -0.32419107600E+02  0.10944291341E+03  0.16889282676E+03  0.91793714017E+02 0.  0.
         24    2    1    2    0    0 -0.11804835487E+03  0.58801502501E+00  0.89108262518E+03  0.90239489411E+03  0.79702824067E+02 0.  0.
        -11    1    4    4    0    0 -0.58612082956E+02  0.40039995344E+02  0.42623064664E+03  0.43210084660E+03  0.00000000000E+00 0.  1.
         12    1    4    4    0    0 -0.59436271917E+02 -0.39451980319E+02  0.46485197854E+03  0.47029404751E+03  0.00000000000E+00 0. -1.
        -13    1    3    3    0    0  0.82057956830E+02  0.12817173913E+02  0.76268801087E+02  0.11275955944E+03  0.00000000000E+00 0.  1.
         13    1    3    3    0    0  0.20250448130E+01 -0.45236281513E+02  0.33174112327E+02  0.56133267322E+02  0.00000000000E+00 0. -1.
         21    1    1    2  502  501  0.33965353230E+02  0.31831092575E+02 -0.13172122000E+02  0.48377354956E+02  0.00000000000E+00 0.  1.
<scales pt_clust_5="13000.00000" pt_clust_6="13000.00000" pt_clust_7="13000.00000" pt_clust_8="13000.00000" pt_clust_9="46.54958"></scales>
<clustering>
<clus scale="   46.550">  2  9  1 -1</clus>
<clus scale="   79.703">  5  6 -1 -1</clus>
<clus scale="   91.794">  7  8 -1 -1</clus>
<clus scale="  138.086">  1  5  2 -1</clus>
<clus scale="  138.086">  1  5  2 -1</clus>
</clustering>
</event>
<event>
 9    2  0.3402837E-005  0.1563510E+03  0.7546771E-02  0.1194760E+00
          2   -1    0    0  502    0  0.00000000000E+00  0.00000000000E+00  0.50418159159E+03  0.50418159159E+03  0.00000000000E+00 0. -1.
         -1   -1    0    0    0  501 -0.00000000000E+00 -0.00000000000E+00 -0.16267143904E+03  0.16267143904E+03  0.00000000000E+00 0.  1.
         24    2    1    2    0    0  0.13041716937E+03 -0.48319535256E+02 -0.93199523506E+02  0.18551612414E+03  0.79916616415E+02 0.  0.
         23    2    1    2    0    0 -0.10886232703E+03  0.63366957686E+02  0.42622271068E+03  0.45371328017E+03  0.91233567996E+02 0.  0.
        -13    1    3    3    0    0  0.50733677512E+02 -0.61405911129E+02 -0.45804451105E+02  0.91883838060E+02  0.00000000000E+00 0.  1.
         14    1    3    3    0    0  0.79683491857E+02  0.13086375874E+02 -0.47395072401E+02  0.93632286077E+02  0.00000000000E+00 0. -1.
        -13    1    4    4    0    0 -0.51534050955E+02  0.60258784263E+01  0.29449433102E+03  0.29903006642E+03  0.00000000000E+00 0. -1.
         13    1    4    4    0    0 -0.57328276075E+02  0.57341079260E+02  0.13172837965E+03  0.15468321375E+03  0.00000000000E+00 0.  1.
         21    1    1    2  502  501 -0.21554842340E+02 -0.15047422430E+02  0.84869653785E+01  0.27623626326E+02  0.00000000000E+00 0.  1.
<scales pt_clust_5="13000.00000" pt_clust_6="13000.00000" pt_clust_7="13000.00000" pt_clust_8="13000.00000" pt_clust_9="26.28757"></scales>
<clustering>
<clus scale="   26.288">  2  9  1 -1</clus>
<clus scale="   79.917">  5  6 -1 -1</clus>
<clus scale="   91.234">  7  8 -1 -1</clus>
<clus scale="  150.029">  2  5  1 -1</clus>
<clus scale="  156.351">  1  5  2 -1</clus>
</clustering>
</event>
<event>
 9    2  0.3402837E-005  0.1659958E+03  0.7546771E-02  0.1183792E+00
          2   -1    0    0  502    0  0.00000000000E+00  0.00000000000E+00  0.32684374718E+03  0.32684374718E+03  0.00000000000E+00 0. -1.
         -1   -1    0    0    0  501 -0.00000000000E+00 -0.00000000000E+00 -0.22391995965E+03  0.22391995965E+03  0.00000000000E+00 0.  1.
         24    2    1    2    0    0  0.96297554845E+02  0.12663706908E+03 -0.11694525719E+03  0.21318187575E+03  0.80375074716E+02 0.  0.
         23    2    1    2    0    0 -0.75738534862E+02 -0.11179887857E+03  0.24969467005E+03  0.29843578242E+03  0.92093284569E+02 0.  0.
        -11    1    3    3    0    0  0.38481576694E+02  0.10599529485E+03 -0.96672574837E+02  0.14853087558E+03  0.00000000000E+00 0.  1.
         12    1    3    3    0    0  0.57815978151E+02  0.20641774222E+02 -0.20272682351E+02  0.64651000165E+02  0.00000000000E+00 0. -1.
        -13    1    4    4    0    0  0.15686720767E+02 -0.50738217258E+02  0.91364905214E+02  0.10567869134E+03  0.00000000000E+00 0. -1.
         13    1    4    4    0    0 -0.91425255629E+02 -0.61060661313E+02  0.15832976484E+03  0.19275709108E+03  0.00000000000E+00 0.  1.
         21    1    1    2  502  501 -0.20559019984E+02 -0.14838190506E+02 -0.29825625325E+02  0.39146048667E+02  0.00000000000E+00 0. -1.
<scales pt_clust_5="13000.00000" pt_clust_6="13000.00000" pt_clust_7="13000.00000" pt_clust_8="13000.00000" pt_clust_9="25.35439"></scales>
<clustering>
<clus scale="   25.354">  2  9  1 -1</clus>
<clus scale="   80.375">  5  6 -1 -1</clus>
<clus scale="   92.093">  7  8 -1 -1</clus>
<clus scale="  159.792">  2  5  1 -1</clus>
<clus scale="  165.996">  1  5  2 -1</clus>
</clustering>
</event>
<event>
 9    2  0.3402837E-005  0.1091079E+03  0.7546771E-02  0.1267137E+00
          2   -1    0    0  502    0  0.00000000000E+00  0.00000000000E+00  0.38771837736E+03  0.38771837736E+03  0.00000000000E+00 0. -1.
         -1   -1    0    0    0  501 -0.00000000000E+00 -0.00000000000E+00 -0.12292872875E+03  0.12292872875E+03  0.00000000000E+00 0.  1.
         24    2    1    2    0    0  0.15407663711E+02 -0.68409519949E+02 -0.60128424879E+02  0.12097836869E+03  0.78122209979E+02 0.  0.
         23    2    1    2    0    0  0.57434339952E+01  0.60233055573E+02  0.34352015243E+03  0.36033853379E+03  0.90425415611E+02 0.  0.
        -11    1    3    3    0    0  0.16267984815E+02 -0.81740328693E+02 -0.66073051036E+02  0.10635683682E+03  0.00000000000E+00 0.  1.
         12    1    3    3    0    0 -0.86032110352E+00  0.13330808743E+02  0.59446261573E+01  0.14621531873E+02  0.00000000000E+00 0. -1.
        -11    1    4    4    0    0  0.40295616012E+02  0.86740194840E+01  0.19611177201E+03  0.20039661276E+03  0.00000000000E+00 0. -1.
         11    1    4    4    0    0 -0.34552182016E+02  0.51559036089E+02  0.14740838042E+03  0.15994192103E+03  0.00000000000E+00 0.  1.
         21    1    1    2  502  501 -0.21151097706E+02  0.81764643759E+01 -0.18602078940E+02  0.29330203627E+02  0.00000000000E+00 0.  1.
<scales pt_clust_5="13000.00000" pt_clust_6="13000.00000" pt_clust_7="13000.00000" pt_clust_8="13000.00000" pt_clust_9="22.67650"></scales>
<clustering>
<clus scale="   22.676">  2  9  1 -1</clus>
<clus scale="   78.122">  5  6 -1 -1</clus>
<clus scale="   90.425">  7  8 -1 -1</clus>
<clus scale="   99.151">  2  5  1 -1</clus>
<clus scale="  109.108">  1  5  2 -1</clus>
</clustering>
</event>
<event>
 9    2  0.3402837E-005  0.1396498E+03  0.7546771E-02  0.1218585E+00
          2   -1    0    0  502    0  0.00000000000E+00  0.00000000000E+00  0.33581420039E+03  0.33581420039E+03  0.00000000000E+00 0. -1.
         -1   -1    0    0    0  501 -0.00000000000E+00 -0.00000000000E+00 -0.18650742301E+03  0.18650742301E+03  0.00000000000E+00 0.  1.
         24    2    1    2    0    0  0.65144959332E+02  0.14133114037E+02  0.52671955382E+02  0.11621331310E+03  0.79294316443E+02 0.  0.
         23    2    1    2    0    0 -0.12167795632E+03 -0.22342240267E+02  0.21937964662E+03  0.27072123013E+03  0.99286727920E+02 0.  0.
        -11    1    3    3    0    0  0.49542635095E+02 -0.66974835220E+01 -0.75949801355E+01  0.50566913105E+02  0.00000000000E+00 0.  1.
         12    1    3    3    0    0  0.15602324237E+02  0.20830597559E+02  0.60266935517E+02  0.65646399999E+02  0.00000000000E+00 0. -1.
        -11    1    4    4    0    0 -0.51334678981E+02  0.82749161176E+01  0.17396404732E+03  0.18156875630E+03  0.00000000000E+00 0. -1.
         11    1    4    4    0    0 -0.70343277339E+02 -0.30617156385E+02  0.45415599296E+02  0.89152473837E+02  0.00000000000E+00 0.  1.
         21    1    1    2  502  501  0.56532996988E+02  0.82091262308E+01 -0.12274482463E+03  0.13538708016E+03  0.00000000000E+00 0. -1.
<scales pt_clust_5="13000.00000" pt_clust_6="13000.00000" pt_clust_7="13000.00000" pt_clust_8="13000.00000" pt_clust_9="57.12591"></scales>
<clustering>
<clus scale="   57.126">  2  9  1 -1</clus>
<clus scale="   79.294">  5  6 -1 -1</clus>
<clus scale="   99.287">  7  8 -1 -1</clus>
<clus scale="  126.221">  2  5  1 -1</clus>
<clus scale="  139.650">  1  5  2 -1</clus>
</clustering>
</event>
<event>
 9    2  0.3402837E-005  0.1653017E+03  0.7546771E-02  0.1184941E+00
          2   -1    0    0  502    0  0.00000000000E+00  0.00000000000E+00  0.22517292191E+03  0.22517292191E+03  0.00000000000E+00 0. -1.
         -1   -1    0    0    0  501 -0.00000000000E+00 -0.00000000000E+00 -0.21915394199E+03  0.21915394199E+03  0.00000000000E+00 0.  1.
         24    2    1    2    0    0 -0.39139309291E+02  0.78062108455E+02 -0.42819543793E+02  0.12560906850E+03  0.79489285126E+02 0.  0.
         23    2    1    2    0    0  0.80202361681E+02 -0.15012671513E+03  0.10278109212E+03  0.21977699243E+03  0.93635058015E+02 0.  0.
        -13    1    3    3    0    0  0.99180556363E+01  0.37375743260E+02 -0.48030735659E+02  0.61662513570E+02  0.00000000000E+00 0.  1.
         14    1    3    3    0    0 -0.49057364928E+02  0.40686365195E+02  0.52111918660E+01  0.63946554927E+02  0.00000000000E+00 0. -1.
        -13    1    4    4    0    0  0.86824022469E+02 -0.96967491826E+02  0.37748326106E+02  0.13552136906E+03  0.00000000000E+00 0. -1.
         13    1    4    4    0    0 -0.66216607882E+01 -0.53159223306E+02  0.65032766010E+02  0.84255623367E+02  0.00000000000E+00 0.  1.
         21    1    1    2  502  501 -0.41063052390E+02  0.72064606678E+02 -0.53942568404E+02  0.98940802974E+02  0.00000000000E+00 0. -1.
<scales pt_clust_5="13000.00000" pt_clust_6="13000.00000" pt_clust_7="13000.00000" pt_clust_8="13000.00000" pt_clust_9="82.94264"></scales>
<clustering>
<clus scale="   79.489">  5  6 -1 -1</clus>
<clus scale="   82.943">  2  9  1 -1</clus>
<clus scale="   93.635">  7  8 -1 -1</clus>
<clus scale="  157.720">  2  5  1 -1</clus>
<clus scale="  165.302">  1  5  2 -1</clus>
</clustering>
</event>
<event>
 9    2  0.3402837E-005  0.1929888E+03  0.7546771E-02  0.1187596E+00
         -1   -1    0    0    0  501 -0.00000000000E+00  0.00000000000E+00  0.89662725344E+02  0.89662725344E+02  0.00000000000E+00 0.  1.
          2   -1    0    0  502    0  0.00000000000E+00 -0.00000000000E+00 -0.10727032363E+04  0.10727032363E+04  0.00000000000E+00 0. -1.
         23    2    1    2    0    0  0.23217010703E+02  0.19922219596E+01 -0.44425209422E+01  0.93533503053E+02  0.90475309708E+02 0.  0.
         24    2    1    2    0    0 -0.13013412518E+03 -0.12684338593E+03 -0.80875143611E+03  0.83247058692E+03  0.76839166956E+02 0.  0.
        -13    1    4    4    0    0 -0.38062403128E+02 -0.25367710682E+02 -0.92045833846E+02  0.10278474014E+03  0.00000000000E+00 0.  1.
         14    1    4    4    0    0 -0.92071722057E+02 -0.10147567525E+03 -0.71670560226E+03  0.72968584678E+03  0.00000000000E+00 0. -1.
        -13    1    3    3    0    0  0.31852403502E+02 -0.19336902872E+02  0.32875089043E+02  0.49691678389E+02  0.00000000000E+00 0.  1.
         13    1    3    3    0    0 -0.86353927991E+01  0.21329124831E+02 -0.37317609986E+02  0.43841824664E+02  0.00000000000E+00 0. -1.
         21    1    1    2  502  501  0.10691711448E+03  0.12485116397E+03 -0.16984655395E+03  0.23636187172E+03  0.00000000000E+00 0.  1.
<scales pt_clust_5="13000.00000" pt_clust_6="13000.00000" pt_clust_7="13000.00000" pt_clust_8="13000.00000" pt_clust_9="177.03227"></scales>
<clustering>
<clus scale="   76.839">  5  6 -1 -1</clus>
<clus scale="   90.475">  7  8 -1 -1</clus>
<clus scale="   93.428">  1  7  2 -1</clus>
<clus scale="  177.032">  1  9  2 -1</clus>
<clus scale="  192.989">  2  5  1 -1</clus>
</clustering>
</event>
<event>
 9    2  0.3917370E-005  0.1160001E+03  0.7546771E-02  0.1251111E+00
         -3   -1    0    0    0  501 -0.00000000000E+00  0.00000000000E+00  0.23881192072E+03  0.23881192072E+03  0.00000000000E+00 0.  1.
          4   -1    0    0  502    0  0.00000000000E+00 -0.00000000000E+00 -0.38743278631E+03  0.38743278631E+03  0.00000000000E+00 0. -1.
         24    2    1    2    0    0 -0.32032419105E+01  0.39092175608E+01  0.18576788554E+03  0.20976051713E+03  0.97284245928E+02 0.  0.
         23    2    1    2    0    0  0.39168389581E+02 -0.53089098959E+02 -0.33651202442E+03  0.35551976691E+03  0.93815493991E+02 0.  0.
        -11    1    3    3    0    0 -0.15997659176E+02  0.27821850194E+02  0.17893822199E+03  0.18179347551E+03  0.00000000000E+00 0.  1.
         12    1    3    3    0    0  0.12794417265E+02 -0.23912632633E+02  0.68296635469E+01  0.27967041617E+02  0.00000000000E+00 0. -1.
        -13    1    4    4    0    0 -0.16799469042E+02 -0.55716051852E+02 -0.18745052333E+03  0.19627582452E+03  0.00000000000E+00 0. -1.
         13    1    4    4    0    0  0.55967858624E+02  0.26269528928E+01 -0.14906150109E+03  0.15924394239E+03  0.00000000000E+00 0.  1.
         21    1    1    2  502  501 -0.35965147671E+02  0.49179881398E+02  0.21232732900E+01  0.60964422992E+02  0.00000000000E+00 0.  1.
<scales pt_clust_5="13000.00000" pt_clust_6="13000.00000" pt_clust_7="13000.00000" pt_clust_8="13000.00000" pt_clust_9="60.92744"></scales>
<clustering>
<clus scale="   60.927">  1  9  2 -1</clus>
<clus scale="   93.815">  7  8 -1 -1</clus>
<clus scale="   97.284">  5  6 -1 -1</clus>
<clus scale="  113.107">  2  7  1 -1</clus>
<clus scale="  113.107">  2  5  1 -1</clus>
</clustering>
</event>
<event>
 9    2  0.3402837E-005  0.2406934E+03  0.7546771E-02  0.1120560E+00
         -1   -1    0    0    0  501 -0.00000000000E+00  0.00000000000E+00  0.16380864702E+03  0.16380864702E+03  0.00000000000E+00 0.  1.
          2   -1    0    0  502    0  0.00000000000E+00 -0.00000000000E+00 -0.10589846488E+04  0.10589846488E+04  0.00000000000E+00 0. -1.
         23    2    1    2    0    0  0.16510867765E+03 -0.14797162137E+03 -0.17067881083E+02  0.24345352007E+03  0.99105134615E+02 0.  0.
         24    2    1    2    0    0 -0.20214158700E+03  0.87781358082E+02 -0.87791950711E+03  0.90866913301E+03  0.79813183716E+02 0.  0.
        -11    1    4    4    0    0 -0.91839835129E+02  0.78289050728E+02 -0.38504244790E+03  0.40351135978E+03  0.00000000000E+00 0.  1.
         12    1    4    4    0    0 -0.11030175187E+03  0.94923073541E+01 -0.49287705921E+03  0.50515777323E+03  0.00000000000E+00 0. -1.
        -13    1    3    3    0    0  0.82373536202E+02 -0.10446087209E+03 -0.53144914165E+02  0.14325451185E+03  0.00000000000E+00 0. -1.
         13    1    3    3    0    0  0.82735141443E+02 -0.43510749279E+02  0.36077033083E+02  0.10019900822E+03  0.00000000000E+00 0.  1.
         21    1    1    2  502  501  0.37032909356E+02  0.60190263288E+02 -0.18861358013E+00  0.70670642739E+02  0.00000000000E+00 0.  1.
<scales pt_clust_5="13000.00000" pt_clust_6="13000.00000" pt_clust_7="13000.00000" pt_clust_8="13000.00000" pt_clust_9="70.67039"></scales>
<clustering>
<clus scale="   70.670">  1  9  2 -1</clus>
<clus scale="   79.813">  5  6 -1 -1</clus>
<clus scale="   99.105">  7  8 -1 -1</clus>
<clus scale="  233.413">  2  5  1 -1</clus>
<clus scale="  233.413">  2  5  1 -1</clus>
</clustering>
</event>
<event>
 9    2  0.3402837E-005  0.1206536E+03  0.7546771E-02  0.1244964E+00
         -3   -1    0    0    0  501 -0.00000000000E+00  0.00000000000E+00  0.66287719609E+02  0.66287719609E+02  0.00000000000E+00 0.  1.
          4   -1    0    0  502    0  0.00000000000E+00 -0.00000000000E+00 -0.33608131269E+03  0.33608131269E+03  0.00000000000E+00 0. -1.
         23    2    1    2    0    0  0.32475443394E+02  0.56354707054E+02 -0.35358238002E+02  0.11669109885E+03  0.90200333292E+02 0.  0.
         24    2    1    2    0    0 -0.43843141057E+02 -0.73068715631E+02 -0.23781418132E+03  0.26518405389E+03  0.80658163746E+02 0.  0.
        -11    1    4    4    0    0  0.12200303005E+02 -0.45617852801E+02 -0.57666778300E+02  0.74533839342E+02  0.00000000000E+00 0.  1.
         12    1    4    4    0    0 -0.56043444061E+02 -0.27450862830E+02 -0.18014740302E+03  0.19065021454E+03  0.00000000000E+00 0. -1.
        -13    1    3    3    0    0  0.28569377523E+01  0.58097323849E+02  0.13329641759E+02  0.59675292049E+02  0.00000000000E+00 0.  1.
         13    1    3    3    0    0  0.29618505642E+02 -0.17426167951E+01 -0.48687879761E+02  0.57015806803E+02  0.00000000000E+00 0. -1.
         21    1    1    2  502  501  0.11367697663E+02  0.16714008577E+02  0.33788262348E+01  0.20493879564E+02  0.00000000000E+00 0.  1.
<scales pt_clust_5="13000.00000" pt_clust_6="13000.00000" pt_clust_7="13000.00000" pt_clust_8="13000.00000" pt_clust_9="20.21343"></scales>
<clustering>
<clus scale="   20.213">  1  9  2 -1</clus>
<clus scale="   80.658">  5  6 -1 -1</clus>
<clus scale="   90.200">  7  8 -1 -1</clus>
<clus scale="  113.697">  2  5  1 -1</clus>
<clus scale="  113.697">  2  5  1 -1</clus>
</clustering>
</event>
<event>
 9    2  0.3402837E-005  0.1308210E+03  0.7546771E-02  0.1229266E+00
         -1   -1    0    0    0  501 -0.00000000000E+00  0.00000000000E+00  0.16692325944E+03  0.16692325944E+03  0.00000000000E+00 0.  1.
          2   -1    0    0  502    0  0.00000000000E+00 -0.00000000000E+00 -0.87638922366E+03  0.87638922366E+03  0.00000000000E+00 0. -1.
         23    2    1    2    0    0 -0.43607894202E+02 -0.85957313916E+02  0.12469684430E+03  0.18226624367E+03  0.91549835341E+02 0.  0.
         24    2    1    2    0    0  0.57814710784E+02  0.88736650157E-01 -0.64913336077E+03  0.65656850780E+03  0.79784313667E+02 0.  0.
        -13    1    4    4    0    0 -0.13510106665E+02 -0.16401432059E+02 -0.81112122974E+02  0.83849307981E+02  0.00000000000E+00 0.  1.
         14    1    4    4    0    0  0.71324817449E+02  0.16490168709E+02 -0.56802123780E+03  0.57271919982E+03  0.00000000000E+00 0. -1.
        -13    1    3    3    0    0 -0.80199284182E+01 -0.92029389447E+02  0.66664154201E+02  0.11392031087E+03  0.00000000000E+00 0.  1.
         13    1    3    3    0    0 -0.35587965784E+02  0.60720755308E+01  0.58032690102E+02  0.68345932801E+02  0.00000000000E+00 0. -1.
         21    1    1    2  502  501 -0.14206816582E+02  0.85868577266E+02 -0.18502944774E+03  0.20447773163E+03  0.00000000000E+00 0. -1.
<scales pt_clust_5="13000.00000" pt_clust_6="13000.00000" pt_clust_7="13000.00000" pt_clust_8="13000.00000" pt_clust_9="87.03589"></scales>
<clustering>
<clus scale="   79.784">  5  6 -1 -1</clus>
<clus scale="   87.036">  2  9  1 -1</clus>
<clus scale="   91.550">  7  8 -1 -1</clus>
<clus scale="  122.875">  2  5  1 -1</clus>
<clus scale="   87.036">  2  5  1 -1</clus>
</clustering>
</event>
<event>
 9    2  0.3402837E-005  0.1098535E+03  0.7546771E-02  0.1262441E+00
         -1   -1    0    0    0  501 -0.00000000000E+00  0.00000000000E+00  0.50749129376E+02  0.50749129376E+02  0.00000000000E+00 0.  1.
          2   -1    0    0  502    0  0.00000000000E+00 -0.00000000000E+00 -0.61371997964E+03  0.61371997964E+03  0.00000000000E+00 0. -1.
         24    2    1    2    0    0 -0.58737958730E+02 -0.29469393768E+01 -0.14451937492E+03  0.17553006498E+03  0.80412198931E+02 0.  0.
         23    2    1    2    0    0  0.57759065032E+02  0.57291207473E+02 -0.41838631232E+03  0.43458592127E+03  0.84849423033E+02 0.  0.
        -13    1    3    3    0    0 -0.48630021991E+02 -0.13809055310E+02 -0.27450725810E+02  0.57524876314E+02  0.00000000000E+00 0.  1.
         14    1    3    3    0    0 -0.10107936739E+02  0.10862115933E+02 -0.11706864911E+03  0.11800518867E+03  0.00000000000E+00 0. -1.
        -11    1    4    4    0    0  0.36207611107E+01  0.61802905373E+02 -0.19020106876E+03  0.20002288764E+03  0.00000000000E+00 0.  1.
         11    1    4    4    0    0  0.54138303921E+02 -0.45116979006E+01 -0.22818524356E+03  0.23456303363E+03  0.00000000000E+00 0. -1.
         21    1    1    2  502  501  0.97889369764E+00 -0.54344268096E+02 -0.65163026450E-01  0.54353122762E+02  0.00000000000E+00 0.  1.
<scales pt_clust_5="13000.00000" pt_clust_6="13000.00000" pt_clust_7="13000.00000" pt_clust_8="13000.00000" pt_clust_9="54.35308"></scales>
<clustering>
<clus scale="   54.353">  1  9  2 -1</clus>
<clus scale="   80.412">  5  6 -1 -1</clus>
<clus scale="   84.849">  7  8 -1 -1</clus>
<clus scale="  106.464">  1  5  2 -1</clus>
<clus scale="  109.853">  2  5  1 -1</clus>
</clustering>
</event>
<event>
 9    2  0.3402837E-005  0.9922638E+02  0.7546771E-02  0.1287445E+00
          2   -1    0    0  502    0  0.00000000000E+00  0.00000000000E+00  0.26308262454E+03  0.26308262454E+03  0.00000000000E+00 0. -1.
         -1   -1    0    0    0  501 -0.00000000000E+00 -0.00000000000E+00 -0.14350204986E+03  0.14350204986E+03  0.00000000000E+00 0.  1.
         23    2    1    2    0    0  0.59537395477E+01  0.30864925781E+02 -0.91098321163E+02  0.13289376503E+03  0.91508240100E+02 0.  0.
         24    2    1    2    0    0 -0.40685513685E+02 -0.30183974774E+01  0.21055661399E+03  0.22917416841E+03  0.80760696033E+02 0.  0.
        -11    1    4    4    0    0 -0.87519367203E+01 -0.35559755219E+02  0.48178041219E+02  0.60516247763E+02  0.00000000000E+00 0.  1.
         12    1    4    4    0    0 -0.31933576964E+02  0.32541357742E+02  0.16237857277E+03  0.16865792065E+03  0.00000000000E+00 0. -1.
        -13    1    3    3    0    0 -0.36009672602E+02 -0.76623188832E+01 -0.52341964796E+02  0.63992881872E+02  0.00000000000E+00 0. -1.
         13    1    3    3    0    0  0.41963412150E+02  0.38527244664E+02 -0.38756356366E+02  0.68900883154E+02  0.00000000000E+00 0.  1.
         21    1    1    2  502  501  0.34731774137E+02 -0.27846528303E+02  0.12228185539E+00  0.44516740965E+02  0.00000000000E+00 0.  1.
<scales pt_clust_5="13000.00000" pt_clust_6="13000.00000" pt_clust_7="13000.00000" pt_clust_8="13000.00000" pt_clust_9="44.51657"></scales>
<clustering>
<clus scale="   44.517">  2  9  1 -1</clus>
<clus scale="   80.761">  5  6 -1 -1</clus>
<clus scale="   89.411">  1  5  2 -1</clus>
<clus scale="   91.508">  7  8 -1 -1</clus>
<clus scale="   89.411">  1  5  2 -1</clus>
</clustering>
</event>
<event>
 9    2  0.3402837E-005  0.1375313E+03  0.7546771E-02  0.1218998E+00
         -1   -1    0    0    0  501 -0.00000000000E+00  0.00000000000E+00  0.24304218996E+03  0.24304218996E+03  0.00000000000E+00 0.  1.
          2   -1    0    0  502    0  0.00000000000E+00 -0.00000000000E+00 -0.92855940994E+02  0.92855940994E+02  0.00000000000E+00 0. -1.
         24    2    1    2    0    0  0.26651977010E+02 -0.11015286528E+03  0.96902143878E+02  0.16950006688E+03  0.80599414233E+02 0.  0.
         23    2    1    2    0    0 -0.36247234430E+02  0.90196686475E+02  0.34697299198E+02  0.13748807635E+03  0.90828213186E+02 0.  0.
        -13    1    3    3    0    0  0.45787932280E+02 -0.64409628278E+02  0.26423684080E+02  0.83326742633E+02  0.00000000000E+00 0.  1.
         14    1    3    3    0    0 -0.19135955271E+02 -0.45743237005E+02  0.70478459799E+02  0.86173324245E+02  0.00000000000E+00 0. -1.
        -11    1    4    4    0    0  0.23658100093E+02  0.56529079593E+01  0.22538708388E+02  0.33161038045E+02  0.00000000000E+00 0.  1.
         11    1    4    4    0    0 -0.59905334523E+02  0.84543778516E+02  0.12158590810E+02  0.10432703830E+03  0.00000000000E+00 0. -1.
         21    1    1    2  502  501  0.95952574204E+01  0.19956178807E+02  0.18586805892E+02  0.28909987734E+02  0.00000000000E+00 0.  1.
<scales pt_clust_5="13000.00000" pt_clust_6="13000.00000" pt_clust_7="13000.00000" pt_clust_8="13000.00000" pt_clust_9="22.14313"></scales>
<clustering>
<clus scale="   22.143">  1  9  2 -1</clus>
<clus scale="   80.599">  5  6 -1 -1</clus>
<clus scale="   90.828">  7  8 -1 -1</clus>
<clus scale="  131.001">  1  5  2 -1</clus>
<clus scale="  137.531">  2  5  1 -1</clus>
</clustering>
</event>
<event>
 9    2  0.3402837E-005  0.9920325E+02  0.7546771E-02  0.1288265E+00
          2   -1    0    0  502    0  0.00000000000E+00  0.00000000000E+00  0.45597186908E+03  0.45597186908E+03  0.00000000000E+00 0. -1.
         -1   -1    0    0    0  501 -0.00000000000E+00 -0.00000000000E+00 -0.30874965833E+02  0.30874965833E+02  0.00000000000E+00 0.  1.
         23    2    1    2    0    0  0.26671404515E+02 -0.25686906196E+02  0.11927920865E+03  0.15514033188E+03  0.92031581495E+02 0.  0.
         24    2    1    2    0    0 -0.37982295866E+02  0.73194270088E+01  0.29397808684E+03  0.30710006349E+03  0.79944384704E+02 0.  0.
        -13    1    4    4    0    0  0.11885639312E+02 -0.24430167919E+02  0.61691171147E+02  0.67408472197E+02  0.00000000000E+00 0.  1.
         14    1    4    4    0    0 -0.49867935178E+02  0.31749594928E+02  0.23228691569E+03  0.23969159129E+03  0.00000000000E+00 0. -1.
        -11    1    3    3    0    0  0.18899871960E+02 -0.55715454311E+02  0.43229356049E+02  0.73008179224E+02  0.00000000000E+00 0.  1.
         11    1    3    3    0    0  0.77715325557E+01  0.30028548115E+02  0.76049852597E+02  0.82132152658E+02  0.00000000000E+00 0. -1.
         21    1    1    2  502  501  0.11310891351E+02  0.18367479187E+02  0.11839607768E+02  0.24606439542E+02  0.00000000000E+00 0. -1.
<scales pt_clust_5="13000.00000" pt_clust_6="13000.00000" pt_clust_7="13000.00000" pt_clust_8="13000.00000" pt_clust_9="21.57083"></scales>
<clustering>
<clus scale="   21.571">  2  9  1 -1</clus>
<clus scale="   79.944">  5  6 -1 -1</clus>
<clus scale="   88.105">  1  5  2 -1</clus>
<clus scale="   92.032">  7  8 -1 -1</clus>
<clus scale="   88.105">  1  5  2 -1</clus>
</clustering>
</event>
<event>
 9    2  0.3402837E-005  0.9647151E+02  0.7546771E-02  0.1293012E+00
         -1   -1    0    0    0  501 -0.00000000000E+00  0.00000000000E+00  0.26681832812E+03  0.26681832812E+03  0.00000000000E+00 0.  1.
          2   -1    0    0  502    0  0.00000000000E+00 -0.00000000000E+00 -0.11169368352E+03  0.11169368352E+03  0.00000000000E+00 0. -1.
         24    2    1    2    0    0  0.49130828412E+01 -0.35553656150E+02  0.13518790281E+03  0.16147524736E+03  0.80686340824E+02 0.  0.
         23    2    1    2    0    0  0.20274697769E+02  0.28979719055E+02 -0.72506629469E+02  0.12099813751E+03  0.90180100229E+02 0.  0.
        -11    1    3    3    0    0  0.53814910416E+01 -0.28758097448E+02  0.14588699247E+03  0.14879181156E+03  0.00000000000E+00 0.  1.
         12    1    3    3    0    0 -0.46840820045E+00 -0.67955587013E+01 -0.10699089658E+02  0.12683435805E+02  0.00000000000E+00 0. -1.
        -13    1    4    4    0    0  0.46590140760E+02 -0.10916776212E+02 -0.26695748311E+02  0.54794892068E+02  0.00000000000E+00 0.  1.
         13    1    4    4    0    0 -0.26315442990E+02  0.39896495267E+02 -0.45810881157E+02  0.66203245440E+02  0.00000000000E+00 0. -1.
         21    1    1    2  502  501 -0.25187780610E+02  0.65739370949E+01  0.92443371263E+02  0.96038626768E+02  0.00000000000E+00 0.  1.
<scales pt_clust_5="13000.00000" pt_clust_6="13000.00000" pt_clust_7="13000.00000" pt_clust_8="13000.00000" pt_clust_9="26.03154"></scales>
<clustering>
<clus scale="   26.032">  1  9  2 -1</clus>
<clus scale="   80.686">  5  6 -1 -1</clus>
<clus scale="   87.662">  1  5  2 -1</clus>
<clus scale="   90.180">  7  8 -1 -1</clus>
<clus scale="   96.472">  2  5  1 -1</clus>
</clustering>
</event>
<event>
 9    2  0.3402837E-005  0.1013050E+03  0.7546771E-02  0.1283034E+00
          2   -1    0    0  502    0  0.00000000000E+00  0.00000000000E+00  0.91026916059E+02  0.91026916059E+02  0.00000000000E+00 0. -1.
         -1   -1    0    0    0  501 -0.00000000000E+00 -0.00000000000E+00 -0.37741425459E+03  0.37741425459E+03  0.00000000000E+00 0.  1.
         23    2    1    2    0    0 -0.39189842424E+02  0.28350155713E+02 -0.15151293443E+03  0.18315633762E+03  0.90832260973E+02 0.  0.
         24    2    1    2    0    0  0.18616101450E+02 -0.41172640944E+02  0.46279286754E+02  0.10251625078E+03  0.79536555726E+02 0.  0.
        -11    1    4    4    0    0  0.21684387471E+02  0.20343546129E+02  0.17841612627E+02  0.34675577432E+02  0.00000000000E+00 0.  1.
         12    1    4    4    0    0 -0.30682860209E+01 -0.61516187073E+02  0.28437674127E+02  0.67840673352E+02  0.00000000000E+00 0. -1.
        -11    1    3    3    0    0 -0.52022199142E+02  0.53469811969E+02 -0.11346818019E+03  0.13579527942E+03  0.00000000000E+00 0.  1.
         11    1    3    3    0    0  0.12832356718E+02 -0.25119656256E+02 -0.38044754239E+02  0.47361058207E+02  0.00000000000E+00 0. -1.
         21    1    1    2  502  501  0.20573740974E+02  0.12822485231E+02 -0.18115369086E+03  0.18276858225E+03  0.00000000000E+00 0.  1.
<scales pt_clust_5="13000.00000" pt_clust_6="13000.00000" pt_clust_7="13000.00000" pt_clust_8="13000.00000" pt_clust_9="24.24242"></scales>
<clustering>
<clus scale="   24.242">  2  9  1 -1</clus>
<clus scale="   79.537">  5  6 -1 -1</clus>
<clus scale="   90.832">  7  8 -1 -1</clus>
<clus scale="   91.314">  1  5  2 -1</clus>
<clus scale="   91.314">  1  5  2 -1</clus>
</clustering>
</event>
<event>
 9    2  0.3402837E-005  0.1337429E+03  0.7546771E-02  0.1225435E+00
         -1   -1    0    0    0  501 -0.00000000000E+00  0.00000000000E+00  0.43680146290E+03  0.43680146290E+03  0.00000000000E+00 0.  1.
          2   -1    0    0  502    0  0.00000000000E+00 -0.00000000000E+00 -0.51666814818E+02  0.51666814818E+02  0.00000000000E+00 0. -1.
         23    2    1    2    0    0 -0.74722620961E+02  0.81814824725E+02  0.26057600155E+03  0.29781001009E+03  0.92270330556E+02 0.  0.
         24    2    1    2    0    0  0.47958120474E+02 -0.62207658455E+02  0.10066845368E+03  0.14977403142E+03  0.78283771188E+02 0.  0.
        -11    1    4    4    0    0  0.65076346779E+02 -0.25251561275E+02  0.69345285842E+02  0.98393805320E+02  0.00000000000E+00 0.  1.
         12    1    4    4    0    0 -0.17118226305E+02 -0.36956097180E+02  0.31323167839E+02  0.51380226100E+02  0.00000000000E+00 0. -1.
        -13    1    3    3    0    0 -0.29252639258E+02  0.41369488595E+02  0.21731923340E+03  0.22314748642E+03  0.00000000000E+00 0.  1.
         13    1    3    3    0    0 -0.45469981703E+02  0.40445336131E+02  0.43256768152E+02  0.74662523676E+02  0.00000000000E+00 0. -1.
         21    1    1    2  502  501  0.26764500487E+02 -0.19607166270E+02  0.23890192852E+02  0.40884236205E+02  0.00000000000E+00 0.  1.
<scales pt_clust_5="13000.00000" pt_clust_6="13000.00000" pt_clust_7="13000.00000" pt_clust_8="13000.00000" pt_clust_9="33.17800"></scales>
<clustering>
<clus scale="   33.178">  2  9  1 -1</clus>
<clus scale="   78.284">  5  6 -1 -1</clus>
<clus scale="   92.270">  7  8 -1 -1</clus>
<clus scale="  124.506">  2  5  1 -1</clus>
<clus scale="   33.178">  2  5  1 -1</clus>
</clustering>
</event>
<event>
 9    2  0.3402837E-005  0.9275805E+02  0.7546771E-02  0.1301541E+00
          2   -1    0    0  502    0  0.00000000000E+00  0.00000000000E+00  0.45804755325E+02  0.45804755325E+02  0.00000000000E+00 0. -1.
         -1   -1    0    0    0  501 -0.00000000000E+00 -0.00000000000E+00 -0.43815282326E+03  0.43815282326E+03  0.00000000000E+00 0.  1.
         24    2    1    2    0    0 -0.19252495173E+00 -0.31911663308E+02 -0.18949112571E+03  0.20836287717E+03  0.80559360320E+02 0.  0.
         23    2    1    2    0    0  0.23777646183E+02  0.11675137221E+02 -0.27155638838E+02  0.97166220111E+02  0.89454794856E+02 0.  0.
        -13    1    3    3    0    0 -0.19959748087E+02 -0.45265192058E+02 -0.65418114275E+02  0.82017430044E+02  0.00000000000E+00 0.  1.
         14    1    3    3    0    0  0.19767223136E+02  0.13353528750E+02 -0.12407301144E+03  0.12634544712E+03  0.00000000000E+00 0. -1.
        -11    1    4    4    0    0 -0.27628639720E+02 -0.42683476301E+01  0.12187793390E+02  0.30497587314E+02  0.00000000000E+00 0. -1.
         11    1    4    4    0    0  0.51406285903E+02  0.15943484851E+02 -0.39343432228E+02  0.66668632797E+02  0.00000000000E+00 0.  1.
         21    1    1    2  502  501 -0.23585121232E+02  0.20236526086E+02 -0.17570130338E+03  0.17842848130E+03  0.00000000000E+00 0.  1.
<scales pt_clust_5="13000.00000" pt_clust_6="13000.00000" pt_clust_7="13000.00000" pt_clust_8="13000.00000" pt_clust_9="31.07692"></scales>
<clustering>
<clus scale="   31.077">  2  9  1 -1</clus>
<clus scale="   80.559">  5  6 -1 -1</clus>
<clus scale="   84.212">  2  5  1 -1</clus>
<clus scale="   89.455">  7  8 -1 -1</clus>
<clus scale="   92.758">  1  5  2 -1</clus>
</clustering>
</event>
<event>
 9    2  0.3402837E-005  0.9121854E+02  0.7546771E-02  0.1301834E+00
         -1   -1    0    0    0  501 -0.00000000000E+00  0.00000000000E+00  0.27015301354E+02  0.27015301354E+02  0.00000000000E+00 0.  1.
          2   -1    0    0  502    0  0.00000000000E+00 -0.00000000000E+00 -0.53802728957E+03  0.53802728957E+03  0.00000000000E+00 0. -1.
         23    2    1    2    0    0 -0.13558764244E+02  0.67205737064E+00 -0.85210034357E+02  0.12075428332E+03  0.84478134657E+02 0.  0.
         24    2    1    2    0    0  0.40422049448E+02 -0.39775055451E+01 -0.38345743564E+03  0.39403275764E+03  0.81070626689E+02 0.  0.
        -11    1    4    4    0    0 -0.20813516598E+02 -0.33755514374E+01 -0.40595474299E+02  0.45744828716E+02  0.00000000000E+00 0.  1.
         12    1    4    4    0    0  0.61235566046E+02 -0.60195410771E+00 -0.34286196134E+03  0.34828792892E+03  0.00000000000E+00 0. -1.
        -13    1    3    3    0    0 -0.35044047504E+02  0.31011213766E+02 -0.35791629852E+02  0.58913677632E+02  0.00000000000E+00 0.  1.
         13    1    3    3    0    0  0.21485283260E+02 -0.30339156395E+02 -0.49418404506E+02  0.61840605684E+02  0.00000000000E+00 0. -1.
         21    1    1    2  502  501 -0.26863285204E+02  0.33054481745E+01 -0.42344518218E+02  0.50255549969E+02  0.00000000000E+00 0.  1.
<scales pt_clust_5="13000.00000" pt_clust_6="13000.00000" pt_clust_7="13000.00000" pt_clust_8="13000.00000" pt_clust_9="27.06588"></scales>
<clustering>
<clus scale="   27.066">  1  9  2 -1</clus>
<clus scale="   81.071">  5  6 -1 -1</clus>
<clus scale="   84.478">  7  8 -1 -1</clus>
<clus scale="   88.072">  2  5  1 -1</clus>
<clus scale="   88.072">  2  5  1 -1</clus>
</clustering>
</event>
<event>
 9    2  0.3402837E-005  0.9144340E+02  0.7546771E-02  0.1304962E+00
          4   -1    0    0  502    0  0.00000000000E+00  0.00000000000E+00  0.11662533886E+03  0.11662533886E+03  0.00000000000E+00 0. -1.
         -3   -1    0    0    0  501 -0.00000000000E+00 -0.00000000000E+00 -0.14415637734E+03  0.14415637734E+03  0.00000000000E+00 0.  1.
         23    2    1    2    0    0 -0.37212213867E+02  0.15334649651E+02 -0.61414207460E+02  0.11537121199E+03  0.88988265170E+02 0.  0.
         24    2    1    2    0    0  0.17351488986E+02  0.50582758685E+01  0.64055044380E+02  0.10392964273E+03  0.79822688522E+02 0.  0.
        -11    1    4    4    0    0  0.35604427100E+02  0.45124686531E+01 -0.14583081826E+01  0.35918856680E+02  0.00000000000E+00 0.  1.
         12    1    4    4    0    0 -0.18252938114E+02  0.54580721535E+00  0.65513352562E+02  0.68010786051E+02  0.00000000000E+00 0. -1.
        -11    1    3    3    0    0 -0.33352243537E+02  0.47705511807E+02 -0.17700470520E+02  0.60839910111E+02  0.00000000000E+00 0.  1.
         11    1    3    3    0    0 -0.38599703299E+01 -0.32370862155E+02 -0.43713736941E+02  0.54531301882E+02  0.00000000000E+00 0. -1.
         21    1    1    2  502  501  0.19860724881E+02 -0.20392925520E+02 -0.30171875391E+02  0.41480861475E+02  0.00000000000E+00 0. -1.
<scales pt_clust_5="13000.00000" pt_clust_6="13000.00000" pt_clust_7="13000.00000" pt_clust_8="13000.00000" pt_clust_9="28.46612"></scales>
<clustering>
<clus scale="   28.466">  2  9  1 -1</clus>
<clus scale="   79.823">  5  6 -1 -1</clus>
<clus scale="   82.551">  1  5  2 -1</clus>
<clus scale="   88.988">  7  8 -1 -1</clus>
<clus scale="   82.551">  1  5  2 -1</clus>
</clustering>
</event>
<event>
 9    2  0.3402837E-005  0.1946929E+03  0.7546771E-02  0.1156203E+00
         -1   -1    0    0    0  501 -0.00000000000E+00  0.00000000000E+00  0.22954626645E+03  0.22954626645E+03  0.00000000000E+00 0.  1.
          2   -1    0    0  502    0  0.00000000000E+00 -0.00000000000E+00 -0.11713826649E+04  0.11713826649E+04  0.00000000000E+00 0. -1.
         23    2    1    2    0    0 -0.82696216198E+02  0.17084484418E+03  0.11529918160E+03  0.24022297190E+03  0.91578108681E+02 0.  0.
         24    2    1    2    0    0  0.92546752288E+02 -0.14388624850E+03 -0.10964497259E+04  0.11120294661E+04  0.71689456129E+02 0.  0.
        -13    1    4    4    0    0  0.61614359043E+02 -0.58976005130E+02 -0.35545130991E+03  0.36554087615E+03  0.00000000000E+00 0.  1.
         14    1    4    4    0    0  0.30932393244E+02 -0.84910243374E+02 -0.74099841599E+03  0.74648858992E+03  0.00000000000E+00 0. -1.
        -11    1    3    3    0    0 -0.10181702770E+03  0.15452699568E+03  0.10694063839E+03  0.21373254236E+03  0.00000000000E+00 0.  1.
         11    1    3    3    0    0  0.19120811503E+02  0.16317848510E+02  0.83585432094E+01  0.26490429538E+02  0.00000000000E+00 0. -1.
         21    1    1    2  502  501 -0.98505360893E+01 -0.26958595681E+02  0.39314145862E+02  0.48676493374E+02  0.00000000000E+00 0.  1.
<scales pt_clust_5="13000.00000" pt_clust_6="13000.00000" pt_clust_7="13000.00000" pt_clust_8="13000.00000" pt_clust_9="28.70190"></scales>
<clustering>
<clus scale="   28.702">  1  9  2 -1</clus>
<clus scale="   71.689">  5  6 -1 -1</clus>
<clus scale="   91.578">  7  8 -1 -1</clus>
<clus scale="  186.167">  2  5  1 -1</clus>
<clus scale="  186.167">  2  5  1 -1</clus>
</clustering>
</event>
<event>
 9    2  0.3402837E-005  0.1154031E+03  0.7546771E-02  0.1253938E+00
          2   -1    0    0  502    0  0.00000000000E+00  0.00000000000E+00  0.24295386331E+03  0.24295386331E+03  0.00000000000E+00 0. -1.
         -1   -1    0    0    0  501 -0.00000000000E+00 -0.00000000000E+00 -0.14644285197E+03  0.14644285197E+03  0.00000000000E+00 0.  1.
         24    2    1    2    0    0  0.15017992293E+02  0.61623368807E+02 -0.21783987305E+02  0.10348314436E+03  0.78811416612E+02 0.  0.
         23    2    1    2    0    0  0.18472240644E+01 -0.78291534514E+02  0.18265011707E+03  0.21732899146E+03  0.87965042193E+02 0.  0.
        -11    1    3    3    0    0 -0.22240387054E+02  0.58813056360E+02 -0.68681755619E+01  0.63251737133E+02  0.00000000000E+00 0.  1.
         12    1    3    3    0    0  0.37258379347E+02  0.28103124467E+01 -0.14915811743E+02  0.40231407228E+02  0.00000000000E+00 0. -1.
        -13    1    4    4    0    0 -0.21524132169E+02 -0.19335134769E+00  0.95901821166E+02  0.98287766041E+02  0.00000000000E+00 0.  1.
         13    1    4    4    0    0  0.23371356233E+02 -0.78098183166E+02  0.86748295907E+02  0.11904122542E+03  0.00000000000E+00 0. -1.
         21    1    1    2  502  501 -0.16865216357E+02  0.16668165707E+02 -0.64355118436E+02  0.68584579460E+02  0.00000000000E+00 0. -1.
<scales pt_clust_5="13000.00000" pt_clust_6="13000.00000" pt_clust_7="13000.00000" pt_clust_8="13000.00000" pt_clust_9="23.71209"></scales>
<clustering>
<clus scale="   23.712">  2  9  1 -1</clus>
<clus scale="   78.811">  5  6 -1 -1</clus>
<clus scale="   87.965">  7  8 -1 -1</clus>
<clus scale="  108.588">  2  5  1 -1</clus>
<clus scale="  115.403">  1  5  2 -1</clus>
</clustering>
</event>
<event>
 9    2  0.3402837E-005  0.1934069E+03  0.7546771E-02  0.1156194E+00
         -1   -1    0    0    0  501 -0.00000000000E+00  0.00000000000E+00  0.56189213281E+03  0.56189213281E+03  0.00000000000E+00 0.  1.
          2   -1    0    0  502    0  0.00000000000E+00 -0.00000000000E+00 -0.51673992794E+03  0.51673992794E+03  0.00000000000E+00 0. -1.
         23    2    1    2    0    0 -0.87404869847E+02 -0.12392468022E+03  0.31295414015E+03  0.35864060920E+03  0.87669008708E+02 0.  0.
         24    2    1    2    0    0  0.14275638228E+03  0.99543487033E+02 -0.47076910709E+03  0.50820404554E+03  0.79746531080E+02 0.  0.
        -13    1    4    4    0    0  0.10123715013E+03  0.55939987480E+02 -0.20197427094E+03  0.23274846699E+03  0.00000000000E+00 0.  1.
         14    1    4    4    0    0  0.41519232154E+02  0.43603499553E+02 -0.26879483615E+03  0.27545557855E+03  0.00000000000E+00 0. -1.
        -13    1    3    3    0    0 -0.87106709334E+02 -0.51785263609E+02  0.20679184022E+03  0.23028711974E+03  0.00000000000E+00 0.  1.
         13    1    3    3    0    0 -0.29816051355E+00 -0.72139416613E+02  0.10616229994E+03  0.12835348946E+03  0.00000000000E+00 0. -1.
         21    1    1    2  502  501 -0.55351512436E+02  0.24381193189E+02  0.20296717181E+03  0.21178740600E+03  0.00000000000E+00 0.  1.
<scales pt_clust_5="13000.00000" pt_clust_6="13000.00000" pt_clust_7="13000.00000" pt_clust_8="13000.00000" pt_clust_9="60.48332"></scales>
<clustering>
<clus scale="   60.483">  1  9  2 -1</clus>
<clus scale="   79.747">  5  6 -1 -1</clus>
<clus scale="   87.669">  7  8 -1 -1</clus>
<clus scale="  189.947">  2  5  1 -1</clus>
<clus scale="  189.947">  2  5  1 -1</clus>
</clustering>
</event>
<event>
 9    2  0.3402837E-005  0.1080720E+03  0.7546771E-02  0.1267396E+00
         -1   -1    0    0    0  501 -0.00000000000E+00  0.00000000000E+00  0.43641946601E+02  0.43641946601E+02  0.00000000000E+00 0.  1.
          2   -1    0    0  502    0  0.00000000000E+00 -0.00000000000E+00 -0.10572827030E+04  0.10572827030E+04  0.00000000000E+00 0. -1.
         23    2    1    2    0    0 -0.60472485055E+02  0.10790200327E+01 -0.20726509661E+03  0.23398527334E+03  0.90178723283E+02 0.  0.
         24    2    1    2    0    0  0.56652577958E+02  0.19961605242E+02 -0.82933641466E+03  0.83556269921E+03  0.82208000580E+02 0.  0.
        -11    1    4    4    0    0  0.35920955534E+02  0.31831853971E+02 -0.19653901102E+03  0.20231451956E+03  0.00000000000E+00 0.  1.
         12    1    4    4    0    0  0.20731622424E+02 -0.11870248729E+02 -0.63279740365E+03  0.63324817965E+03  0.00000000000E+00 0. -1.
        -13    1    3    3    0    0  0.23104861350E+02 -0.74564810832E+01 -0.53945393254E+02  0.59156903075E+02  0.00000000000E+00 0. -1.
         13    1    3    3    0    0 -0.83577346405E+02  0.85355011158E+01 -0.15331970336E+03  0.17482837026E+03  0.00000000000E+00 0.  1.
         21    1    1    2  502  501  0.38199070972E+01 -0.21040625274E+02  0.22960754838E+02  0.31376677085E+02  0.00000000000E+00 0. -1.
<scales pt_clust_5="13000.00000" pt_clust_6="13000.00000" pt_clust_7="13000.00000" pt_clust_8="13000.00000" pt_clust_9="21.38456"></scales>
<clustering>
<clus scale="   21.385">  1  9  2 -1</clus>
<clus scale="   82.208">  5  6 -1 -1</clus>
<clus scale="   90.179">  7  8 -1 -1</clus>
<clus scale="  101.516">  2  5  1 -1</clus>
<clus scale="  101.516">  2  5  1 -1</clus>
</clustering>
</event>
<event>
 9    2  0.3402837E-005  0.5307604E+03  0.7546771E-02  0.1006292E+00
          2   -1    0    0  502    0  0.00000000000E+00  0.00000000000E+00  0.12229784240E+04  0.12229784240E+04  0.00000000000E+00 0. -1.
         -1   -1    0    0    0  501 -0.00000000000E+00 -0.00000000000E+00 -0.50075181411E+03  0.50075181411E+03  0.00000000000E+00 0.  1.
         23    2    1    2    0    0  0.48410875350E+03 -0.97062606019E+02  0.29265356189E+02  0.50285159487E+03  0.90668796632E+02 0.  0.
         24    2    1    2    0    0 -0.52416763374E+03  0.92531083684E+02  0.87954270657E+03  0.10299915375E+04  0.63035584587E+02 0.  0.
        -13    1    4    4    0    0 -0.74763190427E+02 -0.39104360573E+01  0.98234162607E+02  0.12351022976E+03  0.00000000000E+00 0.  1.
         14    1    4    4    0    0 -0.44940444331E+03  0.96441519742E+02  0.78130854397E+03  0.90648130773E+03  0.00000000000E+00 0. -1.
        -13    1    3    3    0    0  0.45483246184E+03 -0.11246807102E+03  0.32218999840E+02  0.46963783844E+03  0.00000000000E+00 0.  1.
         13    1    3    3    0    0  0.29276291660E+02  0.15405464998E+02 -0.29536436515E+01  0.33213756427E+02  0.00000000000E+00 0. -1.
         21    1    1    2  502  501  0.40058880235E+02  0.45315223345E+01 -0.18658145288E+03  0.19088710574E+03  0.00000000000E+00 0.  1.
<scales pt_clust_5="13000.00000" pt_clust_6="13000.00000" pt_clust_7="13000.00000" pt_clust_8="13000.00000" pt_clust_9="40.31437"></scales>
<clustering>
<clus scale="   40.314">  2  9  1 -1</clus>
<clus scale="   63.036">  5  6 -1 -1</clus>
<clus scale="   90.669">  7  8 -1 -1</clus>
<clus scale="  526.744">  1  5  2 -1</clus>
<clus scale="  526.744">  1  5  2 -1</clus>
</clustering>
</event>
<event>
 9    2  0.3402837E-005  0.9885643E+02  0.7546771E-02  0.1289682E+00
          2   -1    0    0  502    0  0.00000000000E+00  0.00000000000E+00  0.56298315468E+03  0.56298315468E+03  0.00000000000E+00 0. -1.
         -1   -1    0    0    0  501 -0.00000000000E+00 -0.00000000000E+00 -0.26871450956E+02  0.26871450956E+02  0.00000000000E+00 0.  1.
         24    2    1    2    0    0  0.26291802068E+02 -0.43157073262E+01  0.10618589579E+03  0.13384232774E+03  0.76996363832E+02 0.  0.
         23    2    1    2    0    0 -0.42132447501E+02  0.18190969384E+02  0.42115753939E+03  0.43320150241E+03  0.90464436147E+02 0.  0.
        -11    1    3    3    0    0  0.43266495608E+01 -0.24203729141E+02  0.10076256238E+03  0.10371901647E+03  0.00000000000E+00 0.  1.
         12    1    3    3    0    0  0.21965152507E+02  0.19888021815E+02  0.54233334149E+01  0.30123311267E+02  0.00000000000E+00 0. -1.
        -13    1    4    4    0    0 -0.80674584874E+00  0.48736787875E+02  0.23979316897E+03  0.24469713773E+03  0.00000000000E+00 0.  1.
         13    1    4    4    0    0 -0.41325701652E+02 -0.30545818490E+02  0.18136437043E+03  0.18850436468E+03  0.00000000000E+00 0. -1.
         21    1    1    2  502  501  0.15840645434E+02 -0.13875262058E+02  0.87682685364E+01  0.22810775481E+02  0.00000000000E+00 0.  1.
<scales pt_clust_5="13000.00000" pt_clust_6="13000.00000" pt_clust_7="13000.00000" pt_clust_8="13000.00000" pt_clust_9="21.05823"></scales>
<clustering>
<clus scale="   21.058">  2  9  1 -1</clus>
<clus scale="   76.996">  5  6 -1 -1</clus>
<clus scale="   86.702">  2  5  1 -1</clus>
<clus scale="   90.464">  7  8 -1 -1</clus>
<clus scale="   98.856">  1  5  2 -1</clus>
</clustering>
</event>
<event>
 9    2  0.3402837E-005  0.1735776E+03  0.7546771E-02  0.1202091E+00
          2   -1    0    0  502    0  0.00000000000E+00  0.00000000000E+00  0.47384310785E+03  0.47384310785E+03  0.00000000000E+00 0. -1.
         -1   -1    0    0    0  501 -0.00000000000E+00 -0.00000000000E+00 -0.95233135160E+02  0.95233135160E+02  0.00000000000E+00 0.  1.
         23    2    1    2    0    0  0.56092966145E+02  0.11011259035E+03  0.12814636793E+03  0.19997240613E+03  0.91083852549E+02 0.  0.
         24    2    1    2    0    0  0.24233042149E+02  0.43488952314E+02  0.12027052960E+03  0.15231837072E+03  0.79103454191E+02 0.  0.
        -11    1    4    4    0    0 -0.11669981773E+02  0.26983159288E+02  0.41891995551E+01  0.29695601571E+02  0.00000000000E+00 0.  1.
         12    1    4    4    0    0  0.35903023922E+02  0.16505793026E+02  0.11608133004E+03  0.12262276915E+03  0.00000000000E+00 0. -1.
        -11    1    3    3    0    0  0.79553577678E+02  0.65867020850E+02  0.82054933577E+02  0.13191000069E+03  0.00000000000E+00 0.  1.
         11    1    3    3    0    0 -0.23460611533E+02  0.44245569501E+02  0.46091434351E+02  0.68062405441E+02  0.00000000000E+00 0. -1.
         21    1    1    2  502  501 -0.80326008294E+02 -0.15360154266E+03  0.13019307517E+03  0.21678546616E+03  0.00000000000E+00 0.  1.
<scales pt_clust_5="13000.00000" pt_clust_6="13000.00000" pt_clust_7="13000.00000" pt_clust_8="13000.00000" pt_clust_9="147.75971"></scales>
<clustering>
<clus scale="   79.103">  5  6 -1 -1</clus>
<clus scale="   91.084">  7  8 -1 -1</clus>
<clus scale="   93.466">  1  5  2 -1</clus>
<clus scale="  147.760">  1  9  2 -1</clus>
<clus scale="   93.466">  1  5  2 -1</clus>
</clustering>
</event>
<event>
 9    2  0.3402837E-005  0.1238204E+03  0.7546771E-02  0.1240821E+00
          2   -1    0    0  502    0  0.00000000000E+00  0.00000000000E+00  0.15057780469E+03  0.15057780469E+03  0.00000000000E+00 0. -1.
         -1   -1    0    0    0  501 -0.00000000000E+00 -0.00000000000E+00 -0.16537145597E+03  0.16537145597E+03  0.00000000000E+00 0.  1.
         23    2    1    2    0    0  0.63563520466E+02  0.92210029086E+01 -0.76165319384E+02  0.13605822096E+03  0.92657085994E+02 0.  0.
         24    2    1    2    0    0 -0.75716954083E+02 -0.47451070749E+02  0.70300170301E+02  0.13879405457E+03  0.79605366588E+02 0.  0.
        -11    1    4    4    0    0 -0.22251338591E+02 -0.47591719257E+02  0.26998569931E+01  0.52605922087E+02  0.00000000000E+00 0.  1.
         12    1    4    4    0    0 -0.53465615492E+02  0.14064850759E+00  0.67600313308E+02  0.86188132485E+02  0.00000000000E+00 0. -1.
        -11    1    3    3    0    0  0.17855028138E+02 -0.34241827577E+02 -0.59305029282E+02  0.70769988581E+02  0.00000000000E+00 0.  1.
         11    1    3    3    0    0  0.45708492328E+02  0.43462830486E+02 -0.16860290102E+02  0.65288232378E+02  0.00000000000E+00 0. -1.
         21    1    1    2  502  501  0.12153433617E+02  0.38230067841E+02 -0.89285021943E+01  0.41096985135E+02  0.00000000000E+00 0.  1.
<scales pt_clust_5="13000.00000" pt_clust_6="13000.00000" pt_clust_7="13000.00000" pt_clust_8="13000.00000" pt_clust_9="40.11538"></scales>
<clustering>
<clus scale="   40.115">  2  9  1 -1</clus>
<clus scale="   79.605">  5  6 -1 -1</clus>
<clus scale="   92.657">  7  8 -1 -1</clus>
<clus scale="  114.382">  1  5  2 -1</clus>
<clus scale="  114.382">  1  5  2 -1</clus>
</clustering>
</event>
<event>
 9    2  0.3402837E-005  0.2941452E+03  0.7546771E-02  0.1088774E+00
          2   -1    0    0  502    0  0.00000000000E+00  0.00000000000E+00  0.15816292243E+04  0.15816292243E+04  0.00000000000E+00 0. -1.
         -1   -1    0    0    0  501 -0.00000000000E+00 -0.00000000000E+00 -0.90410976778E+02  0.90410976778E+02  0.00000000000E+00 0.  1.
         23    2    1    2    0    0 -0.27379493508E+03 -0.14938936912E+03  0.57926225324E+03  0.66474839044E+03  0.95209319314E+02 0.  0.
         24    2    1    2    0    0  0.18942000960E+03  0.18519039658E+03  0.85654930533E+03  0.90019025698E+03  0.80562790876E+02 0.  0.
        -11    1    4    4    0    0  0.34570655104E+02  0.19807063363E+02  0.59819322844E+02  0.71873509299E+02  0.00000000000E+00 0.  1.
         12    1    4    4    0    0  0.15484935450E+03  0.16538333322E+03  0.79672998249E+03  0.82831674768E+03  0.00000000000E+00 0. -1.
        -13    1    3    3    0    0 -0.13511680140E+03 -0.61444549804E+02  0.37059538606E+03  0.39921538408E+03  0.00000000000E+00 0. -1.
         13    1    3    3    0    0 -0.13867813369E+03 -0.87944819314E+02  0.20866686718E+03  0.26553300636E+03  0.00000000000E+00 0.  1.
         21    1    1    2  502  501  0.84374925482E+02 -0.35801027466E+02  0.55406688977E+02  0.10710155368E+03  0.00000000000E+00 0.  1.
<scales pt_clust_5="13000.00000" pt_clust_6="13000.00000" pt_clust_7="13000.00000" pt_clust_8="13000.00000" pt_clust_9="91.65611"></scales>
<clustering>
<clus scale="   80.563">  5  6 -1 -1</clus>
<clus scale="   91.656">  2  9  1 -1</clus>
<clus scale="   95.209">  7  8 -1 -1</clus>
<clus scale="  289.736">  1  5  2 -1</clus>
<clus scale="  289.736">  1  5  2 -1</clus>
</clustering>
</event>
<event>
 9    2  0.3402837E-005  0.1390557E+03  0.7546771E-02  0.1217175E+00
          2   -1    0    0  502    0  0.00000000000E+00  0.00000000000E+00  0.44035357566E+02  0.44035357566E+02  0.00000000000E+00 0. -1.
         -1   -1    0    0    0  501 -0.00000000000E+00 -0.00000000000E+00 -0.52154990764E+03  0.52154990764E+03  0.00000000000E+00 0.  1.
         23    2    1    2    0    0  0.10364067369E+03 -0.34876570076E+02 -0.27831965054E+03  0.31295114282E+03  0.92297483913E+02 0.  0.
         24    2    1    2    0    0 -0.86877568574E+02  0.52952612092E+02 -0.15721506645E+03  0.20395094896E+03  0.80794315486E+02 0.  0.
        -13    1    4    4    0    0 -0.22230031184E+02  0.11009823591E+02 -0.11176444269E+03  0.11448441445E+03  0.00000000000E+00 0.  1.
         14    1    4    4    0    0 -0.64647537390E+02  0.41942788501E+02 -0.45450623765E+02  0.89466534517E+02  0.00000000000E+00 0. -1.
        -11    1    3    3    0    0  0.64472657807E+02 -0.21162636945E+02 -0.25794242911E+03  0.26671872364E+03  0.00000000000E+00 0.  1.
         11    1    3    3    0    0  0.39168015886E+02 -0.13713933131E+02 -0.20377221429E+02  0.46232419183E+02  0.00000000000E+00 0. -1.
         21    1    1    2  502  501 -0.16763105120E+02 -0.18076042015E+02 -0.41979833081E+02  0.48683173414E+02  0.00000000000E+00 0. -1.
<scales pt_clust_5="13000.00000" pt_clust_6="13000.00000" pt_clust_7="13000.00000" pt_clust_8="13000.00000" pt_clust_9="24.65248"></scales>
<clustering>
<clus scale="   24.652">  2  9  1 -1</clus>
<clus scale="   80.794">  5  6 -1 -1</clus>
<clus scale="   92.297">  7  8 -1 -1</clus>
<clus scale="  131.702">  1  5  2 -1</clus>
<clus scale="  131.702">  1  5  2 -1</clus>
</clustering>
</event>
<event>
 9    2  0.3402837E-005  0.1113356E+03  0.7546771E-02  0.1263811E+00
         -1   -1    0    0    0  501 -0.00000000000E+00  0.00000000000E+00  0.10295554863E+03  0.10295554863E+03  0.00000000000E+00 0.  1.
          2   -1    0    0  502    0  0.00000000000E+00 -0.00000000000E+00 -0.35430754583E+03  0.35430754583E+03  0.00000000000E+00 0. -1.
         23    2    1    2    0    0 -0.30966508187E+02  0.74404921512E+02  0.19330329186E+02  0.12321539754E+03  0.91177604648E+02 0.  0.
         24    2    1    2    0    0  0.76521643499E+00 -0.62522851651E+02 -0.28270563344E+03  0.29943756083E+03  0.76358923005E+02 0.  0.
        -13    1    4    4    0    0  0.37974317157E+02 -0.32263654049E+02 -0.12379238435E+03  0.13344491957E+03  0.00000000000E+00 0.  1.
         14    1    4    4    0    0 -0.37209100722E+02 -0.30259197602E+02 -0.15891324908E+03  0.16599264125E+03  0.00000000000E+00 0. -1.
        -11    1    3    3    0    0 -0.28976331790E+01  0.69778013505E+02 -0.21839385010E+02  0.73173261403E+02  0.00000000000E+00 0. -1.
         11    1    3    3    0    0 -0.28068875008E+02  0.46269080076E+01  0.41169714196E+02  0.50042136135E+02  0.00000000000E+00 0.  1.
         21    1    1    2  502  501  0.30201291752E+02 -0.11882069862E+02  0.12023307055E+02  0.34610136091E+02  0.00000000000E+00 0. -1.
<scales pt_clust_5="13000.00000" pt_clust_6="13000.00000" pt_clust_7="13000.00000" pt_clust_8="13000.00000" pt_clust_9="32.45461"></scales>
<clustering>
<clus scale="   32.455">  1  9  2 -1</clus>
<clus scale="   76.359">  5  6 -1 -1</clus>
<clus scale="   91.178">  7  8 -1 -1</clus>
<clus scale="   99.564">  2  5  1 -1</clus>
<clus scale="   99.564">  2  5  1 -1</clus>
</clustering>
</event>
<event>
 9    2  0.3402837E-005  0.9417562E+02  0.7546771E-02  0.1298035E+00
         -1   -1    0    0    0  501 -0.00000000000E+00  0.00000000000E+00  0.14649858460E+03  0.14649858460E+03  0.00000000000E+00 0.  1.
          2   -1    0    0  502    0  0.00000000000E+00 -0.00000000000E+00 -0.99823261550E+02  0.99823261550E+02  0.00000000000E+00 0. -1.
         23    2    1    2    0    0  0.65837910284E+01  0.22612849712E+02  0.73799774302E+02  0.11715172311E+03  0.87883060167E+02 0.  0.
         24    2    1    2    0    0 -0.26856644915E+02 -0.25948463525E+02 -0.48228362018E+02  0.99716940294E+02  0.78885303722E+02 0.  0.
        -13    1    4    4    0    0  0.24987072913E+02 -0.39310885933E+01  0.40992030996E+00  0.25297733198E+02  0.00000000000E+00 0.  1.
         14    1    4    4    0    0 -0.51843717828E+02 -0.22017374932E+02 -0.48638282328E+02  0.74419207097E+02  0.00000000000E+00 0. -1.
        -11    1    3    3    0    0  0.16654447716E+02 -0.30920578639E+02  0.39142151029E+02  0.52588599518E+02  0.00000000000E+00 0.  1.
         11    1    3    3    0    0 -0.10070656688E+02  0.53533428351E+02  0.34657623273E+02  0.64563123593E+02  0.00000000000E+00 0. -1.
         21    1    1    2  502  501  0.20272853886E+02  0.33356138128E+01  0.21103910766E+02  0.29453182745E+02  0.00000000000E+00 0. -1.
<scales pt_clust_5="13000.00000" pt_clust_6="13000.00000" pt_clust_7="13000.00000" pt_clust_8="13000.00000" pt_clust_9="20.54544"></scales>
<clustering>
<clus scale="   20.545">  1  9  2 -1</clus>
<clus scale="   78.885">  5  6 -1 -1</clus>
<clus scale="   85.840">  2  5  1 -1</clus>
<clus scale="   87.883">  7  8 -1 -1</clus>
<clus scale="   85.840">  2  5  1 -1</clus>
</clustering>
</event>
<event>
 9    2  0.3402837E-005  0.9422072E+02  0.7546771E-02  0.1300859E+00
          2   -1    0    0  502    0  0.00000000000E+00  0.00000000000E+00  0.10085249027E+03  0.10085249027E+03  0.00000000000E+00 0. -1.
         -1   -1    0    0    0  501 -0.00000000000E+00 -0.00000000000E+00 -0.17941836410E+03  0.17941836410E+03  0.00000000000E+00 0.  1.
         23    2    1    2    0    0 -0.18880446554E+02 -0.66918647243E+01 -0.97145159176E+02  0.13587025932E+03  0.92856303508E+02 0.  0.
         24    2    1    2    0    0  0.71322673019E+01 -0.16922274534E+02  0.55587451587E+02  0.98955555091E+02  0.79780978291E+02 0.  0.
        -11    1    4    4    0    0  0.15965729969E+02 -0.33237346272E+02 -0.34856819008E+01  0.37037490452E+02  0.00000000000E+00 0.  1.
         12    1    4    4    0    0 -0.88334626670E+01  0.16315071738E+02  0.59073133488E+02  0.61918064639E+02  0.00000000000E+00 0. -1.
        -11    1    3    3    0    0 -0.33693068803E+02 -0.43568837396E+02 -0.60464356145E+02  0.81788781880E+02  0.00000000000E+00 0.  1.
         11    1    3    3    0    0  0.14812622248E+02  0.36876972671E+02 -0.36680803031E+02  0.54081477442E+02  0.00000000000E+00 0. -1.
         21    1    1    2  502  501  0.11748179253E+02  0.23614139258E+02 -0.37008166237E+02  0.45445039959E+02  0.00000000000E+00 0. -1.
<scales pt_clust_5="13000.00000" pt_clust_6="13000.00000" pt_clust_7="13000.00000" pt_clust_8="13000.00000" pt_clust_9="26.37513"></scales>
<clustering>
<clus scale="   26.375">  2  9  1 -1</clus>
<clus scale="   79.781">  5  6 -1 -1</clus>
<clus scale="   81.365">  1  5  2 -1</clus>
<clus scale="   92.856">  7  8 -1 -1</clus>
<clus scale="   81.365">  1  5  2 -1</clus>
</clustering>
</event>
<event>
 9    2  0.3402837E-005  0.9459186E+02  0.7546771E-02  0.1297684E+00
          2   -1    0    0  502    0  0.00000000000E+00  0.00000000000E+00  0.26347462071E+03  0.26347462071E+03  0.00000000000E+00 0. -1.
         -1   -1    0    0    0  501 -0.00000000000E+00 -0.00000000000E+00 -0.81972423281E+02  0.81972423281E+02  0.00000000000E+00 0.  1.
         23    2    1    2    0    0 -0.38221508379E+00 -0.42215840978E+02  0.34858848731E+02  0.10529531849E+03  0.89942434052E+02 0.  0.
         24    2    1    2    0    0 -0.15351251710E+02  0.22547180846E+02  0.17968652950E+03  0.19860356109E+03  0.80075522476E+02 0.  0.
        -13    1    4    4    0    0  0.28651636327E+02 -0.94691126813E+01  0.63861236620E+02  0.70631706066E+02  0.00000000000E+00 0.  1.
         14    1    4    4    0    0 -0.44002888037E+02  0.32016293528E+02  0.11582529288E+03  0.12797185502E+03  0.00000000000E+00 0. -1.
        -11    1    3    3    0    0  0.16661337729E+02 -0.53949937749E+02 -0.86440586115E+01  0.57121937181E+02  0.00000000000E+00 0.  1.
         11    1    3    3    0    0 -0.17043552813E+02  0.11734096770E+02  0.43502907342E+02  0.48173381309E+02  0.00000000000E+00 0. -1.
         21    1    1    2  502  501  0.15733466794E+02  0.19668660132E+02 -0.33043180801E+02  0.41548164414E+02  0.00000000000E+00 0.  1.
<scales pt_clust_5="13000.00000" pt_clust_6="13000.00000" pt_clust_7="13000.00000" pt_clust_8="13000.00000" pt_clust_9="25.18726"></scales>
<clustering>
<clus scale="   25.187">  2  9  1 -1</clus>
<clus scale="   80.076">  5  6 -1 -1</clus>
<clus scale="   85.265">  1  5  2 -1</clus>
<clus scale="   89.942">  7  8 -1 -1</clus>
<clus scale="   85.265">  1  5  2 -1</clus>
</clustering>
</event>
<event>
 9    2  0.3402837E-005  0.9285714E+02  0.7546771E-02  0.1303163E+00
         -1   -1    0    0    0  501 -0.00000000000E+00  0.00000000000E+00  0.81081663159E+02  0.81081663159E+02  0.00000000000E+00 0.  1.
          2   -1    0    0  502    0  0.00000000000E+00 -0.00000000000E+00 -0.21842965050E+03  0.21842965050E+03  0.00000000000E+00 0. -1.
         24    2    1    2    0    0  0.38249732261E+02 -0.16197028621E+02  0.19772680240E+02  0.92097115914E+02  0.79784297462E+02 0.  0.
         23    2    1    2    0    0 -0.10769604592E+02  0.14695565395E+01 -0.14911992858E+03  0.17522619260E+03  0.91374621723E+02 0.  0.
        -11    1    3    3    0    0 -0.21352489888E+02 -0.72136233888E+01  0.22384346435E+02  0.31765140519E+02  0.00000000000E+00 0.  1.
         12    1    3    3    0    0  0.59602222150E+02 -0.89834052323E+01 -0.26116661949E+01  0.60331975395E+02  0.00000000000E+00 0. -1.
        -13    1    4    4    0    0 -0.53354592283E+01  0.38068420763E+02 -0.25356160700E+02  0.46050045277E+02  0.00000000000E+00 0. -1.
         13    1    4    4    0    0 -0.54341453633E+01 -0.36598864223E+02 -0.12376376788E+03  0.12917614733E+03  0.00000000000E+00 0.  1.
         21    1    1    2  502  501 -0.27480127670E+02  0.14727472082E+02 -0.80007390043E+01  0.32188005146E+02  0.00000000000E+00 0. -1.
<scales pt_clust_5="13000.00000" pt_clust_6="13000.00000" pt_clust_7="13000.00000" pt_clust_8="13000.00000" pt_clust_9="31.17781"></scales>
<clustering>
<clus scale="   31.178">  1  9  2 -1</clus>
<clus scale="   79.784">  5  6 -1 -1</clus>
<clus scale="   81.478">  1  5  2 -1</clus>
<clus scale="   91.375">  7  8 -1 -1</clus>
<clus scale="   92.857">  2  5  1 -1</clus>
</clustering>
</event>
<event>
 9    2  0.3402837E-005  0.1245250E+03  0.7546771E-02  0.1238998E+00
         -1   -1    0    0    0  501 -0.00000000000E+00  0.00000000000E+00  0.57709805208E+02  0.57709805208E+02  0.00000000000E+00 0.  1.
          2   -1    0    0  502    0  0.00000000000E+00 -0.00000000000E+00 -0.80361130955E+03  0.80361130955E+03  0.00000000000E+00 0. -1.
         23    2    1    2    0    0  0.58039029906E+02  0.90515671059E+02 -0.61268392031E+02  0.15390019117E+03  0.91486814797E+02 0.  0.
         24    2    1    2    0    0 -0.55268265369E+02 -0.60755713151E+02 -0.65608667398E+03  0.66609016782E+03  0.80501863658E+02 0.  0.
        -13    1    4    4    0    0  0.48391077392E+01 -0.48960397308E+02 -0.20274541359E+03  0.20862943272E+03  0.00000000000E+00 0.  1.
         14    1    4    4    0    0 -0.60107373108E+02 -0.11795315843E+02 -0.45334126039E+03  0.45746073509E+03  0.00000000000E+00 0. -1.
        -11    1    3    3    0    0  0.18458098473E+01  0.39641703244E+02 -0.67012427863E+02  0.77881558396E+02  0.00000000000E+00 0. -1.
         11    1    3    3    0    0  0.56193220059E+02  0.50873967815E+02  0.57440358327E+01  0.76018632778E+02  0.00000000000E+00 0.  1.
         21    1    1    2  502  501 -0.27707645368E+01 -0.29759957908E+02 -0.28546438335E+02  0.41330755769E+02  0.00000000000E+00 0.  1.
<scales pt_clust_5="13000.00000" pt_clust_6="13000.00000" pt_clust_7="13000.00000" pt_clust_8="13000.00000" pt_clust_9="29.88866"></scales>
<clustering>
<clus scale="   29.889">  1  9  2 -1</clus>
<clus scale="   80.502">  5  6 -1 -1</clus>
<clus scale="   91.487">  7  8 -1 -1</clus>
<clus scale="  116.693">  2  5  1 -1</clus>
<clus scale="  116.693">  2  5  1 -1</clus>
</clustering>
</event>
<event>
 9    2  0.3402837E-005  0.1996242E+03  0.7546771E-02  0.1150753E+00
          2   -1    0    0  502    0  0.00000000000E+00  0.00000000000E+00  0.16766424253E+04  0.16766424253E+04  0.00000000000E+00 0. -1.
         -1   -1    0    0    0  501 -0.00000000000E+00 -0.00000000000E+00 -0.30107373493E+02  0.30107373493E+02  0.00000000000E+00 0.  1.
         24    2    1    2    0    0 -0.15662171066E+03 -0.55872896317E+02  0.61974257319E+03  0.64702031140E+03  0.83079994823E+02 0.  0.
         23    2    1    2    0    0  0.17796386922E+03  0.57207411953E+02  0.10134720953E+04  0.10345362090E+04  0.90529846419E+02 0.  0.
        -11    1    3    3    0    0 -0.15330730355E+03 -0.68769885730E+02  0.52203411633E+03  0.54840864792E+03  0.00000000000E+00 0.  1.
         12    1    3    3    0    0 -0.33144071091E+01  0.12896989413E+02  0.97708456865E+02  0.98611663475E+02  0.00000000000E+00 0. -1.
        -13    1    4    4    0    0  0.15487208192E+03  0.80400581655E+02  0.82630958142E+03  0.84453368177E+03  0.00000000000E+00 0.  1.
         13    1    4    4    0    0  0.23091787293E+02 -0.23193169701E+02  0.18716251391E+03  0.19000252728E+03  0.00000000000E+00 0. -1.
         21    1    1    2  502  501 -0.21342158556E+02 -0.13345156364E+01  0.13320383316E+02  0.25193278379E+02  0.00000000000E+00 0.  1.
<scales pt_clust_5="13000.00000" pt_clust_6="13000.00000" pt_clust_7="13000.00000" pt_clust_8="13000.00000" pt_clust_9="21.38384"></scales>
<clustering>
<clus scale="   21.384">  2  9  1 -1</clus>
<clus scale="   83.080">  5  6 -1 -1</clus>
<clus scale="   90.530">  7  8 -1 -1</clus>
<clus scale="  196.358">  2  5  1 -1</clus>
<clus scale="  199.624">  1  5  2 -1</clus>
</clustering>
</event>
<event>
 9    2  0.3402837E-005  0.1148606E+03  0.7546771E-02  0.1259999E+00
         -1   -1    0    0    0  501 -0.00000000000E+00  0.00000000000E+00  0.30340397162E+02  0.30340397162E+02  0.00000000000E+00 0.  1.
          2   -1    0    0  502    0  0.00000000000E+00 -0.00000000000E+00 -0.77979679227E+03  0.77979679227E+03  0.00000000000E+00 0. -1.
         23    2    1    2    0    0 -0.16364631168E+02 -0.45939820749E+02 -0.96806594413E+02  0.14052312189E+03  0.89425738921E+02 0.  0.
         24    2    1    2    0    0  0.23757185010E+02  0.72715026182E+02 -0.61261731312E+03  0.62088869899E+03  0.65961544345E+02 0.  0.
        -11    1    4    4    0    0  0.42623447337E+02  0.41349716421E+02 -0.27778370797E+03  0.28406046139E+03  0.00000000000E+00 0.  1.
         12    1    4    4    0    0 -0.18866262327E+02  0.31365309761E+02 -0.33483360515E+03  0.33682823761E+03  0.00000000000E+00 0. -1.
        -13    1    3    3    0    0 -0.32123734253E+02 -0.99552868885E+01 -0.95465577701E+02  0.10121619715E+03  0.00000000000E+00 0. -1.
         13    1    3    3    0    0  0.15759103085E+02 -0.35984533860E+02 -0.13410167123E+01  0.39306924747E+02  0.00000000000E+00 0.  1.
         21    1    1    2  502  501 -0.73925538415E+01 -0.26775205433E+02 -0.40032487578E+02  0.48725368546E+02  0.00000000000E+00 0.  1.
<scales pt_clust_5="13000.00000" pt_clust_6="13000.00000" pt_clust_7="13000.00000" pt_clust_8="13000.00000" pt_clust_9="27.77700"></scales>
<clustering>
<clus scale="   27.777">  1  9  2 -1</clus>
<clus scale="   65.962">  5  6 -1 -1</clus>
<clus scale="   89.426">  7  8 -1 -1</clus>
<clus scale="   97.708">  2  5  1 -1</clus>
<clus scale="   97.708">  2  5  1 -1</clus>
</clustering>
</event>
<event>
 9    2  0.3402837E-005  0.1855100E+03  0.7546771E-02  0.1164843E+00
         -1   -1    0    0    0  501 -0.00000000000E+00  0.00000000000E+00  0.48270214777E+02  0.48270214777E+02  0.00000000000E+00 0.  1.
          2   -1    0    0  502    0  0.00000000000E+00 -0.00000000000E+00 -0.12353163110E+04  0.12353163110E+04  0.00000000000E+00 0. -1.
         24    2    1    2    0    0  0.90802135793E+01  0.14684488738E+03 -0.21356973710E+03  0.27004318611E+03  0.75268974559E+02 0.  0.
         23    2    1    2    0    0 -0.42557312888E+02 -0.15821519789E+03 -0.95503503122E+03  0.97366749844E+03  0.95358863999E+02 0.  0.
        -11    1    3    3    0    0 -0.38026438098E+01  0.96047335745E+02 -0.75079450102E+02  0.12196915443E+03  0.00000000000E+00 0.  1.
         12    1    3    3    0    0  0.12882857389E+02  0.50797551635E+02 -0.13849028700E+03  0.14807403168E+03  0.00000000000E+00 0. -1.
        -13    1    4    4    0    0 -0.24716448447E+02  0.41788337753E+01 -0.94900011490E+02  0.98154865678E+02  0.00000000000E+00 0.  1.
         13    1    4    4    0    0 -0.17840864441E+02 -0.16239403166E+03 -0.86013501973E+03  0.87551263277E+03  0.00000000000E+00 0. -1.
         21    1    1    2  502  501  0.33477099309E+02  0.11370310505E+02 -0.18441327918E+02  0.39875841239E+02  0.00000000000E+00 0.  1.
<scales pt_clust_5="13000.00000" pt_clust_6="13000.00000" pt_clust_7="13000.00000" pt_clust_8="13000.00000" pt_clust_9="35.35534"></scales>
<clustering>
<clus scale="   35.355">  1  9  2 -1</clus>
<clus scale="   75.269">  5  6 -1 -1</clus>
<clus scale="   95.359">  7  8 -1 -1</clus>
<clus scale="  176.029">  1  5  2 -1</clus>
<clus scale="  185.510">  2  5  1 -1</clus>
</clustering>
</event>
<event>
 9    2  0.3402837E-005  0.9461163E+02  0.7546771E-02  0.1301951E+00
         -1   -1    0    0    0  501 -0.00000000000E+00  0.00000000000E+00  0.53664676971E+02  0.53664676971E+02  0.00000000000E+00 0.  1.
          2   -1    0    0  502    0  0.00000000000E+00 -0.00000000000E+00 -0.35004030054E+03  0.35004030054E+03  0.00000000000E+00 0. -1.
         23    2    1    2    0    0 -0.23377833095E+02  0.10863804964E+02 -0.57373856394E+02  0.11121430375E+03  0.91718681969E+02 0.  0.
         24    2    1    2    0    0 -0.23670584114E+02 -0.20587666171E+02 -0.22944982191E+03  0.24350754711E+03  0.75263245826E+02 0.  0.
        -11    1    4    4    0    0 -0.46619569945E+02  0.25982491263E+01 -0.10615545568E+03  0.11597032367E+03  0.00000000000E+00 0.  1.
         12    1    4    4    0    0  0.22948985831E+02 -0.23185915297E+02 -0.12329436623E+03  0.12753722344E+03  0.00000000000E+00 0. -1.
        -13    1    3    3    0    0 -0.44316172709E+02  0.17436022022E+02  0.22540261042E+01  0.47676185472E+02  0.00000000000E+00 0.  1.
         13    1    3    3    0    0  0.20938339613E+02 -0.65722170584E+01 -0.59627882498E+02  0.63538118276E+02  0.00000000000E+00 0. -1.
         21    1    1    2  502  501  0.47048417209E+02  0.97238612067E+01 -0.95519452633E+01  0.48983126656E+02  0.00000000000E+00 0. -1.
<scales pt_clust_5="13000.00000" pt_clust_6="13000.00000" pt_clust_7="13000.00000" pt_clust_8="13000.00000" pt_clust_9="48.04276"></scales>
<clustering>
<clus scale="   48.043">  1  9  2 -1</clus>
<clus scale="   75.263">  5  6 -1 -1</clus>
<clus scale="   78.763">  2  5  1 -1</clus>
<clus scale="   91.719">  7  8 -1 -1</clus>
<clus scale="   78.763">  2  5  1 -1</clus>
</clustering>
</event>
<event>
 9    2  0.3402837E-005  0.1251824E+03  0.7546771E-02  0.1238369E+00
         -1   -1    0    0    0  501 -0.00000000000E+00  0.00000000000E+00  0.12948902476E+03  0.12948902476E+03  0.00000000000E+00 0.  1.
          2   -1    0    0  502    0  0.00000000000E+00 -0.00000000000E+00 -0.72026066082E+03  0.72026066082E+03  0.00000000000E+00 0. -1.
         23    2    1    2    0    0  0.28101906788E+02 -0.42778901379E+02 -0.15616384748E+03  0.18813840754E+03  0.91592366299E+02 0.  0.
         24    2    1    2    0    0  0.39771922565E+02  0.10784052543E+03 -0.51767821330E+03  0.53614986126E+03  0.79085753782E+02 0.  0.
        -11    1    4    4    0    0  0.18027104833E+02  0.69960143641E+02 -0.15685984432E+03  0.17269744922E+03  0.00000000000E+00 0.  1.
         12    1    4    4    0    0  0.21744817733E+02  0.37880381794E+02 -0.36081836899E+03  0.36345241204E+03  0.00000000000E+00 0. -1.
        -13    1    3    3    0    0  0.46460313160E+02 -0.29517929452E+02 -0.35798970258E+02  0.65661519397E+02  0.00000000000E+00 0. -1.
         13    1    3    3    0    0 -0.18358406372E+02 -0.13260971927E+02 -0.12036487722E+03  0.12247688814E+03  0.00000000000E+00 0.  1.
         21    1    1    2  502  501 -0.67873829353E+02 -0.65061624056E+02  0.83070424724E+02  0.12546141678E+03  0.00000000000E+00 0.  1.
<scales pt_clust_5="13000.00000" pt_clust_6="13000.00000" pt_clust_7="13000.00000" pt_clust_8="13000.00000" pt_clust_9="94.02059"></scales>
<clustering>
<clus scale="   79.086">  5  6 -1 -1</clus>
<clus scale="   91.592">  7  8 -1 -1</clus>
<clus scale="   94.021">  1  9  2 -1</clus>
<clus scale="  116.344">  2  5  1 -1</clus>
<clus scale="  116.344">  2  5  1 -1</clus>
</clustering>
</event>
<event>
 9    2  0.3402837E-005  0.3208067E+03  0.7546771E-02  0.1075347E+00
         -1   -1    0    0    0  501 -0.00000000000E+00  0.00000000000E+00  0.16022494804E+03  0.16022494804E+03  0.00000000000E+00 0.  1.
          2   -1    0    0  502    0  0.00000000000E+00 -0.00000000000E+00 -0.77427020920E+03  0.77427020920E+03  0.00000000000E+00 0. -1.
         23    2    1    2    0    0 -0.18750033331E+03 -0.25046029093E+03 -0.27626324308E+03  0.42720784440E+03  0.91095721700E+02 0.  0.
         24    2    1    2    0    0  0.15768804029E+03  0.25855736811E+03 -0.35171799412E+03  0.47339709447E+03  0.93176343597E+02 0.  0.
        -13    1    4    4    0    0  0.10880131059E+03  0.13396102929E+03 -0.25644541935E+03  0.30910764413E+03  0.00000000000E+00 0.  1.
         14    1    4    4    0    0  0.48886729704E+02  0.12459633882E+03 -0.95272574774E+02  0.16428945034E+03  0.00000000000E+00 0. -1.
        -11    1    3    3    0    0 -0.31945841511E+02 -0.70183102235E+02 -0.25048498313E+02  0.81077937178E+02  0.00000000000E+00 0. -1.
         11    1    3    3    0    0 -0.15555449179E+03 -0.18027718870E+03 -0.25121474477E+03  0.34612990722E+03  0.00000000000E+00 0.  1.
         21    1    1    2  502  501  0.29812293013E+02 -0.80970771775E+01  0.13935976049E+02  0.33890218381E+02  0.00000000000E+00 0.  1.
<scales pt_clust_5="13000.00000" pt_clust_6="13000.00000" pt_clust_7="13000.00000" pt_clust_8="13000.00000" pt_clust_9="30.89232"></scales>
<clustering>
<clus scale="   30.892">  1  9  2 -1</clus>
<clus scale="   91.096">  7  8 -1 -1</clus>
<clus scale="   93.176">  5  6 -1 -1</clus>
<clus scale="  320.209">  1  7  2 -1</clus>
<clus scale="  320.807">  2  5  1 -1</clus>
</clustering>
</event>
<event>
 9    2  0.3402837E-005  0.2802031E+03  0.7546771E-02  0.1096097E+00
         -1   -1    0    0    0  501 -0.00000000000E+00  0.00000000000E+00  0.81204406988E+03  0.81204406988E+03  0.00000000000E+00 0.  1.
          2   -1    0    0  502    0  0.00000000000E+00 -0.00000000000E+00 -0.32045838610E+03  0.32045838610E+03  0.00000000000E+00 0. -1.
         23    2    1    2    0    0 -0.24629079587E+03  0.38595555952E+02  0.51352318885E+03  0.57811523129E+03  0.91446061141E+02 0.  0.
         24    2    1    2    0    0  0.25443239450E+03 -0.81368305074E+02 -0.21787259773E+03  0.35367261578E+03  0.79115143139E+02 0.  0.
        -11    1    4    4    0    0  0.12842486081E+03 -0.81925560333E+02 -0.12677071099E+03  0.19818061327E+03  0.00000000000E+00 0.  1.
         12    1    4    4    0    0  0.12600753369E+03  0.55725525858E+00 -0.91101886738E+02  0.15549200252E+03  0.00000000000E+00 0. -1.
        -13    1    3    3    0    0 -0.12479651933E+03  0.26467945056E+02  0.16333111864E+03  0.20724810656E+03  0.00000000000E+00 0. -1.
         13    1    3    3    0    0 -0.12149427654E+03  0.12127610895E+02  0.35019207020E+03  0.37086712474E+03  0.00000000000E+00 0.  1.
         21    1    1    2  502  501 -0.81415986212E+01  0.42772749123E+02  0.19593509266E+03  0.20071460891E+03  0.00000000000E+00 0.  1.
<scales pt_clust_5="13000.00000" pt_clust_6="13000.00000" pt_clust_7="13000.00000" pt_clust_8="13000.00000" pt_clust_9="43.54071"></scales>
<clustering>
<clus scale="   43.541">  1  9  2 -1</clus>
<clus scale="   79.115">  5  6 -1 -1</clus>
<clus scale="   91.446">  7  8 -1 -1</clus>
<clus scale="  276.425">  2  5  1 -1</clus>
<clus scale="  276.425">  2  5  1 -1</clus>
</clustering>
</event>
<event>
 9    2  0.3402837E-005  0.1968438E+03  0.7546771E-02  0.1153579E+00
         -1   -1    0    0    0  501 -0.00000000000E+00  0.00000000000E+00  0.25806291437E+03  0.25806291437E+03  0.00000000000E+00 0.  1.
          2   -1    0    0  502    0  0.00000000000E+00 -0.00000000000E+00 -0.19385993261E+03  0.19385993261E+03  0.00000000000E+00 0. -1.
         23    2    1    2    0    0 -0.12052996796E+03  0.15557880930E+03  0.16393541068E+02  0.21814873075E+03  0.92670823121E+02 0.  0.
         24    2    1    2    0    0  0.80348081233E+02 -0.13326619888E+03  0.12530121830E+02  0.17583391478E+03  0.80900356669E+02 0.  0.
        -13    1    4    4    0    0  0.44254281235E+02 -0.37894951174E+02  0.39457363061E+02  0.70365845634E+02  0.00000000000E+00 0.  1.
         14    1    4    4    0    0  0.36093799998E+02 -0.95371247710E+02 -0.26927241230E+02  0.10546806914E+03  0.00000000000E+00 0. -1.
        -11    1    3    3    0    0 -0.73474666310E+02  0.12132189412E+03  0.50653741464E+02  0.15060986059E+03  0.00000000000E+00 0.  1.
         11    1    3    3    0    0 -0.47055301655E+02  0.34256915182E+02 -0.34260200396E+02  0.67538870162E+02  0.00000000000E+00 0. -1.
         21    1    1    2  502  501  0.40181886732E+02 -0.22312610417E+02  0.35279318859E+02  0.57940201450E+02  0.00000000000E+00 0.  1.
<scales pt_clust_5="13000.00000" pt_clust_6="13000.00000" pt_clust_7="13000.00000" pt_clust_8="13000.00000" pt_clust_9="45.96125"></scales>
<clustering>
<clus scale="   45.961">  1  9  2 -1</clus>
<clus scale="   80.900">  5  6 -1 -1</clus>
<clus scale="   92.671">  7  8 -1 -1</clus>
<clus scale="  191.584">  2  5  1 -1</clus>
<clus scale="  191.584">  2  5  1 -1</clus>
</clustering>
</event>
<event>
 9    2  0.3402837E-005  0.8936113E+02  0.7546771E-02  0.1309577E+00
          2   -1    0    0  502    0  0.00000000000E+00  0.00000000000E+00  0.26354354157E+03  0.26354354157E+03  0.00000000000E+00 0. -1.
         -1   -1    0    0    0  501 -0.00000000000E+00 -0.00000000000E+00 -0.17317116975E+03  0.17317116975E+03  0.00000000000E+00 0.  1.
         24    2    1    2    0    0 -0.87817832485E+02 -0.52495780144E+01 -0.68166450173E+02  0.13706824822E+03  0.80009436759E+02 0.  0.
         23    2    1    2    0    0  0.70811881703E+01  0.36457748996E+01  0.19262505353E+03  0.21199460002E+03  0.88169520172E+02 0.  0.
        -13    1    3    3    0    0 -0.90753649437E+02 -0.18927624617E+02 -0.77008328581E+02  0.12051872274E+03  0.00000000000E+00 0.  1.
         14    1    3    3    0    0  0.29358169520E+01  0.13678046603E+02  0.88418784075E+01  0.16549525486E+02  0.00000000000E+00 0. -1.
        -13    1    4    4    0    0  0.28332585846E+02  0.32377936441E+02  0.55131179802E+02  0.69932204135E+02  0.00000000000E+00 0. -1.
         13    1    4    4    0    0 -0.21251397676E+02 -0.28732161541E+02  0.13749387373E+03  0.14206239588E+03  0.00000000000E+00 0.  1.
         21    1    1    2  502  501  0.80736644315E+02  0.16038031148E+01 -0.34086231537E+02  0.87651863072E+02  0.00000000000E+00 0. -1.
<scales pt_clust_5="13000.00000" pt_clust_6="13000.00000" pt_clust_7="13000.00000" pt_clust_8="13000.00000" pt_clust_9="80.75257"></scales>
<clustering>
<clus scale="   80.009">  5  6 -1 -1</clus>
<clus scale="   80.753">  2  9  1 -1</clus>
<clus scale="   81.321">  2  5  1 -1</clus>
<clus scale="   88.170">  7  8 -1 -1</clus>
<clus scale="   89.361">  1  5  2 -1</clus>
</clustering>
</event>
<event>
 9    2  0.3402837E-005  0.9744491E+02  0.7546771E-02  0.1291381E+00
         -1   -1    0    0    0  501 -0.00000000000E+00  0.00000000000E+00  0.31608006058E+02  0.31608006058E+02  0.00000000000E+00 0.  1.
          2   -1    0    0  502    0  0.00000000000E+00 -0.00000000000E+00 -0.38387601842E+03  0.38387601842E+03  0.00000000000E+00 0. -1.
         23    2    1    2    0    0  0.23328731601E+02 -0.24964338045E+02 -0.10991069288E+03  0.14707229883E+03  0.91555735934E+02 0.  0.
         24    2    1    2    0    0 -0.35351104411E+02  0.44549325071E+01 -0.21266619464E+03  0.23037574192E+03  0.81095777427E+02 0.  0.
        -13    1    4    4    0    0 -0.71325878927E+01  0.38790238529E+02 -0.63704030516E+02  0.74925028656E+02  0.00000000000E+00 0.  1.
         14    1    4    4    0    0 -0.28218516518E+02 -0.34335306022E+02 -0.14896216412E+03  0.15545071326E+03  0.00000000000E+00 0. -1.
        -13    1    3    3    0    0  0.27997438183E+02 -0.47428491691E+02 -0.11120020659E+03  0.12409191881E+03  0.00000000000E+00 0. -1.
         13    1    3    3    0    0 -0.46687065821E+01  0.22464153646E+02  0.12895137120E+01  0.22980380019E+02  0.00000000000E+00 0.  1.
         21    1    1    2  502  501  0.12022372810E+02  0.20509405538E+02 -0.29691124846E+02  0.38035983727E+02  0.00000000000E+00 0.  1.
<scales pt_clust_5="13000.00000" pt_clust_6="13000.00000" pt_clust_7="13000.00000" pt_clust_8="13000.00000" pt_clust_9="23.77337"></scales>
<clustering>
<clus scale="   23.773">  1  9  2 -1</clus>
<clus scale="   81.096">  5  6 -1 -1</clus>
<clus scale="   87.690">  2  5  1 -1</clus>
<clus scale="   91.556">  7  8 -1 -1</clus>
<clus scale="   87.690">  2  5  1 -1</clus>
</clustering>
</event>
<event>
 9    2  0.3402837E-005  0.1052744E+03  0.7546771E-02  0.1273695E+00
         -1   -1    0    0    0  501 -0.00000000000E+00  0.00000000000E+00  0.64424814915E+02  0.64424814915E+02  0.00000000000E+00 0.  1.
          2   -1    0    0  502    0  0.00000000000E+00 -0.00000000000E+00 -0.33107127201E+03  0.33107127201E+03  0.00000000000E+00 0. -1.
         24    2    1    2    0    0 -0.32403921376E+02  0.45318791182E+02 -0.33511036509E+02  0.10525269601E+03  0.82772782328E+02 0.  0.
         23    2    1    2    0    0  0.12140411359E+02 -0.49040653743E+02 -0.24493373938E+03  0.26650181503E+03  0.92077714023E+02 0.  0.
        -13    1    3    3    0    0  0.49402931754E+00  0.45841782787E+02  0.13573283415E+02  0.47811579526E+02  0.00000000000E+00 0.  1.
         14    1    3    3    0    0 -0.32897950693E+02 -0.52299160544E+00 -0.47084319924E+02  0.57441116482E+02  0.00000000000E+00 0. -1.
        -13    1    4    4    0    0 -0.32430400688E+02 -0.46006193524E+02 -0.98995071944E+02  0.11387855373E+03  0.00000000000E+00 0. -1.
         13    1    4    4    0    0  0.44570812047E+02 -0.30344602187E+01 -0.14593866744E+03  0.15262326130E+03  0.00000000000E+00 0.  1.
         21    1    1    2  502  501  0.20263510016E+02  0.37218625607E+01  0.11798318796E+02  0.23741575885E+02  0.00000000000E+00 0. -1.
<scales pt_clust_5="13000.00000" pt_clust_6="13000.00000" pt_clust_7="13000.00000" pt_clust_8="13000.00000" pt_clust_9="20.60248"></scales>
<clustering>
<clus scale="   20.602">  1  9  2 -1</clus>
<clus scale="   82.773">  5  6 -1 -1</clus>
<clus scale="   92.078">  7  8 -1 -1</clus>
<clus scale="   97.241">  1  5  2 -1</clus>
<clus scale="  105.274">  2  5  1 -1</clus>
</clustering>
</event>
<event>
 9    2  0.3402837E-005  0.1083158E+03  0.7546771E-02  0.1269932E+00
         -1   -1    0    0    0  501 -0.00000000000E+00  0.00000000000E+00  0.36629245959E+02  0.36629245959E+02  0.00000000000E+00 0.  1.
          2   -1    0    0  502    0  0.00000000000E+00 -0.00000000000E+00 -0.50154436391E+03  0.50154436391E+03  0.00000000000E+00 0. -1.
         24    2    1    2    0    0 -0.30205319901E+02 -0.47909789821E+02 -0.85056970864E+02  0.12903478414E+03  0.78788183854E+02 0.  0.
         23    2    1    2    0    0 -0.84620321641E+01  0.59863345719E+02 -0.28876523610E+03  0.30945948963E+03  0.93405502983E+02 0.  0.
        -13    1    3    3    0    0 -0.26002516924E+02 -0.42641263152E+02 -0.67034005313E+01  0.50391902010E+02  0.00000000000E+00 0.  1.
         14    1    3    3    0    0 -0.42028029772E+01 -0.52685266700E+01 -0.78353570332E+02  0.78642882132E+02  0.00000000000E+00 0. -1.
        -13    1    4    4    0    0  0.39661347227E+02  0.98788362632E+01 -0.12778752702E+03  0.13416506971E+03  0.00000000000E+00 0. -1.
         13    1    4    4    0    0 -0.48123379391E+02  0.49984509456E+02 -0.16097770909E+03  0.17529441991E+03  0.00000000000E+00 0.  1.
         21    1    1    2  502  501  0.38667352065E+02 -0.11953555898E+02 -0.91092910987E+02  0.99679336105E+02  0.00000000000E+00 0.  1.
<scales pt_clust_5="13000.00000" pt_clust_6="13000.00000" pt_clust_7="13000.00000" pt_clust_8="13000.00000" pt_clust_9="40.47285"></scales>
<clustering>
<clus scale="   40.473">  2  9  1 -1</clus>
<clus scale="   78.788">  5  6 -1 -1</clus>
<clus scale="   93.406">  7  8 -1 -1</clus>
<clus scale="   95.996">  1  5  2 -1</clus>
<clus scale="   40.473">  2  5  1 -1</clus>
</clustering>
</event>
<event>
 9    2  0.3402837E-005  0.2058002E+03  0.7546771E-02  0.1183311E+00
         -1   -1    0    0    0  501 -0.00000000000E+00  0.00000000000E+00  0.10954664109E+03  0.10954664109E+03  0.00000000000E+00 0.  1.
          2   -1    0    0  502    0  0.00000000000E+00 -0.00000000000E+00 -0.80720289880E+03  0.80720289880E+03  0.00000000000E+00 0. -1.
         23    2    1    2    0    0  0.12757054909E+03 -0.13253789779E+03 -0.41384631671E+02  0.21381251907E+03  0.10080955424E+03 0.  0.
         24    2    1    2    0    0 -0.28004344465E+02  0.14993826720E+00 -0.25890929128E+03  0.27242938323E+03  0.79996762109E+02 0.  0.
        -11    1    4    4    0    0  0.92592905852E+01 -0.31754490624E+02 -0.13883488518E+03  0.14272073248E+03  0.00000000000E+00 0.  1.
         12    1    4    4    0    0 -0.37263635050E+02  0.31904428891E+02 -0.12007440610E+03  0.12970865075E+03  0.00000000000E+00 0. -1.
        -11    1    3    3    0    0  0.95324665503E+02 -0.14122069708E+03 -0.14605464820E+02  0.17100700787E+03  0.00000000000E+00 0.  1.
         11    1    3    3    0    0  0.32245883590E+02  0.86827992892E+01 -0.26779166851E+02  0.42805511201E+02  0.00000000000E+00 0. -1.
         21    1    1    2  502  501 -0.99566204628E+02  0.13238795952E+03 -0.39736233476E+03  0.43050763758E+03  0.00000000000E+00 0. -1.
<scales pt_clust_5="13000.00000" pt_clust_6="13000.00000" pt_clust_7="13000.00000" pt_clust_8="13000.00000" pt_clust_9="179.41897"></scales>
<clustering>
<clus scale="   79.997">  5  6 -1 -1</clus>
<clus scale="   84.757">  2  5  1 -1</clus>
<clus scale="  100.810">  7  8 -1 -1</clus>
<clus scale="  179.419">  2  9  1 -1</clus>
<clus scale="   84.757">  2  5  1 -1</clus>
</clustering>
</event>
<event>
 9    2  0.3402837E-005  0.1447706E+03  0.7546771E-02  0.1208462E+00
         -3   -1    0    0    0  501 -0.00000000000E+00  0.00000000000E+00  0.34770655892E+03  0.34770655892E+03  0.00000000000E+00 0.  1.
          4   -1    0    0  502    0  0.00000000000E+00 -0.00000000000E+00 -0.11568484410E+03  0.11568484410E+03  0.00000000000E+00 0. -1.
         23    2    1    2    0    0 -0.31153218642E+02  0.84299241630E+02  0.22330969917E+03  0.25673690591E+03  0.89273355151E+02 0.  0.
         24    2    1    2    0    0  0.28839387500E+02 -0.11617482661E+03 -0.38016579611E+02  0.15004205725E+03  0.82091765795E+02 0.  0.
        -13    1    4    4    0    0  0.24273843570E+02 -0.67502836678E+02  0.19713836023E+02  0.74394138022E+02  0.00000000000E+00 0.  1.
         14    1    4    4    0    0  0.45655439297E+01 -0.48671989928E+02 -0.57730415634E+02  0.75647919232E+02  0.00000000000E+00 0. -1.
        -13    1    3    3    0    0 -0.95152984195E+01  0.73777718707E+02  0.22026171985E+03  0.23248423154E+03  0.00000000000E+00 0.  1.
         13    1    3    3    0    0 -0.21637920223E+02  0.10521522923E+02  0.30479793201E+01  0.24252674370E+02  0.00000000000E+00 0. -1.
         21    1    1    2  502  501  0.23138311421E+01  0.31875584976E+02  0.46728595263E+02  0.56612439864E+02  0.00000000000E+00 0.  1.
<scales pt_clust_5="13000.00000" pt_clust_6="13000.00000" pt_clust_7="13000.00000" pt_clust_8="13000.00000" pt_clust_9="31.95945"></scales>
<clustering>
<clus scale="   31.959">  1  9  2 -1</clus>
<clus scale="   82.092">  5  6 -1 -1</clus>
<clus scale="   89.273">  7  8 -1 -1</clus>
<clus scale="  140.456">  2  5  1 -1</clus>
<clus scale="  140.456">  2  5  1 -1</clus>
</clustering>
</event>
<event>
 9    2  0.3402837E-005  0.1030919E+03  0.7546771E-02  0.1277953E+00
         -1   -1    0    0    0  501 -0.00000000000E+00  0.00000000000E+00  0.38297409793E+02  0.38297409793E+02  0.00000000000E+00 0.  1.
          2   -1    0    0  502    0  0.00000000000E+00 -0.00000000000E+00 -0.47844285179E+03  0.47844285179E+03  0.00000000000E+00 0. -1.
         24    2    1    2    0    0 -0.40734659833E+01 -0.38646601194E+02 -0.69283431858E+02  0.11287687456E+03  0.80192530649E+02 0.  0.
         23    2    1    2    0    0  0.27769666935E+02  0.49928558651E+02 -0.36035569320E+03  0.37559370009E+03  0.89164940165E+02 0.  0.
        -13    1    3    3    0    0  0.98111574332E+01 -0.61167130963E+02 -0.41823429057E+02  0.74745407474E+02  0.00000000000E+00 0.  1.
         14    1    3    3    0    0 -0.13884623416E+02  0.22520529769E+02 -0.27460002801E+02  0.38131467088E+02  0.00000000000E+00 0. -1.
        -11    1    4    4    0    0 -0.17874342183E+02  0.44889967799E+02 -0.98164641774E+02  0.10941159999E+03  0.00000000000E+00 0.  1.
         11    1    4    4    0    0  0.45644009118E+02  0.50385908523E+01 -0.26219105143E+03  0.26618210010E+03  0.00000000000E+00 0. -1.
         21    1    1    2  502  501 -0.23696200952E+02 -0.11281957457E+02 -0.10506316940E+02  0.28269686933E+02  0.00000000000E+00 0.  1.
<scales pt_clust_5="13000.00000" pt_clust_6="13000.00000" pt_clust_7="13000.00000" pt_clust_8="13000.00000" pt_clust_9="26.24486"></scales>
<clustering>
<clus scale="   26.245">  1  9  2 -1</clus>
<clus scale="   80.193">  5  6 -1 -1</clus>
<clus scale="   89.165">  7  8 -1 -1</clus>
<clus scale="   95.438">  1  5  2 -1</clus>
<clus scale="  103.092">  2  5  1 -1</clus>
</clustering>
</event>
<event>
 9    2  0.3402837E-005  0.1040657E+03  0.7546771E-02  0.1277061E+00
         -1   -1    0    0    0  501 -0.00000000000E+00  0.00000000000E+00  0.71559069117E+03  0.71559069117E+03  0.00000000000E+00 0.  1.
          2   -1    0    0  502    0  0.00000000000E+00 -0.00000000000E+00 -0.44102440267E+02  0.44102440267E+02  0.00000000000E+00 0. -1.
         23    2    1    2    0    0  0.22767956876E+02 -0.10824196896E+02  0.32046774815E+03  0.33409760758E+03  0.91027966494E+02 0.  0.
         24    2    1    2    0    0 -0.72983230675E+02  0.82050484362E+02  0.28694510991E+03  0.31742707321E+03  0.79772280659E+02 0.  0.
        -11    1    4    4    0    0 -0.42497530232E+02  0.88168973659E+02  0.25360970383E+03  0.27184129537E+03  0.00000000000E+00 0.  1.
         12    1    4    4    0    0 -0.30485700443E+02 -0.61184892963E+01  0.33335406082E+02  0.45585777841E+02  0.00000000000E+00 0. -1.
        -11    1    3    3    0    0 -0.38466640549E+01  0.34665011140E+02  0.19363059960E+03  0.19674671261E+03  0.00000000000E+00 0.  1.
         11    1    3    3    0    0  0.26614620931E+02 -0.45489208036E+02  0.12683714855E+03  0.13735089496E+03  0.00000000000E+00 0. -1.
         21    1    1    2  502  501  0.50215273799E+02 -0.71226287466E+02  0.64075392847E+02  0.10816845066E+03  0.00000000000E+00 0. -1.
<scales pt_clust_5="13000.00000" pt_clust_6="13000.00000" pt_clust_7="13000.00000" pt_clust_8="13000.00000" pt_clust_9="87.14791"></scales>
<clustering>
<clus scale="   79.772">  5  6 -1 -1</clus>
<clus scale="   87.148">  2  9  1 -1</clus>
<clus scale="   91.028">  7  8 -1 -1</clus>
<clus scale="   94.378">  2  5  1 -1</clus>
<clus scale="   87.148">  2  5  1 -1</clus>
</clustering>
</event>
<event>
 9    2  0.3402837E-005  0.1515106E+03  0.7546771E-02  0.1200931E+00
         -1   -1    0    0    0  501 -0.00000000000E+00  0.00000000000E+00  0.63328260379E+02  0.63328260379E+02  0.00000000000E+00 0.  1.
          2   -1    0    0  502    0  0.00000000000E+00 -0.00000000000E+00 -0.55561508269E+03  0.55561508269E+03  0.00000000000E+00 0. -1.
         23    2    1    2    0    0 -0.22391494548E+02 -0.76958109194E+02 -0.13218949371E+03  0.17948449364E+03  0.91195896910E+02 0.  0.
         24    2    1    2    0    0  0.31610930504E+02  0.13691452095E+03 -0.32696078387E+03  0.37033721818E+03  0.10247665103E+03 0.  0.
        -13    1    4    4    0    0 -0.16287424252E+01  0.21756209209E+02  0.29835625163E+00  0.21819130539E+02  0.00000000000E+00 0.  1.
         14    1    4    4    0    0  0.33239672929E+02  0.11515831174E+03 -0.32725914012E+03  0.34851808764E+03  0.00000000000E+00 0. -1.
        -11    1    3    3    0    0  0.22069652534E+02 -0.81443268568E+00 -0.64938384042E+02  0.68591009510E+02  0.00000000000E+00 0. -1.
         11    1    3    3    0    0 -0.44461147083E+02 -0.76143676509E+02 -0.67251109663E+02  0.11089348413E+03  0.00000000000E+00 0.  1.
         21    1    1    2  502  501 -0.92194359553E+01 -0.59956411752E+02 -0.33136544740E+02  0.69121631251E+02  0.00000000000E+00 0.  1.
<scales pt_clust_5="13000.00000" pt_clust_6="13000.00000" pt_clust_7="13000.00000" pt_clust_8="13000.00000" pt_clust_9="60.66110"></scales>
<clustering>
<clus scale="   60.661">  1  9  2 -1</clus>
<clus scale="   91.196">  7  8 -1 -1</clus>
<clus scale="  102.477">  5  6 -1 -1</clus>
<clus scale="  144.120">  1  7  2 -1</clus>
<clus scale="  151.511">  2  5  1 -1</clus>
</clustering>
</event>
<event>
 9    2  0.3402837E-005  0.2274780E+03  0.7546771E-02  0.1128428E+00
          2   -1    0    0  502    0  0.00000000000E+00  0.00000000000E+00  0.98711223688E+02  0.98711223688E+02  0.00000000000E+00 0. -1.
         -1   -1    0    0    0  501 -0.00000000000E+00 -0.00000000000E+00 -0.45791826139E+03  0.45791826139E+03  0.00000000000E+00 0.  1.
         24    2    1    2    0    0 -0.75151670740E+02  0.38857047485E+01 -0.17772378663E+03  0.20962319309E+03  0.81812385566E+02 0.  0.
         23    2    1    2    0    0 -0.44461363436E+02  0.57108102220E+02 -0.17809649166E+03  0.21269697521E+03  0.91013706361E+02 0.  0.
        -13    1    3    3    0    0 -0.78669679761E+02  0.26943948188E+02 -0.16003330885E+03  0.18034842611E+03  0.00000000000E+00 0.  1.
         14    1    3    3    0    0  0.35180090209E+01 -0.23058243439E+02 -0.17690477776E+02  0.29274766983E+02  0.00000000000E+00 0. -1.
        -11    1    4    4    0    0 -0.18259233600E+02  0.17907250645E+02  0.28266927970E+01  0.25730515530E+02  0.00000000000E+00 0.  1.
         11    1    4    4    0    0 -0.26202129836E+02  0.39200851575E+02 -0.18092318446E+03  0.18696645968E+03  0.00000000000E+00 0. -1.
         21    1    1    2  502  501  0.11961303418E+03 -0.60993806968E+02 -0.33867594156E+01  0.13430931678E+03  0.00000000000E+00 0. -1.
<scales pt_clust_5="13000.00000" pt_clust_6="13000.00000" pt_clust_7="13000.00000" pt_clust_8="13000.00000" pt_clust_9="134.26661"></scales>
<clustering>
<clus scale="   81.812">  5  6 -1 -1</clus>
<clus scale="   91.014">  7  8 -1 -1</clus>
<clus scale="  109.113">  5  7 -1 -1</clus>
<clus scale="  134.267">  1  9  2 -1</clus>
<clus scale="  134.267">  1  5  2 -1</clus>
</clustering>
</event>
<event>
 9    2  0.3402837E-005  0.3680137E+03  0.7546771E-02  0.1081293E+00
         -1   -1    0    0    0  501 -0.00000000000E+00  0.00000000000E+00  0.47643308511E+03  0.47643308511E+03  0.00000000000E+00 0.  1.
          2   -1    0    0  502    0  0.00000000000E+00 -0.00000000000E+00 -0.69596001144E+03  0.69596001144E+03  0.00000000000E+00 0. -1.
         23    2    1    2    0    0 -0.18542211543E+03 -0.30865066067E+03  0.24987142907E+03  0.44791963639E+03  0.92464470916E+02 0.  0.
         24    2    1    2    0    0  0.15103998753E+03 -0.60100549651E+02 -0.17312269574E+03  0.25019627080E+03  0.78749934872E+02 0.  0.
        -11    1    4    4    0    0  0.15028375672E+03 -0.71883503637E+02 -0.14971803154E+03  0.22398199614E+03  0.00000000000E+00 0.  1.
         12    1    4    4    0    0  0.75623081368E+00  0.11782953986E+02 -0.23404664199E+02  0.26214274660E+02  0.00000000000E+00 0. -1.
        -13    1    3    3    0    0 -0.15919407187E+03 -0.30576710713E+03  0.23849758936E+03  0.41918656521E+03  0.00000000000E+00 0.  1.
         13    1    3    3    0    0 -0.26228043558E+02 -0.28835535367E+01  0.11373839703E+02  0.28733071181E+02  0.00000000000E+00 0. -1.
         21    1    1    2  502  501  0.34382127897E+02  0.36875121032E+03 -0.29627565966E+03  0.47427718935E+03  0.00000000000E+00 0. -1.
<scales pt_clust_5="13000.00000" pt_clust_6="13000.00000" pt_clust_7="13000.00000" pt_clust_8="13000.00000" pt_clust_9="356.20839"></scales>
<clustering>
<clus scale="   78.750">  5  6 -1 -1</clus>
<clus scale="   92.464">  7  8 -1 -1</clus>
<clus scale="  180.629">  2  5  1 -1</clus>
<clus scale="  356.208">  2  9  1 -1</clus>
<clus scale="  180.629">  2  5  1 -1</clus>
</clustering>
</event>
<event>
 9    2  0.3402837E-005  0.1228272E+03  0.7546771E-02  0.1241377E+00
         -1   -1    0    0    0  501 -0.00000000000E+00  0.00000000000E+00  0.93298883151E+02  0.93298883151E+02  0.00000000000E+00 0.  1.
          2   -1    0    0  502    0  0.00000000000E+00 -0.00000000000E+00 -0.51643510129E+03  0.51643510129E+03  0.00000000000E+00 0. -1.
         23    2    1    2    0    0 -0.21008336581E+02 -0.68390756988E+02 -0.54642417232E+02  0.12767944495E+03  0.90540604459E+02 0.  0.
         24    2    1    2    0    0  0.43819423771E+02  0.73958239626E+02 -0.41419281313E+03  0.43067611717E+03  0.80847191297E+02 0.  0.
        -11    1    4    4    0    0  0.52260184436E+02  0.10292711704E+02 -0.20810817212E+03  0.21481638228E+03  0.00000000000E+00 0.  1.
         12    1    4    4    0    0 -0.84407606648E+01  0.63665527922E+02 -0.20608464101E+03  0.21585973489E+03  0.00000000000E+00 0. -1.
        -11    1    3    3    0    0  0.11920256101E+02 -0.40207734143E+02  0.15929176601E+02  0.44860818736E+02  0.00000000000E+00 0.  1.
         11    1    3    3    0    0 -0.32928592682E+02 -0.28183022845E+02 -0.70571593833E+02  0.82818626219E+02  0.00000000000E+00 0. -1.
         21    1    1    2  502  501 -0.22811087190E+02 -0.55674826374E+01  0.45699012224E+02  0.51378422319E+02  0.00000000000E+00 0.  1.
<scales pt_clust_5="13000.00000" pt_clust_6="13000.00000" pt_clust_7="13000.00000" pt_clust_8="13000.00000" pt_clust_9="23.48068"></scales>
<clustering>
<clus scale="   23.481">  1  9  2 -1</clus>
<clus scale="   80.847">  5  6 -1 -1</clus>
<clus scale="   90.541">  7  8 -1 -1</clus>
<clus scale="  115.867">  2  5  1 -1</clus>
<clus scale="  115.867">  2  5  1 -1</clus>
</clustering>
</event>
<event>
 9    2  0.3402837E-005  0.9526498E+02  0.7546771E-02  0.1294115E+00
         -1   -1    0    0    0  501 -0.00000000000E+00  0.00000000000E+00  0.16383694681E+03  0.16383694681E+03  0.00000000000E+00 0.  1.
          2   -1    0    0  502    0  0.00000000000E+00 -0.00000000000E+00 -0.11956803959E+03  0.11956803959E+03  0.00000000000E+00 0. -1.
         23    2    1    2    0    0  0.14844506625E+02 -0.80741148244E+01  0.57817442224E+02  0.10648899381E+03  0.87815138049E+02 0.  0.
         24    2    1    2    0    0 -0.34714549862E+02  0.24516019445E+02 -0.69698593286E+02  0.11512615612E+03  0.81178831824E+02 0.  0.
        -13    1    4    4    0    0  0.15322149936E+02  0.35716232790E+02 -0.19957789380E+02  0.43689025170E+02  0.00000000000E+00 0.  1.
         14    1    4    4    0    0 -0.50036699798E+02 -0.11200213346E+02 -0.49740803907E+02  0.71437130954E+02  0.00000000000E+00 0. -1.
        -13    1    3    3    0    0  0.22408154035E+02 -0.45716904661E+02  0.35655177529E+02  0.62156676421E+02  0.00000000000E+00 0.  1.
         13    1    3    3    0    0 -0.75636474101E+01  0.37642789837E+02  0.22162264695E+02  0.44332317391E+02  0.00000000000E+00 0. -1.
         21    1    1    2  502  501  0.19870043237E+02 -0.16441904620E+02  0.56150058279E+02  0.61789836466E+02  0.00000000000E+00 0.  1.
<scales pt_clust_5="13000.00000" pt_clust_6="13000.00000" pt_clust_7="13000.00000" pt_clust_8="13000.00000" pt_clust_9="25.79060"></scales>
<clustering>
<clus scale="   25.791">  1  9  2 -1</clus>
<clus scale="   81.179">  5  6 -1 -1</clus>
<clus scale="   87.815">  7  8 -1 -1</clus>
<clus scale="   89.185">  2  5  1 -1</clus>
<clus scale="   89.185">  2  5  1 -1</clus>
</clustering>
</event>
<event>
 9    2  0.3402837E-005  0.1117973E+03  0.7546771E-02  0.1263102E+00
          2   -1    0    0  502    0  0.00000000000E+00  0.00000000000E+00  0.24713919619E+03  0.24713919619E+03  0.00000000000E+00 0. -1.
         -1   -1    0    0    0  501 -0.00000000000E+00 -0.00000000000E+00 -0.14526273311E+03  0.14526273311E+03  0.00000000000E+00 0.  1.
         24    2    1    2    0    0  0.11335675504E+02  0.84405375144E+02  0.43795770285E+02  0.12206416022E+03  0.75689000679E+02 0.  0.
         23    2    1    2    0    0 -0.31187058917E+02 -0.48560001714E+02  0.14121909214E+03  0.17765032836E+03  0.91028021911E+02 0.  0.
        -13    1    3    3    0    0 -0.37689959745E+01  0.41409895867E+02 -0.17976917082E+02  0.45300710305E+02  0.00000000000E+00 0.  1.
         14    1    3    3    0    0  0.15104671479E+02  0.42995479277E+02  0.61772687367E+02  0.76763449918E+02  0.00000000000E+00 0. -1.
        -13    1    4    4    0    0 -0.53351442818E+02 -0.22264176181E+02  0.12863667575E+03  0.14103001219E+03  0.00000000000E+00 0.  1.
         13    1    4    4    0    0  0.22164383901E+02 -0.26295825532E+02  0.12582416389E+02  0.36620316170E+02  0.00000000000E+00 0. -1.
         21    1    1    2  502  501  0.19851383412E+02 -0.35845373431E+02 -0.83138399349E+02  0.92687440714E+02  0.00000000000E+00 0. -1.
<scales pt_clust_5="13000.00000" pt_clust_6="13000.00000" pt_clust_7="13000.00000" pt_clust_8="13000.00000" pt_clust_9="40.97521"></scales>
<clustering>
<clus scale="   40.975">  2  9  1 -1</clus>
<clus scale="   75.689">  5  6 -1 -1</clus>
<clus scale="   91.028">  7  8 -1 -1</clus>
<clus scale="   99.706">  2  5  1 -1</clus>
<clus scale="  111.797">  1  5  2 -1</clus>
</clustering>
</event>
<event>
 9    2  0.3402837E-005  0.9038035E+02  0.7546771E-02  0.1305178E+00
         -1   -1    0    0    0  501 -0.00000000000E+00  0.00000000000E+00  0.15582421824E+03  0.15582421824E+03  0.00000000000E+00 0.  1.
          2   -1    0    0  502    0  0.00000000000E+00 -0.00000000000E+00 -0.27061082567E+03  0.27061082567E+03  0.00000000000E+00 0. -1.
         24    2    1    2    0    0  0.59594068347E+00 -0.11642456837E+02 -0.14305097006E+02  0.81770073999E+02  0.79660575287E+02 0.  0.
         23    2    1    2    0    0  0.29953513774E+02 -0.29401173239E+02 -0.20630338883E+03  0.22712298300E+03  0.85218068442E+02 0.  0.
        -11    1    3    3    0    0 -0.12793495978E+02 -0.41884550940E+02  0.39854516568E+01  0.43975822582E+02  0.00000000000E+00 0.  1.
         12    1    3    3    0    0  0.13389436661E+02  0.30242094103E+02 -0.18290548663E+02  0.37794251418E+02  0.00000000000E+00 0. -1.
        -13    1    4    4    0    0  0.64066027907E+01 -0.56877944645E+02 -0.14568215337E+03  0.15652295345E+03  0.00000000000E+00 0. -1.
         13    1    4    4    0    0  0.23546910983E+02  0.27476771406E+02 -0.60621235455E+02  0.70600029545E+02  0.00000000000E+00 0.  1.
         21    1    1    2  502  501 -0.30549454457E+02  0.41043630076E+02  0.10582187841E+03  0.11754198691E+03  0.00000000000E+00 0.  1.
<scales pt_clust_5="13000.00000" pt_clust_6="13000.00000" pt_clust_7="13000.00000" pt_clust_8="13000.00000" pt_clust_9="51.16492"></scales>
<clustering>
<clus scale="   51.165">  1  9  2 -1</clus>
<clus scale="   79.661">  5  6 -1 -1</clus>
<clus scale="   85.160">  1  5  2 -1</clus>
<clus scale="   85.218">  7  8 -1 -1</clus>
<clus scale="   90.380">  2  5  1 -1</clus>
</clustering>
</event>
<event>
 9    2  0.3402837E-005  0.2428981E+03  0.7546771E-02  0.1118821E+00
         -1   -1    0    0    0  501 -0.00000000000E+00  0.00000000000E+00  0.26213722361E+03  0.26213722361E+03  0.00000000000E+00 0.  1.
          2   -1    0    0  502    0  0.00000000000E+00 -0.00000000000E+00 -0.42826798881E+03  0.42826798881E+03  0.00000000000E+00 0. -1.
         23    2    1    2    0    0 -0.22106878626E+03 -0.42759003281E+02  0.13987993432E+03  0.28083467164E+03  0.92746839024E+02 0.  0.
         24    2    1    2    0    0  0.21132689834E+03  0.70911333213E+02 -0.29546551586E+03  0.37796897500E+03  0.76636804881E+02 0.  0.
        -13    1    4    4    0    0  0.15641466624E+03  0.27749453896E+02 -0.15949911834E+03  0.22511230254E+03  0.00000000000E+00 0.  1.
         14    1    4    4    0    0  0.54912232104E+02  0.43161879317E+02 -0.13596639752E+03  0.15285667246E+03  0.00000000000E+00 0. -1.
        -13    1    3    3    0    0 -0.17888151359E+03 -0.63259552912E+02  0.13664065697E+03  0.23381838267E+03  0.00000000000E+00 0.  1.
         13    1    3    3    0    0 -0.42187272668E+02  0.20500549631E+02  0.32392773535E+01  0.47016288965E+02  0.00000000000E+00 0. -1.
         21    1    1    2  502  501  0.97418879185E+01 -0.28152329932E+02 -0.10545183656E+02  0.31601565771E+02  0.00000000000E+00 0. -1.
<scales pt_clust_5="13000.00000" pt_clust_6="13000.00000" pt_clust_7="13000.00000" pt_clust_8="13000.00000" pt_clust_9="29.79023"></scales>
<clustering>
<clus scale="   29.790">  2  9  1 -1</clus>
<clus scale="   76.637">  5  6 -1 -1</clus>
<clus scale="   92.747">  7  8 -1 -1</clus>
<clus scale="  237.215">  2  5  1 -1</clus>
<clus scale="   29.790">  2  5  1 -1</clus>
</clustering>
</event>
<event>
 9    2  0.3402837E-005  0.1262500E+03  0.7546771E-02  0.1237075E+00
         -1   -1    0    0    0  501 -0.00000000000E+00  0.00000000000E+00  0.54491828550E+02  0.54491828550E+02  0.00000000000E+00 0.  1.
          2   -1    0    0  502    0  0.00000000000E+00 -0.00000000000E+00 -0.80934662342E+03  0.80934662342E+03  0.00000000000E+00 0. -1.
         23    2    1    2    0    0  0.60249301020E+02  0.28106473920E+02 -0.51823940822E+02  0.12799846701E+03  0.96322035721E+02 0.  0.
         24    2    1    2    0    0 -0.66230241401E+02  0.37856790157E+01 -0.68888512739E+03  0.70044249000E+03  0.10796382178E+03 0.  0.
        -13    1    4    4    0    0  0.24076986240E+02  0.24104751374E+02 -0.19668490798E+03  0.19961386057E+03  0.00000000000E+00 0.  1.
         14    1    4    4    0    0 -0.90307227641E+02 -0.20319072359E+02 -0.49220021941E+03  0.50082862943E+03  0.00000000000E+00 0. -1.
        -13    1    3    3    0    0  0.54437688506E+02  0.56795150914E+01  0.15429507385E+02  0.56866409414E+02  0.00000000000E+00 0.  1.
         13    1    3    3    0    0  0.58116125138E+01  0.22426958829E+02 -0.67253448207E+02  0.71132057598E+02  0.00000000000E+00 0. -1.
         21    1    1    2  502  501  0.59809403812E+01 -0.31892152936E+02 -0.14145726655E+02  0.35397494958E+02  0.00000000000E+00 0. -1.
<scales pt_clust_5="13000.00000" pt_clust_6="13000.00000" pt_clust_7="13000.00000" pt_clust_8="13000.00000" pt_clust_9="32.44813"></scales>
<clustering>
<clus scale="   32.448">  1  9  2 -1</clus>
<clus scale="   96.322">  7  8 -1 -1</clus>
<clus scale="  107.964">  5  6 -1 -1</clus>
<clus scale="  116.451">  1  7  2 -1</clus>
<clus scale="  126.250">  2  5  1 -1</clus>
</clustering>
</event>
<event>
 9    2  0.3402837E-005  0.3122116E+03  0.7546771E-02  0.1129983E+00
         -1   -1    0    0    0  501 -0.00000000000E+00  0.00000000000E+00  0.12922779730E+03  0.12922779730E+03  0.00000000000E+00 0.  1.
          2   -1    0    0  502    0  0.00000000000E+00 -0.00000000000E+00 -0.12007393244E+04  0.12007393244E+04  0.00000000000E+00 0. -1.
         23    2    1    2    0    0  0.22777216231E+03  0.18070892805E+03 -0.29391219469E+03  0.42313122844E+03  0.90109842339E+02 0.  0.
         24    2    1    2    0    0  0.23879205717E+01  0.24109194099E+02 -0.44691174278E+03  0.45486420294E+03  0.81144204213E+02 0.  0.
        -11    1    4    4    0    0 -0.12377214021E+02  0.38618262371E+02 -0.10868041788E+03  0.11599999502E+03  0.00000000000E+00 0.  1.
         12    1    4    4    0    0  0.14765134593E+02 -0.14509068272E+02 -0.33823132490E+03  0.33886420792E+03  0.00000000000E+00 0. -1.
        -13    1    3    3    0    0 -0.22810570113E+01  0.21722647392E+02 -0.39191836955E+02  0.44867323463E+02  0.00000000000E+00 0.  1.
         13    1    3    3    0    0  0.23005321932E+03  0.15898628066E+03 -0.25472035774E+03  0.37826390497E+03  0.00000000000E+00 0. -1.
         21    1    1    2  502  501 -0.23016008289E+03 -0.20481812215E+03 -0.33068758962E+03  0.45197169031E+03  0.00000000000E+00 0.  1.
<scales pt_clust_5="13000.00000" pt_clust_6="13000.00000" pt_clust_7="13000.00000" pt_clust_8="13000.00000" pt_clust_9="298.92522"></scales>
<clustering>
<clus scale="   81.144">  5  6 -1 -1</clus>
<clus scale="   84.684">  2  5  1 -1</clus>
<clus scale="   90.110">  7  8 -1 -1</clus>
<clus scale="  298.925">  2  9  1 -1</clus>
<clus scale="   84.684">  2  5  1 -1</clus>
</clustering>
</event>
<event>
 9    2  0.3402837E-005  0.9940126E+02  0.7546771E-02  0.1291678E+00
         -1   -1    0    0    0  501 -0.00000000000E+00  0.00000000000E+00  0.11519967381E+03  0.11519967381E+03  0.00000000000E+00 0.  1.
          2   -1    0    0  502    0  0.00000000000E+00 -0.00000000000E+00 -0.15727737868E+03  0.15727737868E+03  0.00000000000E+00 0. -1.
         24    2    1    2    0    0 -0.41270533131E+02 -0.10360018315E+01  0.22981340486E+02  0.93710930077E+02  0.80927536727E+02 0.  0.
         23    2    1    2    0    0  0.41111008896E+01 -0.38051303453E+00 -0.90472600616E+02  0.13372526641E+03  0.98387547350E+02 0.  0.
        -13    1    3    3    0    0 -0.16514652453E+02 -0.26195826136E+02  0.43108913107E+02  0.53078559154E+02  0.00000000000E+00 0.  1.
         14    1    3    3    0    0 -0.24755880678E+02  0.25159824305E+02 -0.20127572621E+02  0.40632370923E+02  0.00000000000E+00 0. -1.
        -13    1    4    4    0    0 -0.17614482316E+02 -0.22308103351E+02  0.88074665668E+01  0.29757233234E+02  0.00000000000E+00 0.  1.
         13    1    4    4    0    0  0.21725583206E+02  0.21927590317E+02 -0.99280067183E+02  0.10396803318E+03  0.00000000000E+00 0. -1.
         21    1    1    2  502  501  0.37159432242E+02  0.14165148660E+01  0.25413555260E+02  0.45040856007E+02  0.00000000000E+00 0. -1.
<scales pt_clust_5="13000.00000" pt_clust_6="13000.00000" pt_clust_7="13000.00000" pt_clust_8="13000.00000" pt_clust_9="37.18642"></scales>
<clustering>
<clus scale="   37.186">  1  9  2 -1</clus>
<clus scale="   80.928">  5  6 -1 -1</clus>
<clus scale="   82.157">  1  5  2 -1</clus>
<clus scale="   98.388">  7  8 -1 -1</clus>
<clus scale="   99.401">  2  5  1 -1</clus>
</clustering>
</event>
<event>
 9    2  0.3402837E-005  0.1108945E+03  0.7546771E-02  0.1261188E+00
         -1   -1    0    0    0  501 -0.00000000000E+00  0.00000000000E+00  0.17480912744E+02  0.17480912744E+02  0.00000000000E+00 0.  1.
          2   -1    0    0  502    0  0.00000000000E+00 -0.00000000000E+00 -0.18434221284E+04  0.18434221284E+04  0.00000000000E+00 0. -1.
         23    2    1    2    0    0  0.72424865272E+01  0.92406907416E+02 -0.41351047791E+03  0.43294955718E+03  0.88673071281E+02 0.  0.
         24    2    1    2    0    0 -0.10044055622E+02 -0.60653516988E+02 -0.13747500986E+04  0.13785980672E+04  0.82553408465E+02 0.  0.
        -11    1    4    4    0    0  0.24060669807E+02 -0.20465144198E+02 -0.18471806520E+03  0.18739931049E+03  0.00000000000E+00 0.  1.
         12    1    4    4    0    0 -0.34104725429E+02 -0.40188372790E+02 -0.11900320334E+04  0.11911987567E+04  0.00000000000E+00 0. -1.
        -13    1    3    3    0    0  0.28767749827E+02 -0.12934373367E+01 -0.59281897648E+02  0.65905992133E+02  0.00000000000E+00 0.  1.
         13    1    3    3    0    0 -0.21525263300E+02  0.93700344753E+02 -0.35422858026E+03  0.36704356505E+03  0.00000000000E+00 0. -1.
         21    1    1    2  502  501  0.28015690950E+01 -0.31753390428E+02 -0.37680639162E+02  0.49355416732E+02  0.00000000000E+00 0.  1.
<scales pt_clust_5="13000.00000" pt_clust_6="13000.00000" pt_clust_7="13000.00000" pt_clust_8="13000.00000" pt_clust_9="31.87674"></scales>
<clustering>
<clus scale="   31.877">  1  9  2 -1</clus>
<clus scale="   82.553">  5  6 -1 -1</clus>
<clus scale="   88.673">  7  8 -1 -1</clus>
<clus scale="  106.065">  2  5  1 -1</clus>
<clus scale="  106.065">  2  5  1 -1</clus>
</clustering>
</event>
<event>
 9    2  0.3402837E-005  0.2637358E+03  0.7546771E-02  0.1105381E+00
          2   -1    0    0  502    0  0.00000000000E+00  0.00000000000E+00  0.33142709662E+03  0.33142709662E+03  0.00000000000E+00 0. -1.
         -1   -1    0    0    0  501 -0.00000000000E+00 -0.00000000000E+00 -0.63430326775E+03  0.63430326775E+03  0.00000000000E+00 0.  1.
         23    2    1    2    0    0  0.18793376765E+03 -0.13574738161E+03 -0.37929152499E+03  0.45363595618E+03  0.90427137359E+02 0.  0.
         24    2    1    2    0    0 -0.21069287937E+03  0.13465052582E+03  0.23459517739E+03  0.35228190295E+03  0.80903574521E+02 0.  0.
        -13    1    4    4    0    0 -0.65208290135E+01  0.23710362347E+02  0.49258101245E+02  0.55055090881E+02  0.00000000000E+00 0.  1.
         14    1    4    4    0    0 -0.20417205036E+03  0.11094016348E+03  0.18533707614E+03  0.29722681207E+03  0.00000000000E+00 0. -1.
        -13    1    3    3    0    0  0.32403592789E+02 -0.15246266610E+02 -0.13467613386E+02  0.38259875607E+02  0.00000000000E+00 0. -1.
         13    1    3    3    0    0  0.15553017486E+03 -0.12050111500E+03 -0.36582391161E+03  0.41537608057E+03  0.00000000000E+00 0.  1.
         21    1    1    2  502  501  0.22759111725E+02  0.10968557852E+01 -0.15817982353E+03  0.15981250524E+03  0.00000000000E+00 0.  1.
<scales pt_clust_5="13000.00000" pt_clust_6="13000.00000" pt_clust_7="13000.00000" pt_clust_8="13000.00000" pt_clust_9="22.78553"></scales>
<clustering>
<clus scale="   22.786">  2  9  1 -1</clus>
<clus scale="   80.904">  5  6 -1 -1</clus>
<clus scale="   90.427">  7  8 -1 -1</clus>
<clus scale="  260.624">  1  5  2 -1</clus>
<clus scale="  260.624">  1  5  2 -1</clus>
</clustering>
</event>
<event>
 9    2  0.3402837E-005  0.1165741E+03  0.7546771E-02  0.1249433E+00
         -1   -1    0    0    0  501 -0.00000000000E+00  0.00000000000E+00  0.41120970853E+02  0.41120970853E+02  0.00000000000E+00 0.  1.
          2   -1    0    0  502    0  0.00000000000E+00 -0.00000000000E+00 -0.47577973443E+03  0.47577973443E+03  0.00000000000E+00 0. -1.
         23    2    1    2    0    0 -0.64946318531E+02  0.29626054136E+02 -0.15263740195E+03  0.18838901268E+03  0.84240822957E+02 0.  0.
         24    2    1    2    0    0  0.86224261119E+02 -0.16887715177E+02 -0.27854354092E+03  0.30346950106E+03  0.82385773964E+02 0.  0.
        -13    1    4    4    0    0  0.11113421403E+02 -0.31205160024E+02 -0.34934990127E+02  0.48142742782E+02  0.00000000000E+00 0.  1.
         14    1    4    4    0    0  0.75110839716E+02  0.14317444846E+02 -0.24360855080E+03  0.25532675827E+03  0.00000000000E+00 0. -1.
        -13    1    3    3    0    0 -0.17736822929E+02  0.53191532019E+02 -0.62683602834E+02  0.84102128573E+02  0.00000000000E+00 0. -1.
         13    1    3    3    0    0 -0.47209495602E+02 -0.23565477883E+02 -0.89953799111E+02  0.10428688411E+03  0.00000000000E+00 0.  1.
         21    1    1    2  502  501 -0.21277942588E+02 -0.12738338959E+02 -0.34778207038E+01  0.25042191539E+02  0.00000000000E+00 0.  1.
<scales pt_clust_5="13000.00000" pt_clust_6="13000.00000" pt_clust_7="13000.00000" pt_clust_8="13000.00000" pt_clust_9="24.79952"></scales>
<clustering>
<clus scale="   24.800">  1  9  2 -1</clus>
<clus scale="   82.386">  5  6 -1 -1</clus>
<clus scale="   84.241">  7  8 -1 -1</clus>
<clus scale="  115.241">  2  5  1 -1</clus>
<clus scale="  115.241">  2  5  1 -1</clus>
</clustering>
</event>
<event>
 9    2  0.3402837E-005  0.1832459E+03  0.7546771E-02  0.1165720E+00
         -1   -1    0    0    0  501 -0.00000000000E+00  0.00000000000E+00  0.36378577124E+03  0.36378577124E+03  0.00000000000E+00 0.  1.
          2   -1    0    0  502    0  0.00000000000E+00 -0.00000000000E+00 -0.51851167967E+03  0.51851167967E+03  0.00000000000E+00 0. -1.
         24    2    1    2    0    0 -0.15925476610E+03  0.42842601281E+02  0.28301728459E+03  0.33733855496E+03  0.80628458239E+02 0.  0.
         23    2    1    2    0    0  0.15974765970E+03  0.72371566795E+01 -0.45613366694E+03  0.49160690786E+03  0.89709188627E+02 0.  0.
        -11    1    3    3    0    0 -0.85677876266E+02  0.43345218795E+02  0.93424338870E+02  0.13396870369E+03  0.00000000000E+00 0.  1.
         12    1    3    3    0    0 -0.73576889832E+02 -0.50261751353E+00  0.18959294572E+03  0.20336985128E+03  0.00000000000E+00 0. -1.
        -13    1    4    4    0    0  0.13771220008E+03  0.24993737831E+02 -0.43298943522E+03  0.45504855564E+03  0.00000000000E+00 0. -1.
         13    1    4    4    0    0  0.22035459625E+02 -0.17756581151E+02 -0.23144231722E+02  0.36558352220E+02  0.00000000000E+00 0.  1.
         21    1    1    2  502  501 -0.49289360344E+00 -0.50079757961E+02  0.18390473927E+02  0.53351988086E+02  0.00000000000E+00 0. -1.
<scales pt_clust_5="13000.00000" pt_clust_6="13000.00000" pt_clust_7="13000.00000" pt_clust_8="13000.00000" pt_clust_9="50.08218"></scales>
<clustering>
<clus scale="   50.082">  1  9  2 -1</clus>
<clus scale="   80.628">  5  6 -1 -1</clus>
<clus scale="   89.709">  7  8 -1 -1</clus>
<clus scale="  178.976">  1  5  2 -1</clus>
<clus scale="  183.246">  2  5  1 -1</clus>
</clustering>
</event>
<event>
 9    2  0.3402837E-005  0.9563857E+02  0.7546771E-02  0.1297012E+00
         -1   -1    0    0    0  501 -0.00000000000E+00  0.00000000000E+00  0.15905164576E+03  0.15905164576E+03  0.00000000000E+00 0.  1.
          2   -1    0    0  502    0  0.00000000000E+00 -0.00000000000E+00 -0.13507932544E+03  0.13507932544E+03  0.00000000000E+00 0. -1.
         24    2    1    2    0    0 -0.14325484385E+02  0.20517912874E+02  0.34640969903E+02  0.90381320416E+02  0.79640329185E+02 0.  0.
         23    2    1    2    0    0 -0.12865131320E+02 -0.25968126738E+02 -0.82269300966E+02  0.12696626917E+03  0.92262345594E+02 0.  0.
        -13    1    3    3    0    0  0.10082688033E+02 -0.27167244122E+02  0.18711677165E+02  0.34494153323E+02  0.00000000000E+00 0.  1.
         14    1    3    3    0    0 -0.24408172418E+02  0.47685156996E+02  0.15929292739E+02  0.55887167093E+02  0.00000000000E+00 0. -1.
        -11    1    4    4    0    0  0.27902908758E+02 -0.19919398602E+02 -0.78403074611E+02  0.85571004823E+02  0.00000000000E+00 0. -1.
         11    1    4    4    0    0 -0.40768040078E+02 -0.60487281360E+01 -0.38662263547E+01  0.41395264344E+02  0.00000000000E+00 0.  1.
         21    1    1    2  502  501  0.27190615706E+02  0.54502138645E+01  0.71600651382E+02  0.76783381613E+02  0.00000000000E+00 0. -1.
<scales pt_clust_5="13000.00000" pt_clust_6="13000.00000" pt_clust_7="13000.00000" pt_clust_8="13000.00000" pt_clust_9="27.73147"></scales>
<clustering>
<clus scale="   27.731">  1  9  2 -1</clus>
<clus scale="   79.640">  5  6 -1 -1</clus>
<clus scale="   83.528">  1  5  2 -1</clus>
<clus scale="   92.262">  7  8 -1 -1</clus>
<clus scale="   95.639">  2  5  1 -1</clus>
</clustering>
</event>
<event>
 9    2  0.3402837E-005  0.1386822E+03  0.7546771E-02  0.1224451E+00
         -1   -1    0    0    0  501 -0.00000000000E+00  0.00000000000E+00  0.45566991551E+02  0.45566991551E+02  0.00000000000E+00 0.  1.
          2   -1    0    0  502    0  0.00000000000E+00 -0.00000000000E+00 -0.99541730193E+03  0.99541730193E+03  0.00000000000E+00 0. -1.
         24    2    1    2    0    0  0.61203302260E+02 -0.70027442233E+02 -0.15291517656E+03  0.19583859037E+03  0.79498524402E+02 0.  0.
         23    2    1    2    0    0  0.60541512984E+02 -0.33769784900E+02 -0.42997537018E+03  0.44482691448E+03  0.90479233643E+02 0.  0.
        -11    1    3    3    0    0  0.56894510400E+02 -0.51753302406E+02 -0.51176395631E+02  0.92381887258E+02  0.00000000000E+00 0.  1.
         12    1    3    3    0    0  0.43087918602E+01 -0.18274139827E+02 -0.10173878093E+03  0.10345670311E+03  0.00000000000E+00 0. -1.
        -13    1    4    4    0    0  0.46436628885E+02  0.18818008969E+02 -0.11895092184E+03  0.12907284676E+03  0.00000000000E+00 0. -1.
         13    1    4    4    0    0  0.14104884099E+02 -0.52587793869E+02 -0.31102444834E+03  0.31575406772E+03  0.00000000000E+00 0.  1.
         21    1    1    2  502  501 -0.12174481524E+03  0.10379722713E+03 -0.36695976364E+03  0.40031878863E+03  0.00000000000E+00 0. -1.
<scales pt_clust_5="13000.00000" pt_clust_6="13000.00000" pt_clust_7="13000.00000" pt_clust_8="13000.00000" pt_clust_9="113.63428"></scales>
<clustering>
<clus scale="   79.499">  5  6 -1 -1</clus>
<clus scale="   90.479">  7  8 -1 -1</clus>
<clus scale="  113.983">  2  7  1 -1</clus>
<clus scale="  113.634">  2  9  1 -1</clus>
<clus scale="  113.983">  2  5  1 -1</clus>
</clustering>
</event>
<event>
 9    2  0.3402837E-005  0.1047261E+03  0.7546771E-02  0.1275254E+00
          2   -1    0    0  502    0  0.00000000000E+00  0.00000000000E+00  0.24463664496E+03  0.24463664496E+03  0.00000000000E+00 0. -1.
         -1   -1    0    0    0  501 -0.00000000000E+00 -0.00000000000E+00 -0.10348287358E+03  0.10348287358E+03  0.00000000000E+00 0.  1.
         24    2    1    2    0    0 -0.22768592451E+02 -0.24176297954E+02 -0.25359536161E+02  0.90538414580E+02  0.80319339237E+02 0.  0.
         23    2    1    2    0    0  0.54349759265E+02  0.19629377412E+02  0.18974804479E+03  0.21811089242E+03  0.90712910333E+02 0.  0.
        -11    1    3    3    0    0 -0.17432159674E+02 -0.53234042086E+02 -0.24065714891E+02  0.60966401082E+02  0.00000000000E+00 0.  1.
         12    1    3    3    0    0 -0.53364327772E+01  0.29057744132E+02 -0.12938212693E+01  0.29572013498E+02  0.00000000000E+00 0. -1.
        -13    1    4    4    0    0 -0.21584302855E+02  0.15775983524E+02  0.24727688444E+02  0.36417336004E+02  0.00000000000E+00 0.  1.
         13    1    4    4    0    0  0.75934062120E+02  0.38533938879E+01  0.16502035635E+03  0.18169355642E+03  0.00000000000E+00 0. -1.
         21    1    1    2  502  501 -0.31581166815E+02  0.45469205419E+01 -0.23234737248E+02  0.39470211537E+02  0.00000000000E+00 0. -1.
<scales pt_clust_5="13000.00000" pt_clust_6="13000.00000" pt_clust_7="13000.00000" pt_clust_8="13000.00000" pt_clust_9="31.90681"></scales>
<clustering>
<clus scale="   31.907">  2  9  1 -1</clus>
<clus scale="   80.319">  5  6 -1 -1</clus>
<clus scale="   90.713">  7  8 -1 -1</clus>
<clus scale="   95.864">  2  5  1 -1</clus>
<clus scale="  104.726">  1  5  2 -1</clus>
</clustering>
</event>
<event>
 9    2  0.3402837E-005  0.1125972E+03  0.7546771E-02  0.1256300E+00
         -1   -1    0    0    0  501 -0.00000000000E+00  0.00000000000E+00  0.33478737815E+03  0.33478737815E+03  0.00000000000E+00 0.  1.
          2   -1    0    0  502    0  0.00000000000E+00 -0.00000000000E+00 -0.16156562560E+03  0.16156562560E+03  0.00000000000E+00 0. -1.
         24    2    1    2    0    0 -0.73939213168E+02 -0.11975075710E+02  0.28326289270E+03  0.30414686528E+03  0.81590683268E+02 0.  0.
         23    2    1    2    0    0  0.93014378626E+02  0.29636931529E+01 -0.11597433984E+03  0.17029107947E+03  0.82997265833E+02 0.  0.
        -11    1    3    3    0    0 -0.26961561849E+02 -0.44620744652E+02  0.15945543122E+03  0.16776165002E+03  0.00000000000E+00 0.  1.
         12    1    3    3    0    0 -0.46977651319E+02  0.32645668942E+02  0.12380746148E+03  0.13638521526E+03  0.00000000000E+00 0. -1.
        -11    1    4    4    0    0  0.97709519928E+02  0.25965257326E+02 -0.96962387876E+02  0.14008229558E+03  0.00000000000E+00 0. -1.
         11    1    4    4    0    0 -0.46951413024E+01 -0.23001564173E+02 -0.19011951966E+02  0.30208783885E+02  0.00000000000E+00 0.  1.
         21    1    1    2  502  501 -0.19075165458E+02  0.90113825573E+01  0.59331996909E+01  0.21915059010E+02  0.00000000000E+00 0. -1.
<scales pt_clust_5="13000.00000" pt_clust_6="13000.00000" pt_clust_7="13000.00000" pt_clust_8="13000.00000" pt_clust_9="21.09661"></scales>
<clustering>
<clus scale="   21.097">  2  9  1 -1</clus>
<clus scale="   81.591">  5  6 -1 -1</clus>
<clus scale="   82.997">  7  8 -1 -1</clus>
<clus scale="  111.564">  1  5  2 -1</clus>
<clus scale="   21.097">  2  5  1 -1</clus>
</clustering>
</event>
<event>
 9    2  0.3402837E-005  0.1099478E+03  0.7546771E-02  0.1265835E+00
         -1   -1    0    0    0  501 -0.00000000000E+00  0.00000000000E+00  0.15181480031E+03  0.15181480031E+03  0.00000000000E+00 0.  1.
          2   -1    0    0  502    0  0.00000000000E+00 -0.00000000000E+00 -0.31586184687E+03  0.31586184687E+03  0.00000000000E+00 0. -1.
         24    2    1    2    0    0 -0.32003962419E+01 -0.63920057621E+02  0.86682499248E+02  0.13359609768E+03  0.78981297381E+02 0.  0.
         23    2    1    2    0    0 -0.18243683947E+02  0.57492938915E+02 -0.27790953690E+03  0.29886821721E+03  0.91925135468E+02 0.  0.
        -13    1    3    3    0    0 -0.33695027574E+02 -0.50618273243E+02  0.29843710651E+02  0.67736338362E+02  0.00000000000E+00 0.  1.
         14    1    3    3    0    0  0.30494631332E+02 -0.13301784379E+02  0.56838788596E+02  0.65859759314E+02  0.00000000000E+00 0. -1.
        -11    1    4    4    0    0  0.28991513523E+02  0.42457651558E+02 -0.81995461468E+02  0.96780244542E+02  0.00000000000E+00 0.  1.
         11    1    4    4    0    0 -0.47235197470E+02  0.15035287357E+02 -0.19591407543E+03  0.20208797267E+03  0.00000000000E+00 0. -1.
         21    1    1    2  502  501  0.21444080189E+02  0.64271187062E+01  0.27179991090E+02  0.35212332295E+02  0.00000000000E+00 0. -1.
<scales pt_clust_5="13000.00000" pt_clust_6="13000.00000" pt_clust_7="13000.00000" pt_clust_8="13000.00000" pt_clust_9="22.38652"></scales>
<clustering>
<clus scale="   22.387">  1  9  2 -1</clus>
<clus scale="   78.981">  5  6 -1 -1</clus>
<clus scale="   91.925">  7  8 -1 -1</clus>
<clus scale="   99.380">  1  5  2 -1</clus>
<clus scale="  109.948">  2  5  1 -1</clus>
</clustering>
</event>
<event>
 9    2  0.3402837E-005  0.1312823E+03  0.7546771E-02  0.1228637E+00
          4   -1    0    0  502    0  0.00000000000E+00  0.00000000000E+00  0.25865419336E+03  0.25865419336E+03  0.00000000000E+00 0. -1.
         -3   -1    0    0    0  501 -0.00000000000E+00 -0.00000000000E+00 -0.12415494085E+03  0.12415494085E+03  0.00000000000E+00 0.  1.
         23    2    1    2    0    0 -0.12969674574E+02 -0.99921213265E+02 -0.35276687968E+02  0.14121847925E+03  0.92443241236E+02 0.  0.
         24    2    1    2    0    0  0.30942705913E+02  0.86644888301E+02  0.17953232731E+03  0.21720874068E+03  0.80517033979E+02 0.  0.
        -11    1    4    4    0    0  0.37211712504E+02  0.42349116709E+02  0.36055680518E+02  0.66919140245E+02  0.00000000000E+00 0.  1.
         12    1    4    4    0    0 -0.62690065904E+01  0.44295771592E+02  0.14347664679E+03  0.15028960044E+03  0.00000000000E+00 0. -1.
        -13    1    3    3    0    0 -0.30518203787E+02 -0.70290350300E+02  0.17119308944E+02  0.78518563705E+02  0.00000000000E+00 0. -1.
         13    1    3    3    0    0  0.17548529213E+02 -0.29630862965E+02 -0.52395996911E+02  0.62699915550E+02  0.00000000000E+00 0.  1.
         21    1    1    2  502  501 -0.17973031339E+02  0.13276324964E+02 -0.97563868289E+01  0.24381914281E+02  0.00000000000E+00 0.  1.
<scales pt_clust_5="13000.00000" pt_clust_6="13000.00000" pt_clust_7="13000.00000" pt_clust_8="13000.00000" pt_clust_9="22.34481"></scales>
<clustering>
<clus scale="   22.345">  2  9  1 -1</clus>
<clus scale="   80.517">  5  6 -1 -1</clus>
<clus scale="   92.443">  7  8 -1 -1</clus>
<clus scale="  123.176">  1  5  2 -1</clus>
<clus scale="  123.176">  1  5  2 -1</clus>
</clustering>
</event>
<event>
 9    2  0.3402837E-005  0.1382191E+03  0.7546771E-02  0.1217661E+00
          2   -1    0    0  502    0  0.00000000000E+00  0.00000000000E+00  0.44101521408E+03  0.44101521408E+03  0.00000000000E+00 0. -1.
         -1   -1    0    0    0  501 -0.00000000000E+00 -0.00000000000E+00 -0.65987768117E+02  0.65987768117E+02  0.00000000000E+00 0.  1.
         24    2    1    2    0    0  0.12222780447E+02  0.99823107416E+02  0.50321785269E+02  0.13842731207E+03  0.80720440528E+02 0.  0.
         23    2    1    2    0    0 -0.41139525100E+02 -0.99926438688E+02  0.29731284570E+03  0.32874408577E+03  0.89442674587E+02 0.  0.
        -13    1    3    3    0    0 -0.51553758399E+01  0.98188699678E+02  0.15584704645E+02  0.99551402117E+02  0.00000000000E+00 0.  1.
         14    1    3    3    0    0  0.17378156287E+02  0.16344077378E+01  0.34737080625E+02  0.38875909956E+02  0.00000000000E+00 0. -1.
        -11    1    4    4    0    0 -0.28174460870E+02 -0.11576208658E+03  0.24132176550E+03  0.26912981150E+03  0.00000000000E+00 0. -1.
         11    1    4    4    0    0 -0.12965064231E+02  0.15835647894E+02  0.55991080199E+02  0.59614274269E+02  0.00000000000E+00 0.  1.
         21    1    1    2  502  501  0.28916744653E+02  0.10333127191E+00  0.27392814991E+02  0.39831584350E+02  0.00000000000E+00 0.  1.
<scales pt_clust_5="13000.00000" pt_clust_6="13000.00000" pt_clust_7="13000.00000" pt_clust_8="13000.00000" pt_clust_9="28.91693"></scales>
<clustering>
<clus scale="   28.917">  2  9  1 -1</clus>
<clus scale="   80.720">  5  6 -1 -1</clus>
<clus scale="   89.443">  7  8 -1 -1</clus>
<clus scale="  132.742">  2  5  1 -1</clus>
<clus scale="  138.219">  1  5  2 -1</clus>
</clustering>
</event>
<event>
 9    2  0.3402837E-005  0.1038179E+03  0.7546771E-02  0.1277942E+00
         -1   -1    0    0    0  501 -0.00000000000E+00  0.00000000000E+00  0.16624375198E+03  0.16624375198E+03  0.00000000000E+00 0.  1.
          2   -1    0    0  502    0  0.00000000000E+00 -0.00000000000E+00 -0.34317149386E+03  0.34317149386E+03  0.00000000000E+00 0. -1.
         24    2    1    2    0    0  0.18257283552E+02 -0.27353851973E+02  0.14473197072E+02  0.86193495965E+02  0.78347199648E+02 0.  0.
         23    2    1    2    0    0 -0.14433118623E+02  0.52577734557E+02 -0.29666964440E+03  0.31490568995E+03  0.90443256088E+02 0.  0.
        -13    1    3    3    0    0  0.44053089331E+02 -0.13753383522E+02  0.28071745526E+02  0.54017155931E+02  0.00000000000E+00 0.  1.
         14    1    3    3    0    0 -0.25795805780E+02 -0.13600468451E+02 -0.13598548454E+02  0.32176340034E+02  0.00000000000E+00 0. -1.
        -13    1    4    4    0    0  0.31624380040E+02  0.18814203461E+02 -0.52275789008E+02  0.63928348807E+02  0.00000000000E+00 0.  1.
         13    1    4    4    0    0 -0.46057498663E+02  0.33763531096E+02 -0.24439385539E+03  0.25097734115E+03  0.00000000000E+00 0. -1.
         21    1    1    2  502  501 -0.38241649281E+01 -0.25223882585E+02  0.10526870545E+03  0.10831605992E+03  0.00000000000E+00 0.  1.
<scales pt_clust_5="13000.00000" pt_clust_6="13000.00000" pt_clust_7="13000.00000" pt_clust_8="13000.00000" pt_clust_9="25.51212"></scales>
<clustering>
<clus scale="   25.512">  1  9  2 -1</clus>
<clus scale="   78.347">  5  6 -1 -1</clus>
<clus scale="   90.443">  7  8 -1 -1</clus>
<clus scale="   93.469">  1  5  2 -1</clus>
<clus scale="  103.818">  2  5  1 -1</clus>
</clustering>
</event>
<event>
 9    2  0.3402837E-005  0.1618878E+03  0.7546771E-02  0.1188544E+00
         -1   -1    0    0    0  501 -0.00000000000E+00  0.00000000000E+00  0.59001187003E+03  0.59001187003E+03  0.00000000000E+00 0.  1.
          2   -1    0    0  502    0  0.00000000000E+00 -0.00000000000E+00 -0.99395449956E+03  0.99395449956E+03  0.00000000000E+00 0. -1.
         23    2    1    2    0    0 -0.12146988024E+03 -0.11676479526E+03  0.42329130573E+03  0.46470668058E+03  0.91585043822E+02 0.  0.
         24    2    1    2    0    0 -0.28746918665E+02  0.13102257065E+03 -0.92596368530E+03  0.93893793665E+03  0.78755336502E+02 0.  0.
        -13    1    4    4    0    0 -0.35997379486E+02  0.28942755081E+02 -0.17333975734E+03  0.17938831031E+03  0.00000000000E+00 0.  1.
         14    1    4    4    0    0  0.72504608205E+01  0.10207981557E+03 -0.75262392796E+03  0.75954962634E+03  0.00000000000E+00 0. -1.
        -11    1    3    3    0    0 -0.96324270454E+01 -0.40801102626E+02  0.38737882601E+02  0.57080094382E+02  0.00000000000E+00 0. -1.
         11    1    3    3    0    0 -0.11183745319E+03 -0.75963692639E+02  0.38455342313E+03  0.40762658620E+03  0.00000000000E+00 0.  1.
         21    1    1    2  502  501  0.15021679891E+03 -0.14257775388E+02  0.98729750032E+02  0.18032175236E+03  0.00000000000E+00 0.  1.
<scales pt_clust_5="13000.00000" pt_clust_6="13000.00000" pt_clust_7="13000.00000" pt_clust_8="13000.00000" pt_clust_9="150.89192"></scales>
<clustering>
<clus scale="   78.755">  5  6 -1 -1</clus>
<clus scale="   91.585">  7  8 -1 -1</clus>
<clus scale="  150.892">  1  9  2 -1</clus>
<clus scale="  154.991">  2  5  1 -1</clus>
<clus scale="  154.991">  2  5  1 -1</clus>
</clustering>
</event>
<event>
 9    2  0.3402837E-005  0.9236081E+02  0.7546771E-02  0.1298021E+00
         -1   -1    0    0    0  501 -0.00000000000E+00  0.00000000000E+00  0.32538994318E+02  0.32538994318E+02  0.00000000000E+00 0.  1.
          2   -1    0    0  502    0  0.00000000000E+00 -0.00000000000E+00 -0.78862938023E+03  0.78862938023E+03  0.00000000000E+00 0. -1.
         23    2    1    2    0    0 -0.53686704471E+01 -0.30488013210E+02 -0.82258112040E+02  0.12745001179E+03  0.92297166465E+02 0.  0.
         24    2    1    2    0    0  0.16016370515E+01 -0.75943896469E+01 -0.62522518362E+03  0.63185472909E+03  0.90959487911E+02 0.  0.
        -13    1    4    4    0    0 -0.36650959838E+02  0.14814612512E+02 -0.17287790175E+03  0.17734016610E+03  0.00000000000E+00 0.  1.
         14    1    4    4    0    0  0.38252596889E+02 -0.22409002158E+02 -0.45234728187E+03  0.45451456299E+03  0.00000000000E+00 0. -1.
        -11    1    3    3    0    0 -0.38569931843E+02  0.38580071553E+01 -0.66816695375E+02  0.77246324459E+02  0.00000000000E+00 0.  1.
         11    1    3    3    0    0  0.33201261396E+02 -0.34346020365E+02 -0.15441416665E+02  0.50203687333E+02  0.00000000000E+00 0. -1.
         21    1    1    2  502  501  0.37670333956E+01  0.38082402857E+02 -0.48607090248E+02  0.61863633666E+02  0.00000000000E+00 0.  1.
<scales pt_clust_5="13000.00000" pt_clust_6="13000.00000" pt_clust_7="13000.00000" pt_clust_8="13000.00000" pt_clust_9="38.26826"></scales>
<clustering>
<clus scale="   38.268">  1  9  2 -1</clus>
<clus scale="   90.959">  5  6 -1 -1</clus>
<clus scale="   91.024">  2  5  1 -1</clus>
<clus scale="   92.297">  7  8 -1 -1</clus>
<clus scale="   91.024">  2  5  1 -1</clus>
</clustering>
</event>
<event>
 9    2  0.3402837E-005  0.1617091E+03  0.7546771E-02  0.1209041E+00
          2   -1    0    0  502    0  0.00000000000E+00  0.00000000000E+00  0.15296624859E+04  0.15296624859E+04  0.00000000000E+00 0. -1.
         -1   -1    0    0    0  501 -0.00000000000E+00 -0.00000000000E+00 -0.30079640088E+02  0.30079640088E+02  0.00000000000E+00 0.  1.
         23    2    1    2    0    0  0.44291984480E+02 -0.82985726749E+01  0.22112245282E+03  0.24249371038E+03  0.88754798364E+02 0.  0.
         24    2    1    2    0    0 -0.15634841288E+03  0.12548768044E+02  0.10237450543E+04  0.10389417304E+04  0.82119942988E+02 0.  0.
        -11    1    4    4    0    0 -0.90209393380E+02  0.27614931447E+02  0.37601481317E+03  0.38766926473E+03  0.00000000000E+00 0.  1.
         12    1    4    4    0    0 -0.66139019505E+02 -0.15066163403E+02  0.64773024115E+03  0.65127246563E+03  0.00000000000E+00 0. -1.
        -11    1    3    3    0    0  0.43835892251E+02  0.32612079700E+02  0.91534587804E+02  0.10660072212E+03  0.00000000000E+00 0.  1.
         11    1    3    3    0    0  0.45609222920E+00 -0.40910652375E+02  0.12958786502E+03  0.13589298826E+03  0.00000000000E+00 0. -1.
         21    1    1    2  502  501  0.11205642840E+03 -0.42501953689E+01  0.25471533872E+03  0.27830668530E+03  0.00000000000E+00 0.  1.
<scales pt_clust_5="13000.00000" pt_clust_6="13000.00000" pt_clust_7="13000.00000" pt_clust_8="13000.00000" pt_clust_9="139.30596"></scales>
<clustering>
<clus scale="   82.120">  5  6 -1 -1</clus>
<clus scale="   88.755">  7  8 -1 -1</clus>
<clus scale="   99.539">  2  7  1 -1</clus>
<clus scale="  139.306">  2  9  1 -1</clus>
<clus scale="  161.709">  1  5  2 -1</clus>
</clustering>
</event>
<event>
 9    2  0.3402837E-005  0.4463005E+03  0.7546771E-02  0.1028831E+00
         -1   -1    0    0    0  501 -0.00000000000E+00  0.00000000000E+00  0.10105985606E+03  0.10105985606E+03  0.00000000000E+00 0.  1.
          2   -1    0    0  502    0  0.00000000000E+00 -0.00000000000E+00 -0.19481805771E+04  0.19481805771E+04  0.00000000000E+00 0. -1.
         24    2    1    2    0    0  0.14194910540E+03 -0.30001406379E+03 -0.49143652367E+03  0.59814062414E+03  0.78130419529E+02 0.  0.
         23    2    1    2    0    0  0.16439402155E+02 -0.46702917176E+02 -0.12611501336E+03  0.16380032463E+03  0.92055056023E+02 0.  0.
        -11    1    3    3    0    0  0.12619876036E+03 -0.29972760187E+03 -0.46957233916E+03  0.57119256310E+03  0.00000000000E+00 0.  1.
         12    1    3    3    0    0  0.15750345038E+02 -0.28646191199E+00 -0.21864184510E+02  0.26948061035E+02  0.00000000000E+00 0. -1.
        -13    1    4    4    0    0  0.53726410221E+02 -0.38710536725E+02 -0.75451689959E+02  0.10038919427E+03  0.00000000000E+00 0.  1.
         13    1    4    4    0    0 -0.37287008066E+02 -0.79923804510E+01 -0.50663323401E+02  0.63411130363E+02  0.00000000000E+00 0. -1.
         21    1    1    2  502  501 -0.15838850755E+03  0.34671698096E+03 -0.12295691840E+04  0.12872994843E+04  0.00000000000E+00 0. -1.
<scales pt_clust_5="13000.00000" pt_clust_6="13000.00000" pt_clust_7="13000.00000" pt_clust_8="13000.00000" pt_clust_9="381.18183"></scales>
<clustering>
<clus scale="   78.130">  5  6 -1 -1</clus>
<clus scale="   92.055">  7  8 -1 -1</clus>
<clus scale="   96.354">  5  7 -1 -1</clus>
<clus scale="  381.182">  2  9  1 -1</clus>
<clus scale="  381.182">  2  5  1 -1</clus>
</clustering>
</event>
<event>
 9    2  0.4749245E-005  0.1463359E+03  0.7546771E-02  0.1207251E+00
          2   -1    0    0  502    0  0.00000000000E+00  0.00000000000E+00  0.13036501112E+04  0.13036501112E+04  0.00000000000E+00 0. -1.
         -1   -1    0    0    0  501 -0.00000000000E+00 -0.00000000000E+00 -0.56555606016E+02  0.56555606016E+02  0.00000000000E+00 0.  1.
         23    2    1    2    0    0 -0.86074938684E+02 -0.45441936199E+02  0.44925171404E+02  0.14076619052E+03  0.91230393693E+02 0.  0.
         24    2    1    2    0    0  0.96973837719E+02  0.63551333021E+02  0.11815461800E+04  0.11899090217E+04  0.79933768266E+02 0.  0.
        -13    1    4    4    0    0  0.18106906767E+02  0.26075441041E+02  0.10173093566E+03  0.10656909481E+03  0.00000000000E+00 0.  1.
         14    1    4    4    0    0  0.78866930952E+02  0.37475891981E+02  0.10798152444E+04  0.10833399269E+04  0.00000000000E+00 0. -1.
        -11    1    3    3    0    0 -0.46318285468E+02 -0.36954477818E+02 -0.21378170695E+02  0.62992405747E+02  0.00000000000E+00 0.  1.
         11    1    3    3    0    0 -0.39756653216E+02 -0.84874583812E+01  0.66303342099E+02  0.77773784775E+02  0.00000000000E+00 0. -1.
         21    1    1    2  502  501 -0.10898899035E+02 -0.18109396822E+02  0.20623153766E+02  0.29530504985E+02  0.00000000000E+00 0.  1.
<scales pt_clust_5="13000.00000" pt_clust_6="13000.00000" pt_clust_7="13000.00000" pt_clust_8="13000.00000" pt_clust_9="21.13614"></scales>
<clustering>
<clus scale="   21.136">  2  9  1 -1</clus>
<clus scale="   79.934">  5  6 -1 -1</clus>
<clus scale="   91.230">  7  8 -1 -1</clus>
<clus scale="  139.573">  1  5  2 -1</clus>
<clus scale="  139.573">  1  5  2 -1</clus>
</clustering>
</event>
<event>
 9    2  0.3402837E-005  0.1027003E+03  0.7546771E-02  0.1280788E+00
          2   -1    0    0  502    0  0.00000000000E+00  0.00000000000E+00  0.26387825029E+03  0.26387825029E+03  0.00000000000E+00 0. -1.
         -1   -1    0    0    0  501 -0.00000000000E+00 -0.00000000000E+00 -0.14699260653E+03  0.14699260653E+03  0.00000000000E+00 0.  1.
         24    2    1    2    0    0 -0.24469195930E+02 -0.68476313210E+02 -0.93282153152E+02  0.14337552041E+03  0.81038464545E+02 0.  0.
         23    2    1    2    0    0  0.19937789892E+01  0.39584543490E+02  0.20720592593E+03  0.23077134692E+03  0.93542544236E+02 0.  0.
        -13    1    3    3    0    0 -0.44312501035E+02 -0.20082249348E+02 -0.18354814500E+02  0.51998016329E+02  0.00000000000E+00 0.  1.
         14    1    3    3    0    0  0.19843305105E+02 -0.48394063862E+02 -0.74927338652E+02  0.91377504080E+02  0.00000000000E+00 0. -1.
        -11    1    4    4    0    0 -0.31200075708E+02  0.26651229662E+02  0.18337749027E+03  0.18791231121E+03  0.00000000000E+00 0. -1.
         11    1    4    4    0    0  0.33193854697E+02  0.12933313828E+02  0.23828435661E+02  0.42859035713E+02  0.00000000000E+00 0.  1.
         21    1    1    2  502  501  0.22475416941E+02  0.28891769720E+02  0.29618709833E+01  0.36723989488E+02  0.00000000000E+00 0. -1.
<scales pt_clust_5="13000.00000" pt_clust_6="13000.00000" pt_clust_7="13000.00000" pt_clust_8="13000.00000" pt_clust_9="36.60435"></scales>
<clustering>
<clus scale="   36.604">  2  9  1 -1</clus>
<clus scale="   81.038">  5  6 -1 -1</clus>
<clus scale="   91.457">  2  5  1 -1</clus>
<clus scale="   93.543">  7  8 -1 -1</clus>
<clus scale="  102.700">  1  5  2 -1</clus>
</clustering>
</event>
<event>
 9    2  0.3402837E-005  0.1734384E+03  0.7546771E-02  0.1194640E+00
          2   -1    0    0  502    0  0.00000000000E+00  0.00000000000E+00  0.87984531601E+03  0.87984531601E+03  0.00000000000E+00 0. -1.
         -1   -1    0    0    0  501 -0.00000000000E+00 -0.00000000000E+00 -0.94055102232E+02  0.94055102232E+02  0.00000000000E+00 0.  1.
         23    2    1    2    0    0 -0.12642081747E+02  0.27344236007E+02 -0.12225696420E+02  0.11087577771E+03  0.10600207996E+03 0.  0.
         24    2    1    2    0    0  0.69639719349E+02  0.12516401444E+03  0.36070692601E+03  0.39639133182E+03  0.80628037611E+02 0.  0.
        -13    1    4    4    0    0  0.72414825897E+02  0.13467101255E+03  0.32235580456E+03  0.35678208106E+03  0.00000000000E+00 0.  1.
         14    1    4    4    0    0 -0.27751065485E+01 -0.95069981101E+01  0.38351121449E+02  0.39609250761E+02  0.00000000000E+00 0. -1.
        -13    1    3    3    0    0  0.36482995973E+02  0.16854214781E+02 -0.37213380360E+02  0.54771427121E+02  0.00000000000E+00 0. -1.
         13    1    3    3    0    0 -0.49125077720E+02  0.10490021226E+02  0.24987683940E+02  0.56104350589E+02  0.00000000000E+00 0.  1.
         21    1    1    2  502  501 -0.56997637601E+02 -0.15250825045E+03  0.43730898418E+03  0.46663330871E+03  0.00000000000E+00 0. -1.
<scales pt_clust_5="13000.00000" pt_clust_6="13000.00000" pt_clust_7="13000.00000" pt_clust_8="13000.00000" pt_clust_9="153.55780"></scales>
<clustering>
<clus scale="   80.628">  5  6 -1 -1</clus>
<clus scale="  106.002">  7  8 -1 -1</clus>
<clus scale="  110.200">  2  7  1 -1</clus>
<clus scale="  153.558">  1  9  2 -1</clus>
<clus scale="  153.558">  1  5  2 -1</clus>
</clustering>
</event>
<event>
 9    2  0.3402837E-005  0.1123976E+03  0.7546771E-02  0.1260624E+00
          2   -1    0    0  502    0  0.00000000000E+00  0.00000000000E+00  0.77878740116E+03  0.77878740116E+03  0.00000000000E+00 0. -1.
         -1   -1    0    0    0  501 -0.00000000000E+00 -0.00000000000E+00 -0.35109067405E+02  0.35109067405E+02  0.00000000000E+00 0.  1.
         23    2    1    2    0    0 -0.13640791180E+02 -0.64232598420E+02  0.28163484692E+03  0.30365002266E+03  0.92591853731E+02 0.  0.
         24    2    1    2    0    0  0.35751809334E+02  0.53456700176E+02  0.47238621812E+03  0.48356332020E+03  0.80925489895E+02 0.  0.
        -11    1    4    4    0    0 -0.26128368610E+02  0.14437474129E+02  0.11927869200E+03  0.12295746691E+03  0.00000000000E+00 0.  1.
         12    1    4    4    0    0  0.61880177944E+02  0.39019226047E+02  0.35310752612E+03  0.36060585329E+03  0.00000000000E+00 0. -1.
        -11    1    3    3    0    0  0.37626816264E+02 -0.16403205859E+02  0.75786235121E+02  0.86188142447E+02  0.00000000000E+00 0. -1.
         11    1    3    3    0    0 -0.51267607444E+02 -0.47829392561E+02  0.20584861180E+03  0.21746188021E+03  0.00000000000E+00 0.  1.
         21    1    1    2  502  501 -0.22111018155E+02  0.10775898244E+02 -0.10342731284E+02  0.26683125702E+02  0.00000000000E+00 0.  1.
<scales pt_clust_5="13000.00000" pt_clust_6="13000.00000" pt_clust_7="13000.00000" pt_clust_8="13000.00000" pt_clust_9="24.59710"></scales>
<clustering>
<clus scale="   24.597">  2  9  1 -1</clus>
<clus scale="   80.925">  5  6 -1 -1</clus>
<clus scale="   92.592">  7  8 -1 -1</clus>
<clus scale="  103.000">  1  5  2 -1</clus>
<clus scale="  103.000">  1  5  2 -1</clus>
</clustering>
</event>
<event>
 9    2  0.3402837E-005  0.1545413E+03  0.7546771E-02  0.1216111E+00
          2   -1    0    0  502    0  0.00000000000E+00  0.00000000000E+00  0.56309087439E+03  0.56309087439E+03  0.00000000000E+00 0. -1.
         -1   -1    0    0    0  501 -0.00000000000E+00 -0.00000000000E+00 -0.22426438096E+03  0.22426438096E+03  0.00000000000E+00 0.  1.
         23    2    1    2    0    0 -0.89305493435E+01  0.28737571734E+02 -0.16477359177E+03  0.19177830121E+03  0.93396881803E+02 0.  0.
         24    2    1    2    0    0 -0.10152336840E+03  0.46698869517E+02  0.10736913977E+03  0.17737881123E+03  0.86297924373E+02 0.  0.
        -13    1    4    4    0    0 -0.99106432038E+02  0.13266509368E+02  0.10304070079E+03  0.14358088717E+03  0.00000000000E+00 0.  1.
         14    1    4    4    0    0 -0.24169363647E+01  0.33432360148E+02  0.43284389846E+01  0.33797924056E+02  0.00000000000E+00 0. -1.
        -11    1    3    3    0    0 -0.29163968259E+02  0.52416342331E+02 -0.13886014425E+03  0.15126185788E+03  0.00000000000E+00 0.  1.
         11    1    3    3    0    0  0.20233418915E+02 -0.23678770597E+02 -0.25913447519E+02  0.40516443333E+02  0.00000000000E+00 0. -1.
         21    1    1    2  502  501  0.11045391775E+03 -0.75436441251E+02  0.39623094543E+03  0.41819814291E+03  0.00000000000E+00 0. -1.
<scales pt_clust_5="13000.00000" pt_clust_6="13000.00000" pt_clust_7="13000.00000" pt_clust_8="13000.00000" pt_clust_9="128.20174"></scales>
<clustering>
<clus scale="   86.298">  5  6 -1 -1</clus>
<clus scale="   93.397">  7  8 -1 -1</clus>
<clus scale="   98.125">  2  7  1 -1</clus>
<clus scale="  128.202">  1  9  2 -1</clus>
<clus scale="  128.202">  1  5  2 -1</clus>
</clustering>
</event>
<event>
 9    2  0.3402837E-005  0.1107986E+03  0.7546771E-02  0.1263408E+00
         -1   -1    0    0    0  501 -0.00000000000E+00  0.00000000000E+00  0.49395582009E+02  0.49395582009E+02  0.00000000000E+00 0.  1.
          2   -1    0    0  502    0  0.00000000000E+00 -0.00000000000E+00 -0.46600570504E+03  0.46600570504E+03  0.00000000000E+00 0. -1.
         23    2    1    2    0    0 -0.44285375688E+01  0.61540975000E+02 -0.83899347503E+02  0.13794099238E+03  0.90452823713E+02 0.  0.
         24    2    1    2    0    0 -0.55521034792E+02 -0.46803003410E+02 -0.26433403838E+03  0.28533789123E+03  0.79196729050E+02 0.  0.
        -13    1    4    4    0    0  0.20291420656E+02 -0.12481189826E+02 -0.49052684316E+02  0.54531529323E+02  0.00000000000E+00 0.  1.
         14    1    4    4    0    0 -0.75812455448E+02 -0.34321813584E+02 -0.21528135406E+03  0.23080636190E+03  0.00000000000E+00 0. -1.
        -13    1    3    3    0    0  0.23475181142E+02 -0.15096631438E+02 -0.22623159679E+02  0.35927701906E+02  0.00000000000E+00 0. -1.
         13    1    3    3    0    0 -0.27903718711E+02  0.76637606438E+02 -0.61276187824E+02  0.10201329047E+03  0.00000000000E+00 0.  1.
         21    1    1    2  502  501  0.59949572361E+02 -0.14737971591E+02 -0.68376737148E+02  0.92122403442E+02  0.00000000000E+00 0.  1.
<scales pt_clust_5="13000.00000" pt_clust_6="13000.00000" pt_clust_7="13000.00000" pt_clust_8="13000.00000" pt_clust_9="61.73459"></scales>
<clustering>
<clus scale="   61.735">  1  9  2 -1</clus>
<clus scale="   79.197">  5  6 -1 -1</clus>
<clus scale="   90.453">  7  8 -1 -1</clus>
<clus scale="  101.817">  2  5  1 -1</clus>
<clus scale="  101.817">  2  5  1 -1</clus>
</clustering>
</event>
<event>
 9    2  0.3402837E-005  0.2500597E+03  0.7546771E-02  0.1162463E+00
          2   -1    0    0  502    0  0.00000000000E+00  0.00000000000E+00  0.13057399446E+04  0.13057399446E+04  0.00000000000E+00 0. -1.
         -1   -1    0    0    0  501 -0.00000000000E+00 -0.00000000000E+00 -0.95888663180E+02  0.95888663180E+02  0.00000000000E+00 0.  1.
         23    2    1    2    0    0  0.22735106941E+03 -0.11542905260E+02  0.14164716387E+03  0.28303743258E+03  0.90689149215E+02 0.  0.
         24    2    1    2    0    0  0.26993850016E+02 -0.10403069926E+02  0.21525847311E+03  0.22826020515E+03  0.70211247016E+02 0.  0.
        -13    1    4    4    0    0  0.25585216775E+02  0.19767843119E+02  0.45394175229E+02  0.55731517867E+02  0.00000000000E+00 0.  1.
         14    1    4    4    0    0  0.14086332407E+01 -0.30170913045E+02  0.16986429788E+03  0.17252868728E+03  0.00000000000E+00 0. -1.
        -13    1    3    3    0    0  0.63760275237E+02 -0.36659438615E+02  0.73715651342E+02  0.10413109233E+03  0.00000000000E+00 0. -1.
         13    1    3    3    0    0  0.16359079417E+03  0.25116533355E+02  0.67931512527E+02  0.17890634024E+03  0.00000000000E+00 0.  1.
         21    1    1    2  502  501 -0.25434491942E+03  0.21945975187E+02  0.85294564445E+03  0.89033097006E+03  0.00000000000E+00 0. -1.
<scales pt_clust_5="13000.00000" pt_clust_6="13000.00000" pt_clust_7="13000.00000" pt_clust_8="13000.00000" pt_clust_9="233.03499"></scales>
<clustering>
<clus scale="   70.211">  5  6 -1 -1</clus>
<clus scale="   75.938">  1  5  2 -1</clus>
<clus scale="   90.689">  7  8 -1 -1</clus>
<clus scale="  233.035">  1  9  2 -1</clus>
<clus scale="   75.938">  1  5  2 -1</clus>
</clustering>
</event>
<event>
 9    2  0.3402837E-005  0.9620679E+02  0.7546771E-02  0.1294351E+00
         -1   -1    0    0    0  501 -0.00000000000E+00  0.00000000000E+00  0.17105308337E+03  0.17105308337E+03  0.00000000000E+00 0.  1.
          2   -1    0    0  502    0  0.00000000000E+00 -0.00000000000E+00 -0.12259496695E+03  0.12259496695E+03  0.00000000000E+00 0. -1.
         23    2    1    2    0    0 -0.30177996008E+02  0.29690646783E+02  0.10477135520E+03  0.14647851710E+03  0.93202323756E+02 0.  0.
         24    2    1    2    0    0  0.96038258555E+01 -0.19047927280E+02 -0.77755584323E+02  0.11560470884E+03  0.82846006592E+02 0.  0.
        -13    1    4    4    0    0  0.18936288139E+02  0.18222646281E+02 -0.72136843397E+02  0.76774813717E+02  0.00000000000E+00 0.  1.
         14    1    4    4    0    0 -0.93324622834E+01 -0.37270573561E+02 -0.56187409256E+01  0.38829895125E+02  0.00000000000E+00 0. -1.
        -11    1    3    3    0    0  0.19175666914E+02 -0.12116927610E+02  0.68853639478E+02  0.72493791498E+02  0.00000000000E+00 0.  1.
         11    1    3    3    0    0 -0.49353662923E+02  0.41807574394E+02  0.35917715721E+02  0.73984725607E+02  0.00000000000E+00 0. -1.
         21    1    1    2  502  501  0.20574170153E+02 -0.10642719503E+02  0.21442345544E+02  0.31564824383E+02  0.00000000000E+00 0.  1.
<scales pt_clust_5="13000.00000" pt_clust_6="13000.00000" pt_clust_7="13000.00000" pt_clust_8="13000.00000" pt_clust_9="23.16385"></scales>
<clustering>
<clus scale="   23.164">  1  9  2 -1</clus>
<clus scale="   82.846">  5  6 -1 -1</clus>
<clus scale="   86.212">  2  5  1 -1</clus>
<clus scale="   93.202">  7  8 -1 -1</clus>
<clus scale="   86.212">  2  5  1 -1</clus>
</clustering>
</event>
<event>
 9    2  0.3402837E-005  0.1478397E+03  0.7546771E-02  0.1205140E+00
         -1   -1    0    0    0  501 -0.00000000000E+00  0.00000000000E+00  0.67931489270E+03  0.67931489270E+03  0.00000000000E+00 0.  1.
          2   -1    0    0  502    0  0.00000000000E+00 -0.00000000000E+00 -0.56726160731E+02  0.56726160731E+02  0.00000000000E+00 0. -1.
         23    2    1    2    0    0  0.33507331880E+02  0.12037464788E+03  0.47450244979E+03  0.49921763768E+03  0.91939533216E+02 0.  0.
         24    2    1    2    0    0 -0.47333282359E+02 -0.10360282969E+03  0.71676377647E+02  0.15738208959E+03  0.81594320102E+02 0.  0.
        -13    1    4    4    0    0 -0.53424975573E+01 -0.36401420740E+02  0.68881103402E+02  0.78091050178E+02  0.00000000000E+00 0.  1.
         14    1    4    4    0    0 -0.41990784802E+02 -0.67201408952E+02  0.27952742455E+01  0.79291039415E+02  0.00000000000E+00 0. -1.
        -13    1    3    3    0    0  0.57259356785E+02  0.54998913920E+02  0.32130654977E+03  0.33097041167E+03  0.00000000000E+00 0.  1.
         13    1    3    3    0    0 -0.23752024906E+02  0.65375733957E+02  0.15319590002E+03  0.16824722601E+03  0.00000000000E+00 0. -1.
         21    1    1    2  502  501  0.13825950479E+02 -0.16771818185E+02  0.76409904533E+02  0.79441326164E+02  0.00000000000E+00 0.  1.
<scales pt_clust_5="13000.00000" pt_clust_6="13000.00000" pt_clust_7="13000.00000" pt_clust_8="13000.00000" pt_clust_9="21.73593"></scales>
<clustering>
<clus scale="   21.736">  1  9  2 -1</clus>
<clus scale="   81.594">  5  6 -1 -1</clus>
<clus scale="   91.940">  7  8 -1 -1</clus>
<clus scale="  141.638">  2  5  1 -1</clus>
<clus scale="  141.638">  2  5  1 -1</clus>
</clustering>
</event>
<event>
 9    2  0.3402837E-005  0.1145096E+03  0.7546771E-02  0.1257562E+00
         -1   -1    0    0    0  501 -0.00000000000E+00  0.00000000000E+00  0.12179835305E+03  0.12179835305E+03  0.00000000000E+00 0.  1.
          2   -1    0    0  502    0  0.00000000000E+00 -0.00000000000E+00 -0.36990775757E+03  0.36990775757E+03  0.00000000000E+00 0. -1.
         23    2    1    2    0    0 -0.13299495192E+01  0.22475442584E+02  0.12345084950E+02  0.95606046330E+02  0.92093434551E+02 0.  0.
         24    2    1    2    0    0  0.27119307307E+02 -0.71178189500E+02 -0.30586229736E+03  0.32469335908E+03  0.77924585287E+02 0.  0.
        -13    1    4    4    0    0  0.10129197378E+02 -0.76979779103E+02 -0.16123383280E+03  0.17895484311E+03  0.00000000000E+00 0.  1.
         14    1    4    4    0    0  0.16990109929E+02  0.58015896031E+01 -0.14462846456E+03  0.14573851597E+03  0.00000000000E+00 0. -1.
        -11    1    3    3    0    0 -0.25815573851E+02 -0.92302140897E+01  0.38866102885E+02  0.47562744442E+02  0.00000000000E+00 0.  1.
         11    1    3    3    0    0  0.24485624332E+02  0.31705656674E+02 -0.26521017934E+02  0.48043301888E+02  0.00000000000E+00 0. -1.
         21    1    1    2  502  501 -0.25789357788E+02  0.48702746915E+02  0.45407807890E+02  0.71406705214E+02  0.00000000000E+00 0. -1.
<scales pt_clust_5="13000.00000" pt_clust_6="13000.00000" pt_clust_7="13000.00000" pt_clust_8="13000.00000" pt_clust_9="55.10942"></scales>
<clustering>
<clus scale="   55.109">  1  9  2 -1</clus>
<clus scale="   77.925">  5  6 -1 -1</clus>
<clus scale="   92.093">  7  8 -1 -1</clus>
<clus scale="  103.458">  2  5  1 -1</clus>
<clus scale="  103.458">  2  5  1 -1</clus>
</clustering>
</event>
<event>
 9    2  0.3402837E-005  0.2630140E+03  0.7546771E-02  0.1105946E+00
         -1   -1    0    0    0  501 -0.00000000000E+00  0.00000000000E+00  0.39211298345E+03  0.39211298345E+03  0.00000000000E+00 0.  1.
          2   -1    0    0  502    0  0.00000000000E+00 -0.00000000000E+00 -0.17076588512E+04  0.17076588512E+04  0.00000000000E+00 0. -1.
         23    2    1    2    0    0 -0.26327116649E+03 -0.11599153607E+03 -0.29295042866E+03  0.42090735220E+03  0.92613724363E+02 0.  0.
         24    2    1    2    0    0  0.23151086128E+03  0.59682803067E+02 -0.13356196677E+04  0.13592341364E+04  0.80487419814E+02 0.  0.
        -13    1    4    4    0    0  0.17677967384E+02  0.28235552691E+02 -0.11943557906E+03  0.12399441323E+03  0.00000000000E+00 0.  1.
         14    1    4    4    0    0  0.21383289390E+03  0.31447250376E+02 -0.12161840887E+04  0.12352397231E+04  0.00000000000E+00 0. -1.
        -13    1    3    3    0    0 -0.18178685138E+03 -0.30991765946E+02 -0.17429070609E+03  0.25374041680E+03  0.00000000000E+00 0.  1.
         13    1    3    3    0    0 -0.81484315115E+02 -0.84999770120E+02 -0.11865972257E+03  0.16716693540E+03  0.00000000000E+00 0. -1.
         21    1    1    2  502  501  0.31760305210E+02  0.56308732999E+02  0.31302422866E+03  0.31963034607E+03  0.00000000000E+00 0.  1.
<scales pt_clust_5="13000.00000" pt_clust_6="13000.00000" pt_clust_7="13000.00000" pt_clust_8="13000.00000" pt_clust_9="64.64820"></scales>
<clustering>
<clus scale="   64.648">  1  9  2 -1</clus>
<clus scale="   80.487">  5  6 -1 -1</clus>
<clus scale="   92.614">  7  8 -1 -1</clus>
<clus scale="  258.993">  2  5  1 -1</clus>
<clus scale="  258.993">  2  5  1 -1</clus>
</clustering>
</event>
<event>
 9    2  0.3402837E-005  0.1303258E+03  0.7546771E-02  0.1239623E+00
         -1   -1    0    0    0  501 -0.00000000000E+00  0.00000000000E+00  0.59764648298E+02  0.59764648298E+02  0.00000000000E+00 0.  1.
          2   -1    0    0  502    0  0.00000000000E+00 -0.00000000000E+00 -0.77037071328E+03  0.77037071328E+03  0.00000000000E+00 0. -1.
         23    2    1    2    0    0 -0.20583260879E+01  0.44298078383E+02 -0.43958930061E+02  0.10970155403E+03  0.90196934367E+02 0.  0.
         24    2    1    2    0    0 -0.10051592340E+03 -0.32916955436E+02 -0.54516577588E+03  0.56103265569E+03  0.79780578823E+02 0.  0.
        -13    1    4    4    0    0 -0.37986584481E+02 -0.20271184049E+02 -0.74374788916E+02  0.85938994231E+02  0.00000000000E+00 0.  1.
         14    1    4    4    0    0 -0.62529338920E+02 -0.12645771387E+02 -0.47079098696E+03  0.47509366146E+03  0.00000000000E+00 0. -1.
        -11    1    3    3    0    0  0.39092466049E+02  0.23826170956E+02 -0.44346823807E+02  0.63738121293E+02  0.00000000000E+00 0.  1.
         11    1    3    3    0    0 -0.41150792137E+02  0.20471907426E+02  0.38789374628E+00  0.45963432734E+02  0.00000000000E+00 0. -1.
         21    1    1    2  502  501  0.10257424949E+03 -0.11381122947E+02 -0.12148135905E+03  0.15940115186E+03  0.00000000000E+00 0.  1.
<scales pt_clust_5="13000.00000" pt_clust_6="13000.00000" pt_clust_7="13000.00000" pt_clust_8="13000.00000" pt_clust_9="103.05278"></scales>
<clustering>
<clus scale="   79.781">  5  6 -1 -1</clus>
<clus scale="   90.197">  7  8 -1 -1</clus>
<clus scale="  100.509">  1  7  2 -1</clus>
<clus scale="  103.053">  1  9  2 -1</clus>
<clus scale="  130.326">  2  5  1 -1</clus>
</clustering>
</event>
<event>
 9    2  0.3402837E-005  0.1075243E+03  0.7546771E-02  0.1272373E+00
         -1   -1    0    0    0  501 -0.00000000000E+00  0.00000000000E+00  0.38250962153E+03  0.38250962153E+03  0.00000000000E+00 0.  1.
          2   -1    0    0  502    0  0.00000000000E+00 -0.00000000000E+00 -0.10691603018E+03  0.10691603018E+03  0.00000000000E+00 0. -1.
         23    2    1    2    0    0  0.11210588868E+02  0.49403258496E+02  0.10278782592E+03  0.14905426419E+03  0.95317769928E+02 0.  0.
         24    2    1    2    0    0 -0.55720052972E+02  0.42616148902E+02 -0.32733629094E+02  0.11081724044E+03  0.79297603087E+02 0.  0.
        -13    1    4    4    0    0 -0.69154612310E+02  0.37140528342E+02 -0.39643530152E+01  0.78597044118E+02  0.00000000000E+00 0.  1.
         14    1    4    4    0    0  0.13434559338E+02  0.54756205608E+01 -0.28769276079E+02  0.32220196325E+02  0.00000000000E+00 0. -1.
        -11    1    3    3    0    0  0.56105885591E+01  0.19665327646E+02 -0.16319180315E+02  0.26163322831E+02  0.00000000000E+00 0. -1.
         11    1    3    3    0    0  0.56000003091E+01  0.29737930850E+02  0.11910700623E+03  0.12289094136E+03  0.00000000000E+00 0.  1.
         21    1    1    2  502  501  0.44509464104E+02 -0.92019407399E+02  0.20553939453E+03  0.22955414707E+03  0.00000000000E+00 0. -1.
<scales pt_clust_5="13000.00000" pt_clust_6="13000.00000" pt_clust_7="13000.00000" pt_clust_8="13000.00000" pt_clust_9="102.21871"></scales>
<clustering>
<clus scale="   79.298">  5  6 -1 -1</clus>
<clus scale="   95.318">  7  8 -1 -1</clus>
<clus scale="  102.219">  1  9  2 -1</clus>
<clus scale="   93.617">  2  5  1 -1</clus>
<clus scale="   93.617">  2  5  1 -1</clus>
</clustering>
</event>
<event>
 9    2  0.3402837E-005  0.1356529E+03  0.7546771E-02  0.1232984E+00
          4   -1    0    0  502    0  0.00000000000E+00  0.00000000000E+00  0.15262457132E+03  0.15262457132E+03  0.00000000000E+00 0. -1.
         -3   -1    0    0    0  501 -0.00000000000E+00 -0.00000000000E+00 -0.38914139082E+03  0.38914139082E+03  0.00000000000E+00 0.  1.
         24    2    1    2    0    0  0.81405616153E+02 -0.74443691526E+02 -0.27145846497E+03  0.30438607866E+03  0.82416315926E+02 0.  0.
         23    2    1    2    0    0 -0.49038063447E+02 -0.33454936485E+02  0.64714504502E+02  0.12086295111E+03  0.83041684806E+02 0.  0.
        -13    1    3    3    0    0  0.89308905655E+02 -0.74093440051E+02 -0.19063389775E+03  0.22317527072E+03  0.00000000000E+00 0.  1.
         14    1    3    3    0    0 -0.79032895025E+01 -0.35025147459E+00 -0.80824567219E+02  0.81210807945E+02  0.00000000000E+00 0. -1.
        -11    1    4    4    0    0 -0.69283334785E+02 -0.37338447755E+02  0.38797345023E+02  0.87747217281E+02  0.00000000000E+00 0.  1.
         11    1    4    4    0    0  0.20245271338E+02  0.38835112695E+01  0.25917159479E+02  0.33115733826E+02  0.00000000000E+00 0. -1.
         21    1    1    2  502  501 -0.32367552706E+02  0.10789862801E+03 -0.29772859026E+02  0.11651693237E+03  0.00000000000E+00 0. -1.
<scales pt_clust_5="13000.00000" pt_clust_6="13000.00000" pt_clust_7="13000.00000" pt_clust_8="13000.00000" pt_clust_9="107.74633"></scales>
<clustering>
<clus scale="   82.416">  5  6 -1 -1</clus>
<clus scale="   83.042">  7  8 -1 -1</clus>
<clus scale="  102.078">  1  7  2 -1</clus>
<clus scale="  107.746">  1  9  2 -1</clus>
<clus scale="  102.078">  1  5  2 -1</clus>
</clustering>
</event>
<event>
 9    2  0.3402837E-005  0.1294603E+03  0.7546771E-02  0.1239157E+00
         -1   -1    0    0    0  501 -0.00000000000E+00  0.00000000000E+00  0.47510390721E+02  0.47510390721E+02  0.00000000000E+00 0.  1.
          2   -1    0    0  502    0  0.00000000000E+00 -0.00000000000E+00 -0.14801814757E+04  0.14801814757E+04  0.00000000000E+00 0. -1.
         23    2    1    2    0    0 -0.51300587428E+01  0.85543194181E+02 -0.80804743218E+02  0.15030346031E+03  0.93368988864E+02 0.  0.
         24    2    1    2    0    0  0.49092316034E+02  0.41607851599E+02 -0.30894549753E+03  0.32582578037E+03  0.81079281601E+02 0.  0.
        -11    1    4    4    0    0  0.21629723790E+02  0.63803213677E+02 -0.18231077950E+03  0.19436027204E+03  0.00000000000E+00 0.  1.
         12    1    4    4    0    0  0.27462592244E+02 -0.22195362078E+02 -0.12663471803E+03  0.13146550833E+03  0.00000000000E+00 0. -1.
        -13    1    3    3    0    0 -0.45176601680E+02  0.55292661986E+02 -0.67787807731E+02  0.98455018591E+02  0.00000000000E+00 0.  1.
         13    1    3    3    0    0  0.40046542937E+02  0.30250532195E+02 -0.13016935487E+02  0.51848441720E+02  0.00000000000E+00 0. -1.
         21    1    1    2  502  501 -0.43962257291E+02 -0.12715104578E+03 -0.10429208442E+04  0.10515626257E+04  0.00000000000E+00 0. -1.
<scales pt_clust_5="13000.00000" pt_clust_6="13000.00000" pt_clust_7="13000.00000" pt_clust_8="13000.00000" pt_clust_9="89.67837"></scales>
<clustering>
<clus scale="   81.079">  5  6 -1 -1</clus>
<clus scale="   93.369">  7  8 -1 -1</clus>
<clus scale="  103.514">  2  5  1 -1</clus>
<clus scale="   89.678">  2  9  1 -1</clus>
<clus scale="  103.514">  2  5  1 -1</clus>
</clustering>
</event>
<event>
 9    2  0.3402837E-005  0.1178495E+03  0.7546771E-02  0.1251815E+00
          4   -1    0    0  502    0  0.00000000000E+00  0.00000000000E+00  0.13726033032E+03  0.13726033032E+03  0.00000000000E+00 0. -1.
         -3   -1    0    0    0  501 -0.00000000000E+00 -0.00000000000E+00 -0.87550870634E+03  0.87550870634E+03  0.00000000000E+00 0.  1.
         24    2    1    2    0    0 -0.27214246936E+02  0.39483737419E+02 -0.46108116693E+03  0.46981931253E+03  0.76385621463E+02 0.  0.
         23    2    1    2    0    0 -0.99849265891E+01 -0.75573706286E+02  0.10402578683E+03  0.15824936736E+03  0.91708309902E+02 0.  0.
        -13    1    3    3    0    0 -0.35563339435E+02  0.35283432034E+02 -0.14158538255E+03  0.15018685775E+03  0.00000000000E+00 0.  1.
         14    1    3    3    0    0  0.83490924989E+01  0.42003053855E+01 -0.31949578438E+03  0.31963245478E+03  0.00000000000E+00 0. -1.
        -13    1    4    4    0    0 -0.42714336008E+02 -0.10316497211E+02  0.24562717929E+02  0.50341550705E+02  0.00000000000E+00 0.  1.
         13    1    4    4    0    0  0.32729409419E+02 -0.65257209076E+02  0.79463068898E+02  0.10790781666E+03  0.00000000000E+00 0. -1.
         21    1    1    2  502  501  0.37199173525E+02  0.36089968867E+02 -0.38119299591E+03  0.38470035677E+03  0.00000000000E+00 0. -1.
<scales pt_clust_5="13000.00000" pt_clust_6="13000.00000" pt_clust_7="13000.00000" pt_clust_8="13000.00000" pt_clust_9="51.82918"></scales>
<clustering>
<clus scale="   51.829">  2  9  1 -1</clus>
<clus scale="   76.386">  5  6 -1 -1</clus>
<clus scale="   91.708">  7  8 -1 -1</clus>
<clus scale="  106.362">  2  5  1 -1</clus>
<clus scale="  117.849">  1  5  2 -1</clus>
</clustering>
</event>
<event>
 9    2  0.3402837E-005  0.9719898E+02  0.7546771E-02  0.1290183E+00
          2   -1    0    0  502    0  0.00000000000E+00  0.00000000000E+00  0.35661879464E+03  0.35661879464E+03  0.00000000000E+00 0. -1.
         -1   -1    0    0    0  501 -0.00000000000E+00 -0.00000000000E+00 -0.64349016079E+02  0.64349016079E+02  0.00000000000E+00 0.  1.
         23    2    1    2    0    0 -0.21736750484E+02  0.31410860867E+02  0.66521098887E+02  0.11615448152E+03  0.87222006846E+02 0.  0.
         24    2    1    2    0    0  0.44847522844E+02 -0.13099420517E+02  0.25010331765E+03  0.26656983252E+03  0.79529308964E+02 0.  0.
        -13    1    4    4    0    0  0.28544365617E+02 -0.24414341024E+02  0.37617595223E+02  0.53159423685E+02  0.00000000000E+00 0.  1.
         14    1    4    4    0    0  0.16303157227E+02  0.11314920507E+02  0.21248572243E+03  0.21341040883E+03  0.00000000000E+00 0. -1.
        -11    1    3    3    0    0 -0.17390022181E+02 -0.11344249186E+02 -0.13889291912E+02  0.24980338086E+02  0.00000000000E+00 0.  1.
         11    1    3    3    0    0 -0.43467283021E+01  0.42755110053E+02  0.80410390799E+02  0.91174143435E+02  0.00000000000E+00 0. -1.
         21    1    1    2  502  501 -0.23110772361E+02 -0.18311440350E+02 -0.24354637983E+02  0.38243496677E+02  0.00000000000E+00 0.  1.
<scales pt_clust_5="13000.00000" pt_clust_6="13000.00000" pt_clust_7="13000.00000" pt_clust_8="13000.00000" pt_clust_9="29.48587"></scales>
<clustering>
<clus scale="   29.486">  2  9  1 -1</clus>
<clus scale="   79.529">  5  6 -1 -1</clus>
<clus scale="   87.222">  7  8 -1 -1</clus>
<clus scale="   90.360">  1  5  2 -1</clus>
<clus scale="   90.360">  1  5  2 -1</clus>
</clustering>
</event>
<event>
 9    2  0.3402837E-005  0.1032180E+03  0.7546771E-02  0.1277631E+00
          2   -1    0    0  502    0  0.00000000000E+00  0.00000000000E+00  0.41192304816E+03  0.41192304816E+03  0.00000000000E+00 0. -1.
         -1   -1    0    0    0  501 -0.00000000000E+00 -0.00000000000E+00 -0.80610345840E+02  0.80610345840E+02  0.00000000000E+00 0.  1.
         23    2    1    2    0    0 -0.67285810197E+02 -0.22601930088E+02  0.32288461064E+01  0.11402178259E+03  0.89175747596E+02 0.  0.
         24    2    1    2    0    0  0.48101946937E+02  0.12836268958E+02  0.34069826796E+03  0.35356141842E+03  0.80323095720E+02 0.  0.
        -13    1    4    4    0    0  0.50248574644E+02  0.39704219358E+02  0.19085115234E+03  0.20130947975E+03  0.00000000000E+00 0.  1.
         14    1    4    4    0    0 -0.21466277069E+01 -0.26867950400E+02  0.14984711562E+03  0.15225193867E+03  0.00000000000E+00 0. -1.
        -13    1    3    3    0    0 -0.26338423145E+02 -0.82586380732E+01 -0.42697152877E+02  0.50842546164E+02  0.00000000000E+00 0.  1.
         13    1    3    3    0    0 -0.40947387052E+02 -0.14343292015E+02  0.45925998984E+02  0.63179236422E+02  0.00000000000E+00 0. -1.
         21    1    1    2  502  501  0.19183863259E+02  0.97656611299E+01 -0.12614411744E+02  0.24950192995E+02  0.00000000000E+00 0.  1.
<scales pt_clust_5="13000.00000" pt_clust_6="13000.00000" pt_clust_7="13000.00000" pt_clust_8="13000.00000" pt_clust_9="21.52647"></scales>
<clustering>
<clus scale="   21.526">  2  9  1 -1</clus>
<clus scale="   80.323">  5  6 -1 -1</clus>
<clus scale="   89.176">  7  8 -1 -1</clus>
<clus scale="   95.674">  1  5  2 -1</clus>
<clus scale="   95.674">  1  5  2 -1</clus>
</clustering>
</event>
<event>
 9    2  0.3402837E-005  0.2076911E+03  0.7546771E-02  0.1143966E+00
         -1   -1    0    0    0  501 -0.00000000000E+00  0.00000000000E+00  0.15338653035E+03  0.15338653035E+03  0.00000000000E+00 0.  1.
          2   -1    0    0  502    0  0.00000000000E+00 -0.00000000000E+00 -0.71117788459E+03  0.71117788459E+03  0.00000000000E+00 0. -1.
         24    2    1    2    0    0  0.48020474786E+02  0.10751213829E+03 -0.47628342866E+02  0.15061398525E+03  0.80940024900E+02 0.  0.
         23    2    1    2    0    0 -0.17605736246E+03 -0.14982051413E+03 -0.52299492452E+03  0.57849526638E+03  0.87696640834E+02 0.  0.
        -11    1    3    3    0    0  0.42710675952E+02  0.12055880065E+03 -0.37566789054E+02  0.13330375049E+03  0.00000000000E+00 0.  1.
         12    1    3    3    0    0  0.53097988343E+01 -0.13046662361E+02 -0.10061553812E+02  0.17310234763E+02  0.00000000000E+00 0. -1.
        -11    1    4    4    0    0 -0.14622847764E+03 -0.88371663686E+02 -0.43317468133E+03  0.46565289988E+03  0.00000000000E+00 0. -1.
         11    1    4    4    0    0 -0.29828884821E+02 -0.61448850448E+02 -0.89820243189E+02  0.11284236650E+03  0.00000000000E+00 0.  1.
         21    1    1    2  502  501  0.12803688768E+03  0.42308375847E+02  0.12831913142E+02  0.13545516331E+03  0.00000000000E+00 0.  1.
<scales pt_clust_5="13000.00000" pt_clust_6="13000.00000" pt_clust_7="13000.00000" pt_clust_8="13000.00000" pt_clust_9="134.84600"></scales>
<clustering>
<clus scale="   80.940">  5  6 -1 -1</clus>
<clus scale="   87.697">  7  8 -1 -1</clus>
<clus scale="  134.846">  1  9  2 -1</clus>
<clus scale="  204.930">  1  5  2 -1</clus>
<clus scale="  207.691">  2  5  1 -1</clus>
</clustering>
</event>
<event>
 9    2  0.3402837E-005  0.1769055E+03  0.7546771E-02  0.1171212E+00
          2   -1    0    0  502    0  0.00000000000E+00  0.00000000000E+00  0.89792438013E+03  0.89792438013E+03  0.00000000000E+00 0. -1.
         -1   -1    0    0    0  501 -0.00000000000E+00 -0.00000000000E+00 -0.10906702102E+03  0.10906702102E+03  0.00000000000E+00 0.  1.
         23    2    1    2    0    0 -0.66169814452E+02 -0.13528137167E+03  0.10580487210E+03  0.20151106156E+03  0.82052075565E+02 0.  0.
         24    2    1    2    0    0  0.46669160928E+01  0.16065568619E+03  0.71110364824E+03  0.73327694639E+03  0.78706111246E+02 0.  0.
        -11    1    4    4    0    0 -0.12628331509E+02  0.56032721323E+02  0.12378672309E+03  0.13646352417E+03  0.00000000000E+00 0.  1.
         12    1    4    4    0    0  0.17295247602E+02  0.10462296486E+03  0.58731692515E+03  0.59681342222E+03  0.00000000000E+00 0. -1.
        -11    1    3    3    0    0 -0.84043107346E+01 -0.10672272414E+03  0.65181326606E+02  0.12533546037E+03  0.00000000000E+00 0.  1.
         11    1    3    3    0    0 -0.57765503717E+02 -0.28558647527E+02  0.40623545498E+02  0.76175601193E+02  0.00000000000E+00 0. -1.
         21    1    1    2  502  501  0.61502898359E+02 -0.25374314518E+02 -0.28051161234E+02  0.72203393206E+02  0.00000000000E+00 0.  1.
<scales pt_clust_5="13000.00000" pt_clust_6="13000.00000" pt_clust_7="13000.00000" pt_clust_8="13000.00000" pt_clust_9="66.53166"></scales>
<clustering>
<clus scale="   66.532">  2  9  1 -1</clus>
<clus scale="   78.706">  5  6 -1 -1</clus>
<clus scale="   82.052">  7  8 -1 -1</clus>
<clus scale="  175.379">  1  5  2 -1</clus>
<clus scale="  175.379">  1  5  2 -1</clus>
</clustering>
</event>
<event>
 9    2  0.7378824E-005  0.1020424E+03  0.7546771E-02  0.1282268E+00
         -3   -1    0    0    0  501 -0.00000000000E+00  0.00000000000E+00  0.23010877789E+03  0.23010877789E+03  0.00000000000E+00 0.  1.
          4   -1    0    0  502    0  0.00000000000E+00 -0.00000000000E+00 -0.44618680768E+03  0.44618680768E+03  0.00000000000E+00 0. -1.
         23    2    1    2    0    0 -0.37776089707E+02 -0.17550428986E+02  0.20371056411E+03  0.22774777044E+03  0.92930094699E+02 0.  0.
         24    2    1    2    0    0  0.46460830434E+02  0.40551971487E+02 -0.40962279650E+03  0.42194256911E+03  0.80259734951E+02 0.  0.
        -13    1    4    4    0    0 -0.13651908554E+02  0.23815695202E+02 -0.50875475283E+02  0.57808960641E+02  0.00000000000E+00 0.  1.
         14    1    4    4    0    0  0.60112738988E+02  0.16736276285E+02 -0.35874732122E+03  0.36413360847E+03  0.00000000000E+00 0. -1.
        -11    1    3    3    0    0 -0.37311361749E+02 -0.46739574718E+02  0.18140361085E+03  0.19100784169E+03  0.00000000000E+00 0.  1.
         11    1    3    3    0    0 -0.46472795820E+00  0.29189145732E+02  0.22306953264E+02  0.36739928750E+02  0.00000000000E+00 0. -1.
         21    1    1    2  502  501 -0.86847407262E+01 -0.23001542502E+02 -0.10165797397E+02  0.26605246018E+02  0.00000000000E+00 0.  1.
<scales pt_clust_5="13000.00000" pt_clust_6="13000.00000" pt_clust_7="13000.00000" pt_clust_8="13000.00000" pt_clust_9="24.58649"></scales>
<clustering>
<clus scale="   24.586">  2  9  1 -1</clus>
<clus scale="   80.260">  5  6 -1 -1</clus>
<clus scale="   90.655">  2  5  1 -1</clus>
<clus scale="   92.930">  7  8 -1 -1</clus>
<clus scale="   24.586">  2  5  1 -1</clus>
</clustering>
</event>
<event>
 9    2  0.3402837E-005  0.2301980E+03  0.7546771E-02  0.1126886E+00
          2   -1    0    0  502    0  0.00000000000E+00  0.00000000000E+00  0.77923072748E+03  0.77923072748E+03  0.00000000000E+00 0. -1.
         -1   -1    0    0    0  501 -0.00000000000E+00 -0.00000000000E+00 -0.86673683506E+02  0.86673683506E+02  0.00000000000E+00 0.  1.
         23    2    1    2    0    0 -0.98656844273E+02  0.19416190707E+03  0.16761568730E+03  0.28959424563E+03  0.91311496515E+02 0.  0.
         24    2    1    2    0    0  0.89705029108E+02 -0.17496483992E+03  0.49655545113E+03  0.54089234476E+03  0.85659355105E+02 0.  0.
        -11    1    4    4    0    0  0.99303584133E+02 -0.11511068737E+03  0.38504492256E+03  0.41397012520E+03  0.00000000000E+00 0.  1.
         12    1    4    4    0    0 -0.95985550258E+01 -0.59854152549E+02  0.11151052857E+03  0.12692221956E+03  0.00000000000E+00 0. -1.
        -11    1    3    3    0    0 -0.93607625486E+02  0.83756990504E+02  0.91347206017E+02  0.15531237251E+03  0.00000000000E+00 0.  1.
         11    1    3    3    0    0 -0.50492187867E+01  0.11040491657E+03  0.76268481284E+02  0.13428187312E+03  0.00000000000E+00 0. -1.
         21    1    1    2  502  501  0.89518151654E+01 -0.19197067154E+02  0.28385905541E+02  0.35417820591E+02  0.00000000000E+00 0. -1.
<scales pt_clust_5="13000.00000" pt_clust_6="13000.00000" pt_clust_7="13000.00000" pt_clust_8="13000.00000" pt_clust_9="21.18165"></scales>
<clustering>
<clus scale="   21.182">  1  9  2 -1</clus>
<clus scale="   85.659">  5  6 -1 -1</clus>
<clus scale="   91.311">  7  8 -1 -1</clus>
<clus scale="  228.015">  1  5  2 -1</clus>
<clus scale="   21.182">  1  5  2 -1</clus>
</clustering>
</event>
<event>
 9    2  0.3402837E-005  0.1274618E+03  0.7546771E-02  0.1234324E+00
         -1   -1    0    0    0  501 -0.00000000000E+00  0.00000000000E+00  0.30170010755E+03  0.30170010755E+03  0.00000000000E+00 0.  1.
          2   -1    0    0  502    0  0.00000000000E+00 -0.00000000000E+00 -0.79971557023E+02  0.79971557023E+02  0.00000000000E+00 0. -1.
         23    2    1    2    0    0 -0.97314957706E+02  0.58504303908E+02  0.15231442672E+03  0.21096884533E+03  0.91734478490E+02 0.  0.
         24    2    1    2    0    0  0.45560117734E+02 -0.39461874600E+02  0.41292612241E+02  0.10879969341E+03  0.80618419648E+02 0.  0.
        -13    1    4    4    0    0  0.75349699687E+01 -0.53302827442E+02  0.42077417050E+02  0.68326248334E+02  0.00000000000E+00 0.  1.
         14    1    4    4    0    0  0.38025147766E+02  0.13840952842E+02 -0.78480480862E+00  0.40473445081E+02  0.00000000000E+00 0. -1.
        -13    1    3    3    0    0 -0.76276765281E+02  0.10155830374E+02  0.13514445500E+03  0.15551626773E+03  0.00000000000E+00 0.  1.
         13    1    3    3    0    0 -0.21038192425E+02  0.48348473533E+02  0.17169971724E+02  0.55452577600E+02  0.00000000000E+00 0. -1.
         21    1    1    2  502  501  0.51754839972E+02 -0.19042429308E+02  0.28121511564E+02  0.61903125827E+02  0.00000000000E+00 0. -1.
<scales pt_clust_5="13000.00000" pt_clust_6="13000.00000" pt_clust_7="13000.00000" pt_clust_8="13000.00000" pt_clust_9="55.14687"></scales>
<clustering>
<clus scale="   55.147">  2  9  1 -1</clus>
<clus scale="   80.618">  5  6 -1 -1</clus>
<clus scale="   91.734">  7  8 -1 -1</clus>
<clus scale="  119.711">  2  5  1 -1</clus>
<clus scale="   55.147">  2  5  1 -1</clus>
</clustering>
</event>
<event>
 9    2  0.3402837E-005  0.9260065E+02  0.7546771E-02  0.1304306E+00
         -1   -1    0    0    0  501 -0.00000000000E+00  0.00000000000E+00  0.56711860651E+02  0.56711860651E+02  0.00000000000E+00 0.  1.
          2   -1    0    0  502    0  0.00000000000E+00 -0.00000000000E+00 -0.60603290163E+03  0.60603290163E+03  0.00000000000E+00 0. -1.
         23    2    1    2    0    0  0.39076778611E+02  0.39487483475E+02 -0.28790260723E+03  0.30616154293E+03  0.88094966589E+02 0.  0.
         24    2    1    2    0    0 -0.21720881065E+02  0.21388139041E+02 -0.27925941421E+03  0.29081568040E+03  0.75224267195E+02 0.  0.
        -13    1    4    4    0    0 -0.13461823661E+02  0.19037832144E+02 -0.18105553908E+02  0.29520684805E+02  0.00000000000E+00 0.  1.
         14    1    4    4    0    0 -0.82590574045E+01  0.23503068971E+01 -0.26115386030E+03  0.26129499559E+03  0.00000000000E+00 0. -1.
        -11    1    3    3    0    0 -0.22196190794E+02  0.30045693033E+02 -0.66840717589E+02  0.76570856619E+02  0.00000000000E+00 0.  1.
         11    1    3    3    0    0  0.61272969405E+02  0.94417904424E+01 -0.22106188964E+03  0.22959068631E+03  0.00000000000E+00 0. -1.
         21    1    1    2  502  501 -0.17355897545E+02 -0.60875622516E+02  0.17840980464E+02  0.65767538956E+02  0.00000000000E+00 0.  1.
<scales pt_clust_5="13000.00000" pt_clust_6="13000.00000" pt_clust_7="13000.00000" pt_clust_8="13000.00000" pt_clust_9="63.30141"></scales>
<clustering>
<clus scale="   63.301">  1  9  2 -1</clus>
<clus scale="   75.224">  5  6 -1 -1</clus>
<clus scale="   80.454">  2  5  1 -1</clus>
<clus scale="   88.095">  7  8 -1 -1</clus>
<clus scale="   80.454">  2  5  1 -1</clus>
</clustering>
</event>
<event>
 9    2  0.3402837E-005  0.1521079E+03  0.7546771E-02  0.1222851E+00
          2   -1    0    0  502    0  0.00000000000E+00  0.00000000000E+00  0.88017414450E+03  0.88017414450E+03  0.00000000000E+00 0. -1.
         -1   -1    0    0    0  501 -0.00000000000E+00 -0.00000000000E+00 -0.60985469136E+02  0.60985469136E+02  0.00000000000E+00 0.  1.
         23    2    1    2    0    0  0.18431852573E+02 -0.10805456204E+02  0.24029274686E+02  0.92495337814E+02  0.86726526521E+02 0.  0.
         24    2    1    2    0    0  0.22678115437E+02  0.13506335742E+03  0.54273267001E+03  0.56432414528E+03  0.71739684991E+02 0.  0.
        -11    1    4    4    0    0  0.27604434776E+02  0.15251277868E+02  0.72878752547E+02  0.79409815947E+02  0.00000000000E+00 0.  1.
         12    1    4    4    0    0 -0.49263193388E+01  0.11981207956E+03  0.46985391747E+03  0.48491432933E+03  0.00000000000E+00 0. -1.
        -13    1    3    3    0    0  0.36082300825E+02 -0.39565821413E+02  0.50651592113E+01  0.53787010465E+02  0.00000000000E+00 0.  1.
         13    1    3    3    0    0 -0.17650448252E+02  0.28760365209E+02  0.18964115475E+02  0.38708327349E+02  0.00000000000E+00 0. -1.
         21    1    1    2  502  501 -0.41109968010E+02 -0.12425790122E+03  0.25242673067E+03  0.28434013055E+03  0.00000000000E+00 0. -1.
<scales pt_clust_5="13000.00000" pt_clust_6="13000.00000" pt_clust_7="13000.00000" pt_clust_8="13000.00000" pt_clust_9="134.12766"></scales>
<clustering>
<clus scale="   71.740">  5  6 -1 -1</clus>
<clus scale="   86.727">  7  8 -1 -1</clus>
<clus scale="   89.320">  2  7  1 -1</clus>
<clus scale="  134.128">  2  9  1 -1</clus>
<clus scale="  152.108">  1  5  2 -1</clus>
</clustering>
</event>
<event>
 9    2  0.3402837E-005  0.1550684E+03  0.7546771E-02  0.1195877E+00
          2   -1    0    0  502    0  0.00000000000E+00  0.00000000000E+00  0.11815692769E+04  0.11815692769E+04  0.00000000000E+00 0. -1.
         -1   -1    0    0    0  501 -0.00000000000E+00 -0.00000000000E+00 -0.51529961419E+02  0.51529961419E+02  0.00000000000E+00 0.  1.
         23    2    1    2    0    0  0.12503123045E+03 -0.56225887079E+01  0.27973403746E+03  0.31929352430E+03  0.89625893894E+02 0.  0.
         24    2    1    2    0    0 -0.11016728615E+03  0.72443374030E+02  0.82726118247E+03  0.84157701800E+03  0.80659406297E+02 0.  0.
        -13    1    4    4    0    0 -0.37099410663E+02 -0.11215331806E+02  0.13469809666E+03  0.14016321622E+03  0.00000000000E+00 0.  1.
         14    1    4    4    0    0 -0.73067875482E+02  0.83658705836E+02  0.69256308581E+03  0.70141380177E+03  0.00000000000E+00 0. -1.
        -11    1    3    3    0    0  0.11181980578E+03  0.25624019846E+02  0.24608725936E+03  0.27151279634E+03  0.00000000000E+00 0.  1.
         11    1    3    3    0    0  0.13211424665E+02 -0.31246608554E+02  0.33646778101E+02  0.47780727960E+02  0.00000000000E+00 0. -1.
         21    1    1    2  502  501 -0.14863944303E+02 -0.66820785322E+02  0.23044095577E+02  0.72228696044E+02  0.00000000000E+00 0.  1.
<scales pt_clust_5="13000.00000" pt_clust_6="13000.00000" pt_clust_7="13000.00000" pt_clust_8="13000.00000" pt_clust_9="68.45403"></scales>
<clustering>
<clus scale="   68.454">  2  9  1 -1</clus>
<clus scale="   80.659">  5  6 -1 -1</clus>
<clus scale="   89.626">  7  8 -1 -1</clus>
<clus scale="  150.065">  1  5  2 -1</clus>
<clus scale="  150.065">  1  5  2 -1</clus>
</clustering>
</event>
<event>
 9    2  0.3402837E-005  0.1988958E+03  0.7546771E-02  0.1151681E+00
         -1   -1    0    0    0  501 -0.00000000000E+00  0.00000000000E+00  0.43948820749E+03  0.43948820749E+03  0.00000000000E+00 0.  1.
          2   -1    0    0  502    0  0.00000000000E+00 -0.00000000000E+00 -0.33816275362E+03  0.33816275362E+03  0.00000000000E+00 0. -1.
         24    2    1    2    0    0  0.12951839072E+03 -0.10822064560E+03  0.29026341739E+03  0.34540496792E+03  0.81024803114E+02 0.  0.
         23    2    1    2    0    0 -0.11062878655E+03  0.13896298008E+03 -0.27439754723E+03  0.33948151334E+03  0.91674673314E+02 0.  0.
        -13    1    3    3    0    0  0.12308954064E+03 -0.79443792750E+02  0.27639464696E+03  0.31281999950E+03  0.00000000000E+00 0.  1.
         14    1    3    3    0    0  0.64288500826E+01 -0.28776852854E+02  0.13868770431E+02  0.32584968418E+02  0.00000000000E+00 0. -1.
        -11    1    4    4    0    0 -0.76681646152E+02  0.24563991928E+02 -0.10746312530E+03  0.13428249273E+03  0.00000000000E+00 0.  1.
         11    1    4    4    0    0 -0.33947140395E+02  0.11439898816E+03 -0.16693442193E+03  0.20519902061E+03  0.00000000000E+00 0. -1.
         21    1    1    2  502  501 -0.18889604171E+02 -0.30742334479E+02  0.85459583706E+02  0.92764479852E+02  0.00000000000E+00 0. -1.
<scales pt_clust_5="13000.00000" pt_clust_6="13000.00000" pt_clust_7="13000.00000" pt_clust_8="13000.00000" pt_clust_9="36.08197"></scales>
<clustering>
<clus scale="   36.082">  1  9  2 -1</clus>
<clus scale="   81.025">  5  6 -1 -1</clus>
<clus scale="   91.675">  7  8 -1 -1</clus>
<clus scale="  194.217">  1  5  2 -1</clus>
<clus scale="  198.896">  2  5  1 -1</clus>
</clustering>
</event>
<event>
 9    2  0.3402837E-005  0.1260986E+03  0.7546771E-02  0.1239891E+00
         -1   -1    0    0    0  501 -0.00000000000E+00  0.00000000000E+00  0.21497450004E+03  0.21497450004E+03  0.00000000000E+00 0.  1.
          2   -1    0    0  502    0  0.00000000000E+00 -0.00000000000E+00 -0.29527493079E+03  0.29527493079E+03  0.00000000000E+00 0. -1.
         24    2    1    2    0    0  0.61343215369E+01  0.66192074773E+02  0.10563322268E+03  0.14282585539E+03  0.69439373340E+02 0.  0.
         23    2    1    2    0    0 -0.12066445391E+02 -0.87249730539E+02 -0.26028813530E+03  0.28991742128E+03  0.92434210130E+02 0.  0.
        -13    1    3    3    0    0  0.92113133848E+01  0.64542924754E+02  0.11535051266E+03  0.13250048377E+03  0.00000000000E+00 0.  1.
         14    1    3    3    0    0 -0.30769918479E+01  0.16491500187E+01 -0.97172899723E+01  0.10325371617E+02  0.00000000000E+00 0. -1.
        -11    1    4    4    0    0 -0.56034457492E+01 -0.50639731920E+02 -0.24411609316E+03  0.24937611753E+03  0.00000000000E+00 0. -1.
         11    1    4    4    0    0 -0.64629996420E+01 -0.36609998619E+02 -0.16172042138E+02  0.40541303755E+02  0.00000000000E+00 0.  1.
         21    1    1    2  502  501  0.59321238543E+01  0.21057655766E+02  0.74354481859E+02  0.77506154157E+02  0.00000000000E+00 0.  1.
<scales pt_clust_5="13000.00000" pt_clust_6="13000.00000" pt_clust_7="13000.00000" pt_clust_8="13000.00000" pt_clust_9="21.87727"></scales>
<clustering>
<clus scale="   21.877">  1  9  2 -1</clus>
<clus scale="   69.439">  5  6 -1 -1</clus>
<clus scale="   92.434">  7  8 -1 -1</clus>
<clus scale="  110.357">  1  5  2 -1</clus>
<clus scale="  126.099">  2  5  1 -1</clus>
</clustering>
</event>
<event>
 9    2  0.3402837E-005  0.1389330E+03  0.7546771E-02  0.1217228E+00
         -1   -1    0    0    0  501 -0.00000000000E+00  0.00000000000E+00  0.50933274107E+02  0.50933274107E+02  0.00000000000E+00 0.  1.
          2   -1    0    0  502    0  0.00000000000E+00 -0.00000000000E+00 -0.66336076026E+03  0.66336076026E+03  0.00000000000E+00 0. -1.
         24    2    1    2    0    0 -0.11579488612E+03  0.53606850594E+01 -0.99150805990E+02  0.17156519522E+03  0.78527328286E+02 0.  0.
         23    2    1    2    0    0  0.74542992029E+02  0.22721927824E+02 -0.42497232125E+03  0.44129900273E+03  0.89835362269E+02 0.  0.
        -11    1    3    3    0    0 -0.10033329345E+03  0.35210398357E+02 -0.73082951773E+02  0.12902581047E+03  0.00000000000E+00 0.  1.
         12    1    3    3    0    0 -0.15461592668E+02 -0.29849713298E+02 -0.26067854216E+02  0.42539384754E+02  0.00000000000E+00 0. -1.
        -11    1    4    4    0    0  0.11291368764E+02  0.49099779636E+02 -0.17684468069E+03  0.18388127816E+03  0.00000000000E+00 0.  1.
         11    1    4    4    0    0  0.63251623264E+02 -0.26377851811E+02 -0.24812764056E+03  0.25741772457E+03  0.00000000000E+00 0. -1.
         21    1    1    2  502  501  0.41251894091E+02 -0.28082612884E+02 -0.88304358915E+02  0.10142983642E+03  0.00000000000E+00 0. -1.
<scales pt_clust_5="13000.00000" pt_clust_6="13000.00000" pt_clust_7="13000.00000" pt_clust_8="13000.00000" pt_clust_9="49.90343"></scales>
<clustering>
<clus scale="   49.903">  2  9  1 -1</clus>
<clus scale="   78.527">  5  6 -1 -1</clus>
<clus scale="   89.835">  7  8 -1 -1</clus>
<clus scale="  131.904">  1  5  2 -1</clus>
<clus scale="   49.903">  2  5  1 -1</clus>
</clustering>
</event>
<event>
 9    2  0.7205150E-005  0.9487300E+02  0.7546771E-02  0.1296065E+00
          2   -1    0    0  502    0  0.00000000000E+00  0.00000000000E+00  0.53876807652E+03  0.53876807652E+03  0.00000000000E+00 0. -1.
         -1   -1    0    0    0  501 -0.00000000000E+00 -0.00000000000E+00 -0.18155319169E+03  0.18155319169E+03  0.00000000000E+00 0.  1.
         24    2    1    2    0    0  0.18645983573E+02  0.26603118769E+02 -0.13744297982E+03  0.16365612924E+03  0.82688314192E+02 0.  0.
         23    2    1    2    0    0 -0.27478305300E+02 -0.13549853653E+01  0.51461132801E+03  0.52329421080E+03  0.90857684839E+02 0.  0.
        -13    1    3    3    0    0  0.40045590426E+02  0.43812727959E+02 -0.76624558882E+02  0.96925370609E+02  0.00000000000E+00 0.  1.
         14    1    3    3    0    0 -0.21399606853E+02 -0.17209609190E+02 -0.60818420937E+02  0.66730758629E+02  0.00000000000E+00 0. -1.
        -11    1    4    4    0    0 -0.21315632842E+02  0.44111282276E+02  0.27488028100E+03  0.27921198096E+03  0.00000000000E+00 0.  1.
         11    1    4    4    0    0 -0.61626724579E+01 -0.45466267641E+02  0.23973104701E+03  0.24408222984E+03  0.00000000000E+00 0. -1.
         21    1    1    2  502  501  0.88323217266E+01 -0.25248133403E+02 -0.19953463354E+02  0.33370928175E+02  0.00000000000E+00 0. -1.
<scales pt_clust_5="13000.00000" pt_clust_6="13000.00000" pt_clust_7="13000.00000" pt_clust_8="13000.00000" pt_clust_9="26.74842"></scales>
<clustering>
<clus scale="   26.748">  2  9  1 -1</clus>
<clus scale="   82.688">  5  6 -1 -1</clus>
<clus scale="   87.081">  2  5  1 -1</clus>
<clus scale="   90.858">  7  8 -1 -1</clus>
<clus scale="   94.873">  1  5  2 -1</clus>
</clustering>
</event>
<event>
 9    2  0.3402837E-005  0.1007698E+03  0.7546771E-02  0.1280055E+00
          2   -1    0    0  502    0  0.00000000000E+00  0.00000000000E+00  0.70790186852E+03  0.70790186852E+03  0.00000000000E+00 0. -1.
         -1   -1    0    0    0  501 -0.00000000000E+00 -0.00000000000E+00 -0.22484041358E+02  0.22484041358E+02  0.00000000000E+00 0.  1.
         23    2    1    2    0    0  0.22761543611E+02 -0.15840084098E+02  0.23429081980E+03  0.25312354455E+03  0.91707930034E+02 0.  0.
         24    2    1    2    0    0 -0.41994799646E+02  0.28020805764E+02  0.44039085540E+03  0.45209188506E+03  0.88849525940E+02 0.  0.
        -11    1    4    4    0    0 -0.23647975683E+02 -0.23531868046E-01  0.21804631048E+02  0.32166274929E+02  0.00000000000E+00 0.  1.
         12    1    4    4    0    0 -0.18346823963E+02  0.28044337632E+02  0.41858622435E+03  0.41992561013E+03  0.00000000000E+00 0. -1.
        -13    1    3    3    0    0 -0.95690815150E+00 -0.51146022347E+02  0.10108019832E+03  0.11328741222E+03  0.00000000000E+00 0. -1.
         13    1    3    3    0    0  0.23718451763E+02  0.35305938249E+02  0.13321062149E+03  0.13983613234E+03  0.00000000000E+00 0.  1.
         21    1    1    2  502  501  0.19233256035E+02 -0.12180721666E+02  0.10736151954E+02  0.25170480265E+02  0.00000000000E+00 0. -1.
<scales pt_clust_5="13000.00000" pt_clust_6="13000.00000" pt_clust_7="13000.00000" pt_clust_8="13000.00000" pt_clust_9="22.76594"></scales>
<clustering>
<clus scale="   22.766">  2  9  1 -1</clus>
<clus scale="   88.850">  5  6 -1 -1</clus>
<clus scale="   91.708">  7  8 -1 -1</clus>
<clus scale="   98.176">  1  5  2 -1</clus>
<clus scale="   98.176">  1  5  2 -1</clus>
</clustering>
</event>
<event>
 9    2  0.3402837E-005  0.3719382E+03  0.7546771E-02  0.1054155E+00
          2   -1    0    0  502    0  0.00000000000E+00  0.00000000000E+00  0.33463816929E+03  0.33463816929E+03  0.00000000000E+00 0. -1.
         -1   -1    0    0    0  501 -0.00000000000E+00 -0.00000000000E+00 -0.70653928215E+03  0.70653928215E+03  0.00000000000E+00 0.  1.
         23    2    1    2    0    0 -0.24437985912E+03  0.26670540851E+03 -0.42883614005E+03  0.56804162047E+03  0.88980655714E+02 0.  0.
         24    2    1    2    0    0  0.17458493671E+03 -0.32363066222E+03  0.68114035599E+02  0.38237909054E+03  0.79734192050E+02 0.  0.
        -13    1    4    4    0    0  0.36213425020E+02 -0.95983763758E+02 -0.14163906045E+02  0.10356114760E+03  0.00000000000E+00 0.  1.
         14    1    4    4    0    0  0.13837151169E+03 -0.22764689846E+03  0.82277941645E+02  0.27881794295E+03  0.00000000000E+00 0. -1.
        -11    1    3    3    0    0 -0.11683114209E+03  0.98921035726E+02 -0.24219144348E+03  0.28651628639E+03  0.00000000000E+00 0.  1.
         11    1    3    3    0    0 -0.12754871703E+03  0.16778437279E+03 -0.18664469657E+03  0.28152533408E+03  0.00000000000E+00 0. -1.
         21    1    1    2  502  501  0.69794922413E+02  0.56925253708E+02 -0.11179008412E+02  0.90756740430E+02  0.00000000000E+00 0.  1.
<scales pt_clust_5="13000.00000" pt_clust_6="13000.00000" pt_clust_7="13000.00000" pt_clust_8="13000.00000" pt_clust_9="90.06562"></scales>
<clustering>
<clus scale="   79.734">  5  6 -1 -1</clus>
<clus scale="   88.981">  7  8 -1 -1</clus>
<clus scale="   90.066">  1  9  2 -1</clus>
<clus scale="  369.835">  1  5  2 -1</clus>
<clus scale="   90.066">  1  5  2 -1</clus>
</clustering>
</event>
<event>
 9    2  0.3402837E-005  0.1381948E+03  0.7546771E-02  0.1238149E+00
          2   -1    0    0  502    0  0.00000000000E+00  0.00000000000E+00  0.42193079784E+03  0.42193079784E+03  0.00000000000E+00 0. -1.
         -1   -1    0    0    0  501 -0.00000000000E+00 -0.00000000000E+00 -0.41954059749E+03  0.41954059749E+03  0.00000000000E+00 0.  1.
         23    2    1    2    0    0 -0.92229989002E+02 -0.47555890035E+00 -0.25345759017E+03  0.28454389389E+03  0.90652526182E+02 0.  0.
         24    2    1    2    0    0 -0.32958298517E+02 -0.52787749319E+01  0.37444356320E+03  0.38438713810E+03  0.80195854085E+02 0.  0.
        -11    1    4    4    0    0  0.15707602525E+02  0.24121931637E+02  0.97168241889E+02  0.10134230901E+03  0.00000000000E+00 0.  1.
         12    1    4    4    0    0 -0.48665901042E+02 -0.29400706569E+02  0.27727532131E+03  0.28304482909E+03  0.00000000000E+00 0. -1.
        -11    1    3    3    0    0 -0.61969947049E+02  0.33389542455E+02 -0.86517286972E+02  0.11153643722E+03  0.00000000000E+00 0.  1.
         11    1    3    3    0    0 -0.30260041952E+02 -0.33865101355E+02 -0.16694030320E+03  0.17300745667E+03  0.00000000000E+00 0. -1.
         21    1    1    2  502  501  0.12518828752E+03  0.57543338322E+01 -0.11859577267E+03  0.17254036335E+03  0.00000000000E+00 0. -1.
<scales pt_clust_5="13000.00000" pt_clust_6="13000.00000" pt_clust_7="13000.00000" pt_clust_8="13000.00000" pt_clust_9="104.30690"></scales>
<clustering>
<clus scale="   80.196">  5  6 -1 -1</clus>
<clus scale="   86.865">  1  5  2 -1</clus>
<clus scale="   90.653">  7  8 -1 -1</clus>
<clus scale="  104.307">  1  9  2 -1</clus>
<clus scale="   86.865">  1  5  2 -1</clus>
</clustering>
</event>
<event>
 9    2  0.3402837E-005  0.1010571E+03  0.7546771E-02  0.1280451E+00
         -1   -1    0    0    0  501 -0.00000000000E+00  0.00000000000E+00  0.43143382051E+03  0.43143382051E+03  0.00000000000E+00 0.  1.
          2   -1    0    0  502    0  0.00000000000E+00 -0.00000000000E+00 -0.54411104396E+02  0.54411104396E+02  0.00000000000E+00 0. -1.
         24    2    1    2    0    0  0.53591076853E+02 -0.19798666513E+02  0.28031246852E+03  0.29689977034E+03  0.79438044470E+02 0.  0.
         23    2    1    2    0    0 -0.55217015507E+02 -0.16470016887E+01  0.12424823647E+02  0.10195898870E+03  0.84791672457E+02 0.  0.
        -11    1    3    3    0    0  0.67360535368E+02 -0.19579872526E+02  0.27180830054E+03  0.28071438398E+03  0.00000000000E+00 0.  1.
         12    1    3    3    0    0 -0.13769458515E+02 -0.21879398705E+00  0.85041679791E+01  0.16185386360E+02  0.00000000000E+00 0. -1.
        -13    1    4    4    0    0 -0.64189770767E+02  0.27565689780E+02  0.14431789524E+02  0.71333515776E+02  0.00000000000E+00 0.  1.
         13    1    4    4    0    0  0.89727552598E+01 -0.29212691468E+02 -0.20069658770E+01  0.30625472924E+02  0.00000000000E+00 0. -1.
         21    1    1    2  502  501  0.16259386535E+01  0.21445668202E+02  0.84285423953E+02  0.86986165866E+02  0.00000000000E+00 0.  1.
<scales pt_clust_5="13000.00000" pt_clust_6="13000.00000" pt_clust_7="13000.00000" pt_clust_8="13000.00000" pt_clust_9="21.50722"></scales>
<clustering>
<clus scale="   21.507">  1  9  2 -1</clus>
<clus scale="   79.438">  5  6 -1 -1</clus>
<clus scale="   84.792">  7  8 -1 -1</clus>
<clus scale="   96.609">  1  5  2 -1</clus>
<clus scale="  101.057">  2  5  1 -1</clus>
</clustering>
</event>
<event>
 9    2  0.3402837E-005  0.9157795E+02  0.7546771E-02  0.1299382E+00
          2   -1    0    0  502    0  0.00000000000E+00  0.00000000000E+00  0.14485948109E+03  0.14485948109E+03  0.00000000000E+00 0. -1.
         -1   -1    0    0    0  501 -0.00000000000E+00 -0.00000000000E+00 -0.14101337337E+03  0.14101337337E+03  0.00000000000E+00 0.  1.
         23    2    1    2    0    0  0.53403385102E+01 -0.12417330666E+01 -0.92592399786E+01  0.85757225455E+02  0.85079416291E+02 0.  0.
         24    2    1    2    0    0 -0.24982654582E+02 -0.41243928241E+02  0.74206927612E+02  0.12314644643E+03  0.85634014948E+02 0.  0.
        -13    1    4    4    0    0 -0.30419503390E+02  0.18244018895E+02  0.13431245332E+02  0.37928732685E+02  0.00000000000E+00 0.  1.
         14    1    4    4    0    0  0.54368488081E+01 -0.59487947135E+02  0.60775682280E+02  0.85217713745E+02  0.00000000000E+00 0. -1.
        -13    1    3    3    0    0  0.26160567501E+02 -0.33443235509E+02  0.88149584378E+01  0.43365064114E+02  0.00000000000E+00 0. -1.
         13    1    3    3    0    0 -0.20820228991E+02  0.32201502443E+02 -0.18074198416E+02  0.42392161341E+02  0.00000000000E+00 0.  1.
         21    1    1    2  502  501  0.19642316072E+02  0.42485661307E+02 -0.61101579916E+02  0.76969182571E+02  0.00000000000E+00 0.  1.
<scales pt_clust_5="13000.00000" pt_clust_6="13000.00000" pt_clust_7="13000.00000" pt_clust_8="13000.00000" pt_clust_9="46.80654"></scales>
<clustering>
<clus scale="   46.807">  2  9  1 -1</clus>
<clus scale="   85.079">  7  8 -1 -1</clus>
<clus scale="   85.634">  5  6 -1 -1</clus>
<clus scale="   91.060">  2  7  1 -1</clus>
<clus scale="   91.578">  1  5  2 -1</clus>
</clustering>
</event>
<event>
 9    2  0.3402837E-005  0.1486075E+03  0.7546771E-02  0.1213235E+00
          2   -1    0    0  502    0  0.00000000000E+00  0.00000000000E+00  0.11410009015E+03  0.11410009015E+03  0.00000000000E+00 0. -1.
         -1   -1    0    0    0  501 -0.00000000000E+00 -0.00000000000E+00 -0.36189868173E+03  0.36189868173E+03  0.00000000000E+00 0.  1.
         23    2    1    2    0    0 -0.61630153192E+02  0.19913985148E+02 -0.13271656438E+03  0.19345181912E+03  0.12496030278E+03 0.  0.
         24    2    1    2    0    0  0.79448831943E+02 -0.29118186473E+02  0.39613135574E+02  0.12655715816E+03  0.85367019931E+02 0.  0.
        -13    1    4    4    0    0 -0.17180645223E+02 -0.14201094863E+02  0.50601198800E+01  0.22857175652E+02  0.00000000000E+00 0.  1.
         14    1    4    4    0    0  0.96629477166E+02 -0.14917091610E+02  0.34553015694E+02  0.10369998251E+03  0.00000000000E+00 0. -1.
        -11    1    3    3    0    0 -0.68483123476E+02  0.49596687412E+02 -0.13866565468E+03  0.16241284860E+03  0.00000000000E+00 0.  1.
         11    1    3    3    0    0  0.68529702844E+01 -0.29682702263E+02  0.59490902967E+01  0.31038970517E+02  0.00000000000E+00 0. -1.
         21    1    1    2  502  501 -0.17818678752E+02  0.92042013247E+01 -0.15469516277E+03  0.15598979460E+03  0.00000000000E+00 0.  1.
<scales pt_clust_5="13000.00000" pt_clust_6="13000.00000" pt_clust_7="13000.00000" pt_clust_8="13000.00000" pt_clust_9="20.05549"></scales>
<clustering>
<clus scale="   20.055">  2  9  1 -1</clus>
<clus scale="   85.367">  5  6 -1 -1</clus>
<clus scale="  117.289">  1  5  2 -1</clus>
<clus scale="  124.960">  7  8 -1 -1</clus>
<clus scale="  117.289">  1  5  2 -1</clus>
</clustering>
</event>
<event>
 9    2  0.3402837E-005  0.1328854E+03  0.7546771E-02  0.1226074E+00
         -1   -1    0    0    0  501 -0.00000000000E+00  0.00000000000E+00  0.32540392833E+02  0.32540392833E+02  0.00000000000E+00 0.  1.
          2   -1    0    0  502    0  0.00000000000E+00 -0.00000000000E+00 -0.11946355215E+04  0.11946355215E+04  0.00000000000E+00 0. -1.
         23    2    1    2    0    0  0.97010213146E+02 -0.19023196706E+02 -0.21461195893E+03  0.25362719480E+03  0.92171565884E+02 0.  0.
         24    2    1    2    0    0 -0.95184945337E+02 -0.11889239461E+02 -0.92912290331E+03  0.93754858490E+03  0.80786457720E+02 0.  0.
        -13    1    4    4    0    0 -0.18328966733E+02  0.23882620542E+02 -0.10982193112E+03  0.11387355769E+03  0.00000000000E+00 0.  1.
         14    1    4    4    0    0 -0.76855978604E+02 -0.35771860003E+02 -0.81930097219E+03  0.82367502721E+03  0.00000000000E+00 0. -1.
        -13    1    3    3    0    0  0.43871930564E+02 -0.17384824356E+02 -0.18865055317E+03  0.19446338890E+03  0.00000000000E+00 0. -1.
         13    1    3    3    0    0  0.53138282582E+02 -0.16383723503E+01 -0.25961405759E+02  0.59163805901E+02  0.00000000000E+00 0.  1.
         21    1    1    2  502  501 -0.18252678089E+01  0.30912436167E+02 -0.18360266469E+02  0.36000134683E+02  0.00000000000E+00 0.  1.
<scales pt_clust_5="13000.00000" pt_clust_6="13000.00000" pt_clust_7="13000.00000" pt_clust_8="13000.00000" pt_clust_9="30.96628"></scales>
<clustering>
<clus scale="   30.966">  1  9  2 -1</clus>
<clus scale="   80.786">  5  6 -1 -1</clus>
<clus scale="   92.172">  7  8 -1 -1</clus>
<clus scale="  125.257">  2  5  1 -1</clus>
<clus scale="  125.257">  2  5  1 -1</clus>
</clustering>
</event>
<event>
 9    2  0.3402837E-005  0.2716761E+03  0.7546771E-02  0.1100833E+00
          4   -1    0    0  502    0  0.00000000000E+00  0.00000000000E+00  0.30701462689E+03  0.30701462689E+03  0.00000000000E+00 0. -1.
         -3   -1    0    0    0  501 -0.00000000000E+00 -0.00000000000E+00 -0.28394717211E+03  0.28394717211E+03  0.00000000000E+00 0.  1.
         24    2    1    2    0    0  0.80840174542E+02  0.22260603664E+03 -0.49774903446E+02  0.25495469793E+03  0.80223285989E+02 0.  0.
         23    2    1    2    0    0 -0.66780824311E+02 -0.26175679743E+03  0.73083398380E+02  0.29440775613E+03  0.91424527629E+02 0.  0.
        -13    1    3    3    0    0  0.20344483446E+02  0.94274046326E+02  0.17363549282E+02  0.97994829767E+02  0.00000000000E+00 0.  1.
         14    1    3    3    0    0  0.60495691096E+02  0.12833199032E+03 -0.67138452728E+02  0.15695986817E+03  0.00000000000E+00 0. -1.
        -13    1    4    4    0    0  0.21686238298E+02 -0.62199657928E+02  0.65028426633E+01  0.66191973385E+02  0.00000000000E+00 0.  1.
         13    1    4    4    0    0 -0.88467062609E+02 -0.19955713950E+03  0.66580555717E+02  0.22821578274E+03  0.00000000000E+00 0. -1.
         21    1    1    2  502  501 -0.14059350230E+02  0.39150760787E+02 -0.24104016077E+00  0.41599344940E+02  0.00000000000E+00 0. -1.
<scales pt_clust_5="13000.00000" pt_clust_6="13000.00000" pt_clust_7="13000.00000" pt_clust_8="13000.00000" pt_clust_9="41.59865"></scales>
<clustering>
<clus scale="   41.599">  2  9  1 -1</clus>
<clus scale="   80.223">  5  6 -1 -1</clus>
<clus scale="   91.425">  7  8 -1 -1</clus>
<clus scale="  268.114">  2  5  1 -1</clus>
<clus scale="  271.676">  1  5  2 -1</clus>
</clustering>
</event>
<event>
 9    2  0.3402837E-005  0.1821330E+03  0.7546771E-02  0.1168236E+00
          2   -1    0    0  502    0  0.00000000000E+00  0.00000000000E+00  0.32966039543E+03  0.32966039543E+03  0.00000000000E+00 0. -1.
         -1   -1    0    0    0  501 -0.00000000000E+00 -0.00000000000E+00 -0.12214644134E+03  0.12214644134E+03  0.00000000000E+00 0.  1.
         24    2    1    2    0    0 -0.59737124301E+02  0.14175562617E+03  0.15040453413E+02  0.17487836166E+03  0.81811029630E+02 0.  0.
         23    2    1    2    0    0  0.73194070945E+02 -0.12683482272E+03  0.18036885353E+03  0.25347123164E+03  0.10134247713E+03 0.  0.
        -13    1    3    3    0    0 -0.72344776872E+02  0.75504605860E+02 -0.44956121663E+01  0.10466576697E+03  0.00000000000E+00 0.  1.
         14    1    3    3    0    0  0.12607652572E+02  0.66251020306E+02  0.19536065579E+02  0.70212594691E+02  0.00000000000E+00 0. -1.
        -11    1    4    4    0    0  0.29121186084E+02 -0.11765206767E+03  0.85081269517E+02  0.14808401307E+03  0.00000000000E+00 0. -1.
         11    1    4    4    0    0  0.44072884861E+02 -0.91827550493E+01  0.95287584011E+02  0.10538721857E+03  0.00000000000E+00 0.  1.
         21    1    1    2  502  501 -0.13456946644E+02 -0.14920803449E+02  0.12104647144E+02  0.23457243466E+02  0.00000000000E+00 0.  1.
<scales pt_clust_5="13000.00000" pt_clust_6="13000.00000" pt_clust_7="13000.00000" pt_clust_8="13000.00000" pt_clust_9="20.09278"></scales>
<clustering>
<clus scale="   20.093">  1  9  2 -1</clus>
<clus scale="   81.811">  5  6 -1 -1</clus>
<clus scale="  101.342">  7  8 -1 -1</clus>
<clus scale="  172.032">  2  5  1 -1</clus>
<clus scale="   20.093">  1  5  2 -1</clus>
</clustering>
</event>
<event>
 9    2  0.3402837E-005  0.1682459E+03  0.7546771E-02  0.1206182E+00
          2   -1    0    0  502    0  0.00000000000E+00  0.00000000000E+00  0.13898542247E+03  0.13898542247E+03  0.00000000000E+00 0. -1.
         -1   -1    0    0    0  501 -0.00000000000E+00 -0.00000000000E+00 -0.49846669731E+03  0.49846669731E+03  0.00000000000E+00 0.  1.
         23    2    1    2    0    0 -0.84160382573E+02  0.10291515522E+03 -0.33874744139E+03  0.37948448187E+03  0.10762966022E+03 0.  0.
         24    2    1    2    0    0 -0.27435435359E+02 -0.39384874008E+02  0.55003755094E+02  0.10888408574E+03  0.80786506541E+02 0.  0.
        -11    1    4    4    0    0 -0.47866348506E+02 -0.50618930890E+02  0.34078004083E+02  0.77554973058E+02  0.00000000000E+00 0.  1.
         12    1    4    4    0    0  0.20430913147E+02  0.11234056882E+02  0.20925751012E+02  0.31329112682E+02  0.00000000000E+00 0. -1.
        -13    1    3    3    0    0 -0.24837143596E+01  0.24535441825E+02 -0.26112344792E+01  0.24798695290E+02  0.00000000000E+00 0. -1.
         13    1    3    3    0    0 -0.81676668214E+02  0.78379713397E+02 -0.33613620691E+03  0.35468578658E+03  0.00000000000E+00 0.  1.
         21    1    1    2  502  501  0.11159581793E+03 -0.63530281214E+02 -0.75737588542E+02  0.14908355218E+03  0.00000000000E+00 0. -1.
<scales pt_clust_5="13000.00000" pt_clust_6="13000.00000" pt_clust_7="13000.00000" pt_clust_8="13000.00000" pt_clust_9="129.31561"></scales>
<clustering>
<clus scale="   80.787">  5  6 -1 -1</clus>
<clus scale="   93.970">  1  5  2 -1</clus>
<clus scale="  107.630">  7  8 -1 -1</clus>
<clus scale="  129.316">  1  9  2 -1</clus>
<clus scale="   93.970">  1  5  2 -1</clus>
</clustering>
</event>
<event>
 9    2  0.3402837E-005  0.1739634E+03  0.7546771E-02  0.1174281E+00
         -1   -1    0    0    0  501 -0.00000000000E+00  0.00000000000E+00  0.58196869473E+02  0.58196869473E+02  0.00000000000E+00 0.  1.
          2   -1    0    0  502    0  0.00000000000E+00 -0.00000000000E+00 -0.71977761327E+03  0.71977761327E+03  0.00000000000E+00 0. -1.
         23    2    1    2    0    0 -0.10699700293E+03 -0.85253910122E+02 -0.26410624941E+03  0.31090138399E+03  0.90503987545E+02 0.  0.
         24    2    1    2    0    0  0.12121648260E+03  0.10167558085E+03 -0.40558365267E+03  0.44388639309E+03  0.86635277279E+02 0.  0.
        -13    1    4    4    0    0  0.10825903125E+03  0.11531328510E+03 -0.32927675477E+03  0.36529488471E+03  0.00000000000E+00 0.  1.
         14    1    4    4    0    0  0.12957451354E+02 -0.13637704250E+02 -0.76306897900E+02  0.78591508383E+02  0.00000000000E+00 0. -1.
        -13    1    3    3    0    0 -0.20151675234E+02  0.11506478019E+02 -0.96101861755E+01  0.25116622573E+02  0.00000000000E+00 0.  1.
         13    1    3    3    0    0 -0.86845327700E+02 -0.96760388141E+02 -0.25449606323E+03  0.28578476141E+03  0.00000000000E+00 0. -1.
         21    1    1    2  502  501 -0.14219479666E+02 -0.16421670725E+02  0.81091582784E+01  0.23186705660E+02  0.00000000000E+00 0. -1.
<scales pt_clust_5="13000.00000" pt_clust_6="13000.00000" pt_clust_7="13000.00000" pt_clust_8="13000.00000" pt_clust_9="21.72245"></scales>
<clustering>
<clus scale="   21.722">  1  9  2 -1</clus>
<clus scale="   86.635">  5  6 -1 -1</clus>
<clus scale="   90.504">  7  8 -1 -1</clus>
<clus scale="  171.982">  2  5  1 -1</clus>
<clus scale="  171.982">  2  5  1 -1</clus>
</clustering>
</event>
<event>
 9    2  0.3402837E-005  0.1109738E+03  0.7546771E-02  0.1268881E+00
         -1   -1    0    0    0  501 -0.00000000000E+00  0.00000000000E+00  0.98874058183E+02  0.98874058183E+02  0.00000000000E+00 0.  1.
          2   -1    0    0  502    0  0.00000000000E+00 -0.00000000000E+00 -0.70625700726E+03  0.70625700726E+03  0.00000000000E+00 0. -1.
         24    2    1    2    0    0 -0.56208222674E+00 -0.45242774590E+02  0.56556178901E+02  0.10722582149E+03  0.79066749221E+02 0.  0.
         23    2    1    2    0    0 -0.44070387463E+02 -0.43977589000E+02 -0.45183072976E+03  0.46350749819E+03  0.82534629889E+02 0.  0.
        -13    1    3    3    0    0 -0.97055700444E+01 -0.50913678448E+02  0.22662627762E+01  0.51880022070E+02  0.00000000000E+00 0.  1.
         14    1    3    3    0    0  0.91434878177E+01  0.56709038586E+01  0.54289916125E+02  0.55345799415E+02  0.00000000000E+00 0. -1.
        -13    1    4    4    0    0  0.20344327024E+02 -0.31503103176E+02 -0.14851010808E+03  0.15317176422E+03  0.00000000000E+00 0.  1.
         13    1    4    4    0    0 -0.64414714487E+02 -0.12474485824E+02 -0.30332062168E+03  0.31033573397E+03  0.00000000000E+00 0. -1.
         21    1    1    2  502  501  0.44632469690E+02  0.89220363590E+02 -0.21210839822E+03  0.23439774577E+03  0.00000000000E+00 0. -1.
<scales pt_clust_5="13000.00000" pt_clust_6="13000.00000" pt_clust_7="13000.00000" pt_clust_8="13000.00000" pt_clust_9="74.18362"></scales>
<clustering>
<clus scale="   79.067">  5  6 -1 -1</clus>
<clus scale="   82.535">  7  8 -1 -1</clus>
<clus scale="   91.098">  1  5  2 -1</clus>
<clus scale="   74.184">  1  9  2 -1</clus>
<clus scale="  110.974">  2  5  1 -1</clus>
</clustering>
</event>
<event>
 9    2  0.3402837E-005  0.1529665E+03  0.7546771E-02  0.1199142E+00
         -1   -1    0    0    0  501 -0.00000000000E+00  0.00000000000E+00  0.58393752401E+02  0.58393752401E+02  0.00000000000E+00 0.  1.
          2   -1    0    0  502    0  0.00000000000E+00 -0.00000000000E+00 -0.13299806896E+04  0.13299806896E+04  0.00000000000E+00 0. -1.
         23    2    1    2    0    0 -0.12086412691E+03 -0.27999526594E+02 -0.60300694338E+02  0.16564738751E+03  0.91710264354E+02 0.  0.
         24    2    1    2    0    0  0.10484657936E+03  0.14959385842E+02 -0.11592513442E+04  0.11667427909E+04  0.78793860587E+02 0.  0.
        -13    1    4    4    0    0  0.22665003794E+02 -0.15139005683E+02 -0.93167601704E+02  0.97072621770E+02  0.00000000000E+00 0.  1.
         14    1    4    4    0    0  0.82181575567E+02  0.30098391524E+02 -0.10660837425E+04  0.10696701691E+04  0.00000000000E+00 0. -1.
        -13    1    3    3    0    0 -0.43807978798E+02 -0.32897587340E+02 -0.68824055976E+02  0.87966703588E+02  0.00000000000E+00 0. -1.
         13    1    3    3    0    0 -0.77056148111E+02  0.48980607457E+01  0.85233616381E+01  0.77680683921E+02  0.00000000000E+00 0.  1.
         21    1    1    2  502  501  0.16017547547E+02  0.13040140753E+02 -0.52034898612E+02  0.55984263627E+02  0.00000000000E+00 0.  1.
<scales pt_clust_5="13000.00000" pt_clust_6="13000.00000" pt_clust_7="13000.00000" pt_clust_8="13000.00000" pt_clust_9="20.65447"></scales>
<clustering>
<clus scale="   20.654">  2  9  1 -1</clus>
<clus scale="   78.794">  5  6 -1 -1</clus>
<clus scale="   91.710">  7  8 -1 -1</clus>
<clus scale="  145.590">  2  5  1 -1</clus>
<clus scale="   20.654">  2  5  1 -1</clus>
</clustering>
</event>
<event>
 9    2  0.3402837E-005  0.2543799E+03  0.7546771E-02  0.1111168E+00
          2   -1    0    0  502    0  0.00000000000E+00  0.00000000000E+00  0.84948470202E+03  0.84948470202E+03  0.00000000000E+00 0. -1.
         -1   -1    0    0    0  501 -0.00000000000E+00 -0.00000000000E+00 -0.22272001591E+03  0.22272001591E+03  0.00000000000E+00 0.  1.
         23    2    1    2    0    0  0.15587766193E+03  0.13878134318E+03  0.39947235562E+02  0.23161937320E+03  0.92160977162E+02 0.  0.
         24    2    1    2    0    0 -0.26664048517E+03  0.55219494557E+02  0.54317050528E+03  0.61296771824E+03  0.80925180785E+02 0.  0.
        -13    1    4    4    0    0 -0.86165310104E+02  0.10530482814E+01  0.10387048627E+03  0.13496165194E+03  0.00000000000E+00 0.  1.
         14    1    4    4    0    0 -0.18047517507E+03  0.54166446275E+02  0.43930001901E+03  0.47800606630E+03  0.00000000000E+00 0. -1.
        -11    1    3    3    0    0  0.12286344808E+03  0.53833632969E+02  0.41677833443E+02  0.14046540042E+03  0.00000000000E+00 0. -1.
         11    1    3    3    0    0  0.33014213842E+02  0.84947710210E+02 -0.17305978804E+01  0.91153972785E+02  0.00000000000E+00 0.  1.
         21    1    1    2  502  501  0.11076282324E+03 -0.19400083774E+03  0.43646945263E+02  0.22761762648E+03  0.00000000000E+00 0. -1.
<scales pt_clust_5="13000.00000" pt_clust_6="13000.00000" pt_clust_7="13000.00000" pt_clust_8="13000.00000" pt_clust_9="223.39366"></scales>
<clustering>
<clus scale="   80.925">  5  6 -1 -1</clus>
<clus scale="   92.161">  7  8 -1 -1</clus>
<clus scale="  223.394">  2  9  1 -1</clus>
<clus scale="  250.528">  1  5  2 -1</clus>
<clus scale="  250.528">  1  5  2 -1</clus>
</clustering>
</event>
<event>
 9    2  0.3402837E-005  0.1903256E+03  0.7546771E-02  0.1195773E+00
          2   -1    0    0  502    0  0.00000000000E+00  0.00000000000E+00  0.30550336141E+03  0.30550336141E+03  0.00000000000E+00 0. -1.
         -1   -1    0    0    0  501 -0.00000000000E+00 -0.00000000000E+00 -0.46090075186E+03  0.46090075186E+03  0.00000000000E+00 0.  1.
         23    2    1    2    0    0  0.11207643395E+03 -0.12668561670E+03 -0.35598891252E+03  0.40158582952E+03  0.77024022952E+02 0.  0.
         24    2    1    2    0    0  0.15387363533E+02 -0.55184175932E+02  0.39326577712E+02  0.90355128802E+02  0.57752968379E+02 0.  0.
        -13    1    4    4    0    0  0.18017474228E+02 -0.47520176343E+02  0.63599954627E+00  0.50825200764E+02  0.00000000000E+00 0.  1.
         14    1    4    4    0    0 -0.26301106950E+01 -0.76639995887E+01  0.38690578165E+02  0.39529928038E+02  0.00000000000E+00 0. -1.
        -13    1    3    3    0    0  0.14864554230E+02 -0.72116753577E+02 -0.12431629222E+03  0.14448640639E+03  0.00000000000E+00 0. -1.
         13    1    3    3    0    0  0.97211879720E+02 -0.54568863120E+02 -0.23167262030E+03  0.25709942313E+03  0.00000000000E+00 0.  1.
         21    1    1    2  502  501 -0.12746379748E+03  0.18186979263E+03  0.16126494436E+03  0.27446315494E+03  0.00000000000E+00 0. -1.
<scales pt_clust_5="13000.00000" pt_clust_6="13000.00000" pt_clust_7="13000.00000" pt_clust_8="13000.00000" pt_clust_9="174.04344"></scales>
<clustering>
<clus scale="   57.753">  5  6 -1 -1</clus>
<clus scale="   77.024">  7  8 -1 -1</clus>
<clus scale="   81.348">  1  5  2 -1</clus>
<clus scale="  174.043">  1  9  2 -1</clus>
<clus scale="   81.348">  1  5  2 -1</clus>
</clustering>
</event>
<event>
 9    2  0.3402837E-005  0.9455801E+02  0.7546771E-02  0.1299909E+00
          2   -1    0    0  502    0  0.00000000000E+00  0.00000000000E+00  0.47101523859E+02  0.47101523859E+02  0.00000000000E+00 0. -1.
         -1   -1    0    0    0  501 -0.00000000000E+00 -0.00000000000E+00 -0.45848606238E+03  0.45848606238E+03  0.00000000000E+00 0.  1.
         23    2    1    2    0    0 -0.22210175125E+01 -0.20812592424E+02 -0.31031608979E+03  0.32464089751E+03  0.93045901723E+02 0.  0.
         24    2    1    2    0    0  0.18747710517E+02 -0.55283998413E+00 -0.64932815292E+01  0.82589810304E+02  0.80169394281E+02 0.  0.
        -13    1    4    4    0    0 -0.25758126001E+02  0.16948436348E+02 -0.14546920384E+02  0.34093158293E+02  0.00000000000E+00 0.  1.
         14    1    4    4    0    0  0.44505836519E+02 -0.17501276332E+02  0.80536388545E+01  0.48496652011E+02  0.00000000000E+00 0. -1.
        -13    1    3    3    0    0 -0.39081181861E+02 -0.24319510402E+02 -0.24733784927E+03  0.25158455645E+03  0.00000000000E+00 0.  1.
         13    1    3    3    0    0  0.36860164349E+02  0.35069179784E+01 -0.62978240525E+02  0.73056341061E+02  0.00000000000E+00 0. -1.
         21    1    1    2  502  501 -0.16526693005E+02  0.21365432408E+02 -0.94575167204E+02  0.98356878434E+02  0.00000000000E+00 0.  1.
<scales pt_clust_5="13000.00000" pt_clust_6="13000.00000" pt_clust_7="13000.00000" pt_clust_8="13000.00000" pt_clust_9="27.01135"></scales>
<clustering>
<clus scale="   27.011">  2  9  1 -1</clus>
<clus scale="   80.169">  5  6 -1 -1</clus>
<clus scale="   81.920">  1  5  2 -1</clus>
<clus scale="   93.046">  7  8 -1 -1</clus>
<clus scale="   81.920">  1  5  2 -1</clus>
</clustering>
</event>
<event>
 9    2  0.3402837E-005  0.1084953E+03  0.7546771E-02  0.1268896E+00
         -1   -1    0    0    0  501 -0.00000000000E+00  0.00000000000E+00  0.79757033322E+02  0.79757033322E+02  0.00000000000E+00 0.  1.
          2   -1    0    0  502    0  0.00000000000E+00 -0.00000000000E+00 -0.12052729713E+04  0.12052729713E+04  0.00000000000E+00 0. -1.
         23    2    1    2    0    0  0.38591152053E+02  0.18352693795E+02 -0.25794784755E+03  0.27707132244E+03  0.91680571954E+02 0.  0.
         24    2    1    2    0    0 -0.60966871159E+02  0.25753964249E+02 -0.92585594555E+03  0.93151560435E+03  0.78306214178E+02 0.  0.
        -11    1    4    4    0    0 -0.25857025324E+02  0.42591004086E+02 -0.27370033256E+03  0.27819858273E+03  0.00000000000E+00 0.  1.
         12    1    4    4    0    0 -0.35109845835E+02 -0.16837039837E+02 -0.65215561298E+03  0.65331702162E+03  0.00000000000E+00 0. -1.
        -13    1    3    3    0    0  0.28981233114E+02 -0.33458190693E+02 -0.79342352396E+02  0.90854671212E+02  0.00000000000E+00 0.  1.
         13    1    3    3    0    0  0.96099189386E+01  0.51810884488E+02 -0.17860549516E+03  0.18621665123E+03  0.00000000000E+00 0. -1.
         21    1    1    2  502  501  0.22375719106E+02 -0.44106658044E+02  0.58287855142E+02  0.76443077819E+02  0.00000000000E+00 0.  1.
<scales pt_clust_5="13000.00000" pt_clust_6="13000.00000" pt_clust_7="13000.00000" pt_clust_8="13000.00000" pt_clust_9="49.45776"></scales>
<clustering>
<clus scale="   49.458">  1  9  2 -1</clus>
<clus scale="   78.306">  5  6 -1 -1</clus>
<clus scale="   91.681">  7  8 -1 -1</clus>
<clus scale="   97.457">  2  5  1 -1</clus>
<clus scale="   97.457">  2  5  1 -1</clus>
</clustering>
</event>
<event>
 9    2  0.3402837E-005  0.2086725E+03  0.7546771E-02  0.1179525E+00
          2   -1    0    0  502    0  0.00000000000E+00  0.00000000000E+00  0.93967835731E+03  0.93967835731E+03  0.00000000000E+00 0. -1.
         -1   -1    0    0    0  501 -0.00000000000E+00 -0.00000000000E+00 -0.75534319904E+02  0.75534319904E+02  0.00000000000E+00 0.  1.
         24    2    1    2    0    0 -0.10938320075E+01  0.32665353829E+02  0.10328171500E+03  0.13601829072E+03  0.82253516321E+02 0.  0.
         23    2    1    2    0    0 -0.78168458176E+01  0.17768824891E+03  0.53185265493E+03  0.56811004719E+03  0.90816090432E+02 0.  0.
        -11    1    3    3    0    0 -0.91801971794E+00  0.35074476040E+02  0.24653530497E+01  0.35172995257E+02  0.00000000000E+00 0.  1.
         12    1    3    3    0    0 -0.17581228951E+00 -0.24091222107E+01  0.10081636195E+03  0.10084529546E+03  0.00000000000E+00 0. -1.
        -11    1    4    4    0    0 -0.33959776751E+02  0.89370818259E+02  0.36724753876E+03  0.37948802922E+03  0.00000000000E+00 0.  1.
         11    1    4    4    0    0  0.26142930934E+02  0.88317430650E+02  0.16460511617E+03  0.18862201797E+03  0.00000000000E+00 0. -1.
         21    1    1    2  502  501  0.89106778250E+01 -0.21035360274E+03  0.22900966747E+03  0.31108433931E+03  0.00000000000E+00 0. -1.
<scales pt_clust_5="13000.00000" pt_clust_6="13000.00000" pt_clust_7="13000.00000" pt_clust_8="13000.00000" pt_clust_9="187.87398"></scales>
<clustering>
<clus scale="   82.254">  5  6 -1 -1</clus>
<clus scale="   88.509">  2  5  1 -1</clus>
<clus scale="   90.816">  7  8 -1 -1</clus>
<clus scale="  187.874">  2  9  1 -1</clus>
<clus scale="  208.672">  1  5  2 -1</clus>
</clustering>
</event>
<event>
 9    2  0.3402837E-005  0.9346339E+02  0.7546771E-02  0.1300726E+00
          2   -1    0    0  502    0  0.00000000000E+00  0.00000000000E+00  0.35163863297E+02  0.35163863297E+02  0.00000000000E+00 0. -1.
         -1   -1    0    0    0  501 -0.00000000000E+00 -0.00000000000E+00 -0.56684473472E+03  0.56684473472E+03  0.00000000000E+00 0.  1.
         23    2    1    2    0    0 -0.21347279053E+02  0.16194513783E+02 -0.23452807612E+03  0.25387451881E+03  0.93439200619E+02 0.  0.
         24    2    1    2    0    0 -0.36134328487E+01  0.40013093750E+01 -0.47145586715E+02  0.96073545293E+02  0.83536533234E+02 0.  0.
        -11    1    4    4    0    0 -0.90507281830E+01 -0.37172763845E+02 -0.81775857081E+01  0.39122921165E+02  0.00000000000E+00 0.  1.
         12    1    4    4    0    0  0.54372953343E+01  0.41174073219E+02 -0.38968001007E+02  0.56950624127E+02  0.00000000000E+00 0. -1.
        -13    1    3    3    0    0 -0.54387589270E+02  0.57307313356E+01 -0.18840283644E+03  0.19617971334E+03  0.00000000000E+00 0.  1.
         13    1    3    3    0    0  0.33040310217E+02  0.10463782447E+02 -0.46125239679E+02  0.57694805466E+02  0.00000000000E+00 0. -1.
         21    1    1    2  502  501  0.24960711902E+02 -0.20195823158E+02 -0.25000720859E+03  0.25206053392E+03  0.00000000000E+00 0. -1.
<scales pt_clust_5="13000.00000" pt_clust_6="13000.00000" pt_clust_7="13000.00000" pt_clust_8="13000.00000" pt_clust_9="32.10776"></scales>
<clustering>
<clus scale="   32.108">  2  9  1 -1</clus>
<clus scale="   83.537">  5  6 -1 -1</clus>
<clus scale="   83.564">  1  5  2 -1</clus>
<clus scale="   93.439">  7  8 -1 -1</clus>
<clus scale="   83.564">  1  5  2 -1</clus>
</clustering>
</event>
<event>
 9    2  0.3402837E-005  0.1220747E+03  0.7546771E-02  0.1253473E+00
         -1   -1    0    0    0  501 -0.00000000000E+00  0.00000000000E+00  0.26044747429E+02  0.26044747429E+02  0.00000000000E+00 0.  1.
          2   -1    0    0  502    0  0.00000000000E+00 -0.00000000000E+00 -0.10972942195E+04  0.10972942195E+04  0.00000000000E+00 0. -1.
         23    2    1    2    0    0 -0.22471971946E+01  0.10581958485E+02 -0.17952011459E+03  0.21253217080E+03  0.11324939002E+03 0.  0.
         24    2    1    2    0    0  0.12384084800E+02  0.55559061789E+02 -0.71603312297E+03  0.72279999340E+03  0.80599146188E+02 0.  0.
        -13    1    4    4    0    0 -0.13348872059E+02  0.44482135316E+02 -0.17548690459E+03  0.18152825243E+03  0.00000000000E+00 0.  1.
         14    1    4    4    0    0  0.25732956859E+02  0.11076926473E+02 -0.54054621838E+03  0.54127174097E+03  0.00000000000E+00 0. -1.
        -13    1    3    3    0    0 -0.57401934584E+02  0.57599544183E+01 -0.79735339067E+02  0.98416886076E+02  0.00000000000E+00 0. -1.
         13    1    3    3    0    0  0.55154737389E+02  0.48220040668E+01 -0.99784775527E+02  0.11411528472E+03  0.00000000000E+00 0.  1.
         21    1    1    2  502  501 -0.10136887606E+02 -0.66141020274E+02 -0.17569623448E+03  0.18800680270E+03  0.00000000000E+00 0.  1.
<scales pt_clust_5="13000.00000" pt_clust_6="13000.00000" pt_clust_7="13000.00000" pt_clust_8="13000.00000" pt_clust_9="66.91331"></scales>
<clustering>
<clus scale="   66.913">  1  9  2 -1</clus>
<clus scale="   80.599">  5  6 -1 -1</clus>
<clus scale="   92.591">  2  5  1 -1</clus>
<clus scale="  113.249">  7  8 -1 -1</clus>
<clus scale="   92.591">  2  5  1 -1</clus>
</clustering>
</event>
<event>
 9    2  0.3402837E-005  0.1573505E+03  0.7546771E-02  0.1194102E+00
         -1   -1    0    0    0  501 -0.00000000000E+00  0.00000000000E+00  0.58885278662E+02  0.58885278662E+02  0.00000000000E+00 0.  1.
          2   -1    0    0  502    0  0.00000000000E+00 -0.00000000000E+00 -0.60774089738E+03  0.60774089738E+03  0.00000000000E+00 0. -1.
         23    2    1    2    0    0 -0.34350629045E+02  0.12717346780E+03 -0.14779484856E+03  0.21667174403E+03  0.88035622168E+02 0.  0.
         24    2    1    2    0    0  0.14816275030E+02 -0.11536630968E+03 -0.39817498338E+03  0.42694730845E+03  0.10105334921E+03 0.  0.
        -11    1    4    4    0    0 -0.28621690171E+02 -0.53981162973E+02 -0.83835515882E+02  0.10373794305E+03  0.00000000000E+00 0.  1.
         12    1    4    4    0    0  0.43437965201E+02 -0.61385146710E+02 -0.31433946750E+03  0.32320936540E+03  0.00000000000E+00 0. -1.
        -11    1    3    3    0    0  0.19420080473E+02  0.47405239338E+02 -0.92432766237E+02  0.10567976399E+03  0.00000000000E+00 0. -1.
         11    1    3    3    0    0 -0.53770709518E+02  0.79768228459E+02 -0.55362082325E+02  0.11099198004E+03  0.00000000000E+00 0.  1.
         21    1    1    2  502  501  0.19534354015E+02 -0.11807158114E+02 -0.28857867764E+01  0.23007123567E+02  0.00000000000E+00 0. -1.
<scales pt_clust_5="13000.00000" pt_clust_6="13000.00000" pt_clust_7="13000.00000" pt_clust_8="13000.00000" pt_clust_9="22.82542"></scales>
<clustering>
<clus scale="   22.825">  1  9  2 -1</clus>
<clus scale="   88.036">  7  8 -1 -1</clus>
<clus scale="  101.053">  5  6 -1 -1</clus>
<clus scale="  149.324">  1  7  2 -1</clus>
<clus scale="  157.351">  2  5  1 -1</clus>
</clustering>
</event>
<event>
 9    2  0.3402837E-005  0.1166758E+03  0.7546771E-02  0.1253182E+00
          2   -1    0    0  502    0  0.00000000000E+00  0.00000000000E+00  0.30224511193E+02  0.30224511193E+02  0.00000000000E+00 0. -1.
         -1   -1    0    0    0  501 -0.00000000000E+00 -0.00000000000E+00 -0.62524553610E+03  0.62524553610E+03  0.00000000000E+00 0.  1.
         23    2    1    2    0    0 -0.59439677572E+02 -0.20091697346E+01 -0.33808144842E+03  0.35542583173E+03  0.92148489229E+02 0.  0.
         24    2    1    2    0    0  0.76320533703E+02 -0.95647335415E+01 -0.12582670686E+03  0.16734341253E+03  0.79089503517E+02 0.  0.
        -13    1    4    4    0    0  0.13143604019E+02 -0.19630832636E+02  0.26970236124E+01  0.23778096075E+02  0.00000000000E+00 0.  1.
         14    1    4    4    0    0  0.63176929684E+02  0.10066099094E+02 -0.12852373047E+03  0.14356531646E+03  0.00000000000E+00 0. -1.
        -11    1    3    3    0    0 -0.60284024543E+02  0.36570111698E+02 -0.23539340013E+03  0.24572665609E+03  0.00000000000E+00 0.  1.
         11    1    3    3    0    0  0.84434697151E+00 -0.38579281432E+02 -0.10268804828E+03  0.10969917565E+03  0.00000000000E+00 0. -1.
         21    1    1    2  502  501 -0.16880856131E+02  0.11573903276E+02 -0.13111286963E+03  0.13270080303E+03  0.00000000000E+00 0. -1.
<scales pt_clust_5="13000.00000" pt_clust_6="13000.00000" pt_clust_7="13000.00000" pt_clust_8="13000.00000" pt_clust_9="20.46750"></scales>
<clustering>
<clus scale="   20.467">  2  9  1 -1</clus>
<clus scale="   79.090">  5  6 -1 -1</clus>
<clus scale="   92.148">  7  8 -1 -1</clus>
<clus scale="  106.663">  1  5  2 -1</clus>
<clus scale="  106.663">  1  5  2 -1</clus>
</clustering>
</event>
<event>
 9    2  0.3402837E-005  0.9331983E+02  0.7546771E-02  0.1304715E+00
          2   -1    0    0  502    0  0.00000000000E+00  0.00000000000E+00  0.64951001034E+02  0.64951001034E+02  0.00000000000E+00 0. -1.
         -1   -1    0    0    0  501 -0.00000000000E+00 -0.00000000000E+00 -0.34390884542E+03  0.34390884542E+03  0.00000000000E+00 0.  1.
         23    2    1    2    0    0 -0.69320121456E+01  0.30787355866E+02 -0.18501561843E+03  0.20887806257E+03  0.91669798093E+02 0.  0.
         24    2    1    2    0    0  0.19004828201E+02  0.27484197182E+01  0.19714265183E+02  0.80867556744E+02  0.76040595580E+02 0.  0.
        -13    1    4    4    0    0  0.23131335286E+02  0.32819061140E+02 -0.66074768245E+01  0.40691623170E+02  0.00000000000E+00 0.  1.
         14    1    4    4    0    0 -0.41265070852E+01 -0.30070641422E+02  0.26321742007E+02  0.40175933574E+02  0.00000000000E+00 0. -1.
        -13    1    3    3    0    0 -0.43559993392E+02  0.36143464563E+02 -0.83975838700E+02  0.10127074869E+03  0.00000000000E+00 0.  1.
         13    1    3    3    0    0  0.36627981246E+02 -0.53561086965E+01 -0.10103977973E+03  0.10760731387E+03  0.00000000000E+00 0. -1.
         21    1    1    2  502  501 -0.12072816055E+02 -0.33535775585E+02 -0.11365649113E+03  0.11911422714E+03  0.00000000000E+00 0.  1.
<scales pt_clust_5="13000.00000" pt_clust_6="13000.00000" pt_clust_7="13000.00000" pt_clust_8="13000.00000" pt_clust_9="35.64269"></scales>
<clustering>
<clus scale="   35.643">  2  9  1 -1</clus>
<clus scale="   76.041">  5  6 -1 -1</clus>
<clus scale="   78.022">  1  5  2 -1</clus>
<clus scale="   91.670">  7  8 -1 -1</clus>
<clus scale="   78.022">  1  5  2 -1</clus>
</clustering>
</event>
<event>
 9    2  0.3402837E-005  0.2106888E+03  0.7546771E-02  0.1142022E+00
         -1   -1    0    0    0  501 -0.00000000000E+00  0.00000000000E+00  0.23360892480E+03  0.23360892480E+03  0.00000000000E+00 0.  1.
          2   -1    0    0  502    0  0.00000000000E+00 -0.00000000000E+00 -0.64361595667E+03  0.64361595667E+03  0.00000000000E+00 0. -1.
         24    2    1    2    0    0 -0.15800620202E+03  0.18272000667E+03 -0.19774018276E+03  0.32218207513E+03  0.79671506460E+02 0.  0.
         23    2    1    2    0    0  0.79554153584E+02 -0.15045942440E+03 -0.34617320937E+03  0.39652977094E+03  0.91831729869E+02 0.  0.
        -11    1    3    3    0    0 -0.78180346104E+02  0.11578230937E+03 -0.66797216441E+02  0.15485340747E+03  0.00000000000E+00 0.  1.
         12    1    3    3    0    0 -0.79825855914E+02  0.66937697301E+02 -0.13094296632E+03  0.16732866766E+03  0.00000000000E+00 0. -1.
        -11    1    4    4    0    0 -0.19433104097E+02 -0.35524420348E+02 -0.56053526642E+02  0.69149315433E+02  0.00000000000E+00 0.  1.
         11    1    4    4    0    0  0.98987257680E+02 -0.11493500405E+03 -0.29011968273E+03  0.32738045550E+03  0.00000000000E+00 0. -1.
         21    1    1    2  502  501  0.78452048435E+02 -0.32260582275E+02  0.13390636027E+03  0.15851303540E+03  0.00000000000E+00 0.  1.
<scales pt_clust_5="13000.00000" pt_clust_6="13000.00000" pt_clust_7="13000.00000" pt_clust_8="13000.00000" pt_clust_9="84.82611"></scales>
<clustering>
<clus scale="   79.672">  5  6 -1 -1</clus>
<clus scale="   84.826">  1  9  2 -1</clus>
<clus scale="   91.832">  7  8 -1 -1</clus>
<clus scale="  205.680">  1  5  2 -1</clus>
<clus scale="  210.689">  2  5  1 -1</clus>
</clustering>
</event>
<event>
 9    2  0.3402837E-005  0.8663712E+02  0.7546771E-02  0.1313903E+00
         -1   -1    0    0    0  501 -0.00000000000E+00  0.00000000000E+00  0.20763430375E+02  0.20763430375E+02  0.00000000000E+00 0.  1.
          2   -1    0    0  502    0  0.00000000000E+00 -0.00000000000E+00 -0.10070348712E+04  0.10070348712E+04  0.00000000000E+00 0. -1.
         23    2    1    2    0    0  0.35182301242E+02 -0.32918831005E+02 -0.99479777627E+02  0.13318275856E+03  0.74296549492E+02 0.  0.
         24    2    1    2    0    0 -0.32202036990E+02  0.12771506199E+02 -0.82653601288E+03  0.83101098289E+03  0.78850431520E+02 0.  0.
        -13    1    4    4    0    0  0.14808876782E+02  0.19966147963E+02 -0.10472487729E+03  0.10763479836E+03  0.00000000000E+00 0.  1.
         14    1    4    4    0    0 -0.47010913772E+02 -0.71946417642E+01 -0.72181113559E+03  0.72337618453E+03  0.00000000000E+00 0. -1.
        -13    1    3    3    0    0  0.58514840768E+02 -0.26874518390E+02 -0.70211572502E+02  0.95267472109E+02  0.00000000000E+00 0.  1.
         13    1    3    3    0    0 -0.23332539526E+02 -0.60443126145E+01 -0.29268205125E+02  0.37915286454E+02  0.00000000000E+00 0. -1.
         21    1    1    2  502  501 -0.29802642522E+01  0.20147324806E+02 -0.60255650283E+02  0.63604560079E+02  0.00000000000E+00 0. -1.
<scales pt_clust_5="13000.00000" pt_clust_6="13000.00000" pt_clust_7="13000.00000" pt_clust_8="13000.00000" pt_clust_9="20.36656"></scales>
<clustering>
<clus scale="   20.367">  1  9  2 -1</clus>
<clus scale="   74.297">  7  8 -1 -1</clus>
<clus scale="   78.850">  5  6 -1 -1</clus>
<clus scale="   82.514">  1  7  2 -1</clus>
<clus scale="   86.637">  2  5  1 -1</clus>
</clustering>
</event>
<event>
 9    2  0.3402837E-005  0.1522179E+03  0.7546771E-02  0.1199532E+00
         -1   -1    0    0    0  501 -0.00000000000E+00  0.00000000000E+00  0.49375135804E+03  0.49375135804E+03  0.00000000000E+00 0.  1.
          2   -1    0    0  502    0  0.00000000000E+00 -0.00000000000E+00 -0.11541133576E+03  0.11541133576E+03  0.00000000000E+00 0. -1.
         24    2    1    2    0    0 -0.11752926819E+03  0.61188046209E+02  0.21033098340E+03  0.26158661712E+03  0.81432977323E+02 0.  0.
         23    2    1    2    0    0  0.95397996270E+02 -0.71591699289E+02 -0.25640392529E+02  0.15238865015E+03  0.91316602357E+02 0.  0.
        -11    1    3    3    0    0 -0.93950620243E+02  0.57003377333E+01  0.11263228618E+03  0.14678298533E+03  0.00000000000E+00 0.  1.
         12    1    3    3    0    0 -0.23578647947E+02  0.55487708475E+02  0.97698697229E+02  0.11480363178E+03  0.00000000000E+00 0. -1.
        -13    1    4    4    0    0  0.41718888526E+02 -0.37104510876E+02  0.33734852276E+02  0.65232282233E+02  0.00000000000E+00 0.  1.
         13    1    4    4    0    0  0.53679107744E+02 -0.34487188412E+02 -0.59375244805E+02  0.87156367917E+02  0.00000000000E+00 0. -1.
         21    1    1    2  502  501  0.22131271919E+02  0.10403653080E+02  0.19364943140E+03  0.19518742653E+03  0.00000000000E+00 0.  1.
<scales pt_clust_5="13000.00000" pt_clust_6="13000.00000" pt_clust_7="13000.00000" pt_clust_8="13000.00000" pt_clust_9="24.45464"></scales>
<clustering>
<clus scale="   24.455">  1  9  2 -1</clus>
<clus scale="   81.433">  5  6 -1 -1</clus>
<clus scale="   91.317">  7  8 -1 -1</clus>
<clus scale="  146.502">  1  5  2 -1</clus>
<clus scale="  152.218">  2  5  1 -1</clus>
</clustering>
</event>
<event>
 9    2  0.3402837E-005  0.1268591E+03  0.7546771E-02  0.1236770E+00
         -1   -1    0    0    0  501 -0.00000000000E+00  0.00000000000E+00  0.57967573212E+02  0.57967573212E+02  0.00000000000E+00 0.  1.
          2   -1    0    0  502    0  0.00000000000E+00 -0.00000000000E+00 -0.20497927642E+04  0.20497927642E+04  0.00000000000E+00 0. -1.
         23    2    1    2    0    0  0.12751926405E+03 -0.57423853684E+02 -0.10777526933E+03  0.20099712579E+03  0.96050373357E+02 0.  0.
         24    2    1    2    0    0 -0.51220617299E+02  0.62927336179E+02 -0.17392461830E+04  0.17429954048E+04  0.80450574116E+02 0.  0.
        -13    1    4    4    0    0 -0.12117336067E+00  0.20528479617E+02 -0.85995172318E+02  0.88411553659E+02  0.00000000000E+00 0.  1.
         14    1    4    4    0    0 -0.51099443939E+02  0.42398856562E+02 -0.16532510107E+04  0.16545838512E+04  0.00000000000E+00 0. -1.
        -11    1    3    3    0    0  0.13246516480E+02  0.22441810561E+02 -0.35274680564E+02  0.43856677359E+02  0.00000000000E+00 0. -1.
         11    1    3    3    0    0  0.11427274757E+03 -0.79865664246E+02 -0.72500588769E+02  0.15714044843E+03  0.00000000000E+00 0.  1.
         21    1    1    2  502  501 -0.76298646748E+02 -0.55034824950E+01 -0.14480373867E+03  0.16376780681E+03  0.00000000000E+00 0.  1.
<scales pt_clust_5="13000.00000" pt_clust_6="13000.00000" pt_clust_7="13000.00000" pt_clust_8="13000.00000" pt_clust_9="76.49687"></scales>
<clustering>
<clus scale="   76.497">  1  9  2 -1</clus>
<clus scale="   80.451">  5  6 -1 -1</clus>
<clus scale="   96.050">  7  8 -1 -1</clus>
<clus scale="  115.498">  2  5  1 -1</clus>
<clus scale="  115.498">  2  5  1 -1</clus>
</clustering>
</event>
<event>
 9    2  0.3402837E-005  0.1019943E+03  0.7546771E-02  0.1281586E+00
          2   -1    0    0  502    0  0.00000000000E+00  0.00000000000E+00  0.31372094702E+03  0.31372094702E+03  0.00000000000E+00 0. -1.
         -1   -1    0    0    0  501 -0.00000000000E+00 -0.00000000000E+00 -0.88163943988E+02  0.88163943988E+02  0.00000000000E+00 0.  1.
         24    2    1    2    0    0  0.41353878261E+02 -0.17431028215E+02  0.23853965434E+02  0.99153665634E+02  0.85137851452E+02 0.  0.
         23    2    1    2    0    0  0.47135883061E+02  0.32506543083E+02  0.17758626232E+03  0.20978324069E+03  0.95883578847E+02 0.  0.
        -13    1    3    3    0    0  0.43741609157E+02 -0.73458397211E+01 -0.23834166924E+02  0.50352331087E+02  0.00000000000E+00 0.  1.
         14    1    3    3    0    0 -0.23877308957E+01 -0.10085188494E+02  0.47688132359E+02  0.48801334548E+02  0.00000000000E+00 0. -1.
        -13    1    4    4    0    0  0.67372772418E+02  0.21940414837E+02  0.17237099950E+03  0.18636585989E+03  0.00000000000E+00 0.  1.
         13    1    4    4    0    0 -0.20236889356E+02  0.10566128246E+02  0.52152628274E+01  0.23417380795E+02  0.00000000000E+00 0. -1.
         21    1    1    2  502  501 -0.88489761323E+02 -0.15075514867E+02  0.24116775274E+02  0.92947984685E+02  0.00000000000E+00 0.  1.
<scales pt_clust_5="13000.00000" pt_clust_6="13000.00000" pt_clust_7="13000.00000" pt_clust_8="13000.00000" pt_clust_9="89.76474"></scales>
<clustering>
<clus scale="   85.138">  5  6 -1 -1</clus>
<clus scale="   89.765">  2  9  1 -1</clus>
<clus scale="   91.965">  2  5  1 -1</clus>
<clus scale="   95.884">  7  8 -1 -1</clus>
<clus scale="  101.994">  1  5  2 -1</clus>
</clustering>
</event>
<event>
 9    2  0.3952266E-005  0.1381607E+03  0.7546771E-02  0.1218217E+00
         -1   -1    0    0    0  501 -0.00000000000E+00  0.00000000000E+00  0.23560221013E+03  0.23560221013E+03  0.00000000000E+00 0.  1.
          2   -1    0    0  502    0  0.00000000000E+00 -0.00000000000E+00 -0.43510093093E+03  0.43510093093E+03  0.00000000000E+00 0. -1.
         24    2    1    2    0    0  0.44875037481E+02 -0.95765878067E+02  0.19711363158E+03  0.23765799071E+03  0.80266209599E+02 0.  0.
         23    2    1    2    0    0 -0.22612673603E+02  0.67486562633E+02 -0.37180643189E+03  0.38933398223E+03  0.90967894247E+02 0.  0.
        -13    1    3    3    0    0  0.46245932249E+02 -0.10131549535E+03  0.13379664502E+03  0.17408348017E+03  0.00000000000E+00 0.  1.
         14    1    3    3    0    0 -0.13708947683E+01  0.55496172808E+01  0.63316986559E+02  0.63574510547E+02  0.00000000000E+00 0. -1.
        -11    1    4    4    0    0  0.26317727696E+02  0.12053967684E+01 -0.15842264618E+03  0.16059828952E+03  0.00000000000E+00 0.  1.
         11    1    4    4    0    0 -0.48930401299E+02  0.66281165865E+02 -0.21338378571E+03  0.22873569272E+03  0.00000000000E+00 0. -1.
         21    1    1    2  502  501 -0.22262363878E+02  0.28279315433E+02 -0.24805920490E+02  0.43711168117E+02  0.00000000000E+00 0.  1.
<scales pt_clust_5="13000.00000" pt_clust_6="13000.00000" pt_clust_7="13000.00000" pt_clust_8="13000.00000" pt_clust_9="35.99073"></scales>
<clustering>
<clus scale="   35.991">  2  9  1 -1</clus>
<clus scale="   80.266">  5  6 -1 -1</clus>
<clus scale="   90.968">  7  8 -1 -1</clus>
<clus scale="  131.362">  1  5  2 -1</clus>
<clus scale="   35.991">  2  5  1 -1</clus>
</clustering>
</event>
<event>
 9    2  0.3402837E-005  0.3002295E+03  0.7546771E-02  0.1085462E+00
          2   -1    0    0  502    0  0.00000000000E+00  0.00000000000E+00  0.42840827526E+03  0.42840827526E+03  0.00000000000E+00 0. -1.
         -1   -1    0    0    0  501 -0.00000000000E+00 -0.00000000000E+00 -0.29493385453E+03  0.29493385453E+03  0.00000000000E+00 0.  1.
         24    2    1    2    0    0 -0.64843075212E+01  0.31444533113E+03  0.66447628228E+02  0.33132647952E+03  0.80274754549E+02 0.  0.
         23    2    1    2    0    0  0.32737574962E+02 -0.26586737649E+03  0.12766945662E+03  0.30999989301E+03  0.89684072227E+02 0.  0.
        -13    1    3    3    0    0 -0.24550216092E+02  0.25988921576E+03  0.28814865085E+02  0.26263170797E+03  0.00000000000E+00 0.  1.
         14    1    3    3    0    0  0.18065908571E+02  0.54556115371E+02  0.37632763143E+02  0.68694771552E+02  0.00000000000E+00 0. -1.
        -13    1    4    4    0    0  0.99752032052E+01 -0.36011756074E+02 -0.12990551137E+02  0.39561416473E+02  0.00000000000E+00 0. -1.
         13    1    4    4    0    0  0.22762371757E+02 -0.22985562042E+03  0.14066000776E+03  0.27043847653E+03  0.00000000000E+00 0.  1.
         21    1    1    2  502  501 -0.26253267441E+02 -0.48577954637E+02 -0.60642664121E+02  0.82015757265E+02  0.00000000000E+00 0.  1.
<scales pt_clust_5="13000.00000" pt_clust_6="13000.00000" pt_clust_7="13000.00000" pt_clust_8="13000.00000" pt_clust_9="55.21822"></scales>
<clustering>
<clus scale="   55.218">  2  9  1 -1</clus>
<clus scale="   80.275">  5  6 -1 -1</clus>
<clus scale="   89.684">  7  8 -1 -1</clus>
<clus scale="  297.554">  2  5  1 -1</clus>
<clus scale="  300.230">  1  5  2 -1</clus>
</clustering>
</event>
<event>
 9    2  0.3402837E-005  0.9898229E+02  0.7546771E-02  0.1291121E+00
         -1   -1    0    0    0  501 -0.00000000000E+00  0.00000000000E+00  0.91669677425E+02  0.91669677425E+02  0.00000000000E+00 0.  1.
          2   -1    0    0  502    0  0.00000000000E+00 -0.00000000000E+00 -0.22092161269E+03  0.22092161269E+03  0.00000000000E+00 0. -1.
         24    2    1    2    0    0  0.11850006156E+02  0.72880120584E+01  0.27645803191E+02  0.85947023044E+02  0.80181435322E+02 0.  0.
         23    2    1    2    0    0 -0.26835337135E+02  0.11809420854E+02 -0.17131612757E+03  0.19841020905E+03  0.95696383153E+02 0.  0.
        -13    1    3    3    0    0 -0.19446695551E+02  0.33834591914E+02  0.57937888874E+01  0.39452776423E+02  0.00000000000E+00 0.  1.
         14    1    3    3    0    0  0.31296701706E+02 -0.26546579855E+02  0.21852014304E+02  0.46494246621E+02  0.00000000000E+00 0. -1.
        -13    1    4    4    0    0 -0.48909278196E+02 -0.73126956461E+00 -0.36002975050E+02  0.60736039229E+02  0.00000000000E+00 0. -1.
         13    1    4    4    0    0  0.22073941061E+02  0.12540690418E+02 -0.13531315252E+03  0.13767416982E+03  0.00000000000E+00 0.  1.
         21    1    1    2  502  501  0.14985330979E+02 -0.19097432912E+02  0.14418389108E+02  0.28234058030E+02  0.00000000000E+00 0. -1.
<scales pt_clust_5="13000.00000" pt_clust_6="13000.00000" pt_clust_7="13000.00000" pt_clust_8="13000.00000" pt_clust_9="24.27493"></scales>
<clustering>
<clus scale="   24.275">  1  9  2 -1</clus>
<clus scale="   80.181">  5  6 -1 -1</clus>
<clus scale="   84.076">  1  5  2 -1</clus>
<clus scale="   95.696">  7  8 -1 -1</clus>
<clus scale="   98.982">  2  5  1 -1</clus>
</clustering>
</event>
<event>
 9    2  0.3402837E-005  0.1346452E+03  0.7546771E-02  0.1222997E+00
          2   -1    0    0  502    0  0.00000000000E+00  0.00000000000E+00  0.93866261078E+02  0.93866261078E+02  0.00000000000E+00 0. -1.
         -1   -1    0    0    0  501 -0.00000000000E+00 -0.00000000000E+00 -0.55879513597E+03  0.55879513597E+03  0.00000000000E+00 0.  1.
         24    2    1    2    0    0 -0.62967580102E+01  0.84208538423E+02 -0.12088550522E+03  0.16862830982E+03  0.81801432725E+02 0.  0.
         23    2    1    2    0    0 -0.38155245099E+02 -0.10236941780E+03 -0.59134957801E+01  0.14251059933E+03  0.91318021551E+02 0.  0.
        -13    1    3    3    0    0 -0.43877083841E+01  0.30063346208E+02 -0.10900812505E+03  0.11316283885E+03  0.00000000000E+00 0.  1.
         14    1    3    3    0    0 -0.19090496261E+01  0.54145192215E+02 -0.11877380176E+02  0.55465470974E+02  0.00000000000E+00 0. -1.
        -13    1    4    4    0    0 -0.55190328606E+02 -0.23254793783E+02  0.79132329661E+01  0.60410074172E+02  0.00000000000E+00 0. -1.
         13    1    4    4    0    0  0.17035083506E+02 -0.79114624020E+02 -0.13826728746E+02  0.82100525161E+02  0.00000000000E+00 0.  1.
         21    1    1    2  502  501  0.44452003110E+02  0.18160879380E+02 -0.33812987389E+03  0.34152248789E+03  0.00000000000E+00 0.  1.
<scales pt_clust_5="13000.00000" pt_clust_6="13000.00000" pt_clust_7="13000.00000" pt_clust_8="13000.00000" pt_clust_9="48.01873"></scales>
<clustering>
<clus scale="   48.019">  2  9  1 -1</clus>
<clus scale="   81.801">  5  6 -1 -1</clus>
<clus scale="   91.318">  7  8 -1 -1</clus>
<clus scale="  128.382">  2  5  1 -1</clus>
<clus scale="  134.645">  1  5  2 -1</clus>
</clustering>
</event>
<event>
 9    2  0.3402837E-005  0.9258200E+02  0.7546771E-02  0.1301770E+00
         -3   -1    0    0    0  501 -0.00000000000E+00  0.00000000000E+00  0.11919814231E+03  0.11919814231E+03  0.00000000000E+00 0.  1.
          4   -1    0    0  502    0  0.00000000000E+00 -0.00000000000E+00 -0.38359815997E+03  0.38359815997E+03  0.00000000000E+00 0. -1.
         23    2    1    2    0    0 -0.34490802358E+02  0.30277120620E+02  0.60444569780E+02  0.11726797748E+03  0.89397500218E+02 0.  0.
         24    2    1    2    0    0  0.19922455152E+02 -0.11257429412E+02 -0.34446573005E+03  0.35456100927E+03  0.80828436706E+02 0.  0.
        -13    1    4    4    0    0  0.12156428820E+02  0.34973566394E+02 -0.16066059687E+03  0.16487193968E+03  0.00000000000E+00 0.  1.
         14    1    4    4    0    0  0.77660263312E+01 -0.46230995806E+02 -0.18380513318E+03  0.18968906959E+03  0.00000000000E+00 0. -1.
        -13    1    3    3    0    0 -0.49805250747E+02  0.10704228434E+02  0.73318673282E+02  0.89279176520E+02  0.00000000000E+00 0.  1.
         13    1    3    3    0    0  0.15314448389E+02  0.19572892187E+02 -0.12874103502E+02  0.27988800957E+02  0.00000000000E+00 0. -1.
         21    1    1    2  502  501  0.14568347206E+02 -0.19019691208E+02  0.19621142608E+02  0.30967315531E+02  0.00000000000E+00 0. -1.
<scales pt_clust_5="13000.00000" pt_clust_6="13000.00000" pt_clust_7="13000.00000" pt_clust_8="13000.00000" pt_clust_9="23.95799"></scales>
<clustering>
<clus scale="   23.958">  1  9  2 -1</clus>
<clus scale="   80.828">  5  6 -1 -1</clus>
<clus scale="   84.337">  2  5  1 -1</clus>
<clus scale="   89.398">  7  8 -1 -1</clus>
<clus scale="   84.337">  2  5  1 -1</clus>
</clustering>
</event>
<event>
 9    2  0.3402837E-005  0.9583091E+02  0.7546771E-02  0.1292457E+00
          2   -1    0    0  502    0  0.00000000000E+00  0.00000000000E+00  0.85713762787E+03  0.85713762787E+03  0.00000000000E+00 0. -1.
         -1   -1    0    0    0  501 -0.00000000000E+00 -0.00000000000E+00 -0.20515280090E+02  0.20515280090E+02  0.00000000000E+00 0.  1.
         23    2    1    2    0    0 -0.72222666967E+01  0.14477447038E+02  0.12624090137E+03  0.15478650891E+03  0.88092795119E+02 0.  0.
         24    2    1    2    0    0  0.31193500217E+02 -0.29499601709E+02  0.64508190579E+03  0.65170239711E+03  0.82110220224E+02 0.  0.
        -11    1    4    4    0    0  0.97974243240E+01  0.19438048669E+02  0.54145435166E+02  0.58357136742E+02  0.00000000000E+00 0.  1.
         12    1    4    4    0    0  0.21396075893E+02 -0.48937650378E+02  0.59093647062E+03  0.59334526037E+03  0.00000000000E+00 0. -1.
        -13    1    3    3    0    0 -0.25464072325E+02 -0.30623044519E+02  0.68952824695E+02  0.79628398630E+02  0.00000000000E+00 0. -1.
         13    1    3    3    0    0  0.18241805628E+02  0.45100491557E+02  0.57288076677E+02  0.75158110278E+02  0.00000000000E+00 0.  1.
         21    1    1    2  502  501 -0.23971233520E+02  0.15022154672E+02  0.65299540619E+02  0.71164001943E+02  0.00000000000E+00 0.  1.
<scales pt_clust_5="13000.00000" pt_clust_6="13000.00000" pt_clust_7="13000.00000" pt_clust_8="13000.00000" pt_clust_9="28.28931"></scales>
<clustering>
<clus scale="   28.289">  2  9  1 -1</clus>
<clus scale="   82.110">  5  6 -1 -1</clus>
<clus scale="   88.093">  7  8 -1 -1</clus>
<clus scale="   90.362">  1  5  2 -1</clus>
<clus scale="   90.362">  1  5  2 -1</clus>
</clustering>
</event>
<event>
 9    2  0.3402837E-005  0.1122269E+03  0.7546771E-02  0.1259792E+00
          2   -1    0    0  502    0  0.00000000000E+00  0.00000000000E+00  0.47894705651E+03  0.47894705651E+03  0.00000000000E+00 0. -1.
         -1   -1    0    0    0  501 -0.00000000000E+00 -0.00000000000E+00 -0.10321275133E+03  0.10321275133E+03  0.00000000000E+00 0.  1.
         23    2    1    2    0    0 -0.62029858136E+02  0.37887779904E+02 -0.49271202812E+02  0.12559174737E+03  0.89791137722E+02 0.  0.
         24    2    1    2    0    0  0.26355519844E+02  0.10566247838E+02  0.35043072581E+03  0.36074609351E+03  0.80807124480E+02 0.  0.
        -11    1    4    4    0    0  0.39625760064E+02  0.21133381524E+02  0.98611207156E+02  0.10835585287E+03  0.00000000000E+00 0.  1.
         12    1    4    4    0    0 -0.13270240220E+02 -0.10567133686E+02  0.25181951866E+03  0.25239024063E+03  0.00000000000E+00 0. -1.
        -11    1    3    3    0    0 -0.74269082694E+02  0.30897624441E+01 -0.16262452817E+02  0.76091462384E+02  0.00000000000E+00 0.  1.
         11    1    3    3    0    0  0.12239224558E+02  0.34798017460E+02 -0.33008749996E+02  0.49500284981E+02  0.00000000000E+00 0. -1.
         21    1    1    2  502  501  0.35674338292E+02 -0.48454027742E+02  0.74574782174E+02  0.95821966967E+02  0.00000000000E+00 0.  1.
<scales pt_clust_5="13000.00000" pt_clust_6="13000.00000" pt_clust_7="13000.00000" pt_clust_8="13000.00000" pt_clust_9="60.17019"></scales>
<clustering>
<clus scale="   60.170">  1  9  2 -1</clus>
<clus scale="   80.807">  5  6 -1 -1</clus>
<clus scale="   89.791">  7  8 -1 -1</clus>
<clus scale="  105.177">  1  5  2 -1</clus>
<clus scale="   60.170">  1  5  2 -1</clus>
</clustering>
</event>
<event>
 9    2  0.3402837E-005  0.1104925E+03  0.7546771E-02  0.1270983E+00
         -1   -1    0    0    0  501 -0.00000000000E+00  0.00000000000E+00  0.49889241288E+02  0.49889241288E+02  0.00000000000E+00 0.  1.
          2   -1    0    0  502    0  0.00000000000E+00 -0.00000000000E+00 -0.43500502793E+03  0.43500502793E+03  0.00000000000E+00 0. -1.
         23    2    1    2    0    0 -0.23370664972E+02 -0.55901066315E+00 -0.84678701557E+02  0.13158902736E+03  0.97972900077E+02 0.  0.
         24    2    1    2    0    0  0.55300934383E+02 -0.23926363218E+02 -0.29851080828E+03  0.31302142152E+03  0.72408863218E+02 0.  0.
        -11    1    4    4    0    0  0.67682818318E+01 -0.41840723745E+02 -0.12794471870E+03  0.13478244265E+03  0.00000000000E+00 0.  1.
         12    1    4    4    0    0  0.48532652551E+02  0.17914360527E+02 -0.17056608958E+03  0.17823897888E+03  0.00000000000E+00 0. -1.
        -13    1    3    3    0    0 -0.24434721414E+02  0.40118568006E+02 -0.12302570789E+02  0.48558298544E+02  0.00000000000E+00 0.  1.
         13    1    3    3    0    0  0.10640564423E+01 -0.40677578669E+02 -0.72376130767E+02  0.83030728814E+02  0.00000000000E+00 0. -1.
         21    1    1    2  502  501 -0.31930269411E+02  0.24485373881E+02 -0.19262768082E+01  0.40283820339E+02  0.00000000000E+00 0. -1.
<scales pt_clust_5="13000.00000" pt_clust_6="13000.00000" pt_clust_7="13000.00000" pt_clust_8="13000.00000" pt_clust_9="40.23774"></scales>
<clustering>
<clus scale="   40.238">  1  9  2 -1</clus>
<clus scale="   72.409">  5  6 -1 -1</clus>
<clus scale="   88.617">  2  5  1 -1</clus>
<clus scale="   97.973">  7  8 -1 -1</clus>
<clus scale="   88.617">  2  5  1 -1</clus>
</clustering>
</event>
<event>
 9    2  0.3402837E-005  0.1325875E+03  0.7546771E-02  0.1233338E+00
         -1   -1    0    0    0  501 -0.00000000000E+00  0.00000000000E+00  0.10916990661E+03  0.10916990661E+03  0.00000000000E+00 0.  1.
          2   -1    0    0  502    0  0.00000000000E+00 -0.00000000000E+00 -0.24941514992E+03  0.24941514992E+03  0.00000000000E+00 0. -1.
         24    2    1    2    0    0 -0.63576085252E+02 -0.28539366541E+02  0.10771057685E+02  0.86361506705E+02  0.49858601046E+02 0.  0.
         23    2    1    2    0    0  0.10894956151E+03  0.23767234259E+02 -0.17004309951E+03  0.22279132697E+03  0.91029837422E+02 0.  0.
        -11    1    3    3    0    0 -0.29591832045E+02 -0.22642715823E+02  0.29122351937E+02  0.47291441995E+02  0.00000000000E+00 0.  1.
         12    1    3    3    0    0 -0.33984253207E+02 -0.58966507179E+01 -0.18351294252E+02  0.39070064711E+02  0.00000000000E+00 0. -1.
        -11    1    4    4    0    0  0.52730111138E+02  0.28543287145E+02 -0.21173833405E+02  0.63588639573E+02  0.00000000000E+00 0.  1.
         11    1    4    4    0    0  0.56219450375E+02 -0.47760528867E+01 -0.14886926611E+03  0.15920268739E+03  0.00000000000E+00 0. -1.
         21    1    1    2  502  501 -0.45373476260E+02  0.47721322822E+01  0.19026798516E+02  0.49432222853E+02  0.00000000000E+00 0.  1.
<scales pt_clust_5="13000.00000" pt_clust_6="13000.00000" pt_clust_7="13000.00000" pt_clust_8="13000.00000" pt_clust_9="45.62374"></scales>
<clustering>
<clus scale="   45.624">  1  9  2 -1</clus>
<clus scale="   49.859">  5  6 -1 -1</clus>
<clus scale="   91.030">  7  8 -1 -1</clus>
<clus scale="  108.531">  1  5  2 -1</clus>
<clus scale="  132.588">  2  5  1 -1</clus>
</clustering>
</event>
<event>
 9    2  0.3402837E-005  0.2339459E+03  0.7546771E-02  0.1124473E+00
          2   -1    0    0  502    0  0.00000000000E+00  0.00000000000E+00  0.67568744665E+03  0.67568744665E+03  0.00000000000E+00 0. -1.
         -1   -1    0    0    0  501 -0.00000000000E+00 -0.00000000000E+00 -0.11876336402E+03  0.11876336402E+03  0.00000000000E+00 0.  1.
         24    2    1    2    0    0 -0.17365792176E+03 -0.10024371351E+03  0.19833955719E+03  0.29358668862E+03  0.81539486758E+02 0.  0.
         23    2    1    2    0    0  0.21122953060E+03  0.85940550757E+02  0.38224194391E+03  0.45421779632E+03  0.90560531954E+02 0.  0.
        -13    1    3    3    0    0 -0.10887140144E+03 -0.79810525746E+02  0.79391282986E+02  0.15660676194E+03  0.00000000000E+00 0.  1.
         14    1    3    3    0    0 -0.64786520325E+02 -0.20433187764E+02  0.11894827420E+03  0.13697992668E+03  0.00000000000E+00 0. -1.
        -11    1    4    4    0    0  0.78613729755E+02 -0.68847897587E+01  0.16879844141E+03  0.18633419616E+03  0.00000000000E+00 0. -1.
         11    1    4    4    0    0  0.13261580084E+03  0.92825340516E+02  0.21344350251E+03  0.26788360016E+03  0.00000000000E+00 0.  1.
         21    1    1    2  502  501 -0.37571608830E+02  0.14303162752E+02 -0.23657418468E+02  0.46646325722E+02  0.00000000000E+00 0.  1.
<scales pt_clust_5="13000.00000" pt_clust_6="13000.00000" pt_clust_7="13000.00000" pt_clust_8="13000.00000" pt_clust_9="40.20207"></scales>
<clustering>
<clus scale="   40.202">  2  9  1 -1</clus>
<clus scale="   81.539">  5  6 -1 -1</clus>
<clus scale="   90.561">  7  8 -1 -1</clus>
<clus scale="  230.604">  2  5  1 -1</clus>
<clus scale="  233.946">  1  5  2 -1</clus>
</clustering>
</event>
<event>
 9    2  0.3402837E-005  0.1786837E+03  0.7546771E-02  0.1171147E+00
         -1   -1    0    0    0  501 -0.00000000000E+00  0.00000000000E+00  0.10620923010E+03  0.10620923010E+03  0.00000000000E+00 0.  1.
          2   -1    0    0  502    0  0.00000000000E+00 -0.00000000000E+00 -0.46317632903E+03  0.46317632903E+03  0.00000000000E+00 0. -1.
         23    2    1    2    0    0 -0.68602042245E+02 -0.12406373043E+03 -0.16804638040E+02  0.16931346641E+03  0.91030789511E+02 0.  0.
         24    2    1    2    0    0  0.92697652907E+02  0.12244548440E+03 -0.30326562030E+03  0.35597454155E+03  0.10565077507E+03 0.  0.
        -11    1    4    4    0    0  0.71841083180E+02  0.89224778549E+02 -0.11016184185E+03  0.15892713343E+03  0.00000000000E+00 0.  1.
         12    1    4    4    0    0  0.20856569727E+02  0.33220705853E+02 -0.19310377845E+03  0.19704740812E+03  0.00000000000E+00 0. -1.
        -11    1    3    3    0    0 -0.47183481225E+02 -0.12921399737E+03 -0.33610447701E+02  0.14160579159E+03  0.00000000000E+00 0.  1.
         11    1    3    3    0    0 -0.21418561020E+02  0.51502669365E+01  0.16805809661E+02  0.27707674822E+02  0.00000000000E+00 0. -1.
         21    1    1    2  502  501 -0.24095610663E+02  0.16182460303E+01 -0.36896840595E+02  0.44097551172E+02  0.00000000000E+00 0. -1.
<scales pt_clust_5="13000.00000" pt_clust_6="13000.00000" pt_clust_7="13000.00000" pt_clust_8="13000.00000" pt_clust_9="24.14989"></scales>
<clustering>
<clus scale="   24.150">  2  9  1 -1</clus>
<clus scale="   91.031">  7  8 -1 -1</clus>
<clus scale="  105.651">  5  6 -1 -1</clus>
<clus scale="  170.448">  1  7  2 -1</clus>
<clus scale="   24.150">  2  5  1 -1</clus>
</clustering>
</event>
<event>
 9    2  0.3402837E-005  0.9423451E+02  0.7546771E-02  0.1297697E+00
          2   -1    0    0  502    0  0.00000000000E+00  0.00000000000E+00  0.68541646403E+03  0.68541646403E+03  0.00000000000E+00 0. -1.
         -1   -1    0    0    0  501 -0.00000000000E+00 -0.00000000000E+00 -0.28959280191E+02  0.28959280191E+02  0.00000000000E+00 0.  1.
         23    2    1    2    0    0 -0.20047721317E+02 -0.27269140722E+02  0.74590524174E+02  0.12118269138E+03  0.89308349149E+02 0.  0.
         24    2    1    2    0    0 -0.92788785450E+01  0.20319869114E+02  0.46537442372E+03  0.47286523864E+03  0.80803372401E+02 0.  0.
        -11    1    4    4    0    0 -0.21904779994E+02 -0.14416879588E+02  0.56111605318E+02  0.61936887676E+02  0.00000000000E+00 0.  1.
         12    1    4    4    0    0  0.12625901449E+02  0.34736748702E+02  0.40926281840E+03  0.41092835096E+03  0.00000000000E+00 0. -1.
        -13    1    3    3    0    0 -0.30184079218E+02 -0.56039422010E+02  0.59582053483E+02  0.87186676475E+02  0.00000000000E+00 0.  1.
         13    1    3    3    0    0  0.10136357901E+02  0.28770281289E+02  0.15008470691E+02  0.33996014905E+02  0.00000000000E+00 0. -1.
         21    1    1    2  502  501  0.29326599862E+02  0.69492716072E+01  0.11649223594E+03  0.12032781420E+03  0.00000000000E+00 0. -1.
<scales pt_clust_5="13000.00000" pt_clust_6="13000.00000" pt_clust_7="13000.00000" pt_clust_8="13000.00000" pt_clust_9="30.13871"></scales>
<clustering>
<clus scale="   30.139">  1  9  2 -1</clus>
<clus scale="   80.803">  5  6 -1 -1</clus>
<clus scale="   86.217">  1  5  2 -1</clus>
<clus scale="   89.308">  7  8 -1 -1</clus>
<clus scale="   30.139">  1  5  2 -1</clus>
</clustering>
</event>
<event>
 9    2  0.3402837E-005  0.1234703E+03  0.7546771E-02  0.1240492E+00
          2   -1    0    0  502    0  0.00000000000E+00  0.00000000000E+00  0.96873708380E+03  0.96873708380E+03  0.00000000000E+00 0. -1.
         -1   -1    0    0    0  501 -0.00000000000E+00 -0.00000000000E+00 -0.21399524959E+02  0.21399524959E+02  0.00000000000E+00 0.  1.
         23    2    1    2    0    0 -0.52168739673E+02 -0.53377077852E+02  0.22465469233E+03  0.25354077337E+03  0.90788232387E+02 0.  0.
         24    2    1    2    0    0  0.47013477718E+02  0.73767725360E+02  0.65558611177E+03  0.66627990740E+03  0.80522174980E+02 0.  0.
        -11    1    4    4    0    0 -0.59199191090E+00  0.32376211740E+02  0.67992447885E+02  0.75309644206E+02  0.00000000000E+00 0.  1.
         12    1    4    4    0    0  0.47605469629E+02  0.41391513620E+02  0.58759366388E+03  0.59097026319E+03  0.00000000000E+00 0. -1.
        -11    1    3    3    0    0  0.15127260076E+02 -0.13207959872E+02  0.55407148079E+01  0.20832275967E+02  0.00000000000E+00 0. -1.
         11    1    3    3    0    0 -0.67295999749E+02 -0.40169117980E+02  0.21911397752E+03  0.23270849741E+03  0.00000000000E+00 0.  1.
         21    1    1    2  502  501  0.51552619544E+01 -0.20390647508E+02  0.67096754744E+02  0.70315927988E+02  0.00000000000E+00 0. -1.
<scales pt_clust_5="13000.00000" pt_clust_6="13000.00000" pt_clust_7="13000.00000" pt_clust_8="13000.00000" pt_clust_9="21.03224"></scales>
<clustering>
<clus scale="   21.032">  2  9  1 -1</clus>
<clus scale="   80.522">  5  6 -1 -1</clus>
<clus scale="   90.788">  7  8 -1 -1</clus>
<clus scale="  116.130">  1  5  2 -1</clus>
<clus scale="  116.130">  1  5  2 -1</clus>
</clustering>
</event>
<event>
 9    2  0.3402837E-005  0.1386792E+03  0.7546771E-02  0.1217502E+00
          2   -1    0    0  502    0  0.00000000000E+00  0.00000000000E+00  0.11018888833E+03  0.11018888833E+03  0.00000000000E+00 0. -1.
         -1   -1    0    0    0  501 -0.00000000000E+00 -0.00000000000E+00 -0.50604264282E+03  0.50604264282E+03  0.00000000000E+00 0.  1.
         23    2    1    2    0    0  0.90479803356E+02  0.73121216141E+02 -0.41908572633E+03  0.44436886059E+03  0.91090785382E+02 0.  0.
         24    2    1    2    0    0 -0.69390930172E+02 -0.76727818565E+02  0.47665333311E+02  0.13938595111E+03  0.80338036038E+02 0.  0.
        -13    1    4    4    0    0 -0.57502127802E+02 -0.84723454332E+01  0.57412038987E+01  0.58405793900E+02  0.00000000000E+00 0.  1.
         14    1    4    4    0    0 -0.11888802369E+02 -0.68255473132E+02  0.41924129413E+02  0.80980157207E+02  0.00000000000E+00 0. -1.
        -11    1    3    3    0    0  0.78905703566E+02  0.14231848792E+02 -0.16718091088E+03  0.18541335588E+03  0.00000000000E+00 0. -1.
         11    1    3    3    0    0  0.11574099790E+02  0.58889367349E+02 -0.25190481545E+03  0.25895550471E+03  0.00000000000E+00 0.  1.
         21    1    1    2  502  501 -0.21088873184E+02  0.36066024240E+01 -0.24433361475E+02  0.32476719449E+02  0.00000000000E+00 0.  1.
<scales pt_clust_5="13000.00000" pt_clust_6="13000.00000" pt_clust_7="13000.00000" pt_clust_8="13000.00000" pt_clust_9="21.39505"></scales>
<clustering>
<clus scale="   21.395">  2  9  1 -1</clus>
<clus scale="   80.338">  5  6 -1 -1</clus>
<clus scale="   91.091">  7  8 -1 -1</clus>
<clus scale="  131.866">  1  5  2 -1</clus>
<clus scale="  131.866">  1  5  2 -1</clus>
</clustering>
</event>
<event>
 9    2  0.3402837E-005  0.1275831E+03  0.7546771E-02  0.1235225E+00
         -1   -1    0    0    0  501 -0.00000000000E+00  0.00000000000E+00  0.15471965593E+03  0.15471965593E+03  0.00000000000E+00 0.  1.
          2   -1    0    0  502    0  0.00000000000E+00 -0.00000000000E+00 -0.11650033499E+04  0.11650033499E+04  0.00000000000E+00 0. -1.
         23    2    1    2    0    0  0.51245974640E+02 -0.66059907186E+02 -0.77333272018E+02  0.14771604392E+03  0.94071958709E+02 0.  0.
         24    2    1    2    0    0 -0.40629935002E+01  0.87674922537E+02 -0.10433371645E+04  0.10500287854E+04  0.79401583821E+02 0.  0.
        -13    1    4    4    0    0 -0.14232196754E+02  0.38987343732E+02 -0.16009787826E+03  0.16539014184E+03  0.00000000000E+00 0.  1.
         14    1    4    4    0    0  0.10169203254E+02  0.48687578805E+02 -0.88323928621E+03  0.88463864359E+03  0.00000000000E+00 0. -1.
        -13    1    3    3    0    0  0.49227292923E+02  0.82536012130E+00 -0.54941630446E+01  0.49539816465E+02  0.00000000000E+00 0. -1.
         13    1    3    3    0    0  0.20186817169E+01 -0.66885267307E+02 -0.71839108974E+02  0.98176227452E+02  0.00000000000E+00 0.  1.
         21    1    1    2  502  501 -0.47182981139E+02 -0.21615015351E+02  0.11038674255E+03  0.12197817645E+03  0.00000000000E+00 0.  1.
<scales pt_clust_5="13000.00000" pt_clust_6="13000.00000" pt_clust_7="13000.00000" pt_clust_8="13000.00000" pt_clust_9="51.89839"></scales>
<clustering>
<clus scale="   51.898">  1  9  2 -1</clus>
<clus scale="   79.402">  5  6 -1 -1</clus>
<clus scale="   94.072">  7  8 -1 -1</clus>
<clus scale="  117.186">  2  5  1 -1</clus>
<clus scale="  117.186">  2  5  1 -1</clus>
</clustering>
</event>
<event>
 9    2  0.3402837E-005  0.1106265E+03  0.7546771E-02  0.1262763E+00
          2   -1    0    0  502    0  0.00000000000E+00  0.00000000000E+00  0.23878727607E+03  0.23878727607E+03  0.00000000000E+00 0. -1.
         -1   -1    0    0    0  501 -0.00000000000E+00 -0.00000000000E+00 -0.35616919591E+03  0.35616919591E+03  0.00000000000E+00 0.  1.
         24    2    1    2    0    0  0.63448857227E+02  0.46536779786E+01 -0.12231580117E+03  0.16028862835E+03  0.81754969017E+02 0.  0.
         23    2    1    2    0    0  0.27068667631E+02 -0.58298873422E+02  0.19138826666E+03  0.22057331520E+03  0.88834944434E+02 0.  0.
        -11    1    3    3    0    0  0.37840998461E+02  0.42719263831E+02 -0.58844481765E+02  0.81972859539E+02  0.00000000000E+00 0.  1.
         12    1    3    3    0    0  0.25607858766E+02 -0.38065585852E+02 -0.63471319406E+02  0.78315768808E+02  0.00000000000E+00 0. -1.
        -13    1    4    4    0    0 -0.22527198177E+02 -0.14910393557E+02  0.12179585378E+02  0.29633372972E+02  0.00000000000E+00 0.  1.
         13    1    4    4    0    0  0.49595865808E+02 -0.43388479866E+02  0.17920868128E+03  0.19093994223E+03  0.00000000000E+00 0. -1.
         21    1    1    2  502  501 -0.90517524858E+02  0.53645195444E+02 -0.18645438532E+03  0.21409452844E+03  0.00000000000E+00 0.  1.
<scales pt_clust_5="13000.00000" pt_clust_6="13000.00000" pt_clust_7="13000.00000" pt_clust_8="13000.00000" pt_clust_9="65.92853"></scales>
<clustering>
<clus scale="   81.755">  5  6 -1 -1</clus>
<clus scale="   88.835">  7  8 -1 -1</clus>
<clus scale="  103.592">  2  5  1 -1</clus>
<clus scale="   65.929">  2  9  1 -1</clus>
<clus scale="  110.626">  1  5  2 -1</clus>
</clustering>
</event>
<event>
 9    2  0.3402837E-005  0.1123495E+03  0.7546771E-02  0.1270126E+00
          2   -1    0    0  502    0  0.00000000000E+00  0.00000000000E+00  0.11370384133E+04  0.11370384133E+04  0.00000000000E+00 0. -1.
         -1   -1    0    0    0  501 -0.00000000000E+00 -0.00000000000E+00 -0.17760031985E+02  0.17760031985E+02  0.00000000000E+00 0.  1.
         23    2    1    2    0    0 -0.49256151096E+02 -0.25231129045E+02  0.23224903139E+03  0.25575193783E+03  0.91687855410E+02 0.  0.
         24    2    1    2    0    0  0.66278371080E+02  0.10924012516E+02  0.85818818232E+03  0.86262862030E+03  0.55937677362E+02 0.  0.
        -11    1    4    4    0    0  0.30166867775E+02  0.19787054594E+02  0.18926574953E+03  0.19267353577E+03  0.00000000000E+00 0.  1.
         12    1    4    4    0    0  0.36111503305E+02 -0.88630420776E+01  0.66892243280E+03  0.66995508453E+03  0.00000000000E+00 0. -1.
        -13    1    3    3    0    0  0.22532924262E+02 -0.25860198519E+02  0.92214161440E+02  0.98386656175E+02  0.00000000000E+00 0. -1.
         13    1    3    3    0    0 -0.71789075358E+02  0.62906947432E+00  0.14003486995E+03  0.15736528166E+03  0.00000000000E+00 0.  1.
         21    1    1    2  502  501 -0.17022219984E+02  0.14307116529E+02  0.28841167610E+02  0.36417887166E+02  0.00000000000E+00 0.  1.
<scales pt_clust_5="13000.00000" pt_clust_6="13000.00000" pt_clust_7="13000.00000" pt_clust_8="13000.00000" pt_clust_9="22.23622"></scales>
<clustering>
<clus scale="   22.236">  2  9  1 -1</clus>
<clus scale="   55.938">  5  6 -1 -1</clus>
<clus scale="   85.702">  1  5  2 -1</clus>
<clus scale="   91.688">  7  8 -1 -1</clus>
<clus scale="   85.702">  1  5  2 -1</clus>
</clustering>
</event>
<event>
 9    2  0.3402837E-005  0.9641436E+02  0.7546771E-02  0.1296228E+00
         -1   -1    0    0    0  501 -0.00000000000E+00  0.00000000000E+00  0.59841872521E+02  0.59841872521E+02  0.00000000000E+00 0.  1.
          2   -1    0    0  502    0  0.00000000000E+00 -0.00000000000E+00 -0.76692883961E+03  0.76692883961E+03  0.00000000000E+00 0. -1.
         23    2    1    2    0    0  0.49699730431E+02  0.17662759994E+02 -0.96074125252E+01  0.10801770200E+03  0.93773585165E+02 0.  0.
         24    2    1    2    0    0 -0.14449533543E+02 -0.15400038269E+02 -0.66708762749E+03  0.67215509685E+03  0.79628018185E+02 0.  0.
        -11    1    4    4    0    0 -0.22043559804E+02 -0.11401986197E+02 -0.59003920048E+02  0.64010830327E+02  0.00000000000E+00 0.  1.
         12    1    4    4    0    0  0.75940262612E+01 -0.39980520716E+01 -0.60808370744E+03  0.60814426653E+03  0.00000000000E+00 0. -1.
        -13    1    3    3    0    0  0.20466724630E+02  0.73952097491E+01  0.42298123620E+02  0.47567922029E+02  0.00000000000E+00 0.  1.
         13    1    3    3    0    0  0.29233005802E+02  0.10267550245E+02 -0.51905536146E+02  0.60449779973E+02  0.00000000000E+00 0. -1.
         21    1    1    2  502  501 -0.35250196888E+02 -0.22627217246E+01 -0.30391927075E+02  0.46597913275E+02  0.00000000000E+00 0.  1.
<scales pt_clust_5="13000.00000" pt_clust_6="13000.00000" pt_clust_7="13000.00000" pt_clust_8="13000.00000" pt_clust_9="35.32274"></scales>
<clustering>
<clus scale="   35.323">  1  9  2 -1</clus>
<clus scale="   79.628">  5  6 -1 -1</clus>
<clus scale="   82.722">  2  5  1 -1</clus>
<clus scale="   93.774">  7  8 -1 -1</clus>
<clus scale="   82.722">  2  5  1 -1</clus>
</clustering>
</event>
<event>
 9    2  0.3402837E-005  0.2333459E+03  0.7546771E-02  0.1125025E+00
          2   -1    0    0  502    0  0.00000000000E+00  0.00000000000E+00  0.10192587020E+04  0.10192587020E+04  0.00000000000E+00 0. -1.
         -1   -1    0    0    0  501 -0.00000000000E+00 -0.00000000000E+00 -0.79731323143E+02  0.79731323143E+02  0.00000000000E+00 0.  1.
         24    2    1    2    0    0 -0.65569241176E+02  0.21145319310E+03  0.31128635740E+03  0.39084273406E+03  0.82747013223E+02 0.  0.
         23    2    1    2    0    0  0.78897599262E+02 -0.19483822602E+03  0.64254012309E+03  0.68249253382E+03  0.93549363702E+02 0.  0.
        -13    1    3    3    0    0  0.30705260582E+00  0.77545330430E+02  0.57906302720E+02  0.96780744198E+02  0.00000000000E+00 0.  1.
         14    1    3    3    0    0 -0.65876293781E+02  0.13390786267E+03  0.25338005468E+03  0.29406198986E+03  0.00000000000E+00 0. -1.
        -11    1    4    4    0    0  0.19156864092E+02 -0.44689506592E+02  0.56308010535E+02  0.74395762593E+02  0.00000000000E+00 0.  1.
         11    1    4    4    0    0  0.59740735170E+02 -0.15014871943E+03  0.58623211256E+03  0.60809677123E+03  0.00000000000E+00 0. -1.
         21    1    1    2  502  501 -0.13328358086E+02 -0.16614967084E+02 -0.14299101668E+02  0.25654757239E+02  0.00000000000E+00 0.  1.
<scales pt_clust_5="13000.00000" pt_clust_6="13000.00000" pt_clust_7="13000.00000" pt_clust_8="13000.00000" pt_clust_9="21.30029"></scales>
<clustering>
<clus scale="   21.300">  2  9  1 -1</clus>
<clus scale="   82.747">  5  6 -1 -1</clus>
<clus scale="   93.549">  7  8 -1 -1</clus>
<clus scale="  229.229">  2  5  1 -1</clus>
<clus scale="  233.346">  1  5  2 -1</clus>
</clustering>
</event>
<event>
 9    2  0.3402837E-005  0.3368545E+03  0.7546771E-02  0.1068469E+00
         -1   -1    0    0    0  501 -0.00000000000E+00  0.00000000000E+00  0.24591731325E+03  0.24591731325E+03  0.00000000000E+00 0.  1.
          2   -1    0    0  502    0  0.00000000000E+00 -0.00000000000E+00 -0.83580360921E+03  0.83580360921E+03  0.00000000000E+00 0. -1.
         24    2    1    2    0    0 -0.64662001259E+02 -0.32423691491E+03  0.39964140723E+01  0.34247520970E+03  0.89233102236E+02 0.  0.
         23    2    1    2    0    0  0.27685765594E+02  0.31868521225E+03 -0.61196144758E+03  0.69771374727E+03  0.99904422779E+02 0.  0.
        -13    1    3    3    0    0 -0.46971504180E+02 -0.25962491927E+03  0.39302169872E+02  0.26675097276E+03  0.00000000000E+00 0.  1.
         14    1    3    3    0    0 -0.17690497079E+02 -0.64611995642E+02 -0.35305755799E+02  0.75724236941E+02  0.00000000000E+00 0. -1.
        -13    1    4    4    0    0  0.33177400845E+02  0.39594310893E+02 -0.59948028970E+02  0.79134161772E+02  0.00000000000E+00 0.  1.
         13    1    4    4    0    0 -0.54916352504E+01  0.27909090136E+03 -0.55201341860E+03  0.61857958550E+03  0.00000000000E+00 0. -1.
         21    1    1    2  502  501  0.36976235664E+02  0.55517026583E+01  0.18078737539E+02  0.41531965488E+02  0.00000000000E+00 0.  1.
<scales pt_clust_5="13000.00000" pt_clust_6="13000.00000" pt_clust_7="13000.00000" pt_clust_8="13000.00000" pt_clust_9="37.39069"></scales>
<clustering>
<clus scale="   37.391">  1  9  2 -1</clus>
<clus scale="   89.233">  5  6 -1 -1</clus>
<clus scale="   99.904">  7  8 -1 -1</clus>
<clus scale="  333.845">  1  5  2 -1</clus>
<clus scale="  336.854">  2  5  1 -1</clus>
</clustering>
</event>
<event>
 9    2  0.3402837E-005  0.1292060E+03  0.7546771E-02  0.1231675E+00
         -1   -1    0    0    0  501 -0.00000000000E+00  0.00000000000E+00  0.18354362709E+03  0.18354362709E+03  0.00000000000E+00 0.  1.
          2   -1    0    0  502    0  0.00000000000E+00 -0.00000000000E+00 -0.21114613240E+03  0.21114613240E+03  0.00000000000E+00 0. -1.
         24    2    1    2    0    0  0.78821914607E+02 -0.73506426811E+02  0.38943093142E+02  0.13995944627E+03  0.80349194715E+02 0.  0.
         23    2    1    2    0    0 -0.37601036081E+02  0.79201176495E+02 -0.12816499729E+03  0.18037615185E+03  0.91774862313E+02 0.  0.
        -13    1    3    3    0    0  0.29233364329E+02 -0.59618862709E+02  0.54782474223E+02  0.86082041464E+02  0.00000000000E+00 0.  1.
         14    1    3    3    0    0  0.49588550279E+02 -0.13887564103E+02 -0.15839381081E+02  0.53877404805E+02  0.00000000000E+00 0. -1.
        -13    1    4    4    0    0 -0.42544134860E+02  0.42877721360E+02 -0.13033744359E+03  0.14365358193E+03  0.00000000000E+00 0. -1.
         13    1    4    4    0    0  0.49430987786E+01  0.36323455136E+02  0.21724462989E+01  0.36722569919E+02  0.00000000000E+00 0.  1.
         21    1    1    2  502  501 -0.41220878526E+02 -0.56947496838E+01  0.61619398834E+02  0.74354161370E+02  0.00000000000E+00 0.  1.
<scales pt_clust_5="13000.00000" pt_clust_6="13000.00000" pt_clust_7="13000.00000" pt_clust_8="13000.00000" pt_clust_9="41.61239"></scales>
<clustering>
<clus scale="   41.612">  1  9  2 -1</clus>
<clus scale="   80.349">  5  6 -1 -1</clus>
<clus scale="   91.775">  7  8 -1 -1</clus>
<clus scale="  121.357">  1  5  2 -1</clus>
<clus scale="  129.206">  2  5  1 -1</clus>
</clustering>
</event>
<event>
 9    2  0.3402837E-005  0.1211982E+03  0.7546771E-02  0.1255232E+00
          2   -1    0    0  502    0  0.00000000000E+00  0.00000000000E+00  0.10105422721E+04  0.10105422721E+04  0.00000000000E+00 0. -1.
         -1   -1    0    0    0  501 -0.00000000000E+00 -0.00000000000E+00 -0.46275995590E+02  0.46275995590E+02  0.00000000000E+00 0.  1.
         23    2    1    2    0    0  0.19417775202E+02 -0.24746234220E+01  0.18306489811E+03  0.20460024384E+03  0.89248692448E+02 0.  0.
         24    2    1    2    0    0  0.86280609106E+02  0.18234096150E+02  0.71845760368E+03  0.72829348755E+03  0.80332122791E+02 0.  0.
        -11    1    4    4    0    0  0.40203501500E+02  0.19431644188E+02  0.11958696682E+03  0.12765168609E+03  0.00000000000E+00 0.  1.
         12    1    4    4    0    0  0.46077107605E+02 -0.11975480382E+01  0.59887063686E+03  0.60064180146E+03  0.00000000000E+00 0. -1.
        -13    1    3    3    0    0  0.38977028843E+02 -0.33217734013E+02  0.13424617341E+03  0.14368250313E+03  0.00000000000E+00 0. -1.
         13    1    3    3    0    0 -0.19559253641E+02  0.30743110591E+02  0.48818724708E+02  0.60917740716E+02  0.00000000000E+00 0.  1.
         21    1    1    2  502  501 -0.10569838431E+03 -0.15759472728E+02  0.62743774673E+02  0.12392453626E+03  0.00000000000E+00 0.  1.
<scales pt_clust_5="13000.00000" pt_clust_6="13000.00000" pt_clust_7="13000.00000" pt_clust_8="13000.00000" pt_clust_9="90.75109"></scales>
<clustering>
<clus scale="   80.332">  5  6 -1 -1</clus>
<clus scale="   89.249">  7  8 -1 -1</clus>
<clus scale="   91.370">  2  7  1 -1</clus>
<clus scale="   90.751">  2  9  1 -1</clus>
<clus scale="  121.198">  1  5  2 -1</clus>
</clustering>
</event>
<event>
 9    2  0.3402837E-005  0.1319556E+03  0.7546771E-02  0.1227153E+00
          2   -1    0    0  502    0  0.00000000000E+00  0.00000000000E+00  0.38209593227E+03  0.38209593227E+03  0.00000000000E+00 0. -1.
         -1   -1    0    0    0  501 -0.00000000000E+00 -0.00000000000E+00 -0.22394217060E+03  0.22394217060E+03  0.00000000000E+00 0.  1.
         23    2    1    2    0    0  0.47749284213E+02  0.11487138437E+03  0.73175788098E+01  0.15443826924E+03  0.91226108970E+02 0.  0.
         24    2    1    2    0    0 -0.28029862891E+02 -0.86073969499E+02  0.28667844761E+03  0.31134553754E+03  0.80975984008E+02 0.  0.
        -11    1    4    4    0    0  0.26784928809E+02 -0.35615693164E+02  0.13847800642E+03  0.14547188138E+03  0.00000000000E+00 0.  1.
         12    1    4    4    0    0 -0.54814791701E+02 -0.50458276336E+02  0.14820044119E+03  0.16587365616E+03  0.00000000000E+00 0. -1.
        -11    1    3    3    0    0 -0.15177474989E+02  0.46073665831E+02  0.31847925150E+02  0.58029550804E+02  0.00000000000E+00 0. -1.
         11    1    3    3    0    0  0.62926759203E+02  0.68797718537E+02 -0.24530346340E+02  0.96408718440E+02  0.00000000000E+00 0.  1.
         21    1    1    2  502  501 -0.19719421322E+02 -0.28797414868E+02 -0.13584226474E+03  0.14025429608E+03  0.00000000000E+00 0. -1.
<scales pt_clust_5="13000.00000" pt_clust_6="13000.00000" pt_clust_7="13000.00000" pt_clust_8="13000.00000" pt_clust_9="34.90196"></scales>
<clustering>
<clus scale="   34.902">  2  9  1 -1</clus>
<clus scale="   80.976">  5  6 -1 -1</clus>
<clus scale="   91.226">  7  8 -1 -1</clus>
<clus scale="  125.089">  1  5  2 -1</clus>
<clus scale="  125.089">  1  5  2 -1</clus>
</clustering>
</event>
<event>
 9    2  0.3402837E-005  0.1265919E+03  0.7546771E-02  0.1235586E+00
         -1   -1    0    0    0  501 -0.00000000000E+00  0.00000000000E+00  0.68193351603E+02  0.68193351603E+02  0.00000000000E+00 0.  1.
          2   -1    0    0  502    0  0.00000000000E+00 -0.00000000000E+00 -0.15665861377E+04  0.15665861377E+04  0.00000000000E+00 0. -1.
         23    2    1    2    0    0 -0.41310964854E+02 -0.40103342979E+02 -0.30390104839E+03  0.32224072126E+03  0.90378986982E+02 0.  0.
         24    2    1    2    0    0  0.51469156476E+02  0.86202787136E+02 -0.12402207790E+04  0.12468159195E+04  0.79513282454E+02 0.  0.
        -11    1    4    4    0    0  0.23519025994E+02  0.23241320997E+02 -0.11979489218E+03  0.12427437297E+03  0.00000000000E+00 0.  1.
         12    1    4    4    0    0  0.27950130482E+02  0.62961466139E+02 -0.11204258868E+04  0.11225415466E+04  0.00000000000E+00 0. -1.
        -11    1    3    3    0    0 -0.74407583418E+01  0.26561637722E+02 -0.13084008301E+03  0.13371616509E+03  0.00000000000E+00 0. -1.
         11    1    3    3    0    0 -0.33870206512E+02 -0.66664980701E+02 -0.17306096538E+03  0.18852455617E+03  0.00000000000E+00 0.  1.
         21    1    1    2  502  501 -0.10158191622E+02 -0.46099444157E+02  0.45729041221E+02  0.65722848535E+02  0.00000000000E+00 0.  1.
<scales pt_clust_5="13000.00000" pt_clust_6="13000.00000" pt_clust_7="13000.00000" pt_clust_8="13000.00000" pt_clust_9="47.20538"></scales>
<clustering>
<clus scale="   47.205">  1  9  2 -1</clus>
<clus scale="   79.513">  5  6 -1 -1</clus>
<clus scale="   90.379">  7  8 -1 -1</clus>
<clus scale="  119.078">  2  5  1 -1</clus>
<clus scale="  119.078">  2  5  1 -1</clus>
</clustering>
</event>
<event>
 9    2  0.3402837E-005  0.1399715E+03  0.7546771E-02  0.1215581E+00
         -1   -1    0    0    0  501 -0.00000000000E+00  0.00000000000E+00  0.44526439510E+02  0.44526439510E+02  0.00000000000E+00 0.  1.
          2   -1    0    0  502    0  0.00000000000E+00 -0.00000000000E+00 -0.12500518213E+04  0.12500518213E+04  0.00000000000E+00 0. -1.
         23    2    1    2    0    0  0.50986479802E+02  0.12441472699E+02 -0.10443321410E+03  0.14798861923E+03  0.90774026293E+02 0.  0.
         24    2    1    2    0    0 -0.48026873073E+02 -0.11682385092E+03 -0.95691197055E+03  0.96856613358E+03  0.80532248453E+02 0.  0.
        -13    1    4    4    0    0  0.13289684995E+02 -0.28412380851E+02 -0.96908590016E+02  0.10185849956E+03  0.00000000000E+00 0.  1.
         14    1    4    4    0    0 -0.61316558068E+02 -0.88411470070E+02 -0.86000338054E+03  0.86670763402E+03  0.00000000000E+00 0. -1.
        -13    1    3    3    0    0  0.74363122445E+02  0.66963130555E+01 -0.97755070654E+02  0.12300718852E+03  0.00000000000E+00 0.  1.
         13    1    3    3    0    0 -0.23376642643E+02  0.57451596437E+01 -0.66781434420E+01  0.24981430712E+02  0.00000000000E+00 0. -1.
         21    1    1    2  502  501 -0.29596067290E+01  0.10438237822E+03 -0.14418019714E+03  0.17802350801E+03  0.00000000000E+00 0.  1.
<scales pt_clust_5="13000.00000" pt_clust_6="13000.00000" pt_clust_7="13000.00000" pt_clust_8="13000.00000" pt_clust_9="104.42433"></scales>
<clustering>
<clus scale="   80.532">  5  6 -1 -1</clus>
<clus scale="   90.774">  7  8 -1 -1</clus>
<clus scale="  104.424">  1  9  2 -1</clus>
<clus scale="  133.557">  2  5  1 -1</clus>
<clus scale="  133.557">  2  5  1 -1</clus>
</clustering>
</event>
<event>
 9    2  0.3402837E-005  0.1161093E+03  0.7546771E-02  0.1252914E+00
          2   -1    0    0  502    0  0.00000000000E+00  0.00000000000E+00  0.11548624237E+04  0.11548624237E+04  0.00000000000E+00 0. -1.
         -1   -1    0    0    0  501 -0.00000000000E+00 -0.00000000000E+00 -0.16110020391E+02  0.16110020391E+02  0.00000000000E+00 0.  1.
         24    2    1    2    0    0 -0.78270883511E+02  0.13600555151E+02  0.39315432774E+03  0.40934078956E+03  0.81720562079E+02 0.  0.
         23    2    1    2    0    0  0.54815204880E+02 -0.44531322874E+02  0.59723439553E+03  0.60827369809E+03  0.91215257371E+02 0.  0.
        -13    1    3    3    0    0 -0.92353839110E+02 -0.16840394418E+00  0.34862249610E+03  0.36064789580E+03  0.00000000000E+00 0.  1.
         14    1    3    3    0    0  0.14082955599E+02  0.13768959095E+02  0.44531831644E+02  0.48692893758E+02  0.00000000000E+00 0. -1.
        -11    1    4    4    0    0  0.70354105411E+01 -0.63542925990E+02  0.33400160974E+03  0.34006510517E+03  0.00000000000E+00 0. -1.
         11    1    4    4    0    0  0.47779794338E+02  0.19011603116E+02  0.26323278579E+03  0.26820859292E+03  0.00000000000E+00 0.  1.
         21    1    1    2  502  501  0.23455678631E+02  0.30930767723E+02  0.14836368004E+03  0.15335795645E+03  0.00000000000E+00 0. -1.
<scales pt_clust_5="13000.00000" pt_clust_6="13000.00000" pt_clust_7="13000.00000" pt_clust_8="13000.00000" pt_clust_9="38.81857"></scales>
<clustering>
<clus scale="   38.819">  2  9  1 -1</clus>
<clus scale="   81.721">  5  6 -1 -1</clus>
<clus scale="   91.215">  7  8 -1 -1</clus>
<clus scale="  108.809">  2  5  1 -1</clus>
<clus scale="  116.109">  1  5  2 -1</clus>
</clustering>
</event>
<event>
 9    2  0.3402837E-005  0.1496419E+03  0.7546771E-02  0.1202817E+00
          2   -1    0    0  502    0  0.00000000000E+00  0.00000000000E+00  0.12096769327E+04  0.12096769327E+04  0.00000000000E+00 0. -1.
         -1   -1    0    0    0  501 -0.00000000000E+00 -0.00000000000E+00 -0.16708181447E+03  0.16708181447E+03  0.00000000000E+00 0.  1.
         23    2    1    2    0    0  0.91460520574E+02 -0.10391488449E+03 -0.79884347247E+02  0.18262347539E+03  0.88354370512E+02 0.  0.
         24    2    1    2    0    0 -0.97615261417E+02  0.70287251685E+02  0.11445311208E+04  0.11534538997E+04  0.77687677532E+02 0.  0.
        -11    1    4    4    0    0 -0.47744622831E+02  0.76053827130E+01  0.20986708014E+03  0.21536383675E+03  0.00000000000E+00 0.  1.
         12    1    4    4    0    0 -0.49870638586E+02  0.62681868972E+02  0.93466404069E+03  0.93809006297E+03  0.00000000000E+00 0. -1.
        -13    1    3    3    0    0  0.73243198861E+02 -0.17804487725E+02 -0.46038476988E+02  0.88323877439E+02  0.00000000000E+00 0.  1.
         13    1    3    3    0    0  0.18217321713E+02 -0.86110396763E+02 -0.33845870259E+02  0.94299597956E+02  0.00000000000E+00 0. -1.
         21    1    1    2  502  501  0.61547408430E+01  0.33627632803E+02 -0.22051655392E+02  0.40681372006E+02  0.00000000000E+00 0. -1.
<scales pt_clust_5="13000.00000" pt_clust_6="13000.00000" pt_clust_7="13000.00000" pt_clust_8="13000.00000" pt_clust_9="34.18623"></scales>
<clustering>
<clus scale="   34.186">  2  9  1 -1</clus>
<clus scale="   77.688">  5  6 -1 -1</clus>
<clus scale="   88.354">  7  8 -1 -1</clus>
<clus scale="  143.602">  1  5  2 -1</clus>
<clus scale="  143.602">  1  5  2 -1</clus>
</clustering>
</event>
<event>
 9    2  0.3402837E-005  0.1167215E+03  0.7546771E-02  0.1249353E+00
         -1   -1    0    0    0  501 -0.00000000000E+00  0.00000000000E+00  0.34150139226E+02  0.34150139226E+02  0.00000000000E+00 0.  1.
          2   -1    0    0  502    0  0.00000000000E+00 -0.00000000000E+00 -0.65814971971E+03  0.65814971971E+03  0.00000000000E+00 0. -1.
         23    2    1    2    0    0  0.68565573137E+02 -0.24346715577E+02 -0.14610149850E+03  0.18097056347E+03  0.78170944733E+02 0.  0.
         24    2    1    2    0    0 -0.67146477866E+02  0.62830355265E+02 -0.44222054014E+03  0.45883271132E+03  0.80697879891E+02 0.  0.
        -13    1    4    4    0    0 -0.31210923472E+02 -0.15915281883E+02 -0.10551164440E+03  0.11117609926E+03  0.00000000000E+00 0.  1.
         14    1    4    4    0    0 -0.35935554394E+02  0.78745637149E+02 -0.33670889573E+03  0.34765661206E+03  0.00000000000E+00 0. -1.
        -13    1    3    3    0    0  0.12456388733E+02 -0.38120833005E+02 -0.26281284932E+02  0.47948571062E+02  0.00000000000E+00 0.  1.
         13    1    3    3    0    0  0.56109184404E+02  0.13774117428E+02 -0.11982021356E+03  0.13302199241E+03  0.00000000000E+00 0. -1.
         21    1    1    2  502  501 -0.14190952710E+01 -0.38483639688E+02 -0.35677541845E+02  0.52496584148E+02  0.00000000000E+00 0. -1.
<scales pt_clust_5="13000.00000" pt_clust_6="13000.00000" pt_clust_7="13000.00000" pt_clust_8="13000.00000" pt_clust_9="38.50980"></scales>
<clustering>
<clus scale="   38.510">  1  9  2 -1</clus>
<clus scale="   78.171">  7  8 -1 -1</clus>
<clus scale="   80.698">  5  6 -1 -1</clus>
<clus scale="  114.989">  1  7  2 -1</clus>
<clus scale="  116.721">  2  5  1 -1</clus>
</clustering>
</event>
<event>
 9    2  0.3402837E-005  0.1218930E+03  0.7546771E-02  0.1243547E+00
          2   -1    0    0  502    0  0.00000000000E+00  0.00000000000E+00  0.11981142432E+03  0.11981142432E+03  0.00000000000E+00 0. -1.
         -1   -1    0    0    0  501 -0.00000000000E+00 -0.00000000000E+00 -0.27847952819E+03  0.27847952819E+03  0.00000000000E+00 0.  1.
         23    2    1    2    0    0 -0.25166692689E+02 -0.68918508059E+02 -0.15318852329E+03  0.19266655412E+03  0.90942587568E+02 0.  0.
         24    2    1    2    0    0  0.78899643332E+02  0.88991237692E+02  0.17153829605E+02  0.14396066744E+03  0.79283199953E+02 0.  0.
        -13    1    4    4    0    0  0.25897879656E+01  0.38552225172E+02 -0.21996745025E+02  0.44461644809E+02  0.00000000000E+00 0.  1.
         14    1    4    4    0    0  0.76309855366E+02  0.50439012519E+02  0.39150574630E+02  0.99499022627E+02  0.00000000000E+00 0. -1.
        -13    1    3    3    0    0  0.10896292515E+02 -0.41887909664E+02 -0.12671275478E+02  0.45098640654E+02  0.00000000000E+00 0. -1.
         13    1    3    3    0    0 -0.36062985204E+02 -0.27030598395E+02 -0.14051724781E+03  0.14756791346E+03  0.00000000000E+00 0.  1.
         21    1    1    2  502  501 -0.53732950642E+02 -0.20072729632E+02 -0.22633410183E+02  0.61663730962E+02  0.00000000000E+00 0.  1.
<scales pt_clust_5="13000.00000" pt_clust_6="13000.00000" pt_clust_7="13000.00000" pt_clust_8="13000.00000" pt_clust_9="57.35978"></scales>
<clustering>
<clus scale="   57.360">  1  9  2 -1</clus>
<clus scale="   79.283">  5  6 -1 -1</clus>
<clus scale="   90.943">  7  8 -1 -1</clus>
<clus scale="  113.460">  1  5  2 -1</clus>
<clus scale="   57.360">  1  5  2 -1</clus>
</clustering>
</event>
<event>
 9    2  0.3402837E-005  0.1016587E+03  0.7546771E-02  0.1280210E+00
         -1   -1    0    0    0  501 -0.00000000000E+00  0.00000000000E+00  0.17431176406E+03  0.17431176406E+03  0.00000000000E+00 0.  1.
          2   -1    0    0  502    0  0.00000000000E+00 -0.00000000000E+00 -0.88395615756E+02  0.88395615756E+02  0.00000000000E+00 0. -1.
         23    2    1    2    0    0 -0.45613103644E+02 -0.20075533608E+02  0.91608292167E+02  0.13749593431E+03  0.89607312665E+02 0.  0.
         24    2    1    2    0    0  0.48506674197E+02 -0.49759093264E+00 -0.22828688384E+02  0.98280285824E+02  0.82369415014E+02 0.  0.
        -13    1    4    4    0    0  0.20361586169E+02 -0.58823038635E+01  0.30851712107E+02  0.37430252871E+02  0.00000000000E+00 0.  1.
         14    1    4    4    0    0  0.28145088028E+02  0.53847129308E+01 -0.53680400491E+02  0.60850032953E+02  0.00000000000E+00 0. -1.
        -13    1    3    3    0    0 -0.54027100252E+02 -0.48641657295E+02  0.62901256703E+02  0.96132754464E+02  0.00000000000E+00 0.  1.
         13    1    3    3    0    0  0.84139966084E+01  0.28566123687E+02  0.28707035464E+02  0.41363179841E+02  0.00000000000E+00 0. -1.
         21    1    1    2  502  501 -0.28935705533E+01  0.20573124540E+02  0.17136544517E+02  0.26931159683E+02  0.00000000000E+00 0.  1.
<scales pt_clust_5="13000.00000" pt_clust_6="13000.00000" pt_clust_7="13000.00000" pt_clust_8="13000.00000" pt_clust_9="20.77562"></scales>
<clustering>
<clus scale="   20.776">  1  9  2 -1</clus>
<clus scale="   82.369">  5  6 -1 -1</clus>
<clus scale="   89.607">  7  8 -1 -1</clus>
<clus scale="   95.340">  2  5  1 -1</clus>
<clus scale="   95.340">  2  5  1 -1</clus>
</clustering>
</event>
<event>
 9    2  0.3402837E-005  0.1060956E+03  0.7546771E-02  0.1270281E+00
         -1   -1    0    0    0  501 -0.00000000000E+00  0.00000000000E+00  0.15309493664E+03  0.15309493664E+03  0.00000000000E+00 0.  1.
          2   -1    0    0  502    0  0.00000000000E+00 -0.00000000000E+00 -0.37198194570E+03  0.37198194570E+03  0.00000000000E+00 0. -1.
         23    2    1    2    0    0  0.18970918568E+01 -0.25868969575E+02 -0.10819059671E+03  0.14391961969E+03  0.91295395121E+02 0.  0.
         24    2    1    2    0    0 -0.22758105172E+02  0.72474825947E+02 -0.22690565052E+03  0.25422470276E+03  0.85869048621E+02 0.  0.
        -13    1    4    4    0    0 -0.33701869117E+02  0.74851051609E+02 -0.11246141249E+03  0.13923385080E+03  0.00000000000E+00 0.  1.
         14    1    4    4    0    0  0.10943763946E+02 -0.23762256627E+01 -0.11444423803E+03  0.11499085196E+03  0.00000000000E+00 0. -1.
        -13    1    3    3    0    0  0.37182116499E+02 -0.19799268277E+01 -0.12679766687E+02  0.39334544371E+02  0.00000000000E+00 0. -1.
         13    1    3    3    0    0 -0.35285024643E+02 -0.23889042747E+02 -0.95510830025E+02  0.10458507532E+03  0.00000000000E+00 0.  1.
         21    1    1    2  502  501  0.20861013315E+02 -0.46605856372E+02  0.11620923817E+03  0.12693255989E+03  0.00000000000E+00 0. -1.
<scales pt_clust_5="13000.00000" pt_clust_6="13000.00000" pt_clust_7="13000.00000" pt_clust_8="13000.00000" pt_clust_9="51.06161"></scales>
<clustering>
<clus scale="   51.062">  1  9  2 -1</clus>
<clus scale="   85.869">  5  6 -1 -1</clus>
<clus scale="   91.295">  7  8 -1 -1</clus>
<clus scale="  101.464">  2  5  1 -1</clus>
<clus scale="  101.464">  2  5  1 -1</clus>
</clustering>
</event>
<event>
 9    2  0.3402837E-005  0.9126802E+02  0.7546771E-02  0.1302433E+00
         -3   -1    0    0    0  501 -0.00000000000E+00  0.00000000000E+00  0.17874441517E+03  0.17874441517E+03  0.00000000000E+00 0.  1.
          4   -1    0    0  502    0  0.00000000000E+00 -0.00000000000E+00 -0.20072187168E+03  0.20072187168E+03  0.00000000000E+00 0. -1.
         24    2    1    2    0    0 -0.89430751119E+01  0.23230503269E+02  0.11463544930E+03  0.14190892470E+03  0.79857509338E+02 0.  0.
         23    2    1    2    0    0 -0.78308028560E+01 -0.34766470984E+02 -0.17302773681E+03  0.19583828438E+03  0.84522227515E+02 0.  0.
        -11    1    3    3    0    0 -0.14634947767E+02  0.40353256660E+02  0.11612394909E+03  0.12380362907E+03  0.00000000000E+00 0.  1.
         12    1    3    3    0    0  0.56918726548E+01 -0.17122753391E+02 -0.14884997904E+01  0.18105295624E+02  0.00000000000E+00 0. -1.
        -13    1    4    4    0    0  0.18196843820E+02 -0.55088173175E+02 -0.12145165319E+03  0.13459693908E+03  0.00000000000E+00 0. -1.
         13    1    4    4    0    0 -0.26027646676E+02  0.20321702191E+02 -0.51576083622E+02  0.61241345293E+02  0.00000000000E+00 0.  1.
         21    1    1    2  502  501  0.16773877968E+02  0.11535967715E+02  0.36414831003E+02  0.41719077773E+02  0.00000000000E+00 0.  1.
<scales pt_clust_5="13000.00000" pt_clust_6="13000.00000" pt_clust_7="13000.00000" pt_clust_8="13000.00000" pt_clust_9="20.35784"></scales>
<clustering>
<clus scale="   20.358">  1  9  2 -1</clus>
<clus scale="   79.858">  5  6 -1 -1</clus>
<clus scale="   84.522">  7  8 -1 -1</clus>
<clus scale="   86.966">  1  5  2 -1</clus>
<clus scale="   91.268">  2  5  1 -1</clus>
</clustering>
</event>
<event>
 9    2  0.3402837E-005  0.1257486E+03  0.7546771E-02  0.1234246E+00
          2   -1    0    0  502    0  0.00000000000E+00  0.00000000000E+00  0.56665766775E+03  0.56665766775E+03  0.00000000000E+00 0. -1.
         -1   -1    0    0    0  501 -0.00000000000E+00 -0.00000000000E+00 -0.27593324346E+03  0.27593324346E+03  0.00000000000E+00 0.  1.
         23    2    1    2    0    0  0.10511379114E+03  0.48585229945E+02  0.22793505442E+03  0.27020753089E+03  0.87454485668E+02 0.  0.
         24    2    1    2    0    0 -0.68008255576E+02 -0.37431118555E+02  0.30540663667E+03  0.32669175832E+03  0.86186308490E+02 0.  0.
        -11    1    4    4    0    0 -0.43655522867E+02  0.23514942701E+02  0.11304628825E+03  0.12344318732E+03  0.00000000000E+00 0.  1.
         12    1    4    4    0    0 -0.24352732709E+02 -0.60946061256E+02  0.19236034841E+03  0.20324857100E+03  0.00000000000E+00 0. -1.
        -11    1    3    3    0    0  0.24979151240E+02 -0.25044867128E+02  0.43578601080E+02  0.56127514093E+02  0.00000000000E+00 0. -1.
         11    1    3    3    0    0  0.80134639898E+02  0.73630097073E+02  0.18435645334E+03  0.21408001680E+03  0.00000000000E+00 0.  1.
         21    1    1    2  502  501 -0.37105535561E+02 -0.11154111391E+02 -0.24261726679E+03  0.24569162199E+03  0.00000000000E+00 0.  1.
<scales pt_clust_5="13000.00000" pt_clust_6="13000.00000" pt_clust_7="13000.00000" pt_clust_8="13000.00000" pt_clust_9="38.74577"></scales>
<clustering>
<clus scale="   38.746">  2  9  1 -1</clus>
<clus scale="   86.186">  5  6 -1 -1</clus>
<clus scale="   87.454">  7  8 -1 -1</clus>
<clus scale="  124.870">  1  5  2 -1</clus>
<clus scale="  124.870">  1  5  2 -1</clus>
</clustering>
</event>
<event>
 9    2  0.3402837E-005  0.1778677E+03  0.7546771E-02  0.1171610E+00
          2   -1    0    0  502    0  0.00000000000E+00  0.00000000000E+00  0.87514954307E+03  0.87514954307E+03  0.00000000000E+00 0. -1.
         -1   -1    0    0    0  501 -0.00000000000E+00 -0.00000000000E+00 -0.61123583127E+02  0.61123583127E+02  0.00000000000E+00 0.  1.
         23    2    1    2    0    0  0.21701108089E+02 -0.11447426738E+03  0.10500156958E+03  0.18159431203E+03  0.91519771424E+02 0.  0.
         24    2    1    2    0    0  0.91804676080E+01  0.16545984183E+03  0.62806286192E+03  0.65414041550E+03  0.77301257558E+02 0.  0.
        -13    1    4    4    0    0  0.27787802700E+02  0.37770169181E+02  0.98628488893E+02  0.10920772171E+03  0.00000000000E+00 0.  1.
         14    1    4    4    0    0 -0.18607335092E+02  0.12768967265E+03  0.52943437303E+03  0.54493269379E+03  0.00000000000E+00 0. -1.
        -11    1    3    3    0    0 -0.12975046829E+02 -0.78351695724E+02  0.18343177213E+02  0.81509583567E+02  0.00000000000E+00 0.  1.
         11    1    3    3    0    0  0.34676154918E+02 -0.36122571655E+02  0.86658392367E+02  0.10008472846E+03  0.00000000000E+00 0. -1.
         21    1    1    2  502  501 -0.30881575697E+02 -0.50985574454E+02  0.80961528439E+02  0.10053839867E+03  0.00000000000E+00 0. -1.
<scales pt_clust_5="13000.00000" pt_clust_6="13000.00000" pt_clust_7="13000.00000" pt_clust_8="13000.00000" pt_clust_9="59.60873"></scales>
<clustering>
<clus scale="   59.609">  2  9  1 -1</clus>
<clus scale="   77.301">  5  6 -1 -1</clus>
<clus scale="   91.520">  7  8 -1 -1</clus>
<clus scale="  170.987">  1  5  2 -1</clus>
<clus scale="  170.987">  1  5  2 -1</clus>
</clustering>
</event>
<event>
 9    2  0.3402837E-005  0.1283554E+03  0.7546771E-02  0.1233096E+00
         -1   -1    0    0    0  501 -0.00000000000E+00  0.00000000000E+00  0.36790912343E+02  0.36790912343E+02  0.00000000000E+00 0.  1.
          2   -1    0    0  502    0  0.00000000000E+00 -0.00000000000E+00 -0.13810457329E+04  0.13810457329E+04  0.00000000000E+00 0. -1.
         23    2    1    2    0    0 -0.99181426067E+02  0.37412913939E+02 -0.60199368939E+03  0.61829125130E+03  0.93010687366E+02 0.  0.
         24    2    1    2    0    0  0.79230969929E+02 -0.11188457451E+02 -0.75546992329E+03  0.76404588686E+03  0.81416116686E+02 0.  0.
        -13    1    4    4    0    0  0.66345484121E+02  0.48748892732E+01 -0.26771698175E+03  0.27585842406E+03  0.00000000000E+00 0.  1.
         14    1    4    4    0    0  0.12885485808E+02 -0.16063346724E+02 -0.48775294154E+03  0.48818746279E+03  0.00000000000E+00 0. -1.
        -13    1    3    3    0    0 -0.89469222291E+02  0.64655036116E+02 -0.43350580139E+03  0.44733912781E+03  0.00000000000E+00 0.  1.
         13    1    3    3    0    0 -0.97122037761E+01 -0.27242122178E+02 -0.16848788800E+03  0.17095212349E+03  0.00000000000E+00 0. -1.
         21    1    1    2  502  501  0.19950456138E+02 -0.26224456488E+02  0.13208792076E+02  0.35499507128E+02  0.00000000000E+00 0. -1.
<scales pt_clust_5="13000.00000" pt_clust_6="13000.00000" pt_clust_7="13000.00000" pt_clust_8="13000.00000" pt_clust_9="32.95061"></scales>
<clustering>
<clus scale="   32.951">  1  9  2 -1</clus>
<clus scale="   81.416">  5  6 -1 -1</clus>
<clus scale="   93.011">  7  8 -1 -1</clus>
<clus scale="  120.219">  2  5  1 -1</clus>
<clus scale="  120.219">  2  5  1 -1</clus>
</clustering>
</event>
<event>
 9    2  0.3402837E-005  0.1365715E+03  0.7546771E-02  0.1242044E+00
         -3   -1    0    0    0  501 -0.00000000000E+00  0.00000000000E+00  0.13972171615E+03  0.13972171615E+03  0.00000000000E+00 0.  1.
          4   -1    0    0  502    0  0.00000000000E+00 -0.00000000000E+00 -0.30992990651E+03  0.30992990651E+03  0.00000000000E+00 0. -1.
         23    2    1    2    0    0 -0.18174659027E+02  0.80369561386E+02 -0.63907754211E+02  0.13841111135E+03  0.91015658365E+02 0.  0.
         24    2    1    2    0    0  0.48023164923E+01  0.26755565218E+02 -0.16759926788E+03  0.18709479425E+03  0.78587689398E+02 0.  0.
        -13    1    4    4    0    0 -0.21605778210E+01 -0.25040753389E+02 -0.90693970333E+02  0.94112186680E+02  0.00000000000E+00 0.  1.
         14    1    4    4    0    0  0.69628943133E+01  0.51796318608E+02 -0.76905297551E+02  0.92982607567E+02  0.00000000000E+00 0. -1.
        -13    1    3    3    0    0  0.35707433068E+02  0.38265131271E+02 -0.40347245616E+02  0.66084349708E+02  0.00000000000E+00 0.  1.
         13    1    3    3    0    0 -0.53882092095E+02  0.42104430115E+02 -0.23560508595E+02  0.72326761638E+02  0.00000000000E+00 0. -1.
         21    1    1    2  502  501  0.13372342534E+02 -0.10712512660E+03  0.61298831727E+02  0.12414571707E+03  0.00000000000E+00 0.  1.
<scales pt_clust_5="13000.00000" pt_clust_6="13000.00000" pt_clust_7="13000.00000" pt_clust_8="13000.00000" pt_clust_9="101.82303"></scales>
<clustering>
<clus scale="   78.588">  5  6 -1 -1</clus>
<clus scale="   83.156">  2  5  1 -1</clus>
<clus scale="   91.016">  7  8 -1 -1</clus>
<clus scale="  101.823">  1  9  2 -1</clus>
<clus scale="   83.156">  2  5  1 -1</clus>
</clustering>
</event>
<event>
 9    2  0.3402837E-005  0.9607244E+02  0.7546771E-02  0.1295156E+00
         -1   -1    0    0    0  501 -0.00000000000E+00  0.00000000000E+00  0.40643433102E+03  0.40643433102E+03  0.00000000000E+00 0.  1.
          2   -1    0    0  502    0  0.00000000000E+00 -0.00000000000E+00 -0.51390251831E+02  0.51390251831E+02  0.00000000000E+00 0. -1.
         23    2    1    2    0    0  0.11265027140E+02 -0.50061541419E+02  0.20420914676E+03  0.22927500546E+03  0.90733641732E+02 0.  0.
         24    2    1    2    0    0 -0.26494241576E+02  0.14245839117E+02  0.13508074827E+02  0.85814300314E+02  0.79225862469E+02 0.  0.
        -13    1    4    4    0    0 -0.55800244254E+01 -0.28593574043E+02  0.23108635878E+02  0.37185187928E+02  0.00000000000E+00 0.  1.
         14    1    4    4    0    0 -0.20914217151E+02  0.42839413160E+02 -0.96005610506E+01  0.48629112385E+02  0.00000000000E+00 0. -1.
        -13    1    3    3    0    0 -0.30219142962E+02 -0.44850707241E+02  0.15779848014E+03  0.16680870143E+03  0.00000000000E+00 0.  1.
         13    1    3    3    0    0  0.41484170102E+02 -0.52108341784E+01  0.46410666623E+02  0.62466304022E+02  0.00000000000E+00 0. -1.
         21    1    1    2  502  501  0.15229214436E+02  0.35815702302E+02  0.13732685760E+03  0.14273527708E+03  0.00000000000E+00 0. -1.
<scales pt_clust_5="13000.00000" pt_clust_6="13000.00000" pt_clust_7="13000.00000" pt_clust_8="13000.00000" pt_clust_9="38.91906"></scales>
<clustering>
<clus scale="   38.919">  1  9  2 -1</clus>
<clus scale="   79.226">  5  6 -1 -1</clus>
<clus scale="   85.288">  2  5  1 -1</clus>
<clus scale="   90.734">  7  8 -1 -1</clus>
<clus scale="   85.288">  2  5  1 -1</clus>
</clustering>
</event>
<event>
 9    2  0.3402837E-005  0.1373292E+03  0.7546771E-02  0.1221493E+00
          2   -1    0    0  502    0  0.00000000000E+00  0.00000000000E+00  0.46927127523E+03  0.46927127523E+03  0.00000000000E+00 0. -1.
         -1   -1    0    0    0  501 -0.00000000000E+00 -0.00000000000E+00 -0.13886501403E+03  0.13886501403E+03  0.00000000000E+00 0.  1.
         23    2    1    2    0    0  0.12896151914E+03  0.67705766039E+02  0.31927976458E+02  0.17548899260E+03  0.92530247321E+02 0.  0.
         24    2    1    2    0    0 -0.94742148233E+02 -0.15298750612E+02  0.33787009804E+03  0.35869342207E+03  0.72764287051E+02 0.  0.
        -13    1    4    4    0    0 -0.64814005603E+02 -0.19376338655E+01  0.10414627107E+03  0.12268274339E+03  0.00000000000E+00 0.  1.
         14    1    4    4    0    0 -0.29928142630E+02 -0.13361116747E+02  0.23372382697E+03  0.23601067869E+03  0.00000000000E+00 0. -1.
        -11    1    3    3    0    0  0.13049942567E+03  0.32239418045E+02  0.12453331372E+02  0.13499839125E+03  0.00000000000E+00 0.  1.
         11    1    3    3    0    0 -0.15379065360E+01  0.35466347994E+02  0.19474645086E+02  0.40490601351E+02  0.00000000000E+00 0. -1.
         21    1    1    2  502  501 -0.34219370905E+02 -0.52407015427E+02 -0.39391813292E+02  0.73953874581E+02  0.00000000000E+00 0.  1.
<scales pt_clust_5="13000.00000" pt_clust_6="13000.00000" pt_clust_7="13000.00000" pt_clust_8="13000.00000" pt_clust_9="62.58962"></scales>
<clustering>
<clus scale="   62.590">  2  9  1 -1</clus>
<clus scale="   72.764">  5  6 -1 -1</clus>
<clus scale="   92.530">  7  8 -1 -1</clus>
<clus scale="  124.868">  1  5  2 -1</clus>
<clus scale="  124.868">  1  5  2 -1</clus>
</clustering>
</event>
<event>
 9    2  0.3402837E-005  0.1411563E+03  0.7546771E-02  0.1230975E+00
         -1   -1    0    0    0  501 -0.00000000000E+00  0.00000000000E+00  0.62151013045E+03  0.62151013045E+03  0.00000000000E+00 0.  1.
          2   -1    0    0  502    0  0.00000000000E+00 -0.00000000000E+00 -0.12274292722E+03  0.12274292722E+03  0.00000000000E+00 0. -1.
         23    2    1    2    0    0  0.14565032041E+03  0.39190662704E+02  0.12258193617E+03  0.21454456379E+03  0.90846655930E+02 0.  0.
         24    2    1    2    0    0 -0.46010801252E+02 -0.16136129518E+02 -0.38965000419E+02  0.10214646346E+03  0.80859509223E+02 0.  0.
        -11    1    4    4    0    0 -0.40839722851E+02  0.23627992243E+02 -0.14037929613E+01  0.47203131407E+02  0.00000000000E+00 0.  1.
         12    1    4    4    0    0 -0.51710784012E+01 -0.39764121761E+02 -0.37561207458E+02  0.54943332052E+02  0.00000000000E+00 0. -1.
        -11    1    3    3    0    0  0.30308146260E+02  0.34349148715E+02  0.78662320674E+02  0.91028613309E+02  0.00000000000E+00 0.  1.
         11    1    3    3    0    0  0.11534217415E+03  0.48415139887E+01  0.43919615501E+02  0.12351595048E+03  0.00000000000E+00 0. -1.
         21    1    1    2  502  501 -0.99639519162E+02 -0.23054533186E+02  0.41515026747E+03  0.42756203043E+03  0.00000000000E+00 0.  1.
<scales pt_clust_5="13000.00000" pt_clust_6="13000.00000" pt_clust_7="13000.00000" pt_clust_8="13000.00000" pt_clust_9="108.03692"></scales>
<clustering>
<clus scale="   80.860">  5  6 -1 -1</clus>
<clus scale="   90.847">  7  8 -1 -1</clus>
<clus scale="   94.423">  2  5  1 -1</clus>
<clus scale="  108.037">  1  9  2 -1</clus>
<clus scale="   94.423">  2  5  1 -1</clus>
</clustering>
</event>
<event>
 9    2  0.3402837E-005  0.9347829E+02  0.7546771E-02  0.1300295E+00
         -1   -1    0    0    0  501 -0.00000000000E+00  0.00000000000E+00  0.17104600664E+03  0.17104600664E+03  0.00000000000E+00 0.  1.
          2   -1    0    0  502    0  0.00000000000E+00 -0.00000000000E+00 -0.10242456322E+03  0.10242456322E+03  0.00000000000E+00 0. -1.
         23    2    1    2    0    0 -0.18760959372E+02  0.23361202646E+02  0.40065496522E+02  0.10338197635E+03  0.90470269356E+02 0.  0.
         24    2    1    2    0    0  0.15061442579E+02  0.37422752363E+02 -0.19608915498E+02  0.92446919257E+02  0.80836958540E+02 0.  0.
        -11    1    4    4    0    0 -0.28025067861E+02  0.12403670759E+02  0.12581106048E+02  0.33129136818E+02  0.00000000000E+00 0.  1.
         12    1    4    4    0    0  0.43086510440E+02  0.25019081604E+02 -0.32190021547E+02  0.59317782438E+02  0.00000000000E+00 0. -1.
        -11    1    3    3    0    0 -0.27031196081E+02 -0.20646064276E+02  0.47055812773E+02  0.58061993140E+02  0.00000000000E+00 0.  1.
         11    1    3    3    0    0  0.82702367085E+01  0.44007266921E+02 -0.69903162516E+01  0.45319983213E+02  0.00000000000E+00 0. -1.
         21    1    1    2  502  501  0.36995167933E+01 -0.60783955008E+02  0.48164862390E+02  0.77641674248E+02  0.00000000000E+00 0.  1.
<scales pt_clust_5="13000.00000" pt_clust_6="13000.00000" pt_clust_7="13000.00000" pt_clust_8="13000.00000" pt_clust_9="60.89643"></scales>
<clustering>
<clus scale="   60.896">  1  9  2 -1</clus>
<clus scale="   80.837">  5  6 -1 -1</clus>
<clus scale="   84.190">  2  5  1 -1</clus>
<clus scale="   90.470">  7  8 -1 -1</clus>
<clus scale="   84.190">  2  5  1 -1</clus>
</clustering>
</event>
<event>
 9    2  0.3402837E-005  0.9846596E+02  0.7546771E-02  0.1291380E+00
          2   -1    0    0  502    0  0.00000000000E+00  0.00000000000E+00  0.28862407600E+03  0.28862407600E+03  0.00000000000E+00 0. -1.
         -1   -1    0    0    0  501 -0.00000000000E+00 -0.00000000000E+00 -0.47834974279E+02  0.47834974279E+02  0.00000000000E+00 0.  1.
         24    2    1    2    0    0  0.20590549437E+02  0.25255116067E+02  0.41818083053E+02  0.94511939110E+02  0.78242973809E+02 0.  0.
         23    2    1    2    0    0 -0.13350750073E+01 -0.35581040124E+02  0.19622944744E+03  0.21992634333E+03  0.92702791797E+02 0.  0.
        -11    1    3    3    0    0  0.10935519886E+02  0.53505177285E+02  0.23251149568E+02  0.59354911740E+02  0.00000000000E+00 0.  1.
         12    1    3    3    0    0  0.96550295518E+01 -0.28250061218E+02  0.18566933485E+02  0.35157027370E+02  0.00000000000E+00 0. -1.
        -11    1    4    4    0    0  0.37707067744E+02 -0.20142185760E+01  0.13368186251E+03  0.13891263585E+03  0.00000000000E+00 0. -1.
         11    1    4    4    0    0 -0.39042142751E+02 -0.33566821548E+02  0.62547584928E+02  0.81013707481E+02  0.00000000000E+00 0.  1.
         21    1    1    2  502  501 -0.19255474430E+02  0.10325924058E+02  0.27415712243E+01  0.22020767833E+02  0.00000000000E+00 0.  1.
<scales pt_clust_5="13000.00000" pt_clust_6="13000.00000" pt_clust_7="13000.00000" pt_clust_8="13000.00000" pt_clust_9="21.84944"></scales>
<clustering>
<clus scale="   21.849">  2  9  1 -1</clus>
<clus scale="   78.243">  5  6 -1 -1</clus>
<clus scale="   84.992">  2  5  1 -1</clus>
<clus scale="   92.703">  7  8 -1 -1</clus>
<clus scale="   98.466">  1  5  2 -1</clus>
</clustering>
</event>
<event>
 9    2  0.3402837E-005  0.1494924E+03  0.7546771E-02  0.1203666E+00
          4   -1    0    0  502    0  0.00000000000E+00  0.00000000000E+00  0.57583484119E+02  0.57583484119E+02  0.00000000000E+00 0. -1.
         -3   -1    0    0    0  501 -0.00000000000E+00 -0.00000000000E+00 -0.57569778667E+03  0.57569778667E+03  0.00000000000E+00 0.  1.
         24    2    1    2    0    0  0.86183326404E+02 -0.86815426133E+02 -0.20839551704E+03  0.25447512076E+03  0.79777262423E+02 0.  0.
         23    2    1    2    0    0 -0.10629304709E+03  0.46798520760E+02 -0.14427523983E+03  0.20740801588E+03  0.93351094352E+02 0.  0.
        -13    1    3    3    0    0  0.80037414861E+02 -0.27936503665E+02 -0.10115573741E+03  0.13198075324E+03  0.00000000000E+00 0.  1.
         14    1    3    3    0    0  0.61459115431E+01 -0.58878922468E+02 -0.10723977963E+03  0.12249436752E+03  0.00000000000E+00 0. -1.
        -11    1    4    4    0    0  0.50095431848E+01  0.29946380149E+02 -0.95204877787E+01  0.31820133477E+02  0.00000000000E+00 0.  1.
         11    1    4    4    0    0 -0.11130259028E+03  0.16852140612E+02 -0.13475475205E+03  0.17558788240E+03  0.00000000000E+00 0. -1.
         21    1    1    2  502  501  0.20109720691E+02  0.40016905373E+02 -0.16544354568E+03  0.17139813415E+03  0.00000000000E+00 0.  1.
<scales pt_clust_5="13000.00000" pt_clust_6="13000.00000" pt_clust_7="13000.00000" pt_clust_8="13000.00000" pt_clust_9="44.78564"></scales>
<clustering>
<clus scale="   44.786">  2  9  1 -1</clus>
<clus scale="   79.777">  5  6 -1 -1</clus>
<clus scale="   93.351">  7  8 -1 -1</clus>
<clus scale="  141.414">  2  5  1 -1</clus>
<clus scale="  149.492">  1  5  2 -1</clus>
</clustering>
</event>
<event>
 9    2  0.3402837E-005  0.2718280E+03  0.7546771E-02  0.1100830E+00
         -1   -1    0    0    0  501 -0.00000000000E+00  0.00000000000E+00  0.10330517262E+04  0.10330517262E+04  0.00000000000E+00 0.  1.
          2   -1    0    0  502    0  0.00000000000E+00 -0.00000000000E+00 -0.16149620521E+03  0.16149620521E+03  0.00000000000E+00 0. -1.
         23    2    1    2    0    0  0.24042148640E+03  0.95235674126E+02  0.72590644777E+03  0.77605869168E+03  0.91948884066E+02 0.  0.
         24    2    1    2    0    0 -0.25624088774E+03 -0.20775848045E+02  0.17553568087E+02  0.26948260366E+03  0.78877864514E+02 0.  0.
        -11    1    4    4    0    0 -0.59879973107E+02  0.14425043174E+02  0.32111338576E+02  0.69461004276E+02  0.00000000000E+00 0.  1.
         12    1    4    4    0    0 -0.19636091463E+03 -0.35200891218E+02 -0.14557770489E+02  0.20002159938E+03  0.00000000000E+00 0. -1.
        -13    1    3    3    0    0  0.22878158264E+03  0.67559505441E+02  0.58083524071E+03  0.62791311196E+03  0.00000000000E+00 0.  1.
         13    1    3    3    0    0  0.11639903758E+02  0.27676168685E+02  0.14507120706E+03  0.14814557972E+03  0.00000000000E+00 0. -1.
         21    1    1    2  502  501  0.15819401341E+02 -0.74459826081E+02  0.12809550514E+03  0.14900663608E+03  0.00000000000E+00 0.  1.
<scales pt_clust_5="13000.00000" pt_clust_6="13000.00000" pt_clust_7="13000.00000" pt_clust_8="13000.00000" pt_clust_9="76.12174"></scales>
<clustering>
<clus scale="   76.122">  1  9  2 -1</clus>
<clus scale="   78.878">  5  6 -1 -1</clus>
<clus scale="   91.949">  7  8 -1 -1</clus>
<clus scale="  267.689">  2  5  1 -1</clus>
<clus scale="  267.689">  2  5  1 -1</clus>
</clustering>
</event>
<event>
 9    2  0.3402837E-005  0.1770694E+03  0.7546771E-02  0.1172264E+00
          2   -1    0    0  502    0  0.00000000000E+00  0.00000000000E+00  0.41526367089E+03  0.41526367089E+03  0.00000000000E+00 0. -1.
         -1   -1    0    0    0  501 -0.00000000000E+00 -0.00000000000E+00 -0.19368226060E+03  0.19368226060E+03  0.00000000000E+00 0.  1.
         23    2    1    2    0    0  0.15791531718E+03  0.59274673712E+01 -0.27596989854E+02  0.18522966619E+03  0.92606982009E+02 0.  0.
         24    2    1    2    0    0 -0.13233518758E+03  0.78969837103E+02  0.28035002232E+03  0.32972921637E+03  0.79852264024E+02 0.  0.
        -13    1    4    4    0    0 -0.33426596985E+02  0.30036446131E+02  0.24700943895E+02  0.51280231195E+02  0.00000000000E+00 0.  1.
         14    1    4    4    0    0 -0.98908590595E+02  0.48933390972E+02  0.25564907843E+03  0.27844898518E+03  0.00000000000E+00 0. -1.
        -13    1    3    3    0    0  0.12848464105E+03 -0.33451938939E+02 -0.29597385195E+02  0.13602698414E+03  0.00000000000E+00 0.  1.
         13    1    3    3    0    0  0.29430676132E+02  0.39379406310E+02  0.20003953407E+01  0.49202682045E+02  0.00000000000E+00 0. -1.
         21    1    1    2  502  501 -0.25580129605E+02 -0.84897304474E+02 -0.31171622183E+02  0.93987048933E+02  0.00000000000E+00 0.  1.
<scales pt_clust_5="13000.00000" pt_clust_6="13000.00000" pt_clust_7="13000.00000" pt_clust_8="13000.00000" pt_clust_9="88.66733"></scales>
<clustering>
<clus scale="   79.852">  5  6 -1 -1</clus>
<clus scale="   88.667">  2  9  1 -1</clus>
<clus scale="   92.607">  7  8 -1 -1</clus>
<clus scale="  170.745">  1  5  2 -1</clus>
<clus scale="  170.745">  1  5  2 -1</clus>
</clustering>
</event>
<event>
 9    2  0.3402837E-005  0.1341407E+03  0.7546771E-02  0.1224557E+00
          2   -1    0    0  502    0  0.00000000000E+00  0.00000000000E+00  0.56576137875E+03  0.56576137875E+03  0.00000000000E+00 0. -1.
         -1   -1    0    0    0  501 -0.00000000000E+00 -0.00000000000E+00 -0.46661926052E+02  0.46661926052E+02  0.00000000000E+00 0.  1.
         24    2    1    2    0    0  0.17586613737E+02 -0.71818333817E+02  0.10401205011E+03  0.15179700483E+03  0.82198917593E+02 0.  0.
         23    2    1    2    0    0 -0.12530577278E+02  0.10544286297E+03  0.39783711873E+03  0.42249829506E+03  0.94632043058E+02 0.  0.
        -11    1    3    3    0    0 -0.20616720770E+02 -0.66503850925E+02  0.51318788284E+02  0.86495256483E+02  0.00000000000E+00 0.  1.
         12    1    3    3    0    0  0.38203334507E+02 -0.53144828922E+01  0.52693261822E+02  0.65301748348E+02  0.00000000000E+00 0. -1.
        -13    1    4    4    0    0 -0.36039376359E+02  0.11202170842E+03  0.33643088670E+03  0.35641750986E+03  0.00000000000E+00 0. -1.
         13    1    4    4    0    0  0.23508799081E+02 -0.65788454473E+01  0.61406232023E+02  0.66080785202E+02  0.00000000000E+00 0.  1.
         21    1    1    2  502  501 -0.50560364582E+01 -0.33624529151E+02  0.17250283870E+02  0.38128004916E+02  0.00000000000E+00 0.  1.
<scales pt_clust_5="13000.00000" pt_clust_6="13000.00000" pt_clust_7="13000.00000" pt_clust_8="13000.00000" pt_clust_9="34.00254"></scales>
<clustering>
<clus scale="   34.003">  2  9  1 -1</clus>
<clus scale="   82.199">  5  6 -1 -1</clus>
<clus scale="   94.632">  7  8 -1 -1</clus>
<clus scale="  125.679">  2  5  1 -1</clus>
<clus scale="  134.141">  1  5  2 -1</clus>
</clustering>
</event>
<event>
 9    2  0.3402837E-005  0.1309329E+03  0.7546771E-02  0.1238460E+00
          2   -1    0    0  502    0  0.00000000000E+00  0.00000000000E+00  0.39919836770E+03  0.39919836770E+03  0.00000000000E+00 0. -1.
         -1   -1    0    0    0  501 -0.00000000000E+00 -0.00000000000E+00 -0.18881646174E+03  0.18881646174E+03  0.00000000000E+00 0.  1.
         24    2    1    2    0    0 -0.47598613634E+02 -0.10835305725E+03 -0.65386485360E+02  0.15447632973E+03  0.74709644246E+02 0.  0.
         23    2    1    2    0    0  0.41476428950E+02  0.67917570291E+01  0.30999862087E+03  0.32618912867E+03  0.92378463953E+02 0.  0.
        -13    1    3    3    0    0 -0.50883130916E+02 -0.11701172578E+03 -0.51094466649E+02  0.13744628588E+03  0.00000000000E+00 0.  1.
         14    1    3    3    0    0  0.32845172820E+01  0.86586685289E+01 -0.14292018711E+02  0.17030043843E+02  0.00000000000E+00 0. -1.
        -13    1    4    4    0    0 -0.70081348954E+00 -0.36131845312E+02  0.70212196219E+02  0.78966789748E+02  0.00000000000E+00 0.  1.
         13    1    4    4    0    0  0.42177242439E+02  0.42923602341E+02  0.23978642465E+03  0.24722233893E+03  0.00000000000E+00 0. -1.
         21    1    1    2  502  501  0.61221846839E+01  0.10156130022E+03 -0.34230229542E+02  0.10734937104E+03  0.00000000000E+00 0. -1.
<scales pt_clust_5="13000.00000" pt_clust_6="13000.00000" pt_clust_7="13000.00000" pt_clust_8="13000.00000" pt_clust_9="107.52626"></scales>
<clustering>
<clus scale="   74.710">  5  6 -1 -1</clus>
<clus scale="   92.378">  7  8 -1 -1</clus>
<clus scale="  101.490">  1  7  2 -1</clus>
<clus scale="  107.526">  2  9  1 -1</clus>
<clus scale="  101.490">  1  5  2 -1</clus>
</clustering>
</event>
<event>
 9    2  0.3402837E-005  0.1009277E+03  0.7546771E-02  0.1280969E+00
          4   -1    0    0  502    0  0.00000000000E+00  0.00000000000E+00  0.48348281325E+02  0.48348281325E+02  0.00000000000E+00 0. -1.
         -3   -1    0    0    0  501 -0.00000000000E+00 -0.00000000000E+00 -0.35375304277E+03  0.35375304277E+03  0.00000000000E+00 0.  1.
         24    2    1    2    0    0  0.29415680390E+02  0.15506686652E+02 -0.20127260798E+03  0.21933096578E+03  0.80558489585E+02 0.  0.
         23    2    1    2    0    0 -0.47087468460E+02 -0.35810049302E+02 -0.37955773982E+02  0.11132925089E+03  0.86336388665E+02 0.  0.
        -11    1    3    3    0    0  0.46474346886E+02 -0.16271587804E+02 -0.13770618636E+03  0.14624507941E+03  0.00000000000E+00 0.  1.
         12    1    3    3    0    0 -0.17058666496E+02  0.31778274456E+02 -0.63566421618E+02  0.73085886376E+02  0.00000000000E+00 0. -1.
        -13    1    4    4    0    0 -0.24232706566E+02 -0.58239666531E+02 -0.46287556296E+02  0.78240786633E+02  0.00000000000E+00 0. -1.
         13    1    4    4    0    0 -0.22854761894E+02  0.22429617229E+02  0.83317823135E+01  0.33088464255E+02  0.00000000000E+00 0.  1.
         21    1    1    2  502  501  0.17671788070E+02  0.20303362650E+02 -0.66176379485E+02  0.71441107426E+02  0.00000000000E+00 0.  1.
<scales pt_clust_5="13000.00000" pt_clust_6="13000.00000" pt_clust_7="13000.00000" pt_clust_8="13000.00000" pt_clust_9="26.91688"></scales>
<clustering>
<clus scale="   26.917">  2  9  1 -1</clus>
<clus scale="   80.558">  5  6 -1 -1</clus>
<clus scale="   86.336">  7  8 -1 -1</clus>
<clus scale="   96.032">  2  5  1 -1</clus>
<clus scale="  100.928">  1  5  2 -1</clus>
</clustering>
</event>
<event>
 9    2  0.3402837E-005  0.9355741E+02  0.7546771E-02  0.1300747E+00
         -1   -1    0    0    0  501 -0.00000000000E+00  0.00000000000E+00  0.95588524266E+02  0.95588524266E+02  0.00000000000E+00 0.  1.
          2   -1    0    0  502    0  0.00000000000E+00 -0.00000000000E+00 -0.30203824542E+03  0.30203824542E+03  0.00000000000E+00 0. -1.
         23    2    1    2    0    0 -0.11333882871E+02 -0.17771657416E+02  0.41705448128E+01  0.94576085811E+02  0.92102952477E+02 0.  0.
         24    2    1    2    0    0  0.75170116089E+01 -0.18998545314E+02 -0.24095525044E+03  0.25522989762E+03  0.81642009626E+02 0.  0.
        -11    1    4    4    0    0  0.18411739113E+01  0.32342259157E+02 -0.86549898011E+02  0.92413724600E+02  0.00000000000E+00 0.  1.
         12    1    4    4    0    0  0.56758376976E+01 -0.51340804471E+02 -0.15440535243E+03  0.16281617302E+03  0.00000000000E+00 0. -1.
        -11    1    3    3    0    0  0.27142842637E+02  0.22010946708E+02  0.15256951572E+02  0.38131224117E+02  0.00000000000E+00 0. -1.
         11    1    3    3    0    0 -0.38476725508E+02 -0.39782604124E+02 -0.11086406759E+02  0.56444861694E+02  0.00000000000E+00 0.  1.
         21    1    1    2  502  501  0.38168712623E+01  0.36770202730E+02  0.30334984475E+02  0.47820786256E+02  0.00000000000E+00 0. -1.
<scales pt_clust_5="13000.00000" pt_clust_6="13000.00000" pt_clust_7="13000.00000" pt_clust_8="13000.00000" pt_clust_9="36.96777"></scales>
<clustering>
<clus scale="   36.968">  1  9  2 -1</clus>
<clus scale="   81.642">  5  6 -1 -1</clus>
<clus scale="   83.279">  2  5  1 -1</clus>
<clus scale="   92.103">  7  8 -1 -1</clus>
<clus scale="   83.279">  2  5  1 -1</clus>
</clustering>
</event>
<event>
 9    2  0.3402837E-005  0.1259967E+03  0.7546771E-02  0.1239376E+00
         -1   -1    0    0    0  501 -0.00000000000E+00  0.00000000000E+00  0.12704823302E+03  0.12704823302E+03  0.00000000000E+00 0.  1.
          2   -1    0    0  502    0  0.00000000000E+00 -0.00000000000E+00 -0.17385320103E+03  0.17385320103E+03  0.00000000000E+00 0. -1.
         23    2    1    2    0    0  0.40828127677E+02 -0.50280099436E+02 -0.20530511355E+02  0.11984535636E+03  0.98723771893E+02 0.  0.
         24    2    1    2    0    0 -0.41613630126E+02  0.78269915455E+02 -0.62988186227E+02  0.13488309042E+03  0.79800141598E+02 0.  0.
        -11    1    4    4    0    0  0.14195153463E+01  0.76005309714E+02 -0.36806729374E+02  0.84460389863E+02  0.00000000000E+00 0.  1.
         12    1    4    4    0    0 -0.43033145472E+02  0.22646057406E+01 -0.26181456854E+02  0.50422700556E+02  0.00000000000E+00 0. -1.
        -13    1    3    3    0    0  0.25085309810E+02  0.21066226713E+02  0.17860733659E+02  0.37310380366E+02  0.00000000000E+00 0.  1.
         13    1    3    3    0    0  0.15742817867E+02 -0.71346326149E+02 -0.38391245015E+02  0.82534975999E+02  0.00000000000E+00 0. -1.
         21    1    1    2  502  501  0.78550244852E+00 -0.27989816019E+02  0.36713729572E+02  0.46172987276E+02  0.00000000000E+00 0. -1.
<scales pt_clust_5="13000.00000" pt_clust_6="13000.00000" pt_clust_7="13000.00000" pt_clust_8="13000.00000" pt_clust_9="28.00084"></scales>
<clustering>
<clus scale="   28.001">  1  9  2 -1</clus>
<clus scale="   79.800">  5  6 -1 -1</clus>
<clus scale="   98.724">  7  8 -1 -1</clus>
<clus scale="  111.789">  2  5  1 -1</clus>
<clus scale="  111.789">  2  5  1 -1</clus>
</clustering>
</event>
<event>
 9    2  0.3402837E-005  0.8785528E+02  0.7546771E-02  0.1312756E+00
          2   -1    0    0  502    0  0.00000000000E+00  0.00000000000E+00  0.39949541072E+02  0.39949541072E+02  0.00000000000E+00 0. -1.
         -1   -1    0    0    0  501 -0.00000000000E+00 -0.00000000000E+00 -0.26925737206E+03  0.26925737206E+03  0.00000000000E+00 0.  1.
         24    2    1    2    0    0 -0.17608632071E+02 -0.33925415692E+01 -0.10711164389E+03  0.13475913521E+03  0.79784378194E+02 0.  0.
         23    2    1    2    0    0  0.16509220582E+00  0.15193848859E+02 -0.54907391400E+02  0.10394011903E+03  0.86935875299E+02 0.  0.
        -13    1    3    3    0    0 -0.15319072243E+02  0.18516812696E+02 -0.10995235824E+03  0.11254806710E+03  0.00000000000E+00 0.  1.
         14    1    3    3    0    0 -0.22895598274E+01 -0.21909354265E+02  0.28407143449E+01  0.22211068108E+02  0.00000000000E+00 0. -1.
        -13    1    4    4    0    0  0.23867686669E+02 -0.23927697187E+02 -0.46416716717E+02  0.57417007501E+02  0.00000000000E+00 0. -1.
         13    1    4    4    0    0 -0.23702594463E+02  0.39121546046E+02 -0.84906746827E+01  0.46523111524E+02  0.00000000000E+00 0.  1.
         21    1    1    2  502  501  0.17443539865E+02 -0.11801307290E+02 -0.67288795695E+02  0.70507658895E+02  0.00000000000E+00 0. -1.
<scales pt_clust_5="13000.00000" pt_clust_6="13000.00000" pt_clust_7="13000.00000" pt_clust_8="13000.00000" pt_clust_9="21.06058"></scales>
<clustering>
<clus scale="   21.061">  2  9  1 -1</clus>
<clus scale="   79.784">  5  6 -1 -1</clus>
<clus scale="   80.785">  2  5  1 -1</clus>
<clus scale="   86.936">  7  8 -1 -1</clus>
<clus scale="   87.855">  1  5  2 -1</clus>
</clustering>
</event>
<event>
 9    2  0.3402837E-005  0.9440776E+02  0.7546771E-02  0.1298530E+00
          2   -1    0    0  502    0  0.00000000000E+00  0.00000000000E+00  0.20467883971E+03  0.20467883971E+03  0.00000000000E+00 0. -1.
         -1   -1    0    0    0  501 -0.00000000000E+00 -0.00000000000E+00 -0.96545115459E+02  0.96545115459E+02  0.00000000000E+00 0.  1.
         24    2    1    2    0    0  0.48222068092E+01  0.65524333372E+01  0.91572309557E+01  0.82295688195E+02  0.81378973670E+02 0.  0.
         23    2    1    2    0    0 -0.15173133833E+02 -0.23865964264E+02  0.14201916942E+03  0.17139331129E+03  0.91686500802E+02 0.  0.
        -11    1    3    3    0    0 -0.21061974407E+02 -0.49294016411E+00 -0.28881640582E+02  0.35749110739E+02  0.00000000000E+00 0.  1.
         12    1    3    3    0    0  0.25884181217E+02  0.70453735013E+01  0.38038871538E+02  0.46546577456E+02  0.00000000000E+00 0. -1.
        -13    1    4    4    0    0 -0.17992737253E+02 -0.55129089106E+02  0.59408977958E+02  0.83020369317E+02  0.00000000000E+00 0.  1.
         13    1    4    4    0    0  0.28196034199E+01  0.31263124842E+02  0.82610191466E+02  0.88372941970E+02  0.00000000000E+00 0. -1.
         21    1    1    2  502  501  0.10350927024E+02  0.17313530927E+02 -0.43042676131E+02  0.47534955684E+02  0.00000000000E+00 0. -1.
<scales pt_clust_5="13000.00000" pt_clust_6="13000.00000" pt_clust_7="13000.00000" pt_clust_8="13000.00000" pt_clust_9="20.17176"></scales>
<clustering>
<clus scale="   20.172">  2  9  1 -1</clus>
<clus scale="   81.379">  5  6 -1 -1</clus>
<clus scale="   84.433">  2  5  1 -1</clus>
<clus scale="   91.687">  7  8 -1 -1</clus>
<clus scale="   94.408">  1  5  2 -1</clus>
</clustering>
</event>
<event>
 9    2  0.3402837E-005  0.3061347E+03  0.7546771E-02  0.1082953E+00
         -1   -1    0    0    0  501 -0.00000000000E+00  0.00000000000E+00  0.28368477002E+03  0.28368477002E+03  0.00000000000E+00 0.  1.
          2   -1    0    0  502    0  0.00000000000E+00 -0.00000000000E+00 -0.12329618810E+04  0.12329618810E+04  0.00000000000E+00 0. -1.
         24    2    1    2    0    0  0.21233937037E+03  0.21986578662E+03  0.75584802582E+01  0.31592467084E+03  0.79512858630E+02 0.  0.
         23    2    1    2    0    0 -0.21852028645E+03 -0.18668200459E+03 -0.10544346819E+04  0.10974507373E+04  0.99821521205E+02 0.  0.
        -13    1    3    3    0    0  0.59704949094E+02  0.51113161953E+02  0.36305155294E+02  0.86575403968E+02  0.00000000000E+00 0.  1.
         14    1    3    3    0    0  0.15263442128E+03  0.16875262467E+03 -0.28746675036E+02  0.22934926688E+03  0.00000000000E+00 0. -1.
        -11    1    4    4    0    0 -0.12332394938E+03 -0.40513006671E+02 -0.45213989244E+03  0.47040470081E+03  0.00000000000E+00 0.  1.
         11    1    4    4    0    0 -0.95196337067E+02 -0.14616899792E+03 -0.60229478944E+03  0.62704603653E+03  0.00000000000E+00 0. -1.
         21    1    1    2  502  501  0.61809160804E+01 -0.33183782028E+02  0.97599090615E+02  0.10327124286E+03  0.00000000000E+00 0.  1.
<scales pt_clust_5="13000.00000" pt_clust_6="13000.00000" pt_clust_7="13000.00000" pt_clust_8="13000.00000" pt_clust_9="33.75451"></scales>
<clustering>
<clus scale="   33.755">  1  9  2 -1</clus>
<clus scale="   79.513">  5  6 -1 -1</clus>
<clus scale="   99.822">  7  8 -1 -1</clus>
<clus scale="  300.127">  1  5  2 -1</clus>
<clus scale="  306.135">  2  5  1 -1</clus>
</clustering>
</event>
<event>
 9    2  0.3513065E-005  0.1332666E+03  0.7546771E-02  0.1228371E+00
         -1   -1    0    0    0  501 -0.00000000000E+00  0.00000000000E+00  0.37772588541E+03  0.37772588541E+03  0.00000000000E+00 0.  1.
          2   -1    0    0  502    0  0.00000000000E+00 -0.00000000000E+00 -0.19679974803E+03  0.19679974803E+03  0.00000000000E+00 0. -1.
         24    2    1    2    0    0  0.35130987682E+02  0.36791054859E+02  0.31032865606E+03  0.32510185863E+03  0.82459539783E+02 0.  0.
         23    2    1    2    0    0 -0.54732801364E+02 -0.68547348066E+02 -0.15393190727E+03  0.20476524638E+03  0.10266136360E+03 0.  0.
        -13    1    3    3    0    0  0.60468920490E+02  0.37103601033E+02  0.24372869367E+03  0.25384413263E+03  0.00000000000E+00 0.  1.
         14    1    3    3    0    0 -0.25337932808E+02 -0.31254617396E+00  0.66599962391E+02  0.71257725999E+02  0.00000000000E+00 0. -1.
        -11    1    4    4    0    0 -0.50947301139E+02 -0.29334380322E+02 -0.15456206147E+03  0.16536494250E+03  0.00000000000E+00 0. -1.
         11    1    4    4    0    0 -0.37855002246E+01 -0.39212967744E+02  0.63015420345E+00  0.39400303876E+02  0.00000000000E+00 0.  1.
         21    1    1    2  502  501  0.19601813682E+02  0.31756293207E+02  0.24529388588E+02  0.44658528439E+02  0.00000000000E+00 0.  1.
<scales pt_clust_5="13000.00000" pt_clust_6="13000.00000" pt_clust_7="13000.00000" pt_clust_8="13000.00000" pt_clust_9="37.31881"></scales>
<clustering>
<clus scale="   37.319">  1  9  2 -1</clus>
<clus scale="   82.460">  5  6 -1 -1</clus>
<clus scale="  102.661">  7  8 -1 -1</clus>
<clus scale="  118.407">  1  5  2 -1</clus>
<clus scale="  133.267">  2  5  1 -1</clus>
</clustering>
</event>
<event>
 9    2  0.3402837E-005  0.1686040E+03  0.7546771E-02  0.1180429E+00
          2   -1    0    0  502    0  0.00000000000E+00  0.00000000000E+00  0.15206146991E+04  0.15206146991E+04  0.00000000000E+00 0. -1.
         -1   -1    0    0    0  501 -0.00000000000E+00 -0.00000000000E+00 -0.23301662087E+02  0.23301662087E+02  0.00000000000E+00 0.  1.
         23    2    1    2    0    0  0.43559948722E+02  0.14429452988E+03  0.69066040258E+03  0.71277627098E+03  0.91213158581E+02 0.  0.
         24    2    1    2    0    0 -0.26963152737E+02 -0.13292917150E+03  0.78731733993E+03  0.80323886045E+03  0.83227981736E+02 0.  0.
        -11    1    4    4    0    0 -0.42332387503E+02 -0.65696937258E+02  0.26183849513E+03  0.27325357477E+03  0.00000000000E+00 0.  1.
         12    1    4    4    0    0  0.15369234767E+02 -0.67232234245E+02  0.52547884480E+03  0.52998528568E+03  0.00000000000E+00 0. -1.
        -11    1    3    3    0    0  0.73449680738E+01  0.10522921225E+03  0.58514241226E+03  0.59457445143E+03  0.00000000000E+00 0. -1.
         11    1    3    3    0    0  0.36214980648E+02  0.39065317625E+02  0.10551799032E+03  0.11820181956E+03  0.00000000000E+00 0.  1.
         21    1    1    2  502  501 -0.16596795986E+02 -0.11365358374E+02  0.19335294490E+02  0.27901229739E+02  0.00000000000E+00 0. -1.
<scales pt_clust_5="13000.00000" pt_clust_6="13000.00000" pt_clust_7="13000.00000" pt_clust_8="13000.00000" pt_clust_9="20.11529"></scales>
<clustering>
<clus scale="   20.115">  2  9  1 -1</clus>
<clus scale="   83.228">  5  6 -1 -1</clus>
<clus scale="   91.213">  7  8 -1 -1</clus>
<clus scale="  164.421">  1  5  2 -1</clus>
<clus scale="  164.421">  1  5  2 -1</clus>
</clustering>
</event>
<event>
 9    2  0.3402837E-005  0.8458105E+02  0.7546771E-02  0.1334832E+00
          2   -1    0    0  502    0  0.00000000000E+00  0.00000000000E+00  0.69602176848E+03  0.69602176848E+03  0.00000000000E+00 0. -1.
         -1   -1    0    0    0  501 -0.00000000000E+00 -0.00000000000E+00 -0.22572811232E+02  0.22572811232E+02  0.00000000000E+00 0.  1.
         23    2    1    2    0    0 -0.23718619933E+02  0.19346843502E+01  0.11374757268E+03  0.14062549795E+03  0.79187779666E+02 0.  0.
         24    2    1    2    0    0  0.30925751221E+02  0.58804291388E+02  0.32657150537E+03  0.33694894466E+03  0.49712135441E+02 0.  0.
        -13    1    4    4    0    0  0.31124434544E+02  0.43736070860E+02  0.14272831607E+03  0.15248916856E+03  0.00000000000E+00 0.  1.
         14    1    4    4    0    0 -0.19868332333E+00  0.15068220528E+02  0.18384318930E+03  0.18445977609E+03  0.00000000000E+00 0. -1.
        -11    1    3    3    0    0  0.10453118935E+02  0.31735421134E+02  0.27856849235E+02  0.43501824092E+02  0.00000000000E+00 0.  1.
         11    1    3    3    0    0 -0.34171738868E+02 -0.29800736784E+02  0.85890723444E+02  0.97123673858E+02  0.00000000000E+00 0. -1.
         21    1    1    2  502  501 -0.72071312880E+01 -0.60738975738E+02  0.23312987920E+03  0.24102013710E+03  0.00000000000E+00 0.  1.
<scales pt_clust_5="13000.00000" pt_clust_6="13000.00000" pt_clust_7="13000.00000" pt_clust_8="13000.00000" pt_clust_9="61.16507"></scales>
<clustering>
<clus scale="   49.712">  5  6 -1 -1</clus>
<clus scale="   61.165">  1  9  2 -1</clus>
<clus scale="   61.165">  1  5  2 -1</clus>
<clus scale="   79.188">  7  8 -1 -1</clus>
<clus scale="   61.165">  1  5  2 -1</clus>
</clustering>
</event>
<event>
 9    2  0.3402837E-005  0.1749725E+03  0.7546771E-02  0.1174525E+00
         -1   -1    0    0    0  501 -0.00000000000E+00  0.00000000000E+00  0.40629106892E+02  0.40629106892E+02  0.00000000000E+00 0.  1.
          2   -1    0    0  502    0  0.00000000000E+00 -0.00000000000E+00 -0.10006241432E+04  0.10006241432E+04  0.00000000000E+00 0. -1.
         24    2    1    2    0    0 -0.80503479182E+02 -0.97914222868E+02 -0.25822033353E+03  0.29866247364E+03  0.80333849115E+02 0.  0.
         23    2    1    2    0    0  0.90334122267E+02  0.13344716815E+03 -0.66444833459E+03  0.69012660290E+03  0.93886838045E+02 0.  0.
        -13    1    3    3    0    0 -0.83508551214E+02 -0.66650830048E+02 -0.13868619607E+03  0.17507104916E+03  0.00000000000E+00 0.  1.
         14    1    3    3    0    0  0.30050720320E+01 -0.31263392820E+02 -0.11953413746E+03  0.12359142449E+03  0.00000000000E+00 0. -1.
        -11    1    4    4    0    0 -0.17312105074E+02  0.37149652641E+02 -0.11811074832E+03  0.12501981660E+03  0.00000000000E+00 0.  1.
         11    1    4    4    0    0  0.10764622734E+03  0.96297515511E+02 -0.54633758626E+03  0.56510678630E+03  0.00000000000E+00 0. -1.
         21    1    1    2  502  501 -0.98306430851E+01 -0.35532945284E+02 -0.37326368184E+02  0.52464173545E+02  0.00000000000E+00 0. -1.
<scales pt_clust_5="13000.00000" pt_clust_6="13000.00000" pt_clust_7="13000.00000" pt_clust_8="13000.00000" pt_clust_9="36.86776"></scales>
<clustering>
<clus scale="   36.868">  1  9  2 -1</clus>
<clus scale="   80.334">  5  6 -1 -1</clus>
<clus scale="   93.887">  7  8 -1 -1</clus>
<clus scale="  168.090">  1  5  2 -1</clus>
<clus scale="  174.973">  2  5  1 -1</clus>
</clustering>
</event>
<event>
 9    2  0.3402837E-005  0.1741401E+03  0.7546771E-02  0.1185933E+00
          2   -1    0    0  502    0  0.00000000000E+00  0.00000000000E+00  0.44489694855E+03  0.44489694855E+03  0.00000000000E+00 0. -1.
         -1   -1    0    0    0  501 -0.00000000000E+00 -0.00000000000E+00 -0.14643365305E+03  0.14643365305E+03  0.00000000000E+00 0.  1.
         23    2    1    2    0    0  0.64556947180E+02  0.69726376572E+02 -0.65384588435E+01  0.13211564561E+03  0.91555586136E+02 0.  0.
         24    2    1    2    0    0 -0.11840540850E+03  0.94248318369E+02  0.13929200097E+03  0.21995133625E+03  0.77934219105E+02 0.  0.
        -11    1    4    4    0    0 -0.36596128824E+02  0.67280735121E+02  0.98134445539E+02  0.12448430971E+03  0.00000000000E+00 0.  1.
         12    1    4    4    0    0 -0.81809279675E+02  0.26967583248E+02  0.41157555431E+02  0.95467026539E+02  0.00000000000E+00 0. -1.
        -13    1    3    3    0    0  0.86849569371E+02  0.43247355618E+02 -0.88539534791E+01  0.97424709186E+02  0.00000000000E+00 0.  1.
         13    1    3    3    0    0 -0.22292622190E+02  0.26479020954E+02  0.23154946356E+01  0.34690936427E+02  0.00000000000E+00 0. -1.
         21    1    1    2  502  501  0.53848461319E+02 -0.16397469494E+03  0.16570975338E+03  0.23926361974E+03  0.00000000000E+00 0. -1.
<scales pt_clust_5="13000.00000" pt_clust_6="13000.00000" pt_clust_7="13000.00000" pt_clust_8="13000.00000" pt_clust_9="155.72743"></scales>
<clustering>
<clus scale="   77.934">  5  6 -1 -1</clus>
<clus scale="   91.556">  7  8 -1 -1</clus>
<clus scale="  131.954">  2  7  1 -1</clus>
<clus scale="  155.727">  2  9  1 -1</clus>
<clus scale="  174.140">  1  5  2 -1</clus>
</clustering>
</event>
<event>
 9    2  0.3402837E-005  0.1083059E+03  0.7546771E-02  0.1268459E+00
         -1   -1    0    0    0  501 -0.00000000000E+00  0.00000000000E+00  0.18429117634E+03  0.18429117634E+03  0.00000000000E+00 0.  1.
          2   -1    0    0  502    0  0.00000000000E+00 -0.00000000000E+00 -0.15409743907E+03  0.15409743907E+03  0.00000000000E+00 0. -1.
         23    2    1    2    0    0  0.72950198592E+02 -0.15166279516E+02  0.87056631014E+02  0.14714283433E+03  0.92306062542E+02 0.  0.
         24    2    1    2    0    0 -0.53451695620E+02  0.56108417128E+01 -0.10217578110E+03  0.14099883322E+03  0.80945756018E+02 0.  0.
        -13    1    4    4    0    0 -0.12201707812E+01  0.30957541473E+02 -0.65147041301E+02  0.72138721787E+02  0.00000000000E+00 0.  1.
         14    1    4    4    0    0 -0.52231524839E+02 -0.25346699760E+02 -0.37028739796E+02  0.68860111434E+02  0.00000000000E+00 0. -1.
        -13    1    3    3    0    0  0.65876436412E+02 -0.45859429752E+02  0.82866772032E+02  0.11536764745E+03  0.00000000000E+00 0.  1.
         13    1    3    3    0    0  0.70737621800E+01  0.30693150236E+02  0.41898589815E+01  0.31775186877E+02  0.00000000000E+00 0. -1.
         21    1    1    2  502  501 -0.19498502972E+02  0.95554378027E+01  0.45312887345E+02  0.50246947860E+02  0.00000000000E+00 0. -1.
<scales pt_clust_5="13000.00000" pt_clust_6="13000.00000" pt_clust_7="13000.00000" pt_clust_8="13000.00000" pt_clust_9="21.71400"></scales>
<clustering>
<clus scale="   21.714">  1  9  2 -1</clus>
<clus scale="   80.946">  5  6 -1 -1</clus>
<clus scale="   92.306">  7  8 -1 -1</clus>
<clus scale="   98.803">  2  5  1 -1</clus>
<clus scale="   98.803">  2  5  1 -1</clus>
</clustering>
</event>
<event>
 9    2  0.3402837E-005  0.1146303E+03  0.7546771E-02  0.1256705E+00
          2   -1    0    0  502    0  0.00000000000E+00  0.00000000000E+00  0.68124194430E+03  0.68124194430E+03  0.00000000000E+00 0. -1.
         -1   -1    0    0    0  501 -0.00000000000E+00 -0.00000000000E+00 -0.66573539011E+02  0.66573539011E+02  0.00000000000E+00 0.  1.
         23    2    1    2    0    0 -0.44448040260E+02  0.30372140708E+02  0.16142157737E+02  0.10612551338E+03  0.90021997979E+02 0.  0.
         24    2    1    2    0    0 -0.64615612358E+02 -0.38093639736E+02  0.40716663819E+03  0.42129713437E+03  0.77976287588E+02 0.  0.
        -13    1    4    4    0    0 -0.72147488593E+02 -0.50257936053E+02  0.38501039800E+03  0.39492293782E+03  0.00000000000E+00 0.  1.
         14    1    4    4    0    0  0.75318762347E+01  0.12164296317E+02  0.22156240189E+02  0.26374196553E+02  0.00000000000E+00 0. -1.
        -13    1    3    3    0    0 -0.19582092031E+01  0.53864999008E+02  0.19832466671E+02  0.57433434824E+02  0.00000000000E+00 0. -1.
         13    1    3    3    0    0 -0.42489831057E+02 -0.23492858300E+02 -0.36903089341E+01  0.48692078559E+02  0.00000000000E+00 0.  1.
         21    1    1    2  502  501  0.10906365262E+03  0.77214990280E+01  0.19135960937E+03  0.22039283556E+03  0.00000000000E+00 0. -1.
<scales pt_clust_5="13000.00000" pt_clust_6="13000.00000" pt_clust_7="13000.00000" pt_clust_8="13000.00000" pt_clust_9="84.02265"></scales>
<clustering>
<clus scale="   77.976">  5  6 -1 -1</clus>
<clus scale="   90.022">  7  8 -1 -1</clus>
<clus scale="  104.891">  2  7  1 -1</clus>
<clus scale="   84.023">  2  9  1 -1</clus>
<clus scale="  114.630">  1  5  2 -1</clus>
</clustering>
</event>
<event>
 9    2  0.3402837E-005  0.1504737E+03  0.7546771E-02  0.1202032E+00
         -1   -1    0    0    0  501 -0.00000000000E+00  0.00000000000E+00  0.83988720818E+02  0.83988720818E+02  0.00000000000E+00 0.  1.
          2   -1    0    0  502    0  0.00000000000E+00 -0.00000000000E+00 -0.12532228513E+04  0.12532228513E+04  0.00000000000E+00 0. -1.
         23    2    1    2    0    0  0.49889670857E+02 -0.86502235781E+02 -0.19343423744E+03  0.23632978612E+03  0.91996453949E+02 0.  0.
         24    2    1    2    0    0 -0.32362831437E+02  0.12026286218E+03 -0.10266974160E+04  0.10373402418E+04  0.80353496301E+02 0.  0.
        -11    1    4    4    0    0  0.19389690943E+02  0.73723902603E+02 -0.44342344010E+03  0.44992835114E+03  0.00000000000E+00 0.  1.
         12    1    4    4    0    0 -0.51752522380E+02  0.46538959576E+02 -0.58327397594E+03  0.58741189070E+03  0.00000000000E+00 0. -1.
        -13    1    3    3    0    0  0.67646023612E+02 -0.36728896993E+02 -0.79088179913E+02  0.11036275000E+03  0.00000000000E+00 0.  1.
         13    1    3    3    0    0 -0.17756352755E+02 -0.49773338788E+02 -0.11434605753E+03  0.12596703612E+03  0.00000000000E+00 0. -1.
         21    1    1    2  502  501 -0.17526839421E+02 -0.33760626398E+02  0.50897522961E+02  0.63541544193E+02  0.00000000000E+00 0. -1.
<scales pt_clust_5="13000.00000" pt_clust_6="13000.00000" pt_clust_7="13000.00000" pt_clust_8="13000.00000" pt_clust_9="38.03906"></scales>
<clustering>
<clus scale="   38.039">  1  9  2 -1</clus>
<clus scale="   80.353">  5  6 -1 -1</clus>
<clus scale="   91.996">  7  8 -1 -1</clus>
<clus scale="  143.651">  2  5  1 -1</clus>
<clus scale="  143.651">  2  5  1 -1</clus>
</clustering>
</event>
<event>
 9    2  0.3402837E-005  0.9781656E+02  0.7546771E-02  0.1291708E+00
         -1   -1    0    0    0  501 -0.00000000000E+00  0.00000000000E+00  0.59454684096E+02  0.59454684096E+02  0.00000000000E+00 0.  1.
          2   -1    0    0  502    0  0.00000000000E+00 -0.00000000000E+00 -0.11415396838E+04  0.11415396838E+04  0.00000000000E+00 0. -1.
         23    2    1    2    0    0  0.70743643737E+02 -0.41577863055E+02 -0.53735147615E+02  0.13456553247E+03  0.92125103065E+02 0.  0.
         24    2    1    2    0    0 -0.28900675885E+02 -0.14075211340E+02 -0.97483436189E+03  0.97861080573E+03  0.79647443947E+02 0.  0.
        -13    1    4    4    0    0 -0.29702587978E+02  0.19390410665E+02 -0.20479948579E+03  0.20784864960E+03  0.00000000000E+00 0.  1.
         14    1    4    4    0    0  0.80191209229E+00 -0.33465622006E+02 -0.77003487610E+03  0.77076215613E+03  0.00000000000E+00 0. -1.
        -13    1    3    3    0    0  0.31207174879E+02 -0.68631023019E+02 -0.35088027406E+02  0.83158131002E+02  0.00000000000E+00 0.  1.
         13    1    3    3    0    0  0.39536468857E+02  0.27053159963E+02 -0.18647120208E+02  0.51407401469E+02  0.00000000000E+00 0. -1.
         21    1    1    2  502  501 -0.41842967851E+02  0.55653074395E+02 -0.53515490196E+02  0.87818029693E+02  0.00000000000E+00 0.  1.
<scales pt_clust_5="13000.00000" pt_clust_6="13000.00000" pt_clust_7="13000.00000" pt_clust_8="13000.00000" pt_clust_9="69.62829"></scales>
<clustering>
<clus scale="   69.628">  1  9  2 -1</clus>
<clus scale="   79.647">  5  6 -1 -1</clus>
<clus scale="   86.167">  2  5  1 -1</clus>
<clus scale="   92.125">  7  8 -1 -1</clus>
<clus scale="   86.167">  2  5  1 -1</clus>
</clustering>
</event>
<event>
 9    2  0.3402837E-005  0.1276767E+03  0.7546771E-02  0.1234219E+00
         -1   -1    0    0    0  501 -0.00000000000E+00  0.00000000000E+00  0.37458860253E+03  0.37458860253E+03  0.00000000000E+00 0.  1.
          2   -1    0    0  502    0  0.00000000000E+00 -0.00000000000E+00 -0.11720865540E+03  0.11720865540E+03  0.00000000000E+00 0. -1.
         24    2    1    2    0    0 -0.19694148579E+02  0.47410423546E+02  0.20719914138E+03  0.22804214450E+03  0.80225480563E+02 0.  0.
         23    2    1    2    0    0  0.77856808947E+02 -0.58628124869E+02 -0.53457162902E+02  0.14438359073E+03  0.92141268068E+02 0.  0.
        -11    1    3    3    0    0 -0.19865558205E+02  0.56930759053E+02  0.20970043578E+03  0.21819721468E+03  0.00000000000E+00 0.  1.
         12    1    3    3    0    0  0.17140962619E+00 -0.95203355068E+01 -0.25012944020E+01  0.98449298173E+01  0.00000000000E+00 0. -1.
        -13    1    4    4    0    0  0.11797358432E+02 -0.65374087596E+02 -0.36721884594E+02  0.75904188311E+02  0.00000000000E+00 0.  1.
         13    1    4    4    0    0  0.66059450515E+02  0.67459627276E+01 -0.16735278308E+02  0.68479402418E+02  0.00000000000E+00 0. -1.
         21    1    1    2  502  501 -0.58162660369E+02  0.11217701323E+02  0.10363796865E+03  0.11937152269E+03  0.00000000000E+00 0.  1.
<scales pt_clust_5="13000.00000" pt_clust_6="13000.00000" pt_clust_7="13000.00000" pt_clust_8="13000.00000" pt_clust_9="59.23455"></scales>
<clustering>
<clus scale="   59.235">  1  9  2 -1</clus>
<clus scale="   80.225">  5  6 -1 -1</clus>
<clus scale="   92.141">  7  8 -1 -1</clus>
<clus scale="  119.363">  1  5  2 -1</clus>
<clus scale="  127.677">  2  5  1 -1</clus>
</clustering>
</event>
<event>
 9    2  0.3402837E-005  0.1070709E+03  0.7546771E-02  0.1271392E+00
          2   -1    0    0  502    0  0.00000000000E+00  0.00000000000E+00  0.86661851797E+03  0.86661851797E+03  0.00000000000E+00 0. -1.
         -1   -1    0    0    0  501 -0.00000000000E+00 -0.00000000000E+00 -0.22838350600E+02  0.22838350600E+02  0.00000000000E+00 0.  1.
         23    2    1    2    0    0  0.26811631354E+02  0.42172728087E+02  0.16186974359E+03  0.19254565560E+03  0.91512911829E+02 0.  0.
         24    2    1    2    0    0 -0.13232078796E+02 -0.73314401140E+02  0.47746011815E+03  0.48965741802E+03  0.79032482394E+02 0.  0.
        -13    1    4    4    0    0 -0.13783479624E+02 -0.75656577685E+02  0.23657313579E+03  0.24875841822E+03  0.00000000000E+00 0.  1.
         14    1    4    4    0    0  0.55140082763E+00  0.23421765454E+01  0.24088698236E+03  0.24089899980E+03  0.00000000000E+00 0. -1.
        -11    1    3    3    0    0 -0.63020194245E+01  0.62712032586E+02  0.11866416812E+03  0.13436405500E+03  0.00000000000E+00 0.  1.
         11    1    3    3    0    0  0.33113650778E+02 -0.20539304499E+02  0.43205575462E+02  0.58181600598E+02  0.00000000000E+00 0. -1.
         21    1    1    2  502  501 -0.13579552557E+02  0.31141673053E+02  0.20445030563E+03  0.20725379495E+03  0.00000000000E+00 0. -1.
<scales pt_clust_5="13000.00000" pt_clust_6="13000.00000" pt_clust_7="13000.00000" pt_clust_8="13000.00000" pt_clust_9="33.97364"></scales>
<clustering>
<clus scale="   33.974">  1  9  2 -1</clus>
<clus scale="   79.032">  5  6 -1 -1</clus>
<clus scale="   91.513">  7  8 -1 -1</clus>
<clus scale="   96.621">  1  5  2 -1</clus>
<clus scale="   33.974">  1  5  2 -1</clus>
</clustering>
</event>
<event>
 9    2  0.3402837E-005  0.9083396E+02  0.7546771E-02  0.1304346E+00
         -1   -1    0    0    0  501 -0.00000000000E+00  0.00000000000E+00  0.84857479413E+02  0.84857479413E+02  0.00000000000E+00 0.  1.
          2   -1    0    0  502    0  0.00000000000E+00 -0.00000000000E+00 -0.25530059667E+03  0.25530059667E+03  0.00000000000E+00 0. -1.
         23    2    1    2    0    0  0.21383532101E+02  0.49357426721E+01  0.42789107667E+02  0.95740774517E+02  0.82787506119E+02 0.  0.
         24    2    1    2    0    0 -0.19409488294E+00 -0.21978220137E+02 -0.17659559740E+03  0.19879186169E+03  0.88595256187E+02 0.  0.
        -11    1    4    4    0    0  0.14276773121E+02  0.19375642593E+02 -0.92135065846E+01  0.25770729136E+02  0.00000000000E+00 0.  1.
         12    1    4    4    0    0 -0.14470868004E+02 -0.41353862730E+02 -0.16738209081E+03  0.17302113255E+03  0.00000000000E+00 0. -1.
        -13    1    3    3    0    0  0.30613980074E+02 -0.33457947468E+02  0.16296942680E+02  0.48189629231E+02  0.00000000000E+00 0.  1.
         13    1    3    3    0    0 -0.92304479727E+01  0.38393690140E+02  0.26492164987E+02  0.47551145286E+02  0.00000000000E+00 0. -1.
         21    1    1    2  502  501 -0.21189437218E+02  0.17042477465E+02 -0.36636627529E+02  0.45625439882E+02  0.00000000000E+00 0.  1.
<scales pt_clust_5="13000.00000" pt_clust_6="13000.00000" pt_clust_7="13000.00000" pt_clust_8="13000.00000" pt_clust_9="27.19261"></scales>
<clustering>
<clus scale="   27.193">  2  9  1 -1</clus>
<clus scale="   82.788">  7  8 -1 -1</clus>
<clus scale="   85.179">  1  7  2 -1</clus>
<clus scale="   88.595">  5  6 -1 -1</clus>
<clus scale="   27.193">  2  5  1 -1</clus>
</clustering>
</event>
<event>
 9    2  0.3402837E-005  0.1015246E+03  0.7546771E-02  0.1280268E+00
         -1   -1    0    0    0  501 -0.00000000000E+00  0.00000000000E+00  0.18207753112E+03  0.18207753112E+03  0.00000000000E+00 0.  1.
          2   -1    0    0  502    0  0.00000000000E+00 -0.00000000000E+00 -0.27870379255E+03  0.27870379255E+03  0.00000000000E+00 0. -1.
         23    2    1    2    0    0  0.47462393714E+02  0.41195864289E+02  0.71191875245E+02  0.13170285505E+03  0.91255579967E+02 0.  0.
         24    2    1    2    0    0 -0.26845399443E+02 -0.33493220509E+02 -0.23763188395E+03  0.25587771396E+03  0.84628724088E+02 0.  0.
        -11    1    4    4    0    0  0.28852920555E+02 -0.17886707057E+02 -0.58478117824E+02  0.67617420670E+02  0.00000000000E+00 0.  1.
         12    1    4    4    0    0 -0.55698319997E+02 -0.15606513453E+02 -0.17915376612E+03  0.18826029329E+03  0.00000000000E+00 0. -1.
        -13    1    3    3    0    0  0.79065558465E+01  0.30154621629E+02 -0.16207670378E+02  0.35135500709E+02  0.00000000000E+00 0. -1.
         13    1    3    3    0    0  0.39555837868E+02  0.11041242660E+02  0.87399545623E+02  0.96567354339E+02  0.00000000000E+00 0.  1.
         21    1    1    2  502  501 -0.20616994272E+02 -0.77026437801E+01  0.69813747275E+02  0.73200754659E+02  0.00000000000E+00 0.  1.
<scales pt_clust_5="13000.00000" pt_clust_6="13000.00000" pt_clust_7="13000.00000" pt_clust_8="13000.00000" pt_clust_9="22.00889"></scales>
<clustering>
<clus scale="   22.009">  1  9  2 -1</clus>
<clus scale="   84.629">  5  6 -1 -1</clus>
<clus scale="   91.256">  7  8 -1 -1</clus>
<clus scale="   95.612">  2  5  1 -1</clus>
<clus scale="   95.612">  2  5  1 -1</clus>
</clustering>
</event>
<event>
 9    2  0.5097322E-005  0.3228322E+03  0.7546771E-02  0.1074425E+00
         -1   -1    0    0    0  501 -0.00000000000E+00  0.00000000000E+00  0.25618649100E+03  0.25618649100E+03  0.00000000000E+00 0.  1.
          2   -1    0    0  502    0  0.00000000000E+00 -0.00000000000E+00 -0.67443255942E+03  0.67443255942E+03  0.00000000000E+00 0. -1.
         23    2    1    2    0    0 -0.26495318675E+02 -0.28728732289E+03  0.77745972745E+02  0.31218869071E+03  0.90450729835E+02 0.  0.
         24    2    1    2    0    0  0.35971250653E+02  0.31247904771E+03 -0.49194353986E+03  0.59121259622E+03  0.92664995469E+02 0.  0.
        -13    1    4    4    0    0  0.22465108050E+02  0.10142548455E+02 -0.28190588860E+02  0.37446784497E+02  0.00000000000E+00 0.  1.
         14    1    4    4    0    0  0.13506142603E+02  0.30233649926E+03 -0.46375295100E+03  0.55376581172E+03  0.00000000000E+00 0. -1.
        -13    1    3    3    0    0 -0.19505487868E+02 -0.25888446354E+03  0.97025386015E+02  0.27715619252E+03  0.00000000000E+00 0.  1.
         13    1    3    3    0    0 -0.69898308075E+01 -0.28402859349E+02 -0.19279413270E+02  0.35032498197E+02  0.00000000000E+00 0. -1.
         21    1    1    2  502  501 -0.94759319781E+01 -0.25191724827E+02 -0.40485013020E+01  0.27217763490E+02  0.00000000000E+00 0. -1.
<scales pt_clust_5="13000.00000" pt_clust_6="13000.00000" pt_clust_7="13000.00000" pt_clust_8="13000.00000" pt_clust_9="26.91498"></scales>
<clustering>
<clus scale="   26.915">  1  9  2 -1</clus>
<clus scale="   90.451">  7  8 -1 -1</clus>
<clus scale="   92.665">  5  6 -1 -1</clus>
<clus scale="  322.204">  1  7  2 -1</clus>
<clus scale="  322.832">  2  5  1 -1</clus>
</clustering>
</event>
<event>
 9    2  0.3402837E-005  0.1181852E+03  0.7546771E-02  0.1249877E+00
         -1   -1    0    0    0  501 -0.00000000000E+00  0.00000000000E+00  0.39714440040E+03  0.39714440040E+03  0.00000000000E+00 0.  1.
          2   -1    0    0  502    0  0.00000000000E+00 -0.00000000000E+00 -0.45171594426E+03  0.45171594426E+03  0.00000000000E+00 0. -1.
         24    2    1    2    0    0  0.52788680237E+01  0.71282933884E+02  0.69356626813E+02  0.12863624260E+03  0.81411412697E+02 0.  0.
         23    2    1    2    0    0  0.32863115427E+02 -0.66682408195E+02 -0.41242200275E+03  0.42918344015E+03  0.92628230181E+02 0.  0.
        -11    1    3    3    0    0 -0.36633011337E+02  0.39809020359E+02  0.46959948170E+02  0.71637785796E+02  0.00000000000E+00 0.  1.
         12    1    3    3    0    0  0.41911879361E+02  0.31473913525E+02  0.22396678643E+02  0.56998456807E+02  0.00000000000E+00 0. -1.
        -13    1    4    4    0    0  0.52199524419E+02 -0.33778095232E+02 -0.35387404244E+03  0.35929456992E+03  0.00000000000E+00 0. -1.
         13    1    4    4    0    0 -0.19336408992E+02 -0.32904312963E+02 -0.58547960319E+02  0.69888870228E+02  0.00000000000E+00 0.  1.
         21    1    1    2  502  501 -0.38141983450E+02 -0.46005256895E+01  0.28849383208E+03  0.29104066191E+03  0.00000000000E+00 0.  1.
<scales pt_clust_5="13000.00000" pt_clust_6="13000.00000" pt_clust_7="13000.00000" pt_clust_8="13000.00000" pt_clust_9="38.41843"></scales>
<clustering>
<clus scale="   38.418">  1  9  2 -1</clus>
<clus scale="   81.411">  5  6 -1 -1</clus>
<clus scale="   92.628">  7  8 -1 -1</clus>
<clus scale="  109.616">  1  5  2 -1</clus>
<clus scale="  118.185">  2  5  1 -1</clus>
</clustering>
</event>
<event>
 9    2  0.3402837E-005  0.9483620E+02  0.7546771E-02  0.1294730E+00
          4   -1    0    0  502    0  0.00000000000E+00  0.00000000000E+00  0.55819945108E+02  0.55819945108E+02  0.00000000000E+00 0. -1.
         -3   -1    0    0    0  501 -0.00000000000E+00 -0.00000000000E+00 -0.68546555848E+03  0.68546555848E+03  0.00000000000E+00 0.  1.
         24    2    1    2    0    0  0.79573229387E+02  0.65693247238E+02 -0.49379502879E+03  0.51087539723E+03  0.80700926069E+02 0.  0.
         23    2    1    2    0    0 -0.36116705495E+02 -0.26770333779E+02 -0.47187299114E+01  0.86886498649E+02  0.74201954482E+02 0.  0.
        -13    1    3    3    0    0  0.65071098351E+02  0.25873137695E+02 -0.16339169563E+03  0.17776533209E+03  0.00000000000E+00 0.  1.
         14    1    3    3    0    0  0.14502131036E+02  0.39820109543E+02 -0.33040333316E+03  0.33311006514E+03  0.00000000000E+00 0. -1.
        -13    1    4    4    0    0  0.19016828634E+01  0.23529072959E+02  0.58297646850E+00  0.23612995015E+02  0.00000000000E+00 0.  1.
         13    1    4    4    0    0 -0.38018388359E+02 -0.50299406738E+02 -0.53017063799E+01  0.63273503634E+02  0.00000000000E+00 0. -1.
         21    1    1    2  502  501 -0.43456523892E+02 -0.38922913460E+02 -0.13113185467E+03  0.14352360771E+03  0.00000000000E+00 0. -1.
<scales pt_clust_5="13000.00000" pt_clust_6="13000.00000" pt_clust_7="13000.00000" pt_clust_8="13000.00000" pt_clust_9="58.33920"></scales>
<clustering>
<clus scale="   58.339">  2  9  1 -1</clus>
<clus scale="   74.202">  7  8 -1 -1</clus>
<clus scale="   80.701">  5  6 -1 -1</clus>
<clus scale="   89.371">  1  7  2 -1</clus>
<clus scale="   89.371">  1  5  2 -1</clus>
</clustering>
</event>
<event>
 9    2  0.3402837E-005  0.2433143E+03  0.7546771E-02  0.1119136E+00
          2   -1    0    0  502    0  0.00000000000E+00  0.00000000000E+00  0.12077330046E+04  0.12077330046E+04  0.00000000000E+00 0. -1.
         -1   -1    0    0    0  501 -0.00000000000E+00 -0.00000000000E+00 -0.66854938180E+02  0.66854938180E+02  0.00000000000E+00 0.  1.
         24    2    1    2    0    0  0.23377716126E+03 -0.83747443485E+02  0.43103365216E+03  0.50367728793E+03  0.78964584865E+02 0.  0.
         23    2    1    2    0    0 -0.18078090398E+03  0.99176531048E+02  0.64921015176E+03  0.68891569269E+03  0.10302082770E+03 0.  0.
        -11    1    3    3    0    0  0.10713201046E+03 -0.85039620287E+01  0.13109053800E+03  0.16951198833E+03  0.00000000000E+00 0.  1.
         12    1    3    3    0    0  0.12664515081E+03 -0.75243481457E+02  0.29994311416E+03  0.33416529960E+03  0.00000000000E+00 0. -1.
        -13    1    4    4    0    0 -0.86645926035E+02  0.70200760139E+02  0.19955509497E+03  0.22859986691E+03  0.00000000000E+00 0.  1.
         13    1    4    4    0    0 -0.94134977946E+02  0.28975770910E+02  0.44965505679E+03  0.46031582579E+03  0.00000000000E+00 0. -1.
         21    1    1    2  502  501 -0.52996257284E+02 -0.15429087563E+02  0.60634262486E+02  0.81994962140E+02  0.00000000000E+00 0. -1.
<scales pt_clust_5="13000.00000" pt_clust_6="13000.00000" pt_clust_7="13000.00000" pt_clust_8="13000.00000" pt_clust_9="55.19656"></scales>
<clustering>
<clus scale="   55.197">  2  9  1 -1</clus>
<clus scale="   78.965">  5  6 -1 -1</clus>
<clus scale="  103.021">  7  8 -1 -1</clus>
<clus scale="  234.145">  2  5  1 -1</clus>
<clus scale="  243.314">  1  5  2 -1</clus>
</clustering>
</event>
<event>
 9    2  0.3402837E-005  0.9494779E+02  0.7546771E-02  0.1298826E+00
         -1   -1    0    0    0  501 -0.00000000000E+00  0.00000000000E+00  0.14859498272E+03  0.14859498272E+03  0.00000000000E+00 0.  1.
          2   -1    0    0  502    0  0.00000000000E+00 -0.00000000000E+00 -0.21139820650E+03  0.21139820650E+03  0.00000000000E+00 0. -1.
         23    2    1    2    0    0  0.16163463174E+02  0.30525162789E+01  0.12797172239E+02  0.95544610149E+02  0.93243924809E+02 0.  0.
         24    2    1    2    0    0  0.96971994922E+01  0.20968249045E+02 -0.15574738950E+03  0.17687397314E+03  0.80581945201E+02 0.  0.
        -11    1    4    4    0    0 -0.14586677546E+02  0.44273632040E+02 -0.11457695136E+03  0.12369641644E+03  0.00000000000E+00 0.  1.
         12    1    4    4    0    0  0.24283877038E+02 -0.23305382994E+02 -0.41170438137E+02  0.53177556703E+02  0.00000000000E+00 0. -1.
        -13    1    3    3    0    0  0.10762830846E+02  0.47840344837E+02  0.11730884000E+02  0.50419745749E+02  0.00000000000E+00 0.  1.
         13    1    3    3    0    0  0.54006323279E+01 -0.44787828558E+02  0.10662882388E+01  0.45124864400E+02  0.00000000000E+00 0. -1.
         21    1    1    2  502  501 -0.25860662666E+02 -0.24020765324E+02  0.80146993483E+02  0.87574605935E+02  0.00000000000E+00 0.  1.
<scales pt_clust_5="13000.00000" pt_clust_6="13000.00000" pt_clust_7="13000.00000" pt_clust_8="13000.00000" pt_clust_9="35.29548"></scales>
<clustering>
<clus scale="   35.295">  1  9  2 -1</clus>
<clus scale="   80.582">  5  6 -1 -1</clus>
<clus scale="   82.548">  2  5  1 -1</clus>
<clus scale="   93.244">  7  8 -1 -1</clus>
<clus scale="   82.548">  2  5  1 -1</clus>
</clustering>
</event>
<event>
 9    2  0.3402837E-005  0.9614215E+02  0.7546771E-02  0.1294475E+00
         -3   -1    0    0    0  501 -0.00000000000E+00  0.00000000000E+00  0.16210955860E+03  0.16210955860E+03  0.00000000000E+00 0.  1.
          4   -1    0    0  502    0  0.00000000000E+00 -0.00000000000E+00 -0.13065560311E+03  0.13065560311E+03  0.00000000000E+00 0. -1.
         24    2    1    2    0    0 -0.30533204953E+02  0.34231637507E+02  0.72986867514E+02  0.11785947021E+03  0.80372198408E+02 0.  0.
         23    2    1    2    0    0 -0.31181698386E+02 -0.15776890589E+01 -0.42332595819E+02  0.10507984287E+03  0.90966682321E+02 0.  0.
        -11    1    3    3    0    0 -0.46579834136E+02  0.82926314788E+01  0.10702435409E+02  0.48507636601E+02  0.00000000000E+00 0.  1.
         12    1    3    3    0    0  0.16046629183E+02  0.25939006028E+02  0.62284432105E+02  0.69351833606E+02  0.00000000000E+00 0. -1.
        -11    1    4    4    0    0 -0.10405308887E+02  0.38683741587E+02 -0.44306477440E+02  0.59730781506E+02  0.00000000000E+00 0. -1.
         11    1    4    4    0    0 -0.20776389499E+02 -0.40261430645E+02  0.19738816210E+01  0.45349061367E+02  0.00000000000E+00 0.  1.
         21    1    1    2  502  501  0.61714903339E+02 -0.32653948448E+02  0.79968379085E+00  0.69825848635E+02  0.00000000000E+00 0.  1.
<scales pt_clust_5="13000.00000" pt_clust_6="13000.00000" pt_clust_7="13000.00000" pt_clust_8="13000.00000" pt_clust_9="69.82127"></scales>
<clustering>
<clus scale="   69.821">  2  9  1 -1</clus>
<clus scale="   80.372">  5  6 -1 -1</clus>
<clus scale="   86.186">  1  5  2 -1</clus>
<clus scale="   90.967">  7  8 -1 -1</clus>
<clus scale="   69.821">  2  5  1 -1</clus>
</clustering>
</event>
<event>
 9    2  0.3402837E-005  0.1048696E+03  0.7546771E-02  0.1274954E+00
          2   -1    0    0  502    0  0.00000000000E+00  0.00000000000E+00  0.70220943161E+03  0.70220943161E+03  0.00000000000E+00 0. -1.
         -1   -1    0    0    0  501 -0.00000000000E+00 -0.00000000000E+00 -0.24010988978E+02  0.24010988978E+02  0.00000000000E+00 0.  1.
         23    2    1    2    0    0  0.31395676291E+02  0.27442633197E+02  0.14756348377E+03  0.17801494235E+03  0.90418755537E+02 0.  0.
         24    2    1    2    0    0 -0.18167895392E+02 -0.55807572572E+02  0.46532322266E+03  0.47578195402E+03  0.79988803260E+02 0.  0.
        -13    1    4    4    0    0 -0.12256635997E+02 -0.66710242429E+02  0.22170374718E+03  0.23184700361E+03  0.00000000000E+00 0.  1.
         14    1    4    4    0    0 -0.59112593949E+01  0.10902669857E+02  0.24361947548E+03  0.24393495041E+03  0.00000000000E+00 0. -1.
        -11    1    3    3    0    0  0.33249846131E+02  0.58553541778E+02  0.11241529527E+03  0.13103918548E+03  0.00000000000E+00 0.  1.
         11    1    3    3    0    0 -0.18541698395E+01 -0.31110908581E+02  0.35148188501E+02  0.46975756869E+02  0.00000000000E+00 0. -1.
         21    1    1    2  502  501 -0.13227780900E+02  0.28364939375E+02  0.65311736204E+02  0.72423524211E+02  0.00000000000E+00 0.  1.
<scales pt_clust_5="13000.00000" pt_clust_6="13000.00000" pt_clust_7="13000.00000" pt_clust_8="13000.00000" pt_clust_9="31.29767"></scales>
<clustering>
<clus scale="   31.298">  2  9  1 -1</clus>
<clus scale="   79.989">  5  6 -1 -1</clus>
<clus scale="   90.419">  7  8 -1 -1</clus>
<clus scale="   96.022">  1  5  2 -1</clus>
<clus scale="   96.022">  1  5  2 -1</clus>
</clustering>
</event>
<event>
 9    2  0.3402837E-005  0.1175967E+03  0.7546771E-02  0.1256332E+00
         -1   -1    0    0    0  501 -0.00000000000E+00  0.00000000000E+00  0.51823858642E+02  0.51823858642E+02  0.00000000000E+00 0.  1.
          2   -1    0    0  502    0  0.00000000000E+00 -0.00000000000E+00 -0.80423419696E+03  0.80423419696E+03  0.00000000000E+00 0. -1.
         23    2    1    2    0    0 -0.19390893170E+02  0.69479019599E+02 -0.72200693502E+02  0.14393755810E+03  0.10149748562E+03 0.  0.
         24    2    1    2    0    0  0.28288197219E+02 -0.51020940408E+02 -0.68434368064E+03  0.69121707770E+03  0.77790853046E+02 0.  0.
        -13    1    4    4    0    0  0.21886134776E+02  0.10618682265E+02 -0.77766006340E+02  0.81481967641E+02  0.00000000000E+00 0.  1.
         14    1    4    4    0    0  0.64020624429E+01 -0.61639622673E+02 -0.60657767430E+03  0.60973511006E+03  0.00000000000E+00 0. -1.
        -11    1    3    3    0    0  0.31874488413E+02  0.27150223431E+01 -0.45516043210E+02  0.55633304301E+02  0.00000000000E+00 0. -1.
         11    1    3    3    0    0 -0.51265381582E+02  0.66763997255E+02 -0.26684650292E+02  0.88304253802E+02  0.00000000000E+00 0.  1.
         21    1    1    2  502  501 -0.88973040488E+01 -0.18458079190E+02  0.41340358269E+01  0.20903419791E+02  0.00000000000E+00 0.  1.
<scales pt_clust_5="13000.00000" pt_clust_6="13000.00000" pt_clust_7="13000.00000" pt_clust_8="13000.00000" pt_clust_9="20.49055"></scales>
<clustering>
<clus scale="   20.491">  1  9  2 -1</clus>
<clus scale="   77.791">  5  6 -1 -1</clus>
<clus scale="   97.871">  2  5  1 -1</clus>
<clus scale="  101.497">  7  8 -1 -1</clus>
<clus scale="   97.871">  2  5  1 -1</clus>
</clustering>
</event>
<event>
 9    2  0.3402837E-005  0.9568306E+02  0.7546771E-02  0.1294829E+00
         -1   -1    0    0    0  501 -0.00000000000E+00  0.00000000000E+00  0.20092055710E+03  0.20092055710E+03  0.00000000000E+00 0.  1.
          2   -1    0    0  502    0  0.00000000000E+00 -0.00000000000E+00 -0.14578911617E+03  0.14578911617E+03  0.00000000000E+00 0. -1.
         23    2    1    2    0    0  0.48677004992E+02  0.13324861136E+02  0.67444943069E+02  0.12488181961E+03  0.92193523546E+02 0.  0.
         24    2    1    2    0    0 -0.10384947126E+02 -0.21139080387E+02 -0.96238067239E+02  0.12924990627E+03  0.83000390590E+02 0.  0.
        -11    1    4    4    0    0  0.25422174989E+02  0.19281469372E+02 -0.41633407416E+02  0.52453814498E+02  0.00000000000E+00 0.  1.
         12    1    4    4    0    0 -0.35807122115E+02 -0.40420549758E+02 -0.54604659823E+02  0.76796091771E+02  0.00000000000E+00 0. -1.
        -13    1    3    3    0    0  0.13115068654E+02  0.25570798545E+02  0.80178719518E+02  0.85173339887E+02  0.00000000000E+00 0.  1.
         13    1    3    3    0    0  0.35561936338E+02 -0.12245937409E+02 -0.12733776449E+02  0.39708479721E+02  0.00000000000E+00 0. -1.
         21    1    1    2  502  501 -0.38292057866E+02  0.78142192510E+01  0.83924565090E+02  0.92577947394E+02  0.00000000000E+00 0.  1.
<scales pt_clust_5="13000.00000" pt_clust_6="13000.00000" pt_clust_7="13000.00000" pt_clust_8="13000.00000" pt_clust_9="39.08125"></scales>
<clustering>
<clus scale="   39.081">  1  9  2 -1</clus>
<clus scale="   83.000">  5  6 -1 -1</clus>
<clus scale="   86.860">  2  5  1 -1</clus>
<clus scale="   92.194">  7  8 -1 -1</clus>
<clus scale="   86.860">  2  5  1 -1</clus>
</clustering>
</event>
<event>
 9    2  0.5562704E-005  0.1035603E+03  0.7546771E-02  0.1275829E+00
          2   -1    0    0  502    0  0.00000000000E+00  0.00000000000E+00  0.42740726484E+03  0.42740726484E+03  0.00000000000E+00 0. -1.
         -1   -1    0    0    0  501 -0.00000000000E+00 -0.00000000000E+00 -0.16153290356E+03  0.16153290356E+03  0.00000000000E+00 0.  1.
         24    2    1    2    0    0 -0.46282330756E+02  0.32669766564E+02 -0.12643729311E+03  0.15984466721E+03  0.79715498879E+02 0.  0.
         23    2    1    2    0    0  0.57374644531E+02 -0.37895218902E+01  0.38296276049E+03  0.39677662474E+03  0.86400252942E+02 0.  0.
        -13    1    3    3    0    0 -0.33345597839E+02  0.51090341027E+02 -0.46251745504E+02  0.76559622541E+02  0.00000000000E+00 0.  1.
         14    1    3    3    0    0 -0.12936732917E+02 -0.18420574463E+02 -0.80185547602E+02  0.83285044674E+02  0.00000000000E+00 0. -1.
        -11    1    4    4    0    0  0.77499086839E+02 -0.75669794018E+01  0.34463479785E+03  0.35332210733E+03  0.00000000000E+00 0. -1.
         11    1    4    4    0    0 -0.20124442308E+02  0.37774575116E+01  0.38327962638E+02  0.43454517411E+02  0.00000000000E+00 0.  1.
         21    1    1    2  502  501 -0.11092313775E+02 -0.28880244674E+02  0.93488938925E+01  0.32318876439E+02  0.00000000000E+00 0. -1.
<scales pt_clust_5="13000.00000" pt_clust_6="13000.00000" pt_clust_7="13000.00000" pt_clust_8="13000.00000" pt_clust_9="30.93716"></scales>
<clustering>
<clus scale="   30.937">  2  9  1 -1</clus>
<clus scale="   79.715">  5  6 -1 -1</clus>
<clus scale="   86.400">  7  8 -1 -1</clus>
<clus scale="   98.052">  2  5  1 -1</clus>
<clus scale="  103.560">  1  5  2 -1</clus>
</clustering>
</event>
<event>
 9    2  0.3402837E-005  0.1073198E+03  0.7546771E-02  0.1277322E+00
         -1   -1    0    0    0  501 -0.00000000000E+00  0.00000000000E+00  0.41497759246E+03  0.41497759246E+03  0.00000000000E+00 0.  1.
          2   -1    0    0  502    0  0.00000000000E+00 -0.00000000000E+00 -0.15363695045E+03  0.15363695045E+03  0.00000000000E+00 0. -1.
         24    2    1    2    0    0 -0.52718286279E+02  0.32876806832E+02  0.34627667741E+03  0.36063930155E+03  0.79328849538E+02 0.  0.
         23    2    1    2    0    0  0.20586787828E+02 -0.22654997760E+02 -0.11907965412E+03  0.15998873000E+03  0.10236876939E+03 0.  0.
        -11    1    3    3    0    0 -0.61637075266E+02  0.12700935633E+01  0.27956879636E+03  0.28628561627E+03  0.00000000000E+00 0.  1.
         12    1    3    3    0    0  0.89187889866E+01  0.31606713268E+02  0.66707881050E+02  0.74353685281E+02  0.00000000000E+00 0. -1.
        -11    1    4    4    0    0  0.48497657502E+02 -0.48439338905E+02 -0.82299695231E+02  0.10710570560E+03  0.00000000000E+00 0. -1.
         11    1    4    4    0    0 -0.27910869674E+02  0.25784341145E+02 -0.36779958885E+02  0.52883024401E+02  0.00000000000E+00 0.  1.
         21    1    1    2  502  501  0.32131498451E+02 -0.10221809072E+02  0.34143618717E+02  0.47986511360E+02  0.00000000000E+00 0.  1.
<scales pt_clust_5="13000.00000" pt_clust_6="13000.00000" pt_clust_7="13000.00000" pt_clust_8="13000.00000" pt_clust_9="33.71822"></scales>
<clustering>
<clus scale="   33.718">  1  9  2 -1</clus>
<clus scale="   79.329">  5  6 -1 -1</clus>
<clus scale="   85.623">  1  5  2 -1</clus>
<clus scale="  102.369">  7  8 -1 -1</clus>
<clus scale="  107.320">  2  5  1 -1</clus>
</clustering>
</event>
<event>
 9    2  0.3402837E-005  0.1530054E+03  0.7546771E-02  0.1198470E+00
         -1   -1    0    0    0  501 -0.00000000000E+00  0.00000000000E+00  0.99285444930E+02  0.99285444930E+02  0.00000000000E+00 0.  1.
          2   -1    0    0  502    0  0.00000000000E+00 -0.00000000000E+00 -0.62174292758E+03  0.62174292758E+03  0.00000000000E+00 0. -1.
         24    2    1    2    0    0 -0.48212651516E+01  0.94367834505E+02  0.32281291130E+02  0.12746755524E+03  0.79229811902E+02 0.  0.
         23    2    1    2    0    0 -0.88814974539E+01 -0.12869579725E+03 -0.51908827540E+03  0.54220779629E+03  0.88854754947E+02 0.  0.
        -11    1    3    3    0    0  0.56486574619E+01  0.95120044337E+02  0.49441999155E+02  0.10735101977E+03  0.00000000000E+00 0.  1.
         12    1    3    3    0    0 -0.10469922613E+02 -0.75220983185E+00 -0.17160708024E+02  0.20116535464E+02  0.00000000000E+00 0. -1.
        -11    1    4    4    0    0 -0.43925619767E+02 -0.54902335822E+02 -0.30655734673E+03  0.31451730220E+03  0.00000000000E+00 0. -1.
         11    1    4    4    0    0  0.35044122313E+02 -0.73793461425E+02 -0.21253092867E+03  0.22769049409E+03  0.00000000000E+00 0.  1.
         21    1    1    2  502  501  0.13702762605E+02  0.34327962742E+02 -0.35650498378E+02  0.51353020979E+02  0.00000000000E+00 0.  1.
<scales pt_clust_5="13000.00000" pt_clust_6="13000.00000" pt_clust_7="13000.00000" pt_clust_8="13000.00000" pt_clust_9="36.96180"></scales>
<clustering>
<clus scale="   36.962">  1  9  2 -1</clus>
<clus scale="   79.230">  5  6 -1 -1</clus>
<clus scale="   88.855">  7  8 -1 -1</clus>
<clus scale="  147.624">  1  5  2 -1</clus>
<clus scale="  153.005">  2  5  1 -1</clus>
</clustering>
</event>
<event>
 9    2  0.3402837E-005  0.1119991E+03  0.7546771E-02  0.1258377E+00
         -1   -1    0    0    0  501 -0.00000000000E+00  0.00000000000E+00  0.23030846773E+03  0.23030846773E+03  0.00000000000E+00 0.  1.
          2   -1    0    0  502    0  0.00000000000E+00 -0.00000000000E+00 -0.25741596870E+03  0.25741596870E+03  0.00000000000E+00 0. -1.
         23    2    1    2    0    0  0.69754226631E+02  0.49931593723E+02 -0.92619318849E+02  0.15423484466E+03  0.88607183103E+02 0.  0.
         24    2    1    2    0    0 -0.54043034503E+02 -0.21559554100E+02 -0.11265690338E+03  0.15239318809E+03  0.84537813705E+02 0.  0.
        -13    1    4    4    0    0 -0.37359270953E+02 -0.10985422762E+02 -0.94909322209E+00  0.38952476396E+02  0.00000000000E+00 0.  1.
         14    1    4    4    0    0 -0.16683763549E+02 -0.10574131338E+02 -0.11170781016E+03  0.11344071169E+03  0.00000000000E+00 0. -1.
        -11    1    3    3    0    0 -0.68615634425E+01  0.45672625459E+02 -0.28791170339E+02  0.54424270860E+02  0.00000000000E+00 0. -1.
         11    1    3    3    0    0  0.76615790073E+02  0.42589682637E+01 -0.63828148510E+02  0.99810573796E+02  0.00000000000E+00 0.  1.
         21    1    1    2  502  501 -0.15711192128E+02 -0.28372039623E+02  0.17816872126E+03  0.18109640368E+03  0.00000000000E+00 0.  1.
<scales pt_clust_5="13000.00000" pt_clust_6="13000.00000" pt_clust_7="13000.00000" pt_clust_8="13000.00000" pt_clust_9="32.43168"></scales>
<clustering>
<clus scale="   32.432">  1  9  2 -1</clus>
<clus scale="   84.538">  5  6 -1 -1</clus>
<clus scale="   88.607">  7  8 -1 -1</clus>
<clus scale="  108.808">  2  5  1 -1</clus>
<clus scale="  108.808">  2  5  1 -1</clus>
</clustering>
</event>
<event>
 9    2  0.3402837E-005  0.1540998E+03  0.7546771E-02  0.1197354E+00
          2   -1    0    0  502    0  0.00000000000E+00  0.00000000000E+00  0.60621941874E+03  0.60621941874E+03  0.00000000000E+00 0. -1.
         -1   -1    0    0    0  501 -0.00000000000E+00 -0.00000000000E+00 -0.90127183760E+02  0.90127183760E+02  0.00000000000E+00 0.  1.
         23    2    1    2    0    0 -0.93637161839E+02 -0.83461951091E+01  0.25309545356E+02  0.13300629673E+03  0.90622981815E+02 0.  0.
         24    2    1    2    0    0  0.13085860810E+03  0.91585915717E+01  0.50158188842E+03  0.52457538936E+03  0.79919291933E+02 0.  0.
        -11    1    4    4    0    0  0.85994313034E+02 -0.24460841777E+02  0.22011430943E+03  0.23757875298E+03  0.00000000000E+00 0.  1.
         12    1    4    4    0    0  0.44864295070E+02  0.33619433348E+02  0.28146757899E+03  0.28699663638E+03  0.00000000000E+00 0. -1.
        -11    1    3    3    0    0 -0.10551864809E+02 -0.34418207733E+02 -0.12450955175E+02  0.38091746603E+02  0.00000000000E+00 0. -1.
         11    1    3    3    0    0 -0.83085297031E+02  0.26072012624E+02  0.37760500531E+02  0.94914550124E+02  0.00000000000E+00 0.  1.
         21    1    1    2  502  501 -0.37221446265E+02 -0.81239646264E+00 -0.10799198789E+02  0.38764916414E+02  0.00000000000E+00 0.  1.
<scales pt_clust_5="13000.00000" pt_clust_6="13000.00000" pt_clust_7="13000.00000" pt_clust_8="13000.00000" pt_clust_9="37.23031"></scales>
<clustering>
<clus scale="   37.230">  2  9  1 -1</clus>
<clus scale="   79.919">  5  6 -1 -1</clus>
<clus scale="   90.623">  7  8 -1 -1</clus>
<clus scale="  148.059">  1  5  2 -1</clus>
<clus scale="  148.059">  1  5  2 -1</clus>
</clustering>
</event>
<event>
 9    2  0.3402837E-005  0.1188903E+03  0.7546771E-02  0.1250362E+00
          2   -1    0    0  502    0  0.00000000000E+00  0.00000000000E+00  0.48388561067E+03  0.48388561067E+03  0.00000000000E+00 0. -1.
         -1   -1    0    0    0  501 -0.00000000000E+00 -0.00000000000E+00 -0.11564064858E+03  0.11564064858E+03  0.00000000000E+00 0.  1.
         23    2    1    2    0    0 -0.56050605588E+02  0.35699346288E+02 -0.40157954294E+02  0.11806562017E+03  0.88942204054E+02 0.  0.
         24    2    1    2    0    0 -0.61536962848E+02  0.29572408363E+02  0.26089108145E+03  0.28184355651E+03  0.81916474707E+02 0.  0.
        -13    1    4    4    0    0 -0.79607018209E+02  0.36110445740E+02  0.21260482378E+03  0.22987399317E+03  0.00000000000E+00 0.  1.
         14    1    4    4    0    0  0.18070055361E+02 -0.65380373776E+01  0.48286257673E+02  0.51969563338E+02  0.00000000000E+00 0. -1.
        -11    1    3    3    0    0 -0.38355127642E+02  0.52604649478E+02 -0.58466229950E+02  0.87502371441E+02  0.00000000000E+00 0.  1.
         11    1    3    3    0    0 -0.17695477946E+02 -0.16905303190E+02  0.18308275656E+02  0.30563248734E+02  0.00000000000E+00 0. -1.
         21    1    1    2  502  501  0.11758756844E+03 -0.65271754651E+02  0.14751183493E+03  0.19961708256E+03  0.00000000000E+00 0. -1.
<scales pt_clust_5="13000.00000" pt_clust_6="13000.00000" pt_clust_7="13000.00000" pt_clust_8="13000.00000" pt_clust_9="78.89351"></scales>
<clustering>
<clus scale="   81.916">  5  6 -1 -1</clus>
<clus scale="   88.942">  7  8 -1 -1</clus>
<clus scale="  106.638">  1  5  2 -1</clus>
<clus scale="   78.894">  1  9  2 -1</clus>
<clus scale="  106.638">  1  5  2 -1</clus>
</clustering>
</event>
<event>
 9    2  0.3402837E-005  0.9070112E+02  0.7546771E-02  0.1306444E+00
         -1   -1    0    0    0  501 -0.00000000000E+00  0.00000000000E+00  0.39168143550E+02  0.39168143550E+02  0.00000000000E+00 0.  1.
          2   -1    0    0  502    0  0.00000000000E+00 -0.00000000000E+00 -0.87536538733E+03  0.87536538733E+03  0.00000000000E+00 0. -1.
         23    2    1    2    0    0  0.30761896757E+02 -0.33640962476E+02 -0.89097182531E+02  0.13269125877E+03  0.87124356930E+02 0.  0.
         24    2    1    2    0    0 -0.17796608847E+02  0.14868084086E+02 -0.75367878868E+03  0.75809781364E+03  0.78376012424E+02 0.  0.
        -13    1    4    4    0    0  0.15533459607E+02 -0.20845119492E+02 -0.13412017094E+03  0.13661635197E+03  0.00000000000E+00 0.  1.
         14    1    4    4    0    0 -0.33330068454E+02  0.35713203578E+02 -0.61955861775E+03  0.62148146167E+03  0.00000000000E+00 0. -1.
        -11    1    3    3    0    0 -0.17081671922E+02 -0.32685409771E+02 -0.68126791525E+01  0.37503761475E+02  0.00000000000E+00 0.  1.
         11    1    3    3    0    0  0.47843568679E+02 -0.95555270523E+00 -0.82284503379E+02  0.95187497294E+02  0.00000000000E+00 0. -1.
         21    1    1    2  502  501 -0.12965287910E+02  0.18772878390E+02  0.65787274318E+01  0.23744458474E+02  0.00000000000E+00 0.  1.
<scales pt_clust_5="13000.00000" pt_clust_6="13000.00000" pt_clust_7="13000.00000" pt_clust_8="13000.00000" pt_clust_9="22.81490"></scales>
<clustering>
<clus scale="   22.815">  1  9  2 -1</clus>
<clus scale="   78.376">  5  6 -1 -1</clus>
<clus scale="   82.334">  2  5  1 -1</clus>
<clus scale="   87.124">  7  8 -1 -1</clus>
<clus scale="   82.334">  2  5  1 -1</clus>
</clustering>
</event>
<event>
 9    2  0.3402837E-005  0.1005577E+03  0.7546771E-02  0.1282930E+00
          2   -1    0    0  502    0  0.00000000000E+00  0.00000000000E+00  0.88361991223E+02  0.88361991223E+02  0.00000000000E+00 0. -1.
         -1   -1    0    0    0  501 -0.00000000000E+00 -0.00000000000E+00 -0.16933519472E+03  0.16933519472E+03  0.00000000000E+00 0.  1.
         23    2    1    2    0    0 -0.30839726292E+02  0.43754000045E+02 -0.78510802121E+02  0.13129844440E+03  0.90608135470E+02 0.  0.
         24    2    1    2    0    0 -0.31285808802E+01 -0.31284162871E+02  0.75504222389E+01  0.88854109866E+02  0.82762051082E+02 0.  0.
        -11    1    4    4    0    0 -0.28471399308E+02 -0.28052747829E+02 -0.25250598857E+02  0.47277584350E+02  0.00000000000E+00 0.  1.
         12    1    4    4    0    0  0.25342818428E+02 -0.32314150411E+01  0.32801021096E+02  0.41576525516E+02  0.00000000000E+00 0. -1.
        -13    1    3    3    0    0  0.20214360943E+02  0.12599178515E+01  0.83863558458E+01  0.21921193984E+02  0.00000000000E+00 0. -1.
         13    1    3    3    0    0 -0.51054087235E+02  0.42494082193E+02 -0.86897157967E+02  0.10937725041E+03  0.00000000000E+00 0.  1.
         21    1    1    2  502  501  0.33968307172E+02 -0.12469837174E+02 -0.10012823615E+02  0.37544631681E+02  0.00000000000E+00 0. -1.
<scales pt_clust_5="13000.00000" pt_clust_6="13000.00000" pt_clust_7="13000.00000" pt_clust_8="13000.00000" pt_clust_9="36.18484"></scales>
<clustering>
<clus scale="   36.185">  1  9  2 -1</clus>
<clus scale="   82.762">  5  6 -1 -1</clus>
<clus scale="   90.608">  7  8 -1 -1</clus>
<clus scale="   93.550">  1  5  2 -1</clus>
<clus scale="   36.185">  1  5  2 -1</clus>
</clustering>
</event>
<event>
 9    2  0.3402837E-005  0.2755600E+03  0.7546771E-02  0.1132328E+00
         -1   -1    0    0    0  501 -0.00000000000E+00  0.00000000000E+00  0.80364434951E+02  0.80364434951E+02  0.00000000000E+00 0.  1.
          2   -1    0    0  502    0  0.00000000000E+00 -0.00000000000E+00 -0.18846165217E+04  0.18846165217E+04  0.00000000000E+00 0. -1.
         23    2    1    2    0    0  0.33139713098E+02 -0.65023912865E+02 -0.89203131580E+02  0.14656022875E+03  0.90533707204E+02 0.  0.
         24    2    1    2    0    0 -0.13876616802E+03 -0.21027002224E+03 -0.11602264687E+04  0.11901121332E+04  0.82291550406E+02 0.  0.
        -11    1    4    4    0    0 -0.61023522030E+02 -0.59951341879E+02 -0.24849602390E+03  0.26280849973E+03  0.00000000000E+00 0.  1.
         12    1    4    4    0    0 -0.77742645987E+02 -0.15031868036E+03 -0.91173044484E+03  0.92730363351E+03  0.00000000000E+00 0. -1.
        -13    1    3    3    0    0  0.11669544409E+02  0.21796477656E+02 -0.86420356241E+01  0.26190637347E+02  0.00000000000E+00 0.  1.
         13    1    3    3    0    0  0.21470168689E+02 -0.86820390521E+02 -0.80561095956E+02  0.12036959141E+03  0.00000000000E+00 0. -1.
         21    1    1    2  502  501  0.10562645492E+03  0.27529393510E+03 -0.55482248645E+03  0.62830859468E+03  0.00000000000E+00 0.  1.
<scales pt_clust_5="13000.00000" pt_clust_6="13000.00000" pt_clust_7="13000.00000" pt_clust_8="13000.00000" pt_clust_9="262.98558"></scales>
<clustering>
<clus scale="   82.292">  5  6 -1 -1</clus>
<clus scale="   90.534">  7  8 -1 -1</clus>
<clus scale="  116.287">  1  7  2 -1</clus>
<clus scale="  262.986">  1  9  2 -1</clus>
<clus scale="  275.560">  2  5  1 -1</clus>
</clustering>
</event>
<event>
 9    2  0.3402837E-005  0.9200004E+02  0.7546771E-02  0.1302633E+00
         -1   -1    0    0    0  501 -0.00000000000E+00  0.00000000000E+00  0.19786469987E+03  0.19786469987E+03  0.00000000000E+00 0.  1.
          2   -1    0    0  502    0  0.00000000000E+00 -0.00000000000E+00 -0.20410522327E+03  0.20410522327E+03  0.00000000000E+00 0. -1.
         24    2    1    2    0    0 -0.57797084140E+02 -0.29380261351E+02  0.14016472295E+03  0.17411892180E+03  0.80421058672E+02 0.  0.
         23    2    1    2    0    0  0.22446260457E+02  0.64109583091E+01 -0.15947115595E+03  0.18371498871E+03  0.88177165417E+02 0.  0.
        -13    1    3    3    0    0 -0.77884797855E+02 -0.17311038729E+02  0.11118279391E+03  0.13684782593E+03  0.00000000000E+00 0.  1.
         14    1    3    3    0    0  0.20087713715E+02 -0.12069222622E+02  0.28981929035E+02  0.37271095873E+02  0.00000000000E+00 0. -1.
        -13    1    4    4    0    0 -0.17444450016E+02  0.33652198742E+02 -0.41329064743E+02  0.56079148612E+02  0.00000000000E+00 0.  1.
         13    1    4    4    0    0  0.39890710472E+02 -0.27241240432E+02 -0.11814209121E+03  0.12763584010E+03  0.00000000000E+00 0. -1.
         21    1    1    2  502  501  0.35350823683E+02  0.22969303042E+02  0.13065909598E+02  0.44136012630E+02  0.00000000000E+00 0. -1.
<scales pt_clust_5="13000.00000" pt_clust_6="13000.00000" pt_clust_7="13000.00000" pt_clust_8="13000.00000" pt_clust_9="42.15768"></scales>
<clustering>
<clus scale="   42.158">  1  9  2 -1</clus>
<clus scale="   80.421">  5  6 -1 -1</clus>
<clus scale="   84.595">  1  5  2 -1</clus>
<clus scale="   88.177">  7  8 -1 -1</clus>
<clus scale="   92.000">  2  5  1 -1</clus>
</clustering>
</event>
<event>
 9    2  0.3402837E-005  0.9522021E+02  0.7546771E-02  0.1297045E+00
         -1   -1    0    0    0  501 -0.00000000000E+00  0.00000000000E+00  0.43380473757E+02  0.43380473757E+02  0.00000000000E+00 0.  1.
          2   -1    0    0  502    0  0.00000000000E+00 -0.00000000000E+00 -0.32549643827E+03  0.32549643827E+03  0.00000000000E+00 0. -1.
         24    2    1    2    0    0  0.59831070235E+01 -0.22128671617E+02 -0.33299359103E+02  0.90617500882E+02  0.81099990581E+02 0.  0.
         23    2    1    2    0    0  0.15921782159E+02  0.21469082723E+02 -0.23060195781E+03  0.24976322518E+03  0.92141093138E+02 0.  0.
        -13    1    3    3    0    0 -0.12303351691E+02  0.27934093022E+02 -0.76434085358E+01  0.31465977020E+02  0.00000000000E+00 0.  1.
         14    1    3    3    0    0  0.18286458714E+02 -0.50062764639E+02 -0.25655950567E+02  0.59151523861E+02  0.00000000000E+00 0. -1.
        -11    1    4    4    0    0 -0.25495221912E+02 -0.83333304482E+01 -0.21071769002E+02  0.34109678767E+02  0.00000000000E+00 0.  1.
         11    1    4    4    0    0  0.41417004071E+02  0.29802413171E+02 -0.20953018881E+03  0.21565354641E+03  0.00000000000E+00 0. -1.
         21    1    1    2  502  501 -0.21904889183E+02  0.65958889465E+00 -0.18214647603E+02  0.28496185972E+02  0.00000000000E+00 0.  1.
<scales pt_clust_5="13000.00000" pt_clust_6="13000.00000" pt_clust_7="13000.00000" pt_clust_8="13000.00000" pt_clust_9="21.91482"></scales>
<clustering>
<clus scale="   21.915">  1  9  2 -1</clus>
<clus scale="   81.100">  5  6 -1 -1</clus>
<clus scale="   84.582">  1  5  2 -1</clus>
<clus scale="   92.141">  7  8 -1 -1</clus>
<clus scale="   95.220">  2  5  1 -1</clus>
</clustering>
</event>
<event>
 9    2  0.3402837E-005  0.1988655E+03  0.7546771E-02  0.1152359E+00
          2   -1    0    0  502    0  0.00000000000E+00  0.00000000000E+00  0.64645135092E+03  0.64645135092E+03  0.00000000000E+00 0. -1.
         -1   -1    0    0    0  501 -0.00000000000E+00 -0.00000000000E+00 -0.12432664737E+03  0.12432664737E+03  0.00000000000E+00 0.  1.
         23    2    1    2    0    0  0.58976452568E+02 -0.11235067978E+03  0.13679920816E+03  0.21030480771E+03  0.97021603704E+02 0.  0.
         24    2    1    2    0    0 -0.14970663440E+03  0.15533834737E+03  0.39751450151E+03  0.45933725567E+03  0.80192624264E+02 0.  0.
        -11    1    4    4    0    0 -0.75977026261E+02  0.13289784604E+03  0.26605122815E+03  0.30694885893E+03  0.00000000000E+00 0.  1.
         12    1    4    4    0    0 -0.73729608140E+02  0.22440501334E+02  0.13146327336E+03  0.15238839673E+03  0.00000000000E+00 0. -1.
        -13    1    3    3    0    0  0.10317673893E+02 -0.45536882456E+02 -0.41847164628E+01  0.46878288261E+02  0.00000000000E+00 0.  1.
         13    1    3    3    0    0  0.48658778675E+02 -0.66813797326E+02  0.14098392462E+03  0.16342651944E+03  0.00000000000E+00 0. -1.
         21    1    1    2  502  501  0.90730181834E+02 -0.42987667590E+02 -0.12189006121E+02  0.10113593491E+03  0.00000000000E+00 0. -1.
<scales pt_clust_5="13000.00000" pt_clust_6="13000.00000" pt_clust_7="13000.00000" pt_clust_8="13000.00000" pt_clust_9="100.39873"></scales>
<clustering>
<clus scale="   80.193">  5  6 -1 -1</clus>
<clus scale="   97.022">  7  8 -1 -1</clus>
<clus scale="  100.399">  2  9  1 -1</clus>
<clus scale="  191.220">  1  5  2 -1</clus>
<clus scale="  191.220">  1  5  2 -1</clus>
</clustering>
</event>
<event>
 9    2  0.3402837E-005  0.9329001E+02  0.7546771E-02  0.1298617E+00
         -1   -1    0    0    0  501 -0.00000000000E+00  0.00000000000E+00  0.73414699275E+02  0.73414699275E+02  0.00000000000E+00 0.  1.
          2   -1    0    0  502    0  0.00000000000E+00 -0.00000000000E+00 -0.56077958865E+03  0.56077958865E+03  0.00000000000E+00 0. -1.
         24    2    1    2    0    0  0.99754793912E+01  0.25525702231E+02  0.23972466598E+02  0.88732769112E+02  0.80918190143E+02 0.  0.
         23    2    1    2    0    0 -0.29941046658E+02 -0.15739412184E+02 -0.51455019255E+03  0.52299559644E+03  0.87282861309E+02 0.  0.
        -11    1    3    3    0    0  0.20980834185E+02  0.52344734603E+02  0.14378085848E+02  0.58197044567E+02  0.00000000000E+00 0.  1.
         12    1    3    3    0    0 -0.11005354793E+02 -0.26819032372E+02  0.95943807498E+01  0.30535724545E+02  0.00000000000E+00 0. -1.
        -13    1    4    4    0    0 -0.88271317955E+01 -0.51144605100E+02 -0.31286987694E+03  0.31714546943E+03  0.00000000000E+00 0. -1.
         13    1    4    4    0    0 -0.21113914863E+02  0.35405192916E+02 -0.20168031561E+03  0.20585012701E+03  0.00000000000E+00 0.  1.
         21    1    1    2  502  501  0.19965567267E+02 -0.97862900470E+01  0.32128365709E+01  0.22465922372E+02  0.00000000000E+00 0.  1.
<scales pt_clust_5="13000.00000" pt_clust_6="13000.00000" pt_clust_7="13000.00000" pt_clust_8="13000.00000" pt_clust_9="22.23500"></scales>
<clustering>
<clus scale="   22.235">  1  9  2 -1</clus>
<clus scale="   80.918">  5  6 -1 -1</clus>
<clus scale="   87.283">  7  8 -1 -1</clus>
<clus scale="   87.364">  1  5  2 -1</clus>
<clus scale="   93.290">  2  5  1 -1</clus>
</clustering>
</event>
<event>
 9    2  0.3402837E-005  0.9716561E+02  0.7546771E-02  0.1291437E+00
         -1   -1    0    0    0  501 -0.00000000000E+00  0.00000000000E+00  0.66147142720E+02  0.66147142720E+02  0.00000000000E+00 0.  1.
          2   -1    0    0  502    0  0.00000000000E+00 -0.00000000000E+00 -0.20269335590E+03  0.20269335590E+03  0.00000000000E+00 0. -1.
         24    2    1    2    0    0 -0.16225560327E+02  0.13559215849E+02 -0.32835597922E+02  0.90384387602E+02  0.81510980174E+02 0.  0.
         23    2    1    2    0    0  0.52833901031E+02 -0.22298185278E+02 -0.78625626350E+02  0.13322562501E+03  0.90985976259E+02 0.  0.
        -11    1    3    3    0    0 -0.39604784060E+02  0.31874153150E+02 -0.33136714153E+02  0.60683954916E+02  0.00000000000E+00 0.  1.
         12    1    3    3    0    0  0.23379223733E+02 -0.18314937301E+02  0.30111623071E+00  0.29700432685E+02  0.00000000000E+00 0. -1.
        -13    1    4    4    0    0 -0.32342030310E+00  0.24069501527E+02 -0.52940871267E+02  0.58156524612E+02  0.00000000000E+00 0. -1.
         13    1    4    4    0    0  0.53157321334E+02 -0.46367686805E+02 -0.25684755083E+02  0.75069100399E+02  0.00000000000E+00 0.  1.
         21    1    1    2  502  501 -0.36608340704E+02  0.87389694294E+01 -0.25084988903E+02  0.45230486003E+02  0.00000000000E+00 0.  1.
<scales pt_clust_5="13000.00000" pt_clust_6="13000.00000" pt_clust_7="13000.00000" pt_clust_8="13000.00000" pt_clust_9="37.63695"></scales>
<clustering>
<clus scale="   37.637">  2  9  1 -1</clus>
<clus scale="   81.511">  5  6 -1 -1</clus>
<clus scale="   88.356">  1  5  2 -1</clus>
<clus scale="   90.986">  7  8 -1 -1</clus>
<clus scale="   37.637">  2  5  1 -1</clus>
</clustering>
</event>
<event>
 9    2  0.3402837E-005  0.1379001E+03  0.7546771E-02  0.1217825E+00
         -1   -1    0    0    0  501 -0.00000000000E+00  0.00000000000E+00  0.61052910228E+02  0.61052910228E+02  0.00000000000E+00 0.  1.
          2   -1    0    0  502    0  0.00000000000E+00 -0.00000000000E+00 -0.12761787430E+04  0.12761787430E+04  0.00000000000E+00 0. -1.
         23    2    1    2    0    0 -0.42116733686E+02  0.75434829061E+01 -0.68600797113E+02  0.12061262646E+03  0.89502027391E+02 0.  0.
         24    2    1    2    0    0  0.10535215553E+03 -0.47832921509E+02 -0.11312364832E+04  0.11400964989E+04  0.82079113186E+02 0.  0.
        -13    1    4    4    0    0  0.18246399615E+02  0.13009323184E+02 -0.68736368877E+02  0.72297040015E+02  0.00000000000E+00 0.  1.
         14    1    4    4    0    0  0.87105755912E+02 -0.60842244693E+02 -0.10625001143E+04  0.10677994589E+04  0.00000000000E+00 0. -1.
        -13    1    3    3    0    0 -0.24379719180E+02  0.48012623665E+02 -0.28409863153E+02  0.60882699208E+02  0.00000000000E+00 0.  1.
         13    1    3    3    0    0 -0.17737014506E+02 -0.40469140759E+02 -0.40190933960E+02  0.59729927255E+02  0.00000000000E+00 0. -1.
         21    1    1    2  502  501 -0.63235421840E+02  0.40289438603E+02 -0.15288552486E+02  0.76522527895E+02  0.00000000000E+00 0.  1.
<scales pt_clust_5="13000.00000" pt_clust_6="13000.00000" pt_clust_7="13000.00000" pt_clust_8="13000.00000" pt_clust_9="74.97971"></scales>
<clustering>
<clus scale="   74.980">  1  9  2 -1</clus>
<clus scale="   82.079">  5  6 -1 -1</clus>
<clus scale="   89.502">  7  8 -1 -1</clus>
<clus scale="  133.202">  2  5  1 -1</clus>
<clus scale="  133.202">  2  5  1 -1</clus>
</clustering>
</event>
<event>
 9    2  0.3402837E-005  0.1327288E+03  0.7546771E-02  0.1224438E+00
         -1   -1    0    0    0  501 -0.00000000000E+00  0.00000000000E+00  0.58704589675E+02  0.58704589675E+02  0.00000000000E+00 0.  1.
          2   -1    0    0  502    0  0.00000000000E+00 -0.00000000000E+00 -0.10812445628E+04  0.10812445628E+04  0.00000000000E+00 0. -1.
         23    2    1    2    0    0 -0.71674001999E+02 -0.92368612361E+02 -0.18360485279E+03  0.23564204405E+03  0.90262438723E+02 0.  0.
         24    2    1    2    0    0  0.36785955791E+02  0.86848659002E+02 -0.85570935483E+03  0.86520441552E+03  0.86280267608E+02 0.  0.
        -13    1    4    4    0    0  0.23994944544E+02 -0.64305639008E+01 -0.79112543766E+02  0.82921071489E+02  0.00000000000E+00 0.  1.
         14    1    4    4    0    0  0.12791011246E+02  0.93279222903E+02 -0.77659681107E+03  0.78228334403E+03  0.00000000000E+00 0. -1.
        -13    1    3    3    0    0 -0.72516533758E+02 -0.54915686157E+02 -0.17496206069E+03  0.19719559563E+03  0.00000000000E+00 0. -1.
         13    1    3    3    0    0  0.84253175879E+00 -0.37452926204E+02 -0.86427920994E+01  0.38446448422E+02  0.00000000000E+00 0.  1.
         21    1    1    2  502  501  0.34888046209E+02  0.55199533592E+01  0.16774234460E+02  0.39102692939E+02  0.00000000000E+00 0.  1.
<scales pt_clust_5="13000.00000" pt_clust_6="13000.00000" pt_clust_7="13000.00000" pt_clust_8="13000.00000" pt_clust_9="35.32203"></scales>
<clustering>
<clus scale="   35.322">  1  9  2 -1</clus>
<clus scale="   86.280">  5  6 -1 -1</clus>
<clus scale="   90.262">  7  8 -1 -1</clus>
<clus scale="  130.054">  2  5  1 -1</clus>
<clus scale="  130.054">  2  5  1 -1</clus>
</clustering>
</event>
<event>
 9    2  0.3402837E-005  0.1117154E+03  0.7546771E-02  0.1261686E+00
          2   -1    0    0  502    0  0.00000000000E+00  0.00000000000E+00  0.64739350446E+03  0.64739350446E+03  0.00000000000E+00 0. -1.
         -1   -1    0    0    0  501 -0.00000000000E+00 -0.00000000000E+00 -0.71835130469E+02  0.71835130469E+02  0.00000000000E+00 0.  1.
         24    2    1    2    0    0  0.22980716346E+02 -0.49523515226E+02 -0.25729572295E+02  0.99111249363E+02  0.78615119257E+02 0.  0.
         23    2    1    2    0    0 -0.11019275393E+02  0.66389432953E+02  0.57861327143E+03  0.58943064364E+03  0.90034352020E+02 0.  0.
        -11    1    3    3    0    0 -0.25750618350E+02 -0.36668074280E+02 -0.17207782665E+02  0.47997393690E+02  0.00000000000E+00 0.  1.
         12    1    3    3    0    0  0.48731334697E+02 -0.12855440946E+02 -0.85217896295E+01  0.51113855673E+02  0.00000000000E+00 0. -1.
        -13    1    4    4    0    0 -0.49180216060E+02  0.26246444101E+02  0.24597862081E+03  0.25221627897E+03  0.00000000000E+00 0.  1.
         13    1    4    4    0    0  0.38160940668E+02  0.40142988851E+02  0.33263465062E+03  0.33721436467E+03  0.00000000000E+00 0. -1.
         21    1    1    2  502  501 -0.11961440954E+02 -0.16865917727E+02  0.22674674856E+02  0.30686741930E+02  0.00000000000E+00 0.  1.
<scales pt_clust_5="13000.00000" pt_clust_6="13000.00000" pt_clust_7="13000.00000" pt_clust_8="13000.00000" pt_clust_9="20.67693"></scales>
<clustering>
<clus scale="   20.677">  2  9  1 -1</clus>
<clus scale="   78.615">  5  6 -1 -1</clus>
<clus scale="   90.034">  7  8 -1 -1</clus>
<clus scale="  102.735">  2  5  1 -1</clus>
<clus scale="  111.715">  1  5  2 -1</clus>
</clustering>
</event>
<event>
 9    2  0.3402837E-005  0.1023890E+03  0.7546771E-02  0.1280620E+00
          2   -1    0    0  502    0  0.00000000000E+00  0.00000000000E+00  0.90539916743E+03  0.90539916743E+03  0.00000000000E+00 0. -1.
         -1   -1    0    0    0  501 -0.00000000000E+00 -0.00000000000E+00 -0.23523119824E+02  0.23523119824E+02  0.00000000000E+00 0.  1.
         23    2    1    2    0    0  0.59991684661E+02 -0.16783340833E+02  0.33832876347E+03  0.35618238515E+03  0.92297651878E+02 0.  0.
         24    2    1    2    0    0 -0.37338329768E+02  0.86193702456E+00  0.53684976432E+03  0.54425267060E+03  0.81292104184E+02 0.  0.
        -11    1    4    4    0    0 -0.29497922664E+02  0.39442745123E+02  0.26085348582E+03  0.26546261253E+03  0.00000000000E+00 0.  1.
         12    1    4    4    0    0 -0.78404071044E+01 -0.38580808098E+02  0.27599627850E+03  0.27879005808E+03  0.00000000000E+00 0. -1.
        -11    1    3    3    0    0  0.26234931541E+02  0.33372928535E+02  0.76746189438E+02  0.87704056835E+02  0.00000000000E+00 0.  1.
         11    1    3    3    0    0  0.33756753120E+02 -0.50156269368E+02  0.26158257403E+03  0.26847832831E+03  0.00000000000E+00 0. -1.
         21    1    1    2  502  501 -0.22653354893E+02  0.15921403808E+02  0.66975198224E+01  0.28487231506E+02  0.00000000000E+00 0.  1.
<scales pt_clust_5="13000.00000" pt_clust_6="13000.00000" pt_clust_7="13000.00000" pt_clust_8="13000.00000" pt_clust_9="27.68873"></scales>
<clustering>
<clus scale="   27.689">  2  9  1 -1</clus>
<clus scale="   81.292">  5  6 -1 -1</clus>
<clus scale="   92.298">  7  8 -1 -1</clus>
<clus scale="   92.591">  1  5  2 -1</clus>
<clus scale="   92.591">  1  5  2 -1</clus>
</clustering>
</event>
<event>
 9    2  0.3402837E-005  0.2161527E+03  0.7546771E-02  0.1137872E+00
          2   -1    0    0  502    0  0.00000000000E+00  0.00000000000E+00  0.66725025150E+03  0.66725025150E+03  0.00000000000E+00 0. -1.
         -1   -1    0    0    0  501 -0.00000000000E+00 -0.00000000000E+00 -0.90768697785E+02  0.90768697785E+02  0.00000000000E+00 0.  1.
         24    2    1    2    0    0 -0.13471002938E+03 -0.11656594071E+03  0.15660830065E+03  0.24936477858E+03  0.76955977093E+02 0.  0.
         23    2    1    2    0    0  0.15685627380E+03  0.13481233425E+03  0.42317674639E+03  0.47976991744E+03  0.91226963657E+02 0.  0.
        -11    1    3    3    0    0 -0.63708543411E+02 -0.17640607337E+02  0.26656227733E+02  0.71277794632E+02  0.00000000000E+00 0.  1.
         12    1    3    3    0    0 -0.71001485974E+02 -0.98925333377E+02  0.12995207292E+03  0.17808698395E+03  0.00000000000E+00 0. -1.
        -13    1    4    4    0    0  0.25473898459E+02 -0.27871453659E+01  0.15661975116E+02  0.30033067551E+02  0.00000000000E+00 0.  1.
         13    1    4    4    0    0  0.13138237534E+03  0.13759947962E+03  0.40751477127E+03  0.44973684989E+03  0.00000000000E+00 0. -1.
         21    1    1    2  502  501 -0.22146244412E+02 -0.18246393536E+02 -0.33034933300E+01  0.28884253267E+02  0.00000000000E+00 0.  1.
<scales pt_clust_5="13000.00000" pt_clust_6="13000.00000" pt_clust_7="13000.00000" pt_clust_8="13000.00000" pt_clust_9="28.69472"></scales>
<clustering>
<clus scale="   28.695">  2  9  1 -1</clus>
<clus scale="   76.956">  5  6 -1 -1</clus>
<clus scale="   91.227">  7  8 -1 -1</clus>
<clus scale="  210.528">  2  5  1 -1</clus>
<clus scale="  216.153">  1  5  2 -1</clus>
</clustering>
</event>
<event>
 9    2  0.3402837E-005  0.1158001E+03  0.7546771E-02  0.1253719E+00
         -3   -1    0    0    0  501 -0.00000000000E+00  0.00000000000E+00  0.25483527088E+03  0.25483527088E+03  0.00000000000E+00 0.  1.
          4   -1    0    0  502    0  0.00000000000E+00 -0.00000000000E+00 -0.15706409286E+03  0.15706409286E+03  0.00000000000E+00 0. -1.
         23    2    1    2    0    0 -0.75588114853E+02 -0.61219784963E+02  0.15117673702E+03  0.20121691193E+03  0.90401408467E+02 0.  0.
         24    2    1    2    0    0  0.40514248094E+02  0.56592751650E+02 -0.10424428722E+03  0.14874569491E+03  0.80089115986E+02 0.  0.
        -11    1    4    4    0    0 -0.19569044725E+02 -0.41701175487E+01 -0.13725751271E+02  0.24263833988E+02  0.00000000000E+00 0.  1.
         12    1    4    4    0    0  0.60083292819E+02  0.60762869198E+02 -0.90518535948E+02  0.12448186093E+03  0.00000000000E+00 0. -1.
        -11    1    3    3    0    0 -0.48139231656E+02 -0.84113737788E+02  0.11438935577E+03  0.14992475187E+03  0.00000000000E+00 0.  1.
         11    1    3    3    0    0 -0.27448883197E+02  0.22893952824E+02  0.36787381250E+02  0.51292160063E+02  0.00000000000E+00 0. -1.
         21    1    1    2  502  501  0.35073866759E+02  0.46270333138E+01  0.50838728217E+02  0.61936756885E+02  0.00000000000E+00 0. -1.
<scales pt_clust_5="13000.00000" pt_clust_6="13000.00000" pt_clust_7="13000.00000" pt_clust_8="13000.00000" pt_clust_9="35.37776"></scales>
<clustering>
<clus scale="   35.378">  1  9  2 -1</clus>
<clus scale="   80.089">  5  6 -1 -1</clus>
<clus scale="   90.401">  7  8 -1 -1</clus>
<clus scale="  107.942">  2  5  1 -1</clus>
<clus scale="  107.942">  2  5  1 -1</clus>
</clustering>
</event>
<event>
 9    2  0.3402837E-005  0.9682214E+02  0.7546771E-02  0.1288192E+00
         -1   -1    0    0    0  501 -0.00000000000E+00  0.00000000000E+00  0.14595096625E+03  0.14595096625E+03  0.00000000000E+00 0.  1.
          2   -1    0    0  502    0  0.00000000000E+00 -0.00000000000E+00 -0.19442631639E+03  0.19442631639E+03  0.00000000000E+00 0. -1.
         23    2    1    2    0    0 -0.36951103802E+02 -0.46103134490E+02 -0.43997678883E+01  0.10488012263E+03  0.86542469819E+02 0.  0.
         24    2    1    2    0    0  0.40870701793E+02  0.76426174049E+01 -0.11869774340E+03  0.15145525643E+03  0.84384338272E+02 0.  0.
        -13    1    4    4    0    0  0.34396511728E+02  0.16839866088E+02 -0.66817958728E+01  0.38876053105E+02  0.00000000000E+00 0.  1.
         14    1    4    4    0    0  0.64741900654E+01 -0.91972486829E+01 -0.11201594753E+03  0.11257920333E+03  0.00000000000E+00 0. -1.
        -13    1    3    3    0    0 -0.10031974363E+02 -0.18710131923E+02  0.40541547830E+02  0.45763813725E+02  0.00000000000E+00 0.  1.
         13    1    3    3    0    0 -0.26919129440E+02 -0.27393002567E+02 -0.44941315719E+02  0.59116308900E+02  0.00000000000E+00 0. -1.
         21    1    1    2  502  501 -0.39195979910E+01  0.38460517085E+02  0.74622161151E+02  0.84041903582E+02  0.00000000000E+00 0.  1.
<scales pt_clust_5="13000.00000" pt_clust_6="13000.00000" pt_clust_7="13000.00000" pt_clust_8="13000.00000" pt_clust_9="38.65973"></scales>
<clustering>
<clus scale="   38.660">  1  9  2 -1</clus>
<clus scale="   84.384">  5  6 -1 -1</clus>
<clus scale="   86.542">  7  8 -1 -1</clus>
<clus scale="   94.898">  2  5  1 -1</clus>
<clus scale="   94.898">  2  5  1 -1</clus>
</clustering>
</event>
<event>
 9    2  0.3402837E-005  0.9589616E+02  0.7546771E-02  0.1297673E+00
         -1   -1    0    0    0  501 -0.00000000000E+00  0.00000000000E+00  0.81744072876E+02  0.81744072876E+02  0.00000000000E+00 0.  1.
          2   -1    0    0  502    0  0.00000000000E+00 -0.00000000000E+00 -0.31201537305E+03  0.31201537305E+03  0.00000000000E+00 0. -1.
         24    2    1    2    0    0 -0.23936749858E+02  0.40435690882E+02  0.19299341501E+02  0.94771105167E+02  0.80006779097E+02 0.  0.
         23    2    1    2    0    0 -0.17199127652E+02 -0.84961438982E+01 -0.21744083528E+03  0.23779504423E+03  0.94329061078E+02 0.  0.
        -11    1    3    3    0    0  0.16124542199E+02  0.49183024243E+02  0.97595463184E+01  0.52670859867E+02  0.00000000000E+00 0.  1.
         12    1    3    3    0    0 -0.40061292057E+02 -0.87473333614E+01  0.95397951823E+01  0.42100245300E+02  0.00000000000E+00 0. -1.
        -13    1    4    4    0    0  0.11295696700E+02  0.18857276489E+02 -0.61244570081E+01  0.22818821489E+02  0.00000000000E+00 0.  1.
         13    1    4    4    0    0 -0.28494824352E+02 -0.27353420387E+02 -0.21131637827E+03  0.21497622275E+03  0.00000000000E+00 0. -1.
         21    1    1    2  502  501  0.41135877510E+02 -0.31939546984E+02 -0.32129806396E+02  0.61193296521E+02  0.00000000000E+00 0.  1.
<scales pt_clust_5="13000.00000" pt_clust_6="13000.00000" pt_clust_7="13000.00000" pt_clust_8="13000.00000" pt_clust_9="52.07970"></scales>
<clustering>
<clus scale="   52.080">  1  9  2 -1</clus>
<clus scale="   80.007">  5  6 -1 -1</clus>
<clus scale="   81.849">  1  5  2 -1</clus>
<clus scale="   94.329">  7  8 -1 -1</clus>
<clus scale="   95.896">  2  5  1 -1</clus>
</clustering>
</event>
<event>
 9    2  0.3402837E-005  0.1889051E+03  0.7546771E-02  0.1161052E+00
         -1   -1    0    0    0  501 -0.00000000000E+00  0.00000000000E+00  0.26260999243E+02  0.26260999243E+02  0.00000000000E+00 0.  1.
          2   -1    0    0  502    0  0.00000000000E+00 -0.00000000000E+00 -0.20048719984E+04  0.20048719984E+04  0.00000000000E+00 0. -1.
         23    2    1    2    0    0  0.14776755885E+03 -0.93336551175E+02 -0.68397767062E+03  0.71222761896E+03  0.94317358254E+02 0.  0.
         24    2    1    2    0    0 -0.12676457736E+03  0.96036258890E+02 -0.12819390236E+04  0.12942161294E+04  0.79595905935E+02 0.  0.
        -13    1    4    4    0    0 -0.74686599041E+02  0.87316004685E+02 -0.65021128654E+03  0.66028546092E+03  0.00000000000E+00 0.  1.
         14    1    4    4    0    0 -0.52077978316E+02  0.87202542050E+01 -0.63172773708E+03  0.63393066849E+03  0.00000000000E+00 0. -1.
        -13    1    3    3    0    0  0.12813715618E+03 -0.32229457889E+02 -0.40696073369E+03  0.42787253653E+03  0.00000000000E+00 0.  1.
         13    1    3    3    0    0  0.19630402676E+02 -0.61107093286E+02 -0.27701693693E+03  0.28435508243E+03  0.00000000000E+00 0. -1.
         21    1    1    2  502  501 -0.21002981496E+02 -0.26997077157E+01 -0.12694304956E+02  0.24689249316E+02  0.00000000000E+00 0.  1.
<scales pt_clust_5="13000.00000" pt_clust_6="13000.00000" pt_clust_7="13000.00000" pt_clust_8="13000.00000" pt_clust_9="21.17578"></scales>
<clustering>
<clus scale="   21.176">  1  9  2 -1</clus>
<clus scale="   79.596">  5  6 -1 -1</clus>
<clus scale="   94.317">  7  8 -1 -1</clus>
<clus scale="  182.002">  2  5  1 -1</clus>
<clus scale="  182.002">  2  5  1 -1</clus>
</clustering>
</event>
<event>
 9    2  0.3402837E-005  0.1383674E+03  0.7546771E-02  0.1221251E+00
          2   -1    0    0  502    0  0.00000000000E+00  0.00000000000E+00  0.48375663038E+02  0.48375663038E+02  0.00000000000E+00 0. -1.
         -1   -1    0    0    0  501 -0.00000000000E+00 -0.00000000000E+00 -0.58689061792E+03  0.58689061792E+03  0.00000000000E+00 0.  1.
         24    2    1    2    0    0 -0.30762745415E+02 -0.10820486728E+03 -0.33613166977E+03  0.36339467348E+03  0.80103367476E+02 0.  0.
         23    2    1    2    0    0  0.96797632640E+01  0.85061678926E+02 -0.10592306467E+03  0.17045822852E+03  0.10250426822E+03 0.  0.
        -13    1    3    3    0    0  0.10855046952E+02 -0.64592997582E+02 -0.98892216348E+02  0.11861601003E+03  0.00000000000E+00 0.  1.
         14    1    3    3    0    0 -0.41617792367E+02 -0.43611869702E+02 -0.23723945342E+03  0.24477866345E+03  0.00000000000E+00 0. -1.
        -11    1    4    4    0    0 -0.11033637805E+02  0.47710173370E+02 -0.11657237872E+03  0.12644018857E+03  0.00000000000E+00 0.  1.
         11    1    4    4    0    0  0.20713401069E+02  0.37351505556E+02  0.10649314049E+02  0.44018039948E+02  0.00000000000E+00 0. -1.
         21    1    1    2  502  501  0.21082982151E+02  0.23143188358E+02 -0.96460220443E+02  0.10141337896E+03  0.00000000000E+00 0.  1.
<scales pt_clust_5="13000.00000" pt_clust_6="13000.00000" pt_clust_7="13000.00000" pt_clust_8="13000.00000" pt_clust_9="31.30654"></scales>
<clustering>
<clus scale="   31.307">  2  9  1 -1</clus>
<clus scale="   80.103">  5  6 -1 -1</clus>
<clus scale="  102.504">  7  8 -1 -1</clus>
<clus scale="  122.699">  2  5  1 -1</clus>
<clus scale="  138.367">  1  5  2 -1</clus>
</clustering>
</event>
<event>
 9    2  0.3402837E-005  0.9500624E+02  0.7546771E-02  0.1302561E+00
         -1   -1    0    0    0  501 -0.00000000000E+00  0.00000000000E+00  0.28775430132E+03  0.28775430132E+03  0.00000000000E+00 0.  1.
          2   -1    0    0  502    0  0.00000000000E+00 -0.00000000000E+00 -0.43809664346E+03  0.43809664346E+03  0.00000000000E+00 0. -1.
         23    2    1    2    0    0 -0.54967117720E+02 -0.33379746915E+02  0.16150203546E+03  0.19585314731E+03  0.90221706486E+02 0.  0.
         24    2    1    2    0    0  0.23437673917E+02  0.17239027155E+02 -0.41443452931E+03  0.42146500109E+03  0.70924321958E+02 0.  0.
        -13    1    4    4    0    0 -0.20458568445E+02  0.24736407769E+02 -0.17921212528E+03  0.18206435329E+03  0.00000000000E+00 0.  1.
         14    1    4    4    0    0  0.43896242362E+02 -0.74973806145E+01 -0.23522240403E+03  0.23940064780E+03  0.00000000000E+00 0. -1.
        -11    1    3    3    0    0 -0.89193753256E+01 -0.43439167905E+02  0.23843667248E+02  0.50349151257E+02  0.00000000000E+00 0. -1.
         11    1    3    3    0    0 -0.46047742395E+02  0.10059420990E+02  0.13765836821E+03  0.14550399606E+03  0.00000000000E+00 0.  1.
         21    1    1    2  502  501  0.31529443803E+02  0.16140719760E+02  0.10259015171E+03  0.10853279638E+03  0.00000000000E+00 0.  1.
<scales pt_clust_5="13000.00000" pt_clust_6="13000.00000" pt_clust_7="13000.00000" pt_clust_8="13000.00000" pt_clust_9="35.42074"></scales>
<clustering>
<clus scale="   35.421">  1  9  2 -1</clus>
<clus scale="   70.924">  5  6 -1 -1</clus>
<clus scale="   76.919">  2  5  1 -1</clus>
<clus scale="   90.222">  7  8 -1 -1</clus>
<clus scale="   76.919">  2  5  1 -1</clus>
</clustering>
</event>
<event>
 9    2  0.3402837E-005  0.1214084E+03  0.7546771E-02  0.1242818E+00
         -1   -1    0    0    0  501 -0.00000000000E+00  0.00000000000E+00  0.19429586014E+03  0.19429586014E+03  0.00000000000E+00 0.  1.
          2   -1    0    0  502    0  0.00000000000E+00 -0.00000000000E+00 -0.13278477016E+03  0.13278477016E+03  0.00000000000E+00 0. -1.
         24    2    1    2    0    0 -0.32957309648E+02  0.62477189119E+02  0.11768852165E+03  0.15950045187E+03  0.81241754036E+02 0.  0.
         23    2    1    2    0    0  0.17965504932E+02 -0.85869694943E+02 -0.62396778018E+02  0.13910837121E+03  0.88098905539E+02 0.  0.
        -11    1    3    3    0    0 -0.25709799020E+02  0.38037706234E+02  0.12484845739E+03  0.13302254761E+03  0.00000000000E+00 0.  1.
         12    1    3    3    0    0 -0.72475106276E+01  0.24439482885E+02 -0.71599357383E+01  0.26477904256E+02  0.00000000000E+00 0. -1.
        -11    1    4    4    0    0  0.45306931179E+02 -0.19620497000E+02 -0.41381486441E+02  0.64421342235E+02  0.00000000000E+00 0. -1.
         11    1    4    4    0    0 -0.27341426247E+02 -0.66249197943E+02 -0.21015291577E+02  0.74687028976E+02  0.00000000000E+00 0.  1.
         21    1    1    2  502  501  0.14991804716E+02  0.23392505824E+02  0.62193463364E+01  0.28471807217E+02  0.00000000000E+00 0.  1.
<scales pt_clust_5="13000.00000" pt_clust_6="13000.00000" pt_clust_7="13000.00000" pt_clust_8="13000.00000" pt_clust_9="27.78423"></scales>
<clustering>
<clus scale="   27.784">  1  9  2 -1</clus>
<clus scale="   81.242">  5  6 -1 -1</clus>
<clus scale="   88.099">  7  8 -1 -1</clus>
<clus scale="  116.528">  1  5  2 -1</clus>
<clus scale="  121.408">  2  5  1 -1</clus>
</clustering>
</event>
<event>
 9    2  0.3402837E-005  0.1151188E+03  0.7546771E-02  0.1254360E+00
         -1   -1    0    0    0  501 -0.00000000000E+00  0.00000000000E+00  0.73767810017E+02  0.73767810017E+02  0.00000000000E+00 0.  1.
          2   -1    0    0  502    0  0.00000000000E+00 -0.00000000000E+00 -0.68307563086E+03  0.68307563086E+03  0.00000000000E+00 0. -1.
         23    2    1    2    0    0 -0.75049197119E+02  0.66138861158E+02 -0.33657753106E+02  0.13855991192E+03  0.89773458790E+02 0.  0.
         24    2    1    2    0    0  0.49857412617E+02 -0.48367009541E+02 -0.57760628499E+03  0.58739192003E+03  0.81087101673E+02 0.  0.
        -13    1    4    4    0    0  0.35243360249E+02 -0.18156186454E+02 -0.86637371878E+02  0.95277362234E+02  0.00000000000E+00 0.  1.
         14    1    4    4    0    0  0.14614052367E+02 -0.30210823088E+02 -0.49096891311E+03  0.49211455780E+03  0.00000000000E+00 0. -1.
        -11    1    3    3    0    0  0.86906076542E+01  0.40902102438E+02  0.65066920994E+01  0.42318384744E+02  0.00000000000E+00 0. -1.
         11    1    3    3    0    0 -0.83739804773E+02  0.25236758720E+02 -0.40164445205E+02  0.96241527174E+02  0.00000000000E+00 0.  1.
         21    1    1    2  502  501  0.25191784502E+02 -0.17771851617E+02  0.19562172486E+01  0.30891608929E+02  0.00000000000E+00 0. -1.
<scales pt_clust_5="13000.00000" pt_clust_6="13000.00000" pt_clust_7="13000.00000" pt_clust_8="13000.00000" pt_clust_9="30.82961"></scales>
<clustering>
<clus scale="   30.830">  1  9  2 -1</clus>
<clus scale="   81.087">  5  6 -1 -1</clus>
<clus scale="   89.773">  7  8 -1 -1</clus>
<clus scale="  108.481">  2  5  1 -1</clus>
<clus scale="  108.481">  2  5  1 -1</clus>
</clustering>
</event>
<event>
 9    2  0.3402837E-005  0.1202084E+03  0.7546771E-02  0.1272317E+00
         -1   -1    0    0    0  501 -0.00000000000E+00  0.00000000000E+00  0.13343564302E+03  0.13343564302E+03  0.00000000000E+00 0.  1.
          2   -1    0    0  502    0  0.00000000000E+00 -0.00000000000E+00 -0.26752807626E+03  0.26752807626E+03  0.00000000000E+00 0. -1.
         23    2    1    2    0    0 -0.84979991192E+02 -0.55084682418E+01  0.42989556408E+02  0.13279950969E+03  0.92388666450E+02 0.  0.
         24    2    1    2    0    0  0.13830066843E+02  0.89302365537E+01 -0.18472398910E+03  0.19652329678E+03  0.65018721547E+02 0.  0.
        -13    1    4    4    0    0 -0.77076946926E+01  0.32645323323E+02 -0.73786107563E+02  0.81052546916E+02  0.00000000000E+00 0.  1.
         14    1    4    4    0    0  0.21537761536E+02 -0.23715086769E+02 -0.11093788154E+03  0.11547074986E+03  0.00000000000E+00 0. -1.
        -11    1    3    3    0    0 -0.23644790009E+02 -0.30651259830E+02  0.53132834734E+02  0.65739439841E+02  0.00000000000E+00 0.  1.
         11    1    3    3    0    0 -0.61335201183E+02  0.25142791589E+02 -0.10143278325E+02  0.67060069849E+02  0.00000000000E+00 0. -1.
         21    1    1    2  502  501  0.71149924349E+02 -0.34217683119E+01  0.76419994548E+01  0.71640912814E+02  0.00000000000E+00 0. -1.
<scales pt_clust_5="13000.00000" pt_clust_6="13000.00000" pt_clust_7="13000.00000" pt_clust_8="13000.00000" pt_clust_9="76.90509"></scales>
<clustering>
<clus scale="   65.019">  5  6 -1 -1</clus>
<clus scale="   67.071">  2  5  1 -1</clus>
<clus scale="   76.905">  2  9  1 -1</clus>
<clus scale="   92.389">  7  8 -1 -1</clus>
<clus scale="   67.071">  2  5  1 -1</clus>
</clustering>
</event>
<event>
 9    2  0.3402837E-005  0.9588642E+02  0.7546771E-02  0.1289442E+00
          2   -1    0    0  502    0  0.00000000000E+00  0.00000000000E+00  0.44127870448E+03  0.44127870448E+03  0.00000000000E+00 0. -1.
         -1   -1    0    0    0  501 -0.00000000000E+00 -0.00000000000E+00 -0.29697033363E+02  0.29697033363E+02  0.00000000000E+00 0.  1.
         23    2    1    2    0    0  0.93482409140E+01  0.14210434556E+02  0.10327473207E+03  0.13831088461E+03  0.90415178258E+02 0.  0.
         24    2    1    2    0    0 -0.27498376964E+02 -0.24962608004E+02  0.28393194956E+03  0.30042858817E+03  0.90888349509E+02 0.  0.
        -13    1    4    4    0    0 -0.23705624768E+02  0.32508627252E+02  0.10442116423E+03  0.11190418683E+03  0.00000000000E+00 0.  1.
         14    1    4    4    0    0 -0.37927521959E+01 -0.57471235255E+02  0.17951078533E+03  0.18852440135E+03  0.00000000000E+00 0. -1.
        -11    1    3    3    0    0 -0.21724708181E+02  0.31905426469E+02  0.12221743512E+02  0.40488148861E+02  0.00000000000E+00 0.  1.
         11    1    3    3    0    0  0.31072949095E+02 -0.17694991913E+02  0.91052988562E+02  0.97822735754E+02  0.00000000000E+00 0. -1.
         21    1    1    2  502  501  0.18150136050E+02  0.10752173447E+02  0.24374989484E+02  0.32236265057E+02  0.00000000000E+00 0.  1.
<scales pt_clust_5="13000.00000" pt_clust_6="13000.00000" pt_clust_7="13000.00000" pt_clust_8="13000.00000" pt_clust_9="21.09589"></scales>
<clustering>
<clus scale="   21.096">  2  9  1 -1</clus>
<clus scale="   90.415">  7  8 -1 -1</clus>
<clus scale="   90.888">  5  6 -1 -1</clus>
<clus scale="   95.438">  2  7  1 -1</clus>
<clus scale="   95.886">  1  5  2 -1</clus>
</clustering>
</event>
<event>
 9    2  0.3402837E-005  0.1438663E+03  0.7546771E-02  0.1212170E+00
         -3   -1    0    0    0  501 -0.00000000000E+00  0.00000000000E+00  0.60567590240E+02  0.60567590240E+02  0.00000000000E+00 0.  1.
          4   -1    0    0  502    0  0.00000000000E+00 -0.00000000000E+00 -0.66289833265E+03  0.66289833265E+03  0.00000000000E+00 0. -1.
         23    2    1    2    0    0  0.12728941565E+03  0.16817610985E+02 -0.13535272298E+03  0.20833200649E+03  0.92716977601E+02 0.  0.
         24    2    1    2    0    0 -0.10468156321E+03  0.20728473121E+02 -0.44977923865E+03  0.46805290659E+03  0.73377520912E+02 0.  0.
        -13    1    4    4    0    0 -0.29730294815E+02 -0.32437720602E+01 -0.35740602237E+02  0.46602608674E+02  0.00000000000E+00 0.  1.
         14    1    4    4    0    0 -0.74951268395E+02  0.23972245182E+02 -0.41403863641E+03  0.42145029792E+03  0.00000000000E+00 0. -1.
        -13    1    3    3    0    0  0.81747635680E+02  0.28937929265E+02 -0.28059517204E+02  0.91145028362E+02  0.00000000000E+00 0.  1.
         13    1    3    3    0    0  0.45541779973E+02 -0.12120318279E+02 -0.10729320577E+03  0.11718697813E+03  0.00000000000E+00 0. -1.
         21    1    1    2  502  501 -0.22607852442E+02 -0.37546084107E+02 -0.17198780784E+02  0.47081009805E+02  0.00000000000E+00 0.  1.
<scales pt_clust_5="13000.00000" pt_clust_6="13000.00000" pt_clust_7="13000.00000" pt_clust_8="13000.00000" pt_clust_9="43.82720"></scales>
<clustering>
<clus scale="   43.827">  1  9  2 -1</clus>
<clus scale="   73.378">  5  6 -1 -1</clus>
<clus scale="   92.717">  7  8 -1 -1</clus>
<clus scale="  132.232">  2  5  1 -1</clus>
<clus scale="  132.232">  2  5  1 -1</clus>
</clustering>
</event>
<event>
 9    2  0.3402837E-005  0.1397070E+03  0.7546771E-02  0.1216766E+00
         -1   -1    0    0    0  501 -0.00000000000E+00  0.00000000000E+00  0.39642631326E+03  0.39642631326E+03  0.00000000000E+00 0.  1.
          2   -1    0    0  502    0  0.00000000000E+00 -0.00000000000E+00 -0.66459512273E+02  0.66459512273E+02  0.00000000000E+00 0. -1.
         23    2    1    2    0    0  0.32785065668E+02  0.12359635426E+03  0.14820341135E+03  0.21625070502E+03  0.91919513544E+02 0.  0.
         24    2    1    2    0    0 -0.28090625568E+02 -0.85204398089E+02  0.96971887606E+02  0.15343866734E+03  0.78044890616E+02 0.  0.
        -11    1    4    4    0    0 -0.51207804205E+02 -0.31680451165E+02  0.43031367435E+02  0.74010734227E+02  0.00000000000E+00 0.  1.
         12    1    4    4    0    0  0.23117178638E+02 -0.53523946925E+02  0.53940520171E+02  0.79427933115E+02  0.00000000000E+00 0. -1.
        -11    1    3    3    0    0 -0.23128709522E+02  0.45423996358E+02  0.91279001356E+02  0.10454727513E+03  0.00000000000E+00 0.  1.
         11    1    3    3    0    0  0.55913775190E+02  0.78172357900E+02  0.56924409989E+02  0.11170342989E+03  0.00000000000E+00 0. -1.
         21    1    1    2  502  501 -0.46944401003E+01 -0.38391956169E+02  0.84791502038E+02  0.93196453174E+02  0.00000000000E+00 0.  1.
<scales pt_clust_5="13000.00000" pt_clust_6="13000.00000" pt_clust_7="13000.00000" pt_clust_8="13000.00000" pt_clust_9="38.67790"></scales>
<clustering>
<clus scale="   38.678">  1  9  2 -1</clus>
<clus scale="   78.045">  5  6 -1 -1</clus>
<clus scale="   91.920">  7  8 -1 -1</clus>
<clus scale="  130.996">  2  5  1 -1</clus>
<clus scale="  130.996">  2  5  1 -1</clus>
</clustering>
</event>
<event>
 9    2  0.3402837E-005  0.9689218E+02  0.7546771E-02  0.1291745E+00
          2   -1    0    0  502    0  0.00000000000E+00  0.00000000000E+00  0.40692089612E+03  0.40692089612E+03  0.00000000000E+00 0. -1.
         -1   -1    0    0    0  501 -0.00000000000E+00 -0.00000000000E+00 -0.35470110335E+02  0.35470110335E+02  0.00000000000E+00 0.  1.
         23    2    1    2    0    0  0.18173754855E+02 -0.80748323566E+01  0.61429912922E+02  0.11058939719E+03  0.89782472039E+02 0.  0.
         24    2    1    2    0    0 -0.38605506460E+02  0.14363876931E+02  0.28403871678E+03  0.29815519802E+03  0.80757806960E+02 0.  0.
        -13    1    4    4    0    0 -0.48992744292E+01 -0.28501718710E+02  0.49213796372E+02  0.57081946469E+02  0.00000000000E+00 0.  1.
         14    1    4    4    0    0 -0.33706232031E+02  0.42865595640E+02  0.23482492041E+03  0.24107325155E+03  0.00000000000E+00 0. -1.
        -13    1    3    3    0    0  0.39629560236E+02  0.28738877239E+02  0.27714527020E+02  0.56254067563E+02  0.00000000000E+00 0.  1.
         13    1    3    3    0    0 -0.21455805381E+02 -0.36813709596E+02  0.33715385902E+02  0.54335329623E+02  0.00000000000E+00 0. -1.
         21    1    1    2  502  501  0.20431751606E+02 -0.62890445740E+01  0.25982156079E+02  0.33646411248E+02  0.00000000000E+00 0. -1.
<scales pt_clust_5="13000.00000" pt_clust_6="13000.00000" pt_clust_7="13000.00000" pt_clust_8="13000.00000" pt_clust_9="21.37776"></scales>
<clustering>
<clus scale="   21.378">  2  9  1 -1</clus>
<clus scale="   80.758">  5  6 -1 -1</clus>
<clus scale="   88.595">  1  5  2 -1</clus>
<clus scale="   89.782">  7  8 -1 -1</clus>
<clus scale="   88.595">  1  5  2 -1</clus>
</clustering>
</event>
<event>
 9    2  0.3402837E-005  0.1082069E+03  0.7546771E-02  0.1271344E+00
          2   -1    0    0  502    0  0.00000000000E+00  0.00000000000E+00  0.36162835475E+03  0.36162835475E+03  0.00000000000E+00 0. -1.
         -1   -1    0    0    0  501 -0.00000000000E+00 -0.00000000000E+00 -0.66144965671E+02  0.66144965671E+02  0.00000000000E+00 0.  1.
         23    2    1    2    0    0 -0.47341876908E+02  0.65265801977E+02  0.73559330762E+02  0.14806993987E+03  0.10006424803E+03 0.  0.
         24    2    1    2    0    0  0.33455268493E+02 -0.65732618457E+01  0.19196798263E+03  0.21236083359E+03  0.84160290691E+02 0.  0.
        -13    1    4    4    0    0  0.43915276676E+02 -0.32235528342E+02  0.16472889219E+03  0.17350299345E+03  0.00000000000E+00 0.  1.
         14    1    4    4    0    0 -0.10460008183E+02  0.25662266497E+02  0.27239090435E+02  0.38857840144E+02  0.00000000000E+00 0. -1.
        -13    1    3    3    0    0 -0.18273077703E+02  0.35628600494E+02 -0.20698915802E+02  0.45074911617E+02  0.00000000000E+00 0.  1.
         13    1    3    3    0    0 -0.29068799205E+02  0.29637201483E+02  0.94258246564E+02  0.10299502825E+03  0.00000000000E+00 0. -1.
         21    1    1    2  502  501  0.13886608416E+02 -0.58692540131E+02  0.29956075691E+02  0.67342546961E+02  0.00000000000E+00 0.  1.
<scales pt_clust_5="13000.00000" pt_clust_6="13000.00000" pt_clust_7="13000.00000" pt_clust_8="13000.00000" pt_clust_9="60.31295"></scales>
<clustering>
<clus scale="   60.313">  2  9  1 -1</clus>
<clus scale="   84.160">  5  6 -1 -1</clus>
<clus scale="   93.695">  1  5  2 -1</clus>
<clus scale="  100.064">  7  8 -1 -1</clus>
<clus scale="   93.695">  1  5  2 -1</clus>
</clustering>
</event>
<event>
 9    2  0.3402837E-005  0.1074382E+03  0.7546771E-02  0.1266928E+00
         -1   -1    0    0    0  501 -0.00000000000E+00  0.00000000000E+00  0.19144209411E+03  0.19144209411E+03  0.00000000000E+00 0.  1.
          2   -1    0    0  502    0  0.00000000000E+00 -0.00000000000E+00 -0.15493095364E+03  0.15493095364E+03  0.00000000000E+00 0. -1.
         23    2    1    2    0    0  0.48786962612E+02  0.72236828405E-02  0.13143317059E+03  0.16539329963E+03  0.87750199205E+02 0.  0.
         24    2    1    2    0    0 -0.58561542970E+02  0.27115461913E+02 -0.10630685120E+03  0.14998302818E+03  0.83839486760E+02 0.  0.
        -13    1    4    4    0    0 -0.19469922686E+01 -0.24122060055E+02 -0.79649809740E+01  0.25477548589E+02  0.00000000000E+00 0.  1.
         14    1    4    4    0    0 -0.56614550701E+02  0.51237521968E+02 -0.98341870228E+02  0.12450547959E+03  0.00000000000E+00 0. -1.
        -13    1    3    3    0    0  0.15417725490E+02 -0.43090340412E+02  0.64177340221E+02  0.78823947464E+02  0.00000000000E+00 0.  1.
         13    1    3    3    0    0  0.33369237122E+02  0.43097564095E+02  0.67255830365E+02  0.86569352169E+02  0.00000000000E+00 0. -1.
         21    1    1    2  502  501  0.97745803582E+01 -0.27122685596E+02  0.11384821090E+02  0.30996719929E+02  0.00000000000E+00 0.  1.
<scales pt_clust_5="13000.00000" pt_clust_6="13000.00000" pt_clust_7="13000.00000" pt_clust_8="13000.00000" pt_clust_9="28.83024"></scales>
<clustering>
<clus scale="   28.830">  1  9  2 -1</clus>
<clus scale="   83.839">  5  6 -1 -1</clus>
<clus scale="   87.750">  7  8 -1 -1</clus>
<clus scale="  104.269">  2  5  1 -1</clus>
<clus scale="  104.269">  2  5  1 -1</clus>
</clustering>
</event>
<event>
 9    2  0.3402837E-005  0.9297672E+02  0.7546771E-02  0.1300772E+00
         -1   -1    0    0    0  501 -0.00000000000E+00  0.00000000000E+00  0.20434927247E+03  0.20434927247E+03  0.00000000000E+00 0.  1.
          2   -1    0    0  502    0  0.00000000000E+00 -0.00000000000E+00 -0.14380944767E+03  0.14380944767E+03  0.00000000000E+00 0. -1.
         24    2    1    2    0    0  0.68641840240E+01  0.14625638964E+02  0.11053553075E+03  0.13824934541E+03  0.81447845959E+02 0.  0.
         23    2    1    2    0    0  0.24446491903E+02  0.15791306519E+02 -0.10396002244E+03  0.14049974677E+03  0.89919387492E+02 0.  0.
        -11    1    3    3    0    0 -0.11124375643E+02  0.45679623432E+02  0.66526842842E+02  0.81462878349E+02  0.00000000000E+00 0.  1.
         12    1    3    3    0    0  0.17988559667E+02 -0.31053984468E+02  0.44008687905E+02  0.56786467061E+02  0.00000000000E+00 0. -1.
        -11    1    4    4    0    0  0.43831025810E+02 -0.21997710930E+02 -0.72994738705E+02  0.87939126607E+02  0.00000000000E+00 0. -1.
         11    1    4    4    0    0 -0.19384533907E+02  0.37789017449E+02 -0.30965283739E+02  0.52560620160E+02  0.00000000000E+00 0.  1.
         21    1    1    2  502  501 -0.31310675927E+02 -0.30416945483E+02  0.53964316495E+02  0.69409627966E+02  0.00000000000E+00 0. -1.
<scales pt_clust_5="13000.00000" pt_clust_6="13000.00000" pt_clust_7="13000.00000" pt_clust_8="13000.00000" pt_clust_9="43.65259"></scales>
<clustering>
<clus scale="   43.653">  1  9  2 -1</clus>
<clus scale="   81.448">  5  6 -1 -1</clus>
<clus scale="   84.811">  1  5  2 -1</clus>
<clus scale="   89.919">  7  8 -1 -1</clus>
<clus scale="   92.977">  2  5  1 -1</clus>
</clustering>
</event>
<event>
 9    2  0.3402837E-005  0.1702983E+03  0.7546771E-02  0.1180774E+00
         -1   -1    0    0    0  501 -0.00000000000E+00  0.00000000000E+00  0.54672626272E+02  0.54672626272E+02  0.00000000000E+00 0.  1.
          2   -1    0    0  502    0  0.00000000000E+00 -0.00000000000E+00 -0.13825022539E+04  0.13825022539E+04  0.00000000000E+00 0. -1.
         23    2    1    2    0    0  0.21708365918E+02  0.16528355245E+03 -0.24717193731E+03  0.31518066267E+03  0.10224958516E+03 0.  0.
         24    2    1    2    0    0 -0.71725462603E+02 -0.11211936005E+03 -0.10045425631E+04  0.10165349652E+04  0.80760642730E+02 0.  0.
        -13    1    4    4    0    0 -0.71029703906E+02 -0.11274336476E+03 -0.73441838028E+03  0.74640916556E+03  0.00000000000E+00 0.  1.
         14    1    4    4    0    0 -0.69575869623E+00  0.62400471693E+00 -0.27012418286E+03  0.27012579963E+03  0.00000000000E+00 0. -1.
        -11    1    3    3    0    0  0.51348812947E+02  0.63566777456E+02 -0.64894198876E+02  0.10434889954E+03  0.00000000000E+00 0. -1.
         11    1    3    3    0    0 -0.29640447029E+02  0.10171677499E+03 -0.18227773844E+03  0.21083176313E+03  0.00000000000E+00 0.  1.
         21    1    1    2  502  501  0.50017096685E+02 -0.53164192402E+02 -0.76115127200E+02  0.10545925234E+03  0.00000000000E+00 0.  1.
<scales pt_clust_5="13000.00000" pt_clust_6="13000.00000" pt_clust_7="13000.00000" pt_clust_8="13000.00000" pt_clust_9="72.99412"></scales>
<clustering>
<clus scale="   72.994">  1  9  2 -1</clus>
<clus scale="   80.761">  5  6 -1 -1</clus>
<clus scale="  102.250">  7  8 -1 -1</clus>
<clus scale="  158.331">  2  5  1 -1</clus>
<clus scale="  158.331">  2  5  1 -1</clus>
</clustering>
</event>
<event>
 9    2  0.3402837E-005  0.3027836E+03  0.7546771E-02  0.1122669E+00
          2   -1    0    0  502    0  0.00000000000E+00  0.00000000000E+00  0.25917074201E+03  0.25917074201E+03  0.00000000000E+00 0. -1.
         -1   -1    0    0    0  501 -0.00000000000E+00 -0.00000000000E+00 -0.15712824578E+04  0.15712824578E+04  0.00000000000E+00 0.  1.
         23    2    1    2    0    0  0.23155962009E+03 -0.45009135614E+02 -0.87604221003E+01  0.25082769356E+03  0.84806290574E+02 0.  0.
         24    2    1    2    0    0  0.66375623884E+02  0.34844238853E+02  0.97183141851E+02  0.14771578848E+03  0.82192132704E+02 0.  0.
        -13    1    4    4    0    0  0.31636132702E+02  0.54383341425E+02  0.85552488531E+02  0.10619614405E+03  0.00000000000E+00 0.  1.
         14    1    4    4    0    0  0.34739491182E+02 -0.19539102572E+02  0.11630653320E+02  0.41519644430E+02  0.00000000000E+00 0. -1.
        -13    1    3    3    0    0  0.31358522736E+02 -0.35873771865E+02 -0.16071502907E+02  0.50284964569E+02  0.00000000000E+00 0.  1.
         13    1    3    3    0    0  0.20020109735E+03 -0.91353637494E+01  0.73110808066E+01  0.20054272900E+03  0.00000000000E+00 0. -1.
         21    1    1    2  502  501 -0.29793524397E+03  0.10164896761E+02 -0.14005344355E+04  0.14319097177E+04  0.00000000000E+00 0.  1.
<scales pt_clust_5="13000.00000" pt_clust_6="13000.00000" pt_clust_7="13000.00000" pt_clust_8="13000.00000" pt_clust_9="290.66445"></scales>
<clustering>
<clus scale="   82.192">  5  6 -1 -1</clus>
<clus scale="   84.806">  7  8 -1 -1</clus>
<clus scale="  111.245">  1  5  2 -1</clus>
<clus scale="  290.664">  2  9  1 -1</clus>
<clus scale="  111.245">  1  5  2 -1</clus>
</clustering>
</event>
<event>
 9    2  0.3402837E-005  0.9542108E+02  0.7546771E-02  0.1297771E+00
          2   -1    0    0  502    0  0.00000000000E+00  0.00000000000E+00  0.19382415524E+03  0.19382415524E+03  0.00000000000E+00 0. -1.
         -1   -1    0    0    0  501 -0.00000000000E+00 -0.00000000000E+00 -0.84669511676E+02  0.84669511676E+02  0.00000000000E+00 0.  1.
         24    2    1    2    0    0 -0.83161397662E+01  0.52601276409E+02  0.15022256718E+02  0.95178032341E+02  0.77441185315E+02 0.  0.
         23    2    1    2    0    0  0.30580197756E+02 -0.61457299060E+00  0.80688734944E+02  0.12518614648E+03  0.90693842833E+02 0.  0.
        -11    1    3    3    0    0 -0.26624301545E+02  0.55519442275E+02 -0.11679642326E+02  0.62671173183E+02  0.00000000000E+00 0.  1.
         12    1    3    3    0    0  0.18308161779E+02 -0.29181658664E+01  0.26701899044E+02  0.32506859158E+02  0.00000000000E+00 0. -1.
        -13    1    4    4    0    0 -0.18012671040E+02 -0.32742243497E+02  0.28911688867E+02  0.47248244204E+02  0.00000000000E+00 0.  1.
         13    1    4    4    0    0  0.48592868796E+02  0.32127670507E+02  0.51777046077E+02  0.77937902272E+02  0.00000000000E+00 0. -1.
         21    1    1    2  502  501 -0.22264057990E+02 -0.51986703418E+02  0.13443651905E+02  0.58129488102E+02  0.00000000000E+00 0.  1.
<scales pt_clust_5="13000.00000" pt_clust_6="13000.00000" pt_clust_7="13000.00000" pt_clust_8="13000.00000" pt_clust_9="56.55356"></scales>
<clustering>
<clus scale="   56.554">  2  9  1 -1</clus>
<clus scale="   77.441">  5  6 -1 -1</clus>
<clus scale="   82.927">  2  5  1 -1</clus>
<clus scale="   90.694">  7  8 -1 -1</clus>
<clus scale="   95.421">  1  5  2 -1</clus>
</clustering>
</event>
<event>
 9    2  0.3402837E-005  0.1951691E+03  0.7546771E-02  0.1156915E+00
          2   -1    0    0  502    0  0.00000000000E+00  0.00000000000E+00  0.96775523155E+03  0.96775523155E+03  0.00000000000E+00 0. -1.
         -1   -1    0    0    0  501 -0.00000000000E+00 -0.00000000000E+00 -0.43469412549E+02  0.43469412549E+02  0.00000000000E+00 0.  1.
         24    2    1    2    0    0 -0.95248014275E+01  0.17198377577E+03  0.39997022597E+03  0.44288138348E+03  0.80613877215E+02 0.  0.
         23    2    1    2    0    0  0.20051175531E+02 -0.15437421651E+03  0.50815338749E+03  0.54222587145E+03  0.10749689339E+03 0.  0.
        -11    1    3    3    0    0 -0.13877237659E+02  0.13486107829E+03  0.21502053083E+03  0.25419267661E+03  0.00000000000E+00 0.  1.
         12    1    3    3    0    0  0.43524362320E+01  0.37122697488E+02  0.18494969514E+03  0.18868870687E+03  0.00000000000E+00 0. -1.
        -13    1    4    4    0    0 -0.16994666327E+02 -0.85413625820E+02  0.39594682384E+03  0.40541114127E+03  0.00000000000E+00 0. -1.
         13    1    4    4    0    0  0.37045841859E+02 -0.68960590692E+02  0.11220656365E+03  0.13681473018E+03  0.00000000000E+00 0.  1.
         21    1    1    2  502  501 -0.10526374104E+02 -0.17609559261E+02  0.16162205552E+02  0.26117389177E+02  0.00000000000E+00 0.  1.
<scales pt_clust_5="13000.00000" pt_clust_6="13000.00000" pt_clust_7="13000.00000" pt_clust_8="13000.00000" pt_clust_9="20.51588"></scales>
<clustering>
<clus scale="   20.516">  2  9  1 -1</clus>
<clus scale="   80.614">  5  6 -1 -1</clus>
<clus scale="  107.497">  7  8 -1 -1</clus>
<clus scale="  181.753">  2  5  1 -1</clus>
<clus scale="  195.169">  1  5  2 -1</clus>
</clustering>
</event>
<event>
 9    2  0.3402837E-005  0.1000549E+03  0.7546771E-02  0.1286682E+00
          2   -1    0    0  502    0  0.00000000000E+00  0.00000000000E+00  0.97498004517E+03  0.97498004517E+03  0.00000000000E+00 0. -1.
         -1   -1    0    0    0  501 -0.00000000000E+00 -0.00000000000E+00 -0.38603354947E+02  0.38603354947E+02  0.00000000000E+00 0.  1.
         23    2    1    2    0    0 -0.53160118118E+02 -0.80096721460E+01  0.14204451162E+03  0.17823040303E+03  0.93269932334E+02 0.  0.
         24    2    1    2    0    0  0.28240226425E+02 -0.21940771956E+02  0.79136939326E+03  0.79627860393E+03  0.80716730700E+02 0.  0.
        -11    1    4    4    0    0 -0.20201428860E+02 -0.41045696259E+01  0.67662279204E+02  0.70732801774E+02  0.00000000000E+00 0.  1.
         12    1    4    4    0    0  0.48441655286E+02 -0.17836202330E+02  0.72370711406E+03  0.72554580215E+03  0.00000000000E+00 0. -1.
        -11    1    3    3    0    0 -0.78088383012E+02  0.21615576036E+01  0.12114268485E+03  0.14414582195E+03  0.00000000000E+00 0.  1.
         11    1    3    3    0    0  0.24928264894E+02 -0.10171229750E+02  0.20901826767E+02  0.34084581081E+02  0.00000000000E+00 0. -1.
         21    1    1    2  502  501  0.24919891693E+02  0.29950444102E+02  0.29627853428E+01  0.39074393161E+02  0.00000000000E+00 0.  1.
<scales pt_clust_5="13000.00000" pt_clust_6="13000.00000" pt_clust_7="13000.00000" pt_clust_8="13000.00000" pt_clust_9="38.96191"></scales>
<clustering>
<clus scale="   38.962">  2  9  1 -1</clus>
<clus scale="   80.717">  5  6 -1 -1</clus>
<clus scale="   88.470">  1  5  2 -1</clus>
<clus scale="   93.270">  7  8 -1 -1</clus>
<clus scale="   88.470">  1  5  2 -1</clus>
</clustering>
</event>
<event>
 9    2  0.3402837E-005  0.1437908E+03  0.7546771E-02  0.1211934E+00
          2   -1    0    0  502    0  0.00000000000E+00  0.00000000000E+00  0.24002625972E+03  0.24002625972E+03  0.00000000000E+00 0. -1.
         -1   -1    0    0    0  501 -0.00000000000E+00 -0.00000000000E+00 -0.23797195438E+03  0.23797195438E+03  0.00000000000E+00 0.  1.
         23    2    1    2    0    0 -0.24829798593E+02  0.93859696705E+02 -0.33921495998E+02  0.13735928884E+03  0.91053526987E+02 0.  0.
         24    2    1    2    0    0  0.11910610142E+03  0.83104785934E+01  0.11066451492E+03  0.18282520617E+03  0.83205130236E+02 0.  0.
        -11    1    4    4    0    0  0.39197779806E+02  0.40682449857E+02  0.61774650139E+02  0.83711618476E+02  0.00000000000E+00 0.  1.
         12    1    4    4    0    0  0.79908321617E+02 -0.32371971264E+02  0.48889864786E+02  0.99113587696E+02  0.00000000000E+00 0. -1.
        -13    1    3    3    0    0  0.84284428255E+01  0.98407488261E+02 -0.31649218324E+02  0.10371473094E+03  0.00000000000E+00 0. -1.
         13    1    3    3    0    0 -0.33258241419E+02 -0.45477915562E+01 -0.22722776740E+01  0.33644557898E+02  0.00000000000E+00 0.  1.
         21    1    1    2  502  501 -0.94276302830E+02 -0.10217017530E+03 -0.74688713581E+02  0.15781371909E+03  0.00000000000E+00 0.  1.
<scales pt_clust_5="13000.00000" pt_clust_6="13000.00000" pt_clust_7="13000.00000" pt_clust_8="13000.00000" pt_clust_9="117.27191"></scales>
<clustering>
<clus scale="   83.205">  5  6 -1 -1</clus>
<clus scale="   91.054">  7  8 -1 -1</clus>
<clus scale="  133.105">  2  7  1 -1</clus>
<clus scale="  117.272">  2  9  1 -1</clus>
<clus scale="  143.791">  1  5  2 -1</clus>
</clustering>
</event>
<event>
 9    2  0.3402837E-005  0.1120069E+03  0.7546771E-02  0.1262822E+00
         -1   -1    0    0    0  501 -0.00000000000E+00  0.00000000000E+00  0.13990512747E+03  0.13990512747E+03  0.00000000000E+00 0.  1.
          2   -1    0    0  502    0  0.00000000000E+00 -0.00000000000E+00 -0.43269530283E+03  0.43269530283E+03  0.00000000000E+00 0. -1.
         23    2    1    2    0    0  0.48255415749E+02 -0.92091383056E+01 -0.25883525185E+02  0.11080918365E+03  0.95892256867E+02 0.  0.
         24    2    1    2    0    0 -0.16149780981E+02  0.61889076634E+02 -0.34621757785E+03  0.36131154255E+03  0.81168629004E+02 0.  0.
        -11    1    4    4    0    0 -0.32656723873E+02 -0.61920516287E+01 -0.10627021300E+03  0.11134703090E+03  0.00000000000E+00 0.  1.
         12    1    4    4    0    0  0.16506942892E+02  0.68081128262E+02 -0.23994736485E+03  0.24996451166E+03  0.00000000000E+00 0. -1.
        -11    1    3    3    0    0 -0.52152080536E+01  0.30829375409E+02  0.12607502643E+02  0.33713467725E+02  0.00000000000E+00 0. -1.
         11    1    3    3    0    0  0.53470623802E+02 -0.40038513714E+02 -0.38491027829E+02  0.77095715922E+02  0.00000000000E+00 0.  1.
         21    1    1    2  502  501 -0.32105634768E+02 -0.52679938328E+02  0.79310927677E+02  0.10047970410E+03  0.00000000000E+00 0.  1.
<scales pt_clust_5="13000.00000" pt_clust_6="13000.00000" pt_clust_7="13000.00000" pt_clust_8="13000.00000" pt_clust_9="61.69236"></scales>
<clustering>
<clus scale="   61.692">  1  9  2 -1</clus>
<clus scale="   81.169">  5  6 -1 -1</clus>
<clus scale="   95.892">  7  8 -1 -1</clus>
<clus scale="   99.692">  2  5  1 -1</clus>
<clus scale="   99.692">  2  5  1 -1</clus>
</clustering>
</event>
<event>
 9    2  0.3402837E-005  0.1238170E+03  0.7546771E-02  0.1252891E+00
          2   -1    0    0  502    0  0.00000000000E+00  0.00000000000E+00  0.50919256963E+03  0.50919256963E+03  0.00000000000E+00 0. -1.
         -1   -1    0    0    0  501 -0.00000000000E+00 -0.00000000000E+00 -0.50561869543E+02  0.50561869543E+02  0.00000000000E+00 0.  1.
         23    2    1    2    0    0 -0.17319448838E+02 -0.41070652022E+02  0.47046707023E+02  0.13283357940E+03  0.11595087498E+03 0.  0.
         24    2    1    2    0    0  0.32597723342E+02  0.27304840365E+02  0.36859304385E+03  0.37926432867E+03  0.78564834070E+02 0.  0.
        -13    1    4    4    0    0 -0.15339955290E+02 -0.17808826011E+02  0.98108874690E+02  0.10088518130E+03  0.00000000000E+00 0.  1.
         14    1    4    4    0    0  0.47937678632E+02  0.45113666376E+02  0.27048416916E+03  0.27837914737E+03  0.00000000000E+00 0. -1.
        -11    1    3    3    0    0  0.19965851434E+02  0.32835475916E+02  0.17430841665E+01  0.38468715140E+02  0.00000000000E+00 0.  1.
         11    1    3    3    0    0 -0.37285300272E+02 -0.73906127938E+02  0.45303622856E+02  0.94364864261E+02  0.00000000000E+00 0. -1.
         21    1    1    2  502  501 -0.15278274505E+02  0.13765811657E+02  0.42990949213E+02  0.47656531102E+02  0.00000000000E+00 0. -1.
<scales pt_clust_5="13000.00000" pt_clust_6="13000.00000" pt_clust_7="13000.00000" pt_clust_8="13000.00000" pt_clust_9="20.56510"></scales>
<clustering>
<clus scale="   20.565">  1  9  2 -1</clus>
<clus scale="   78.565">  5  6 -1 -1</clus>
<clus scale="   89.769">  1  5  2 -1</clus>
<clus scale="  115.951">  7  8 -1 -1</clus>
<clus scale="   20.565">  1  5  2 -1</clus>
</clustering>
</event>
<event>
 9    2  0.3402837E-005  0.1910596E+03  0.7546771E-02  0.1158374E+00
         -1   -1    0    0    0  501 -0.00000000000E+00  0.00000000000E+00  0.42711094364E+02  0.42711094364E+02  0.00000000000E+00 0.  1.
          2   -1    0    0  502    0  0.00000000000E+00 -0.00000000000E+00 -0.16148399198E+04  0.16148399198E+04  0.00000000000E+00 0. -1.
         23    2    1    2    0    0  0.39720767226E+02 -0.16852758889E+03 -0.28207483269E+03  0.34293572597E+03  0.89774235406E+02 0.  0.
         24    2    1    2    0    0 -0.62058476050E+02  0.15610199466E+03 -0.12654434384E+04  0.12791322216E+04  0.81320707649E+02 0.  0.
        -11    1    4    4    0    0 -0.33875422803E+02  0.63867401056E+02 -0.28772708015E+03  0.29667062854E+03  0.00000000000E+00 0.  1.
         12    1    4    4    0    0 -0.28183053248E+02  0.92234593607E+02 -0.97771635821E+03  0.98246159307E+03  0.00000000000E+00 0. -1.
        -13    1    3    3    0    0  0.41150710702E+01 -0.11010639581E+03 -0.10139923398E+03  0.14974029805E+03  0.00000000000E+00 0.  1.
         13    1    3    3    0    0  0.35605696156E+02 -0.58421193083E+02 -0.18067559872E+03  0.19319542793E+03  0.00000000000E+00 0. -1.
         21    1    1    2  502  501  0.22337708824E+02  0.12425594229E+02 -0.24610554415E+02  0.35483066610E+02  0.00000000000E+00 0. -1.
<scales pt_clust_5="13000.00000" pt_clust_6="13000.00000" pt_clust_7="13000.00000" pt_clust_8="13000.00000" pt_clust_9="25.56108"></scales>
<clustering>
<clus scale="   25.561">  1  9  2 -1</clus>
<clus scale="   81.321">  5  6 -1 -1</clus>
<clus scale="   89.774">  7  8 -1 -1</clus>
<clus scale="  187.236">  2  5  1 -1</clus>
<clus scale="  187.236">  2  5  1 -1</clus>
</clustering>
</event>
<event>
 9    2  0.3402837E-005  0.1316987E+03  0.7546771E-02  0.1229179E+00
         -1   -1    0    0    0  501 -0.00000000000E+00  0.00000000000E+00  0.27872433774E+03  0.27872433774E+03  0.00000000000E+00 0.  1.
          2   -1    0    0  502    0  0.00000000000E+00 -0.00000000000E+00 -0.11317588693E+03  0.11317588693E+03  0.00000000000E+00 0. -1.
         24    2    1    2    0    0 -0.73501472020E+02 -0.19765147675E+02  0.79294100041E+02  0.13698504869E+03  0.81757090282E+02 0.  0.
         23    2    1    2    0    0  0.89883153842E+02  0.31636917839E+02 -0.27855600773E+02  0.13902566193E+03  0.97325866369E+02 0.  0.
        -13    1    3    3    0    0 -0.51875750090E+02 -0.50015881824E+02  0.65322975692E+02  0.97261364556E+02  0.00000000000E+00 0.  1.
         14    1    3    3    0    0 -0.21625721930E+02  0.30250734149E+02  0.13971124349E+02  0.39723684133E+02  0.00000000000E+00 0. -1.
        -13    1    4    4    0    0  0.29617794686E+02 -0.30408274998E+02  0.11527550602E+02  0.43985922445E+02  0.00000000000E+00 0.  1.
         13    1    4    4    0    0  0.60265359156E+02  0.62045192837E+02 -0.39383151374E+02  0.95039739481E+02  0.00000000000E+00 0. -1.
         21    1    1    2  502  501 -0.16381681823E+02 -0.11871770163E+02  0.11410995155E+03  0.11588951406E+03  0.00000000000E+00 0. -1.
<scales pt_clust_5="13000.00000" pt_clust_6="13000.00000" pt_clust_7="13000.00000" pt_clust_8="13000.00000" pt_clust_9="20.23113"></scales>
<clustering>
<clus scale="   20.231">  1  9  2 -1</clus>
<clus scale="   81.757">  5  6 -1 -1</clus>
<clus scale="   97.326">  7  8 -1 -1</clus>
<clus scale="  120.650">  1  5  2 -1</clus>
<clus scale="  131.699">  2  5  1 -1</clus>
</clustering>
</event>
<event>
 9    2  0.3402837E-005  0.1273021E+03  0.7546771E-02  0.1235286E+00
          2   -1    0    0  502    0  0.00000000000E+00  0.00000000000E+00  0.44580812283E+03  0.44580812283E+03  0.00000000000E+00 0. -1.
         -1   -1    0    0    0  501 -0.00000000000E+00 -0.00000000000E+00 -0.49441392197E+02  0.49441392197E+02  0.00000000000E+00 0.  1.
         23    2    1    2    0    0  0.10278509687E+03 -0.38607132353E+02  0.20559754528E+03  0.25196685994E+03  0.95716566359E+02 0.  0.
         24    2    1    2    0    0 -0.57680468990E+02  0.26571737185E+02  0.12936748320E+03  0.16614999520E+03  0.82684832204E+02 0.  0.
        -13    1    4    4    0    0 -0.61487068768E+02  0.25948192937E+02  0.42337072634E+02  0.79034144910E+02  0.00000000000E+00 0.  1.
         14    1    4    4    0    0  0.38065997776E+01  0.62354424798E+00  0.87030410563E+02  0.87115850292E+02  0.00000000000E+00 0. -1.
        -13    1    3    3    0    0  0.40474421256E+01 -0.45776029831E+02  0.77102342849E+02  0.89758553730E+02  0.00000000000E+00 0. -1.
         13    1    3    3    0    0  0.98737654747E+02  0.71688974781E+01  0.12849520243E+03  0.16220830621E+03  0.00000000000E+00 0.  1.
         21    1    1    2  502  501 -0.45104627883E+02  0.12035395168E+02  0.61401702159E+02  0.77132659888E+02  0.00000000000E+00 0.  1.
<scales pt_clust_5="13000.00000" pt_clust_6="13000.00000" pt_clust_7="13000.00000" pt_clust_8="13000.00000" pt_clust_9="46.68274"></scales>
<clustering>
<clus scale="   46.683">  2  9  1 -1</clus>
<clus scale="   82.685">  5  6 -1 -1</clus>
<clus scale="   95.717">  7  8 -1 -1</clus>
<clus scale="  117.817">  1  5  2 -1</clus>
<clus scale="  117.817">  1  5  2 -1</clus>
</clustering>
</event>
<event>
 9    2  0.3402837E-005  0.1904811E+03  0.7546771E-02  0.1159058E+00
         -1   -1    0    0    0  501 -0.00000000000E+00  0.00000000000E+00  0.20250744985E+03  0.20250744985E+03  0.00000000000E+00 0.  1.
          2   -1    0    0  502    0  0.00000000000E+00 -0.00000000000E+00 -0.53439936394E+03  0.53439936394E+03  0.00000000000E+00 0. -1.
         23    2    1    2    0    0  0.42509812640E+02 -0.89296510433E+02  0.42462951702E+02  0.14179395932E+03  0.92311828522E+02 0.  0.
         24    2    1    2    0    0 -0.12254791885E+03  0.13680045285E+03 -0.43819356941E+03  0.48224964935E+03  0.82575805855E+02 0.  0.
        -13    1    4    4    0    0  0.62963732199E+01  0.22906810333E+02 -0.10076152730E+03  0.10352415978E+03  0.00000000000E+00 0.  1.
         14    1    4    4    0    0 -0.12884429207E+03  0.11389364252E+03 -0.33743204211E+03  0.37872548957E+03  0.00000000000E+00 0. -1.
        -11    1    3    3    0    0  0.70121103362E+02 -0.63269951647E+02  0.16651184359E+02  0.95902647819E+02  0.00000000000E+00 0.  1.
         11    1    3    3    0    0 -0.27611290722E+02 -0.26026558785E+02  0.25811767344E+02  0.45891311497E+02  0.00000000000E+00 0. -1.
         21    1    1    2  502  501  0.80038106212E+02 -0.47503942417E+02  0.63838703614E+02  0.11286320512E+03  0.00000000000E+00 0.  1.
<scales pt_clust_5="13000.00000" pt_clust_6="13000.00000" pt_clust_7="13000.00000" pt_clust_8="13000.00000" pt_clust_9="93.07375"></scales>
<clustering>
<clus scale="   82.576">  5  6 -1 -1</clus>
<clus scale="   92.312">  7  8 -1 -1</clus>
<clus scale="   93.074">  1  9  2 -1</clus>
<clus scale="  185.958">  2  5  1 -1</clus>
<clus scale="  185.958">  2  5  1 -1</clus>
</clustering>
</event>
<event>
 9    2  0.3402837E-005  0.1047668E+03  0.7546771E-02  0.1275860E+00
          2   -1    0    0  502    0  0.00000000000E+00  0.00000000000E+00  0.72482794995E+02  0.72482794995E+02  0.00000000000E+00 0. -1.
         -1   -1    0    0    0  501 -0.00000000000E+00 -0.00000000000E+00 -0.30383105241E+03  0.30383105241E+03  0.00000000000E+00 0.  1.
         24    2    1    2    0    0 -0.23614802722E+02  0.67016023442E+02 -0.85368064247E+02  0.13673822830E+03  0.79754814156E+02 0.  0.
         23    2    1    2    0    0  0.69413119937E+01 -0.40523626982E+02 -0.10924129464E+02  0.10093943080E+03  0.91537347185E+02 0.  0.
        -11    1    3    3    0    0  0.26787313116E+02  0.31581471154E+02 -0.52629171110E+02  0.66968493458E+02  0.00000000000E+00 0.  1.
         12    1    3    3    0    0 -0.50402115838E+02  0.35434552288E+02 -0.32738893137E+02  0.69769734847E+02  0.00000000000E+00 0. -1.
        -13    1    4    4    0    0  0.39029169610E+02 -0.22407733837E+02  0.23274624859E+02  0.50666466016E+02  0.00000000000E+00 0.  1.
         13    1    4    4    0    0 -0.32087857617E+02 -0.18115893145E+02 -0.34198754324E+02  0.50272964784E+02  0.00000000000E+00 0. -1.
         21    1    1    2  502  501  0.16673490728E+02 -0.26492396461E+02 -0.13505606370E+03  0.13863618830E+03  0.00000000000E+00 0. -1.
<scales pt_clust_5="13000.00000" pt_clust_6="13000.00000" pt_clust_7="13000.00000" pt_clust_8="13000.00000" pt_clust_9="31.30259"></scales>
<clustering>
<clus scale="   31.303">  2  9  1 -1</clus>
<clus scale="   79.755">  5  6 -1 -1</clus>
<clus scale="   91.537">  7  8 -1 -1</clus>
<clus scale="   94.646">  2  5  1 -1</clus>
<clus scale="  104.767">  1  5  2 -1</clus>
</clustering>
</event>
<event>
 9    2  0.3402837E-005  0.1128363E+03  0.7546771E-02  0.1262575E+00
          2   -1    0    0  502    0  0.00000000000E+00  0.00000000000E+00  0.41027703514E+03  0.41027703514E+03  0.00000000000E+00 0. -1.
         -1   -1    0    0    0  501 -0.00000000000E+00 -0.00000000000E+00 -0.64449126503E+02  0.64449126503E+02  0.00000000000E+00 0.  1.
         23    2    1    2    0    0  0.60430882122E+02 -0.15211282908E+02  0.30707912392E+02  0.11515560280E+03  0.91839873312E+02 0.  0.
         24    2    1    2    0    0 -0.51202618297E+02  0.43415041677E+02  0.31467286633E+03  0.32989206854E+03  0.72823005408E+02 0.  0.
        -11    1    4    4    0    0 -0.45083604458E+02  0.72970659672E+01  0.77887419685E+02  0.90289693254E+02  0.00000000000E+00 0.  1.
         12    1    4    4    0    0 -0.61190138392E+01  0.36117975710E+02  0.23678544664E+03  0.23960237528E+03  0.00000000000E+00 0. -1.
        -11    1    3    3    0    0  0.44038047356E+02 -0.27195193229E+02  0.60173213858E+02  0.79370925506E+02  0.00000000000E+00 0. -1.
         11    1    3    3    0    0  0.16392834766E+02  0.11983910321E+02 -0.29465301466E+02  0.35784677289E+02  0.00000000000E+00 0.  1.
         21    1    1    2  502  501 -0.92282638241E+01 -0.28203758769E+02  0.44712991683E+00  0.29678490310E+02  0.00000000000E+00 0.  1.
<scales pt_clust_5="13000.00000" pt_clust_6="13000.00000" pt_clust_7="13000.00000" pt_clust_8="13000.00000" pt_clust_9="29.67512"></scales>
<clustering>
<clus scale="   29.675">  2  9  1 -1</clus>
<clus scale="   72.823">  5  6 -1 -1</clus>
<clus scale="   91.840">  7  8 -1 -1</clus>
<clus scale="   97.983">  1  5  2 -1</clus>
<clus scale="   97.983">  1  5  2 -1</clus>
</clustering>
</event>
<event>
 9    2  0.3402837E-005  0.1126567E+03  0.7546771E-02  0.1257983E+00
         -1   -1    0    0    0  501 -0.00000000000E+00  0.00000000000E+00  0.21695315815E+03  0.21695315815E+03  0.00000000000E+00 0.  1.
          2   -1    0    0  502    0  0.00000000000E+00 -0.00000000000E+00 -0.11534908957E+03  0.11534908957E+03  0.00000000000E+00 0. -1.
         23    2    1    2    0    0  0.60390077122E+01  0.44818173214E+02  0.14201141131E+03  0.17518191926E+03  0.92066962738E+02 0.  0.
         24    2    1    2    0    0 -0.13832404356E+02 -0.67595812030E+02 -0.60505168381E+02  0.12575983648E+03  0.85989138016E+02 0.  0.
        -13    1    4    4    0    0  0.29613864434E+02 -0.58920718779E+02 -0.36099339148E+02  0.75178416817E+02  0.00000000000E+00 0.  1.
         14    1    4    4    0    0 -0.43446268790E+02 -0.86750932510E+01 -0.24405829233E+02  0.50581419664E+02  0.00000000000E+00 0. -1.
        -13    1    3    3    0    0 -0.22929688303E+02 -0.13658580486E+01 -0.10174242849E+00  0.22970557795E+02  0.00000000000E+00 0. -1.
         13    1    3    3    0    0  0.28968696015E+02  0.46184031263E+02  0.14211315374E+03  0.15221136147E+03  0.00000000000E+00 0.  1.
         21    1    1    2  502  501  0.77933966436E+01  0.22777638816E+02  0.20097825652E+02  0.31360491980E+02  0.00000000000E+00 0.  1.
<scales pt_clust_5="13000.00000" pt_clust_6="13000.00000" pt_clust_7="13000.00000" pt_clust_8="13000.00000" pt_clust_9="24.07401"></scales>
<clustering>
<clus scale="   24.074">  1  9  2 -1</clus>
<clus scale="   85.989">  5  6 -1 -1</clus>
<clus scale="   92.067">  7  8 -1 -1</clus>
<clus scale="  107.747">  2  5  1 -1</clus>
<clus scale="  107.747">  2  5  1 -1</clus>
</clustering>
</event>
<event>
 9    2  0.3402837E-005  0.1001566E+03  0.7546771E-02  0.1286022E+00
         -1   -1    0    0    0  501 -0.00000000000E+00  0.00000000000E+00  0.64280877342E+03  0.64280877342E+03  0.00000000000E+00 0.  1.
          2   -1    0    0  502    0  0.00000000000E+00 -0.00000000000E+00 -0.20016552940E+03  0.20016552940E+03  0.00000000000E+00 0. -1.
         23    2    1    2    0    0 -0.41742147618E+02 -0.51196560712E+02  0.53620898129E+03  0.54828791978E+03  0.93466981565E+02 0.  0.
         24    2    1    2    0    0  0.25490086132E+02  0.24598738213E+02 -0.18107057875E+03  0.20179574333E+03  0.81732032413E+02 0.  0.
        -13    1    4    4    0    0  0.20937766342E+02  0.24449338691E+02 -0.14741662870E+02  0.35404474943E+02  0.00000000000E+00 0.  1.
         14    1    4    4    0    0  0.45523197902E+01  0.14939952182E+00 -0.16632891588E+03  0.16639126839E+03  0.00000000000E+00 0. -1.
        -13    1    3    3    0    0 -0.20449655115E+02 -0.73454486821E+02  0.45669437707E+03  0.46301566289E+03  0.00000000000E+00 0.  1.
         13    1    3    3    0    0 -0.21292492503E+02  0.22257926109E+02  0.79514604213E+02  0.85272256888E+02  0.00000000000E+00 0. -1.
         21    1    1    2  502  501  0.16252061486E+02  0.26597822499E+02  0.87504841488E+02  0.92890639723E+02  0.00000000000E+00 0. -1.
<scales pt_clust_5="13000.00000" pt_clust_6="13000.00000" pt_clust_7="13000.00000" pt_clust_8="13000.00000" pt_clust_9="31.17008"></scales>
<clustering>
<clus scale="   31.170">  1  9  2 -1</clus>
<clus scale="   81.732">  5  6 -1 -1</clus>
<clus scale="   89.305">  2  5  1 -1</clus>
<clus scale="   93.467">  7  8 -1 -1</clus>
<clus scale="   89.305">  2  5  1 -1</clus>
</clustering>
</event>
<event>
 9    2  0.3402837E-005  0.1097166E+03  0.7546771E-02  0.1270829E+00
         -3   -1    0    0    0  501 -0.00000000000E+00  0.00000000000E+00  0.10442085150E+03  0.10442085150E+03  0.00000000000E+00 0.  1.
          4   -1    0    0  502    0  0.00000000000E+00 -0.00000000000E+00 -0.28298154256E+03  0.28298154256E+03  0.00000000000E+00 0. -1.
         23    2    1    2    0    0 -0.77178298677E+02 -0.12637366317E+02  0.20965408879E+02  0.12987508215E+03  0.10154701266E+03 0.  0.
         24    2    1    2    0    0  0.35141761146E+02  0.11521890194E+02 -0.19618983105E+03  0.21534383808E+03  0.80714443930E+02 0.  0.
        -13    1    4    4    0    0 -0.16308573610E+02 -0.20978608375E+02 -0.78085217662E+02  0.82482560580E+02  0.00000000000E+00 0.  1.
         14    1    4    4    0    0  0.51450334757E+02  0.32500498568E+02 -0.11810461339E+03  0.13286127750E+03  0.00000000000E+00 0. -1.
        -11    1    3    3    0    0  0.13991282817E+02  0.19674680653E+02 -0.12923916320E+02  0.27383876035E+02  0.00000000000E+00 0. -1.
         11    1    3    3    0    0 -0.91169581493E+02 -0.32312046970E+02  0.33889325200E+02  0.10249120612E+03  0.00000000000E+00 0.  1.
         21    1    1    2  502  501  0.42036537530E+02  0.11154761228E+01 -0.33362688881E+01  0.42183473833E+02  0.00000000000E+00 0.  1.
<scales pt_clust_5="13000.00000" pt_clust_6="13000.00000" pt_clust_7="13000.00000" pt_clust_8="13000.00000" pt_clust_9="42.05133"></scales>
<clustering>
<clus scale="   42.051">  1  9  2 -1</clus>
<clus scale="   80.714">  5  6 -1 -1</clus>
<clus scale="   90.779">  2  5  1 -1</clus>
<clus scale="  101.547">  7  8 -1 -1</clus>
<clus scale="   90.779">  2  5  1 -1</clus>
</clustering>
</event>
<event>
 9    2  0.3402837E-005  0.1543321E+03  0.7546771E-02  0.1196494E+00
         -1   -1    0    0    0  501 -0.00000000000E+00  0.00000000000E+00  0.24014694594E+03  0.24014694594E+03  0.00000000000E+00 0.  1.
          2   -1    0    0  502    0  0.00000000000E+00 -0.00000000000E+00 -0.38642460746E+03  0.38642460746E+03  0.00000000000E+00 0. -1.
         24    2    1    2    0    0  0.67263396943E+01  0.10320934398E+03  0.48635458329E+02  0.15127059072E+03  0.99095769231E+02 0.  0.
         23    2    1    2    0    0 -0.54082610945E+02 -0.10956698291E+03 -0.31267589764E+03  0.34821395378E+03  0.92503449048E+02 0.  0.
        -13    1    3    3    0    0  0.52924990314E+02  0.57315004151E+02  0.29398897007E+02  0.83368815788E+02  0.00000000000E+00 0.  1.
         14    1    3    3    0    0 -0.46198650620E+02  0.45894339826E+02  0.19236561322E+02  0.67901774930E+02  0.00000000000E+00 0. -1.
        -13    1    4    4    0    0  0.78327046443E+01 -0.54244837116E+02 -0.55641043501E+02  0.78101084100E+02  0.00000000000E+00 0.  1.
         13    1    4    4    0    0 -0.61915315589E+02 -0.55322145798E+02 -0.25703485414E+03  0.27011286968E+03  0.00000000000E+00 0. -1.
         21    1    1    2  502  501  0.47356271251E+02  0.63576389377E+01  0.11776277779E+03  0.12708700891E+03  0.00000000000E+00 0.  1.
<scales pt_clust_5="13000.00000" pt_clust_6="13000.00000" pt_clust_7="13000.00000" pt_clust_8="13000.00000" pt_clust_9="47.78113"></scales>
<clustering>
<clus scale="   47.781">  1  9  2 -1</clus>
<clus scale="   92.503">  7  8 -1 -1</clus>
<clus scale="   99.096">  5  6 -1 -1</clus>
<clus scale="  150.184">  2  7  1 -1</clus>
<clus scale="  150.184">  2  5  1 -1</clus>
</clustering>
</event>
<event>
 9    2  0.3402837E-005  0.1518410E+03  0.7546771E-02  0.1201407E+00
          2   -1    0    0  502    0  0.00000000000E+00  0.00000000000E+00  0.36828032434E+03  0.36828032434E+03  0.00000000000E+00 0. -1.
         -1   -1    0    0    0  501 -0.00000000000E+00 -0.00000000000E+00 -0.96510544741E+02  0.96510544741E+02  0.00000000000E+00 0.  1.
         23    2    1    2    0    0 -0.30082574987E+02  0.12144071587E+03  0.73133404391E+02  0.17208373604E+03  0.92798214338E+02 0.  0.
         24    2    1    2    0    0  0.93063077443E+01 -0.11827118353E+03  0.22112082780E+03  0.26192970910E+03  0.75087094811E+02 0.  0.
        -11    1    4    4    0    0  0.38616852974E+02 -0.90845405253E+02  0.13854336395E+03  0.17011294097E+03  0.00000000000E+00 0.  1.
         12    1    4    4    0    0 -0.29310545230E+02 -0.27425778280E+02  0.82577463845E+02  0.91816768137E+02  0.00000000000E+00 0. -1.
        -13    1    3    3    0    0  0.76685707403E+01  0.77192579351E+02 -0.13455274713E+01  0.77584223450E+02  0.00000000000E+00 0.  1.
         13    1    3    3    0    0 -0.37751145727E+02  0.44248136515E+02  0.74478931863E+02  0.94499512592E+02  0.00000000000E+00 0. -1.
         21    1    1    2  502  501  0.20776267243E+02 -0.31695323332E+01 -0.22484452591E+02  0.30777423935E+02  0.00000000000E+00 0.  1.
<scales pt_clust_5="13000.00000" pt_clust_6="13000.00000" pt_clust_7="13000.00000" pt_clust_8="13000.00000" pt_clust_9="21.01664"></scales>
<clustering>
<clus scale="   21.017">  2  9  1 -1</clus>
<clus scale="   75.087">  5  6 -1 -1</clus>
<clus scale="   92.798">  7  8 -1 -1</clus>
<clus scale="  141.712">  1  5  2 -1</clus>
<clus scale="  141.712">  1  5  2 -1</clus>
</clustering>
</event>
<event>
 9    2  0.3402837E-005  0.1303095E+03  0.7546771E-02  0.1228630E+00
          2   -1    0    0  502    0  0.00000000000E+00  0.00000000000E+00  0.15549302589E+03  0.15549302589E+03  0.00000000000E+00 0. -1.
         -1   -1    0    0    0  501 -0.00000000000E+00 -0.00000000000E+00 -0.18800780211E+03  0.18800780211E+03  0.00000000000E+00 0.  1.
         24    2    1    2    0    0 -0.45695042541E+02 -0.37090215590E+02 -0.37192990431E+02  0.10983513660E+03  0.84951266552E+02 0.  0.
         23    2    1    2    0    0  0.92359214403E+02  0.72502808099E+02  0.52850751486E+02  0.15782249797E+03  0.91257094328E+02 0.  0.
        -11    1    3    3    0    0 -0.22793628749E+02 -0.41312985974E+02 -0.60609496659E+02  0.76810307948E+02  0.00000000000E+00 0.  1.
         12    1    3    3    0    0 -0.22901413791E+02  0.42227703849E+01  0.23416506229E+02  0.33024828649E+02  0.00000000000E+00 0. -1.
        -11    1    4    4    0    0  0.57983670856E+01  0.60161597521E+02  0.13449764418E+02  0.61918777766E+02  0.00000000000E+00 0. -1.
         11    1    4    4    0    0  0.86560847318E+02  0.12341210578E+02  0.39400987068E+02  0.95903720203E+02  0.00000000000E+00 0.  1.
         21    1    1    2  502  501 -0.46664171863E+02 -0.35412592510E+02 -0.48172537270E+02  0.75843193438E+02  0.00000000000E+00 0.  1.
<scales pt_clust_5="13000.00000" pt_clust_6="13000.00000" pt_clust_7="13000.00000" pt_clust_8="13000.00000" pt_clust_9="58.57983"></scales>
<clustering>
<clus scale="   58.580">  2  9  1 -1</clus>
<clus scale="   84.951">  5  6 -1 -1</clus>
<clus scale="   91.257">  7  8 -1 -1</clus>
<clus scale="  125.974">  2  5  1 -1</clus>
<clus scale="  130.310">  1  5  2 -1</clus>
</clustering>
</event>
<event>
 9    2  0.3402837E-005  0.1275520E+03  0.7546771E-02  0.1232180E+00
          2   -1    0    0  502    0  0.00000000000E+00  0.00000000000E+00  0.81841603947E+03  0.81841603947E+03  0.00000000000E+00 0. -1.
         -1   -1    0    0    0  501 -0.00000000000E+00 -0.00000000000E+00 -0.64098123429E+02  0.64098123429E+02  0.00000000000E+00 0.  1.
         24    2    1    2    0    0  0.59401349546E+02 -0.14713098892E+03  0.26750080048E+03  0.32192552762E+03  0.83086213324E+02 0.  0.
         23    2    1    2    0    0 -0.76017574089E+02  0.39932148225E+02  0.41359438929E+03  0.42970984400E+03  0.78847848090E+02 0.  0.
        -13    1    3    3    0    0  0.70367742382E+02 -0.13799377584E+03  0.20020353167E+03  0.25313110324E+03  0.00000000000E+00 0.  1.
         14    1    3    3    0    0 -0.10966392836E+02 -0.91372130817E+01  0.67297268816E+02  0.68794424373E+02  0.00000000000E+00 0. -1.
        -13    1    4    4    0    0 -0.73439002885E+02  0.92944603891E+01  0.36327798207E+03  0.37074326210E+03  0.00000000000E+00 0.  1.
         13    1    4    4    0    0 -0.25785712046E+01  0.30637687835E+02  0.50316407225E+02  0.58966581904E+02  0.00000000000E+00 0. -1.
         21    1    1    2  502  501  0.16616224543E+02  0.10719884069E+03  0.73222726266E+02  0.13087879128E+03  0.00000000000E+00 0. -1.
<scales pt_clust_5="13000.00000" pt_clust_6="13000.00000" pt_clust_7="13000.00000" pt_clust_8="13000.00000" pt_clust_9="108.47899"></scales>
<clustering>
<clus scale="   78.848">  7  8 -1 -1</clus>
<clus scale="   83.086">  5  6 -1 -1</clus>
<clus scale="  108.479">  2  9  1 -1</clus>
<clus scale="  124.833">  1  7  2 -1</clus>
<clus scale="  124.833">  1  5  2 -1</clus>
</clustering>
</event>
<event>
 9    2  0.3402837E-005  0.1474006E+03  0.7546771E-02  0.1205500E+00
          2   -1    0    0  502    0  0.00000000000E+00  0.00000000000E+00  0.38624575056E+03  0.38624575056E+03  0.00000000000E+00 0. -1.
         -1   -1    0    0    0  501 -0.00000000000E+00 -0.00000000000E+00 -0.80110750297E+02  0.80110750297E+02  0.00000000000E+00 0.  1.
         23    2    1    2    0    0 -0.11170347208E+03  0.11312209535E+02  0.12536415474E+03  0.19156700090E+03  0.91521105655E+02 0.  0.
         24    2    1    2    0    0  0.10570905249E+03 -0.67838101076E+02  0.13104293387E+03  0.19926483724E+03  0.82205918937E+02 0.  0.
        -13    1    4    4    0    0  0.16451038942E+02 -0.17486348514E+02 -0.90776946352E+01  0.25667364620E+02  0.00000000000E+00 0.  1.
         14    1    4    4    0    0  0.89258013545E+02 -0.50351752562E+02  0.14012062850E+03  0.17359747262E+03  0.00000000000E+00 0. -1.
        -13    1    3    3    0    0 -0.53529705522E+02  0.12613088084E+02  0.12136185950E+03  0.13324121099E+03  0.00000000000E+00 0. -1.
         13    1    3    3    0    0 -0.58173766563E+02 -0.13008785496E+01  0.40022952316E+01  0.58325789907E+02  0.00000000000E+00 0.  1.
         21    1    1    2  502  501  0.59944195973E+01  0.56525891541E+02  0.49727911662E+02  0.75524662721E+02  0.00000000000E+00 0. -1.
<scales pt_clust_5="13000.00000" pt_clust_6="13000.00000" pt_clust_7="13000.00000" pt_clust_8="13000.00000" pt_clust_9="56.84285"></scales>
<clustering>
<clus scale="   56.843">  1  9  2 -1</clus>
<clus scale="   82.206">  5  6 -1 -1</clus>
<clus scale="   91.521">  7  8 -1 -1</clus>
<clus scale="  141.805">  1  5  2 -1</clus>
<clus scale="   56.843">  1  5  2 -1</clus>
</clustering>
</event>
<event>
 9    2  0.3402837E-005  0.1766438E+03  0.7546771E-02  0.1188981E+00
         -1   -1    0    0    0  501 -0.00000000000E+00  0.00000000000E+00  0.90985006016E+02  0.90985006016E+02  0.00000000000E+00 0.  1.
          2   -1    0    0  502    0  0.00000000000E+00 -0.00000000000E+00 -0.94960692407E+03  0.94960692407E+03  0.00000000000E+00 0. -1.
         24    2    1    2    0    0  0.11232869585E+01  0.86923836025E+02 -0.79028143898E+02  0.14214816291E+03  0.80022732068E+02 0.  0.
         23    2    1    2    0    0  0.14251871800E+03 -0.46297642253E+02 -0.71232739261E+03  0.73471142678E+03  0.99677026977E+02 0.  0.
        -11    1    3    3    0    0  0.35316960851E+02  0.71389500721E+02 -0.45069637878E+02  0.91515139706E+02  0.00000000000E+00 0.  1.
         12    1    3    3    0    0 -0.34193673892E+02  0.15534335303E+02 -0.33958506020E+02  0.50633023203E+02  0.00000000000E+00 0. -1.
        -11    1    4    4    0    0  0.40191075426E+02  0.32253281997E+00 -0.56638341875E+02  0.69450186045E+02  0.00000000000E+00 0.  1.
         11    1    4    4    0    0  0.10232764257E+03 -0.46620175073E+02 -0.65568905074E+03  0.66526124073E+03  0.00000000000E+00 0. -1.
         21    1    1    2  502  501 -0.14364200495E+03 -0.40626193772E+02 -0.67266381541E+02  0.16373234040E+03  0.00000000000E+00 0.  1.
<scales pt_clust_5="13000.00000" pt_clust_6="13000.00000" pt_clust_7="13000.00000" pt_clust_8="13000.00000" pt_clust_9="145.83391"></scales>
<clustering>
<clus scale="   80.023">  5  6 -1 -1</clus>
<clus scale="   99.677">  7  8 -1 -1</clus>
<clus scale="  118.155">  1  5  2 -1</clus>
<clus scale="  145.834">  1  9  2 -1</clus>
<clus scale="  176.644">  2  5  1 -1</clus>
</clustering>
</event>
<event>
 9    2  0.3402837E-005  0.1550882E+03  0.7546771E-02  0.1195975E+00
         -1   -1    0    0    0  501 -0.00000000000E+00  0.00000000000E+00  0.85679586453E+02  0.85679586453E+02  0.00000000000E+00 0.  1.
          2   -1    0    0  502    0  0.00000000000E+00 -0.00000000000E+00 -0.54908825609E+03  0.54908825609E+03  0.00000000000E+00 0. -1.
         24    2    1    2    0    0 -0.39216976028E+02 -0.13931123367E+03 -0.60821223477E+02  0.17701929608E+03  0.81798648676E+02 0.  0.
         23    2    1    2    0    0 -0.34828028041E+01  0.12164370350E+03 -0.37311275924E+03  0.40293823809E+03  0.91305925827E+02 0.  0.
        -13    1    3    3    0    0  0.20934838753E+01 -0.48886586257E+02  0.15892897604E+02  0.51447693679E+02  0.00000000000E+00 0.  1.
         14    1    3    3    0    0 -0.41310459903E+02 -0.90424647411E+02 -0.76714121081E+02  0.12557160240E+03  0.00000000000E+00 0. -1.
        -13    1    4    4    0    0 -0.47162345347E+02  0.62652289090E+02 -0.20568335021E+03  0.22012550216E+03  0.00000000000E+00 0. -1.
         13    1    4    4    0    0  0.43679542543E+02  0.58991414407E+02 -0.16742940903E+03  0.18281273593E+03  0.00000000000E+00 0.  1.
         21    1    1    2  502  501  0.42699778832E+02  0.17667530171E+02 -0.29474686918E+02  0.54810308370E+02  0.00000000000E+00 0. -1.
<scales pt_clust_5="13000.00000" pt_clust_6="13000.00000" pt_clust_7="13000.00000" pt_clust_8="13000.00000" pt_clust_9="46.21053"></scales>
<clustering>
<clus scale="   46.211">  1  9  2 -1</clus>
<clus scale="   81.799">  5  6 -1 -1</clus>
<clus scale="   91.306">  7  8 -1 -1</clus>
<clus scale="  149.688">  1  5  2 -1</clus>
<clus scale="  155.088">  2  5  1 -1</clus>
</clustering>
</event>
<event>
 9    2  0.3402837E-005  0.9336986E+02  0.7546771E-02  0.1300825E+00
         -3   -1    0    0    0  501 -0.00000000000E+00  0.00000000000E+00  0.13656917229E+03  0.13656917229E+03  0.00000000000E+00 0.  1.
          4   -1    0    0  502    0  0.00000000000E+00 -0.00000000000E+00 -0.46450714337E+03  0.46450714337E+03  0.00000000000E+00 0. -1.
         23    2    1    2    0    0 -0.15802153451E+02  0.22296291875E+01  0.95687166443E+02  0.13416601789E+03  0.92681212951E+02 0.  0.
         24    2    1    2    0    0 -0.66664687806E+02 -0.16326021166E+02 -0.29486268906E+03  0.31335491263E+03  0.80849095879E+02 0.  0.
        -13    1    4    4    0    0 -0.72610665898E+02 -0.38918629279E+02 -0.21932399686E+03  0.23428611590E+03  0.00000000000E+00 0.  1.
         14    1    4    4    0    0  0.59459780920E+01  0.22592608113E+02 -0.75538692201E+02  0.79068796730E+02  0.00000000000E+00 0. -1.
        -13    1    3    3    0    0 -0.15208482676E+01 -0.44829245184E+02  0.44577851964E+02  0.63238904868E+02  0.00000000000E+00 0.  1.
         13    1    3    3    0    0 -0.14281305183E+02  0.47058874371E+02  0.51109314478E+02  0.70927113019E+02  0.00000000000E+00 0. -1.
         21    1    1    2  502  501  0.82466841257E+02  0.14096391979E+02 -0.12876244846E+03  0.15355538515E+03  0.00000000000E+00 0. -1.
<scales pt_clust_5="13000.00000" pt_clust_6="13000.00000" pt_clust_7="13000.00000" pt_clust_8="13000.00000" pt_clust_9="83.66294"></scales>
<clustering>
<clus scale="   80.849">  5  6 -1 -1</clus>
<clus scale="   83.663">  2  9  1 -1</clus>
<clus scale="   83.663">  2  5  1 -1</clus>
<clus scale="   92.681">  7  8 -1 -1</clus>
<clus scale="   83.663">  2  5  1 -1</clus>
</clustering>
</event>
<event>
 9    2  0.3402837E-005  0.9537499E+02  0.7546771E-02  0.1299762E+00
         -3   -1    0    0    0  501 -0.00000000000E+00  0.00000000000E+00  0.60894007925E+02  0.60894007925E+02  0.00000000000E+00 0.  1.
          4   -1    0    0  502    0  0.00000000000E+00 -0.00000000000E+00 -0.62012197948E+03  0.62012197948E+03  0.00000000000E+00 0. -1.
         23    2    1    2    0    0 -0.49226749221E+01 -0.26578818885E+02 -0.57750771851E+02  0.11462726484E+03  0.95255403273E+02 0.  0.
         24    2    1    2    0    0  0.30196304246E+01  0.10899514921E+01 -0.52535736879E+03  0.53140920835E+03  0.79906668198E+02 0.  0.
        -11    1    4    4    0    0  0.29080464160E+01  0.40034658395E+02 -0.22712091809E+03  0.23064072069E+03  0.00000000000E+00 0.  1.
         12    1    4    4    0    0  0.11158400861E+00 -0.38944706903E+02 -0.29823645069E+03  0.30076848766E+03  0.00000000000E+00 0. -1.
        -11    1    3    3    0    0 -0.32824267690E+02 -0.22576445028E+02  0.10147344817E+02  0.41110789659E+02  0.00000000000E+00 0.  1.
         11    1    3    3    0    0  0.27901592768E+02 -0.40023738561E+01 -0.67898116668E+02  0.73516475178E+02  0.00000000000E+00 0. -1.
         21    1    1    2  502  501  0.19030444975E+01  0.25488867392E+02  0.23880169083E+02  0.34979514215E+02  0.00000000000E+00 0.  1.
<scales pt_clust_5="13000.00000" pt_clust_6="13000.00000" pt_clust_7="13000.00000" pt_clust_8="13000.00000" pt_clust_9="25.55981"></scales>
<clustering>
<clus scale="   25.560">  1  9  2 -1</clus>
<clus scale="   79.907">  5  6 -1 -1</clus>
<clus scale="   80.049">  2  5  1 -1</clus>
<clus scale="   95.255">  7  8 -1 -1</clus>
<clus scale="   80.049">  2  5  1 -1</clus>
</clustering>
</event>
<event>
 9    2  0.3402837E-005  0.2167609E+03  0.7546771E-02  0.1137352E+00
          2   -1    0    0  502    0  0.00000000000E+00  0.00000000000E+00  0.67855123898E+03  0.67855123898E+03  0.00000000000E+00 0. -1.
         -1   -1    0    0    0  501 -0.00000000000E+00 -0.00000000000E+00 -0.20375280448E+03  0.20375280448E+03  0.00000000000E+00 0.  1.
         23    2    1    2    0    0 -0.62551474108E+02 -0.19963407574E+03  0.26305233125E+03  0.34858894470E+03  0.92473089486E+02 0.  0.
         24    2    1    2    0    0  0.99997145888E+01  0.18947270150E+03  0.33855184906E+03  0.39607557636E+03  0.79111369516E+02 0.  0.
        -13    1    4    4    0    0  0.19536465227E+02  0.15377799944E+03  0.20205965031E+03  0.25467125646E+03  0.00000000000E+00 0.  1.
         14    1    4    4    0    0 -0.95367506381E+01  0.35694702060E+02  0.13649219874E+03  0.14140431990E+03  0.00000000000E+00 0. -1.
        -13    1    3    3    0    0 -0.71037882787E+01 -0.14023052173E+03  0.12298094769E+03  0.18665309139E+03  0.00000000000E+00 0.  1.
         13    1    3    3    0    0 -0.55447685829E+02 -0.59403554016E+02  0.14007138356E+03  0.16193585330E+03  0.00000000000E+00 0. -1.
         21    1    1    2  502  501  0.52551759519E+02  0.10161374244E+02 -0.12680574581E+03  0.13763952240E+03  0.00000000000E+00 0.  1.
<scales pt_clust_5="13000.00000" pt_clust_6="13000.00000" pt_clust_7="13000.00000" pt_clust_8="13000.00000" pt_clust_9="53.52514"></scales>
<clustering>
<clus scale="   53.525">  2  9  1 -1</clus>
<clus scale="   79.111">  5  6 -1 -1</clus>
<clus scale="   92.473">  7  8 -1 -1</clus>
<clus scale="  211.406">  1  5  2 -1</clus>
<clus scale="  211.406">  1  5  2 -1</clus>
</clustering>
</event>
<event>
 9    2  0.3402837E-005  0.9227077E+02  0.7546771E-02  0.1303749E+00
         -1   -1    0    0    0  501 -0.00000000000E+00  0.00000000000E+00  0.31365198409E+03  0.31365198409E+03  0.00000000000E+00 0.  1.
          2   -1    0    0  502    0  0.00000000000E+00 -0.00000000000E+00 -0.19604194688E+03  0.19604194688E+03  0.00000000000E+00 0. -1.
         24    2    1    2    0    0  0.14876673926E+02  0.55288725614E+02  0.11292681491E+03  0.15024401822E+03  0.80886592697E+02 0.  0.
         23    2    1    2    0    0  0.14631360601E+02 -0.33092900921E+01 -0.15972668401E+03  0.18451220065E+03  0.91143351320E+02 0.  0.
        -13    1    3    3    0    0 -0.26523415408E+02  0.27184364225E+02  0.84623660547E+02  0.92755836192E+02  0.00000000000E+00 0.  1.
         14    1    3    3    0    0  0.41400089335E+02  0.28104361389E+02  0.28303154362E+02  0.57488182028E+02  0.00000000000E+00 0. -1.
        -11    1    4    4    0    0  0.17448821042E+02  0.37704457774E+02 -0.12138073392E+03  0.12829407648E+03  0.00000000000E+00 0. -1.
         11    1    4    4    0    0 -0.28174604416E+01 -0.41013747866E+02 -0.38345950093E+02  0.56218124177E+02  0.00000000000E+00 0.  1.
         21    1    1    2  502  501 -0.29508034527E+02 -0.51979435522E+02  0.16440990632E+03  0.17493771210E+03  0.00000000000E+00 0.  1.
<scales pt_clust_5="13000.00000" pt_clust_6="13000.00000" pt_clust_7="13000.00000" pt_clust_8="13000.00000" pt_clust_9="59.77111"></scales>
<clustering>
<clus scale="   59.771">  1  9  2 -1</clus>
<clus scale="   80.887">  5  6 -1 -1</clus>
<clus scale="   82.155">  1  5  2 -1</clus>
<clus scale="   91.143">  7  8 -1 -1</clus>
<clus scale="   92.271">  2  5  1 -1</clus>
</clustering>
</event>
<event>
 9    2  0.3402837E-005  0.1118687E+03  0.7546771E-02  0.1269349E+00
         -1   -1    0    0    0  501 -0.00000000000E+00  0.00000000000E+00  0.29320423034E+03  0.29320423034E+03  0.00000000000E+00 0.  1.
          2   -1    0    0  502    0  0.00000000000E+00 -0.00000000000E+00 -0.62200535060E+02  0.62200535060E+02  0.00000000000E+00 0. -1.
         23    2    1    2    0    0 -0.14140785339E+02  0.24804407292E+02  0.18992082897E+03  0.21865124379E+03  0.10451423206E+03 0.  0.
         24    2    1    2    0    0  0.36207860791E+02 -0.23172706049E+02 -0.58728096273E+00  0.89572811129E+02  0.78580914387E+02 0.  0.
        -11    1    4    4    0    0 -0.23264107615E+02 -0.10624370506E+02  0.10750716989E+02  0.27742996730E+02  0.00000000000E+00 0.  1.
         12    1    4    4    0    0  0.59471968406E+02 -0.12548335542E+02 -0.11337997952E+02  0.61829814398E+02  0.00000000000E+00 0. -1.
        -13    1    3    3    0    0 -0.53840809461E+02  0.32736340201E+02  0.14545046561E+03  0.15851289751E+03  0.00000000000E+00 0.  1.
         13    1    3    3    0    0  0.39700024122E+02 -0.79319329093E+01  0.44470363361E+02  0.60138346273E+02  0.00000000000E+00 0. -1.
         21    1    1    2  502  501 -0.22067075452E+02 -0.16317012432E+01  0.41670147277E+02  0.47180710487E+02  0.00000000000E+00 0.  1.
<scales pt_clust_5="13000.00000" pt_clust_6="13000.00000" pt_clust_7="13000.00000" pt_clust_8="13000.00000" pt_clust_9="22.12732"></scales>
<clustering>
<clus scale="   22.127">  1  9  2 -1</clus>
<clus scale="   78.581">  5  6 -1 -1</clus>
<clus scale="   88.127">  2  5  1 -1</clus>
<clus scale="  104.514">  7  8 -1 -1</clus>
<clus scale="   88.127">  2  5  1 -1</clus>
</clustering>
</event>
<event>
 9    2  0.3402837E-005  0.1065960E+03  0.7546771E-02  0.1274347E+00
          2   -1    0    0  502    0  0.00000000000E+00  0.00000000000E+00  0.17275876267E+03  0.17275876267E+03  0.00000000000E+00 0. -1.
         -1   -1    0    0    0  501 -0.00000000000E+00 -0.00000000000E+00 -0.25854565655E+03  0.25854565655E+03  0.00000000000E+00 0.  1.
         23    2    1    2    0    0  0.38609689727E+00 -0.68028991424E+02 -0.19165552683E+03  0.22496153736E+03  0.96165272218E+02 0.  0.
         24    2    1    2    0    0 -0.98642333875E+01  0.43507701246E+02  0.13741843992E+03  0.16527563137E+03  0.80261968118E+02 0.  0.
        -11    1    4    4    0    0  0.23661362372E+02 -0.10863249028E+02  0.56282552024E+02  0.62012868915E+02  0.00000000000E+00 0.  1.
         12    1    4    4    0    0 -0.33525595760E+02  0.54370950274E+02  0.81135887897E+02  0.10326276245E+03  0.00000000000E+00 0. -1.
        -11    1    3    3    0    0  0.28454981140E+02 -0.72450697856E+02 -0.17617251022E+03  0.19260203251E+03  0.00000000000E+00 0.  1.
         11    1    3    3    0    0 -0.28068884243E+02  0.44217064329E+01 -0.15483016613E+02  0.32359504845E+02  0.00000000000E+00 0. -1.
         21    1    1    2  502  501  0.94781364902E+01  0.24521290178E+02 -0.31549806970E+02  0.41067250495E+02  0.00000000000E+00 0.  1.
<scales pt_clust_5="13000.00000" pt_clust_6="13000.00000" pt_clust_7="13000.00000" pt_clust_8="13000.00000" pt_clust_9="26.28933"></scales>
<clustering>
<clus scale="   26.289">  2  9  1 -1</clus>
<clus scale="   80.262">  5  6 -1 -1</clus>
<clus scale="   92.504">  1  5  2 -1</clus>
<clus scale="   96.165">  7  8 -1 -1</clus>
<clus scale="   92.504">  1  5  2 -1</clus>
</clustering>
</event>
<event>
 9    2  0.3402837E-005  0.1289181E+03  0.7546771E-02  0.1232760E+00
          2   -1    0    0  502    0  0.00000000000E+00  0.00000000000E+00  0.24461171183E+03  0.24461171183E+03  0.00000000000E+00 0. -1.
         -1   -1    0    0    0  501 -0.00000000000E+00 -0.00000000000E+00 -0.13488617796E+03  0.13488617796E+03  0.00000000000E+00 0.  1.
         23    2    1    2    0    0  0.10566222567E+03 -0.10891577238E+02 -0.13696079384E+02  0.14117220857E+03  0.91972156071E+02 0.  0.
         24    2    1    2    0    0 -0.86492743439E+02  0.11020328117E+01  0.15874289632E+03  0.19696268729E+03  0.78184294510E+02 0.  0.
        -11    1    4    4    0    0 -0.17538993004E+02  0.29289825888E+02  0.20214436198E+02  0.39675352638E+02  0.00000000000E+00 0.  1.
         12    1    4    4    0    0 -0.68953750435E+02 -0.28187793077E+02  0.13852846013E+03  0.15728733465E+03  0.00000000000E+00 0. -1.
        -13    1    3    3    0    0  0.26566506608E+02  0.26616409905E+01 -0.47185875534E+02  0.54215961266E+02  0.00000000000E+00 0.  1.
         13    1    3    3    0    0  0.79095719062E+02 -0.13553218229E+02  0.33489796149E+02  0.86956247300E+02  0.00000000000E+00 0. -1.
         21    1    1    2  502  501 -0.19169482231E+02  0.97895444264E+01 -0.35321283075E+02  0.41362993933E+02  0.00000000000E+00 0.  1.
<scales pt_clust_5="13000.00000" pt_clust_6="13000.00000" pt_clust_7="13000.00000" pt_clust_8="13000.00000" pt_clust_9="21.52450"></scales>
<clustering>
<clus scale="   21.525">  2  9  1 -1</clus>
<clus scale="   78.184">  5  6 -1 -1</clus>
<clus scale="   91.972">  7  8 -1 -1</clus>
<clus scale="  119.473">  1  5  2 -1</clus>
<clus scale="  119.473">  1  5  2 -1</clus>
</clustering>
</event>
<event>
 9    2  0.3402837E-005  0.1095901E+03  0.7546771E-02  0.1265952E+00
          2   -1    0    0  502    0  0.00000000000E+00  0.00000000000E+00  0.69829010748E+03  0.69829010748E+03  0.00000000000E+00 0. -1.
         -1   -1    0    0    0  501 -0.00000000000E+00 -0.00000000000E+00 -0.25923858714E+02  0.25923858714E+02  0.00000000000E+00 0.  1.
         24    2    1    2    0    0 -0.51771805225E+02 -0.25495958504E+02  0.16609198083E+03  0.19355862364E+03  0.80919904679E+02 0.  0.
         23    2    1    2    0    0  0.40063259305E+02  0.45952399004E+02  0.48916797256E+03  0.50153178942E+03  0.92369598381E+02 0.  0.
        -11    1    3    3    0    0 -0.43377151023E+02  0.23721487802E+02  0.80593934549E+02  0.94549820204E+02  0.00000000000E+00 0.  1.
         12    1    3    3    0    0 -0.83946542013E+01 -0.49217446306E+02  0.85498046279E+02  0.99008803435E+02  0.00000000000E+00 0. -1.
        -13    1    4    4    0    0  0.10114128072E+02  0.70323408774E+02  0.34800653806E+03  0.35518477999E+03  0.00000000000E+00 0.  1.
         13    1    4    4    0    0  0.29949131233E+02 -0.24371009770E+02  0.14116143450E+03  0.14634700943E+03  0.00000000000E+00 0. -1.
         21    1    1    2  502  501  0.11708545920E+02 -0.20456440501E+02  0.17106295383E+02  0.29123553135E+02  0.00000000000E+00 0. -1.
<scales pt_clust_5="13000.00000" pt_clust_6="13000.00000" pt_clust_7="13000.00000" pt_clust_8="13000.00000" pt_clust_9="23.57024"></scales>
<clustering>
<clus scale="   23.570">  2  9  1 -1</clus>
<clus scale="   80.920">  5  6 -1 -1</clus>
<clus scale="   92.370">  7  8 -1 -1</clus>
<clus scale="  100.129">  2  5  1 -1</clus>
<clus scale="  109.590">  1  5  2 -1</clus>
</clustering>
</event>
<event>
 9    2  0.3402837E-005  0.9374891E+02  0.7546771E-02  0.1301937E+00
          2   -1    0    0  502    0  0.00000000000E+00  0.00000000000E+00  0.45889259564E+03  0.45889259564E+03  0.00000000000E+00 0. -1.
         -1   -1    0    0    0  501 -0.00000000000E+00 -0.00000000000E+00 -0.99057408629E+02  0.99057408629E+02  0.00000000000E+00 0.  1.
         23    2    1    2    0    0 -0.41952949493E+00 -0.12407605313E+02  0.65012258783E+02  0.11266792166E+03  0.91177530694E+02 0.  0.
         24    2    1    2    0    0  0.18797318935E+02 -0.20469012488E+02  0.36033008022E+03  0.36971885013E+03  0.77986805048E+02 0.  0.
        -11    1    4    4    0    0  0.73056921731E+01 -0.18639268523E+02  0.17206717180E+02  0.26398230723E+02  0.00000000000E+00 0.  1.
         12    1    4    4    0    0  0.11491626761E+02 -0.18297439647E+01  0.34312336304E+03  0.34332061941E+03  0.00000000000E+00 0. -1.
        -11    1    3    3    0    0  0.36140252732E+02  0.62376570018E+01  0.61335506918E+02  0.71463771530E+02  0.00000000000E+00 0. -1.
         11    1    3    3    0    0 -0.36559782227E+02 -0.18645262315E+02  0.36767518648E+01  0.41204150125E+02  0.00000000000E+00 0.  1.
         21    1    1    2  502  501 -0.18377789440E+02  0.32876617801E+02 -0.65507151985E+02  0.75563232487E+02  0.00000000000E+00 0.  1.
<scales pt_clust_5="13000.00000" pt_clust_6="13000.00000" pt_clust_7="13000.00000" pt_clust_8="13000.00000" pt_clust_9="37.66451"></scales>
<clustering>
<clus scale="   37.665">  2  9  1 -1</clus>
<clus scale="   77.987">  5  6 -1 -1</clus>
<clus scale="   80.978">  1  5  2 -1</clus>
<clus scale="   91.178">  7  8 -1 -1</clus>
<clus scale="   80.978">  1  5  2 -1</clus>
</clustering>
</event>
<event>
 9    2  0.3402837E-005  0.1253785E+03  0.7546771E-02  0.1238422E+00
          2   -1    0    0  502    0  0.00000000000E+00  0.00000000000E+00  0.12209110652E+03  0.12209110652E+03  0.00000000000E+00 0. -1.
         -1   -1    0    0    0  501 -0.00000000000E+00 -0.00000000000E+00 -0.19853806617E+03  0.19853806617E+03  0.00000000000E+00 0.  1.
         24    2    1    2    0    0 -0.94207836877E+02 -0.35238283977E+02 -0.68754390268E+02  0.14509138208E+03  0.78787624578E+02 0.  0.
         23    2    1    2    0    0  0.72807355101E+02  0.27981379682E+02  0.36124903821E+02  0.12623653060E+03  0.92448820517E+02 0.  0.
        -11    1    3    3    0    0 -0.57643534427E+02 -0.34899951311E+02 -0.82058090678E+02  0.10618057218E+03  0.00000000000E+00 0.  1.
         12    1    3    3    0    0 -0.36564302449E+02 -0.33833266689E+00  0.13303700410E+02  0.38910809902E+02  0.00000000000E+00 0. -1.
        -13    1    4    4    0    0  0.79589869786E+02  0.52209368328E+02  0.33636402934E+02  0.10095431202E+03  0.00000000000E+00 0. -1.
         13    1    4    4    0    0 -0.67825146846E+01 -0.24227988646E+02  0.24885008867E+01  0.25282218573E+02  0.00000000000E+00 0.  1.
         21    1    1    2  502  501  0.21400481776E+02  0.72569042954E+01 -0.43817473202E+02  0.49301260004E+02  0.00000000000E+00 0.  1.
<scales pt_clust_5="13000.00000" pt_clust_6="13000.00000" pt_clust_7="13000.00000" pt_clust_8="13000.00000" pt_clust_9="22.59742"></scales>
<clustering>
<clus scale="   22.597">  2  9  1 -1</clus>
<clus scale="   78.788">  5  6 -1 -1</clus>
<clus scale="   92.449">  7  8 -1 -1</clus>
<clus scale="  115.674">  2  5  1 -1</clus>
<clus scale="  125.379">  1  5  2 -1</clus>
</clustering>
</event>
<event>
 9    2  0.3402837E-005  0.2071496E+03  0.7546771E-02  0.1146219E+00
         -1   -1    0    0    0  501 -0.00000000000E+00  0.00000000000E+00  0.18416273628E+03  0.18416273628E+03  0.00000000000E+00 0.  1.
          2   -1    0    0  502    0  0.00000000000E+00 -0.00000000000E+00 -0.32505947262E+03  0.32505947262E+03  0.00000000000E+00 0. -1.
         24    2    1    2    0    0  0.98735273508E+02  0.12970078420E+03  0.38011774567E+02  0.18214160582E+03  0.71831204274E+02 0.  0.
         23    2    1    2    0    0 -0.95903498083E+02 -0.16486420144E+03 -0.19330056713E+03  0.28898052242E+03  0.98827866654E+02 0.  0.
        -13    1    3    3    0    0  0.86560608452E+02  0.12961934928E+03  0.51327605927E+02  0.16409886585E+03  0.00000000000E+00 0.  1.
         14    1    3    3    0    0  0.12174665056E+02  0.81434925559E-01 -0.13315831360E+02  0.18042739971E+02  0.00000000000E+00 0. -1.
        -13    1    4    4    0    0  0.10536599808E+02 -0.34469993597E+02 -0.49579058239E+01  0.36383804422E+02  0.00000000000E+00 0.  1.
         13    1    4    4    0    0 -0.10644009789E+03 -0.13039420784E+03 -0.18834266131E+03  0.25259671800E+03  0.00000000000E+00 0. -1.
         21    1    1    2  502  501 -0.28317754247E+01  0.35163417236E+02  0.14392056228E+02  0.38100080660E+02  0.00000000000E+00 0.  1.
<scales pt_clust_5="13000.00000" pt_clust_6="13000.00000" pt_clust_7="13000.00000" pt_clust_8="13000.00000" pt_clust_9="35.27726"></scales>
<clustering>
<clus scale="   35.277">  1  9  2 -1</clus>
<clus scale="   71.831">  5  6 -1 -1</clus>
<clus scale="   98.828">  7  8 -1 -1</clus>
<clus scale="  195.713">  1  5  2 -1</clus>
<clus scale="  207.150">  2  5  1 -1</clus>
</clustering>
</event>
<event>
 9    2  0.3402837E-005  0.1321836E+03  0.7546771E-02  0.1226917E+00
          2   -1    0    0  502    0  0.00000000000E+00  0.00000000000E+00  0.23387244695E+03  0.23387244695E+03  0.00000000000E+00 0. -1.
         -1   -1    0    0    0  501 -0.00000000000E+00 -0.00000000000E+00 -0.22354413227E+03  0.22354413227E+03  0.00000000000E+00 0.  1.
         24    2    1    2    0    0  0.11742895953E+02  0.12491959980E+03 -0.81865541996E+02  0.16976238898E+03  0.79840464207E+02 0.  0.
         23    2    1    2    0    0  0.12515681803E+02 -0.90638576036E+02  0.16154112827E+03  0.20658193074E+03  0.90601127078E+02 0.  0.
        -13    1    3    3    0    0 -0.31289029325E+02  0.79940888797E+02 -0.39727442222E+02  0.94592910534E+02  0.00000000000E+00 0.  1.
         14    1    3    3    0    0  0.43031925278E+02  0.44978711005E+02 -0.42138099775E+02  0.75169478443E+02  0.00000000000E+00 0. -1.
        -11    1    4    4    0    0  0.36806247913E+02 -0.90017653523E+02  0.15205906933E+03  0.18049885982E+03  0.00000000000E+00 0. -1.
         11    1    4    4    0    0 -0.24290566110E+02 -0.62092251313E+00  0.94820589409E+01  0.26083070918E+02  0.00000000000E+00 0.  1.
         21    1    1    2  502  501 -0.24258577756E+02 -0.34281023766E+02 -0.69347271587E+02  0.81072259508E+02  0.00000000000E+00 0.  1.
<scales pt_clust_5="13000.00000" pt_clust_6="13000.00000" pt_clust_7="13000.00000" pt_clust_8="13000.00000" pt_clust_9="41.99604"></scales>
<clustering>
<clus scale="   41.996">  2  9  1 -1</clus>
<clus scale="   79.840">  5  6 -1 -1</clus>
<clus scale="   90.601">  7  8 -1 -1</clus>
<clus scale="  125.054">  2  5  1 -1</clus>
<clus scale="  132.184">  1  5  2 -1</clus>
</clustering>
</event>
<event>
 9    2  0.3596547E-005  0.9408930E+02  0.7546771E-02  0.1297243E+00
         -1   -1    0    0    0  501 -0.00000000000E+00  0.00000000000E+00  0.12669069619E+03  0.12669069619E+03  0.00000000000E+00 0.  1.
          2   -1    0    0  502    0  0.00000000000E+00 -0.00000000000E+00 -0.65024419806E+03  0.65024419806E+03  0.00000000000E+00 0. -1.
         23    2    1    2    0    0 -0.14203721829E+02  0.29984846302E+02  0.90150141778E+02  0.12960157188E+03  0.86998176127E+02 0.  0.
         24    2    1    2    0    0  0.33580606596E+02 -0.13395010242E+02 -0.61557159423E+03  0.62175646636E+03  0.79659477752E+02 0.  0.
        -11    1    4    4    0    0  0.36949172124E+02 -0.36512501707E+02 -0.24485796958E+03  0.25030746966E+03  0.00000000000E+00 0.  1.
         12    1    4    4    0    0 -0.33685655277E+01  0.23117491464E+02 -0.37071362465E+03  0.37144899670E+03  0.00000000000E+00 0. -1.
        -13    1    3    3    0    0 -0.50910703237E+02  0.12627329574E+02  0.52975138056E+02  0.74550079868E+02  0.00000000000E+00 0.  1.
         13    1    3    3    0    0  0.36706981407E+02  0.17357516728E+02  0.37175003722E+02  0.55051492012E+02  0.00000000000E+00 0. -1.
         21    1    1    2  502  501 -0.19376884766E+02 -0.16589836060E+02  0.18679505809E+01  0.25576856005E+02  0.00000000000E+00 0. -1.
<scales pt_clust_5="13000.00000" pt_clust_6="13000.00000" pt_clust_7="13000.00000" pt_clust_8="13000.00000" pt_clust_9="25.50855"></scales>
<clustering>
<clus scale="   25.509">  1  9  2 -1</clus>
<clus scale="   79.659">  5  6 -1 -1</clus>
<clus scale="   86.998">  7  8 -1 -1</clus>
<clus scale="   87.348">  2  5  1 -1</clus>
<clus scale="   87.348">  2  5  1 -1</clus>
</clustering>
</event>
<event>
 9    2  0.3402837E-005  0.1407982E+03  0.7546771E-02  0.1214936E+00
          2   -1    0    0  502    0  0.00000000000E+00  0.00000000000E+00  0.88551534435E+03  0.88551534435E+03  0.00000000000E+00 0. -1.
         -1   -1    0    0    0  501 -0.00000000000E+00 -0.00000000000E+00 -0.18369458355E+03  0.18369458355E+03  0.00000000000E+00 0.  1.
         23    2    1    2    0    0 -0.12459267948E+03 -0.12385720290E+02 -0.12971409956E+03  0.20252095148E+03  0.92261835644E+02 0.  0.
         24    2    1    2    0    0  0.10499855453E+03 -0.13421637295E+02  0.82239803326E+03  0.83302250872E+03  0.79894543772E+02 0.  0.
        -11    1    4    4    0    0  0.62278414572E+02  0.31270788572E+02  0.38179940816E+03  0.38810726766E+03  0.00000000000E+00 0.  1.
         12    1    4    4    0    0  0.42720139959E+02 -0.44692425867E+02  0.44059862510E+03  0.44491524106E+03  0.00000000000E+00 0. -1.
        -11    1    3    3    0    0 -0.38428433988E+02 -0.45183769727E+02 -0.73849298343E+02  0.94720834304E+02  0.00000000000E+00 0. -1.
         11    1    3    3    0    0 -0.86164245491E+02  0.32798049437E+02 -0.55864801217E+02  0.10780011717E+03  0.00000000000E+00 0.  1.
         21    1    1    2  502  501  0.19594124948E+02  0.25807357585E+02  0.91368270927E+01  0.33666467699E+02  0.00000000000E+00 0.  1.
<scales pt_clust_5="13000.00000" pt_clust_6="13000.00000" pt_clust_7="13000.00000" pt_clust_8="13000.00000" pt_clust_9="32.40292"></scales>
<clustering>
<clus scale="   32.403">  2  9  1 -1</clus>
<clus scale="   79.895">  5  6 -1 -1</clus>
<clus scale="   92.262">  7  8 -1 -1</clus>
<clus scale="  133.023">  1  5  2 -1</clus>
<clus scale="  133.023">  1  5  2 -1</clus>
</clustering>
</event>
<event>
 9    2  0.3402837E-005  0.2438945E+03  0.7546771E-02  0.1117912E+00
         -1   -1    0    0    0  501 -0.00000000000E+00  0.00000000000E+00  0.50564891799E+02  0.50564891799E+02  0.00000000000E+00 0.  1.
          2   -1    0    0  502    0  0.00000000000E+00 -0.00000000000E+00 -0.14888884115E+04  0.14888884115E+04  0.00000000000E+00 0. -1.
         24    2    1    2    0    0 -0.20578254609E+03 -0.31441817023E+01 -0.55247468789E+03  0.59501055600E+03  0.80330186351E+02 0.  0.
         23    2    1    2    0    0  0.24415432023E+03  0.41733016649E+00 -0.85841197078E+03  0.89719224345E+03  0.92039686399E+02 0.  0.
        -13    1    3    3    0    0 -0.11137496884E+03  0.47131000271E+01 -0.40224375161E+03  0.41740463905E+03  0.00000000000E+00 0.  1.
         14    1    3    3    0    0 -0.94407577250E+02 -0.78572817294E+01 -0.15023093628E+03  0.17760591695E+03  0.00000000000E+00 0. -1.
        -13    1    4    4    0    0  0.21743001502E+03 -0.27612831923E+02 -0.67341807315E+03  0.70818795610E+03  0.00000000000E+00 0.  1.
         13    1    4    4    0    0  0.26724305210E+02  0.28030162090E+02 -0.18499389763E+03  0.18900428735E+03  0.00000000000E+00 0. -1.
         21    1    1    2  502  501 -0.38371774144E+02  0.27268515358E+01 -0.27436861015E+02  0.47250503835E+02  0.00000000000E+00 0.  1.
<scales pt_clust_5="13000.00000" pt_clust_6="13000.00000" pt_clust_7="13000.00000" pt_clust_8="13000.00000" pt_clust_9="38.46854"></scales>
<clustering>
<clus scale="   38.469">  1  9  2 -1</clus>
<clus scale="   80.330">  5  6 -1 -1</clus>
<clus scale="   92.040">  7  8 -1 -1</clus>
<clus scale="  239.721">  1  5  2 -1</clus>
<clus scale="  243.894">  2  5  1 -1</clus>
</clustering>
</event>
<event>
 9    2  0.3402837E-005  0.9668237E+02  0.7546771E-02  0.1289984E+00
          2   -1    0    0  502    0  0.00000000000E+00  0.00000000000E+00  0.41240712465E+03  0.41240712465E+03  0.00000000000E+00 0. -1.
         -1   -1    0    0    0  501 -0.00000000000E+00 -0.00000000000E+00 -0.50432600801E+02  0.50432600801E+02  0.00000000000E+00 0.  1.
         24    2    1    2    0    0  0.10112532352E+02  0.23740190456E+02  0.42505130636E+02  0.96484182561E+02  0.82684045623E+02 0.  0.
         23    2    1    2    0    0 -0.39634758634E+02 -0.23404533482E+02  0.32184142449E+03  0.33673627479E+03  0.87696807030E+02 0.  0.
        -13    1    3    3    0    0 -0.10956927805E+02  0.45592768369E+02  0.34474662834E+01  0.47017441639E+02  0.00000000000E+00 0.  1.
         14    1    3    3    0    0  0.21069460158E+02 -0.21852577913E+02  0.39057664353E+02  0.49466740922E+02  0.00000000000E+00 0. -1.
        -11    1    4    4    0    0  0.19689354895E+02  0.15854612246E+02  0.54254806579E+02  0.59855020362E+02  0.00000000000E+00 0.  1.
         11    1    4    4    0    0 -0.59324113529E+02 -0.39259145727E+02  0.26758661791E+03  0.27688125443E+03  0.00000000000E+00 0. -1.
         21    1    1    2  502  501  0.29522226282E+02 -0.33565697443E+00 -0.23720312785E+01  0.29619268098E+02  0.00000000000E+00 0.  1.
<scales pt_clust_5="13000.00000" pt_clust_6="13000.00000" pt_clust_7="13000.00000" pt_clust_8="13000.00000" pt_clust_9="29.52413"></scales>
<clustering>
<clus scale="   29.524">  2  9  1 -1</clus>
<clus scale="   82.684">  5  6 -1 -1</clus>
<clus scale="   87.697">  7  8 -1 -1</clus>
<clus scale="   92.160">  2  5  1 -1</clus>
<clus scale="   96.682">  1  5  2 -1</clus>
</clustering>
</event>
<event>
 9    2  0.3402837E-005  0.1164044E+03  0.7546771E-02  0.1253117E+00
         -1   -1    0    0    0  501 -0.00000000000E+00  0.00000000000E+00  0.45333827034E+03  0.45333827034E+03  0.00000000000E+00 0.  1.
          2   -1    0    0  502    0  0.00000000000E+00 -0.00000000000E+00 -0.64380461294E+02  0.64380461294E+02  0.00000000000E+00 0. -1.
         24    2    1    2    0    0 -0.21171537515E+02  0.40954740519E+02  0.12019251501E+03  0.15116511006E+03  0.79240930485E+02 0.  0.
         23    2    1    2    0    0  0.33688043157E+02 -0.83421483195E+02  0.40670573935E+02  0.13420197323E+03  0.90895797071E+02 0.  0.
        -11    1    3    3    0    0 -0.40390789311E+02  0.21305134282E+02  0.24952082517E+02  0.52037784637E+02  0.00000000000E+00 0.  1.
         12    1    3    3    0    0  0.19219251796E+02  0.19649606237E+02  0.95240432490E+02  0.99127325424E+02  0.00000000000E+00 0. -1.
        -13    1    4    4    0    0  0.15005243331E+02 -0.72109249371E+02  0.67293712325E+02  0.99766451730E+02  0.00000000000E+00 0.  1.
         13    1    4    4    0    0  0.18682799826E+02 -0.11312233824E+02 -0.26623138390E+02  0.34435521503E+02  0.00000000000E+00 0. -1.
         21    1    1    2  502  501 -0.12516505641E+02  0.42466742676E+02  0.22809472010E+03  0.23235164834E+03  0.00000000000E+00 0. -1.
<scales pt_clust_5="13000.00000" pt_clust_6="13000.00000" pt_clust_7="13000.00000" pt_clust_8="13000.00000" pt_clust_9="44.27287"></scales>
<clustering>
<clus scale="   44.273">  1  9  2 -1</clus>
<clus scale="   79.241">  5  6 -1 -1</clus>
<clus scale="   90.896">  7  8 -1 -1</clus>
<clus scale="  107.550">  1  5  2 -1</clus>
<clus scale="  116.404">  2  5  1 -1</clus>
</clustering>
</event>
<event>
 9    2  0.3402837E-005  0.9802247E+02  0.7546771E-02  0.1288974E+00
         -1   -1    0    0    0  501 -0.00000000000E+00  0.00000000000E+00  0.38194140116E+03  0.38194140116E+03  0.00000000000E+00 0.  1.
          2   -1    0    0  502    0  0.00000000000E+00 -0.00000000000E+00 -0.26619490908E+03  0.26619490908E+03  0.00000000000E+00 0. -1.
         24    2    1    2    0    0  0.77043233591E+02  0.16688329468E+01  0.12051425345E+03  0.15719971606E+03  0.65189114105E+02 0.  0.
         23    2    1    2    0    0  0.45609004784E+01 -0.39912665004E+02 -0.22885209615E+03  0.24940892604E+03  0.90651573832E+02 0.  0.
        -11    1    3    3    0    0  0.38490312215E+02  0.33346594106E+02  0.57176229161E+02  0.76567752049E+02  0.00000000000E+00 0.  1.
         12    1    3    3    0    0  0.38552921376E+02 -0.31677761159E+02  0.63338024290E+02  0.80631964007E+02  0.00000000000E+00 0. -1.
        -13    1    4    4    0    0 -0.19376884124E+02 -0.51532030609E+02 -0.73707099494E+02  0.91998643104E+02  0.00000000000E+00 0.  1.
         13    1    4    4    0    0  0.23937784602E+02  0.11619365605E+02 -0.15514499665E+03  0.15741028294E+03  0.00000000000E+00 0. -1.
         21    1    1    2  502  501 -0.81604134070E+02  0.38243832057E+02  0.22408433478E+03  0.24152766814E+03  0.00000000000E+00 0.  1.
<scales pt_clust_5="13000.00000" pt_clust_6="13000.00000" pt_clust_7="13000.00000" pt_clust_8="13000.00000" pt_clust_9="90.12117"></scales>
<clustering>
<clus scale="   65.189">  5  6 -1 -1</clus>
<clus scale="   90.121">  1  9  2 -1</clus>
<clus scale="   90.121">  1  5  2 -1</clus>
<clus scale="   90.652">  7  8 -1 -1</clus>
<clus scale="   98.022">  2  5  1 -1</clus>
</clustering>
</event>
<event>
 9    2  0.3402837E-005  0.2115190E+03  0.7546771E-02  0.1141441E+00
         -1   -1    0    0    0  501 -0.00000000000E+00  0.00000000000E+00  0.19472127418E+03  0.19472127418E+03  0.00000000000E+00 0.  1.
          2   -1    0    0  502    0  0.00000000000E+00 -0.00000000000E+00 -0.48542196417E+03  0.48542196417E+03  0.00000000000E+00 0. -1.
         24    2    1    2    0    0  0.42733700682E+02  0.14865929300E+03  0.77583786870E+02  0.19089121228E+03  0.80588190032E+02 0.  0.
         23    2    1    2    0    0  0.21666428037E+02 -0.19972060691E+03 -0.33258560608E+03  0.39964709467E+03  0.93524649006E+02 0.  0.
        -11    1    3    3    0    0 -0.20202278881E+02  0.71963229673E+02  0.40191200607E+02  0.84865606127E+02  0.00000000000E+00 0.  1.
         12    1    3    3    0    0  0.62935979563E+02  0.76696063325E+02  0.37392586263E+02  0.10602560616E+03  0.00000000000E+00 0. -1.
        -11    1    4    4    0    0  0.40358870692E+02 -0.13389284932E+03 -0.15206223319E+03  0.20658910016E+03  0.00000000000E+00 0. -1.
         11    1    4    4    0    0 -0.18692442655E+02 -0.65827757596E+02 -0.18052337289E+03  0.19305799450E+03  0.00000000000E+00 0.  1.
         21    1    1    2  502  501 -0.64400128719E+02  0.51061313916E+02 -0.35698870780E+02  0.89604931409E+02  0.00000000000E+00 0.  1.
<scales pt_clust_5="13000.00000" pt_clust_6="13000.00000" pt_clust_7="13000.00000" pt_clust_8="13000.00000" pt_clust_9="82.18658"></scales>
<clustering>
<clus scale="   80.588">  5  6 -1 -1</clus>
<clus scale="   82.187">  1  9  2 -1</clus>
<clus scale="   93.525">  7  8 -1 -1</clus>
<clus scale="  206.126">  1  5  2 -1</clus>
<clus scale="  211.519">  2  5  1 -1</clus>
</clustering>
</event>
<event>
 9    2  0.3402837E-005  0.1098595E+03  0.7546771E-02  0.1265395E+00
          2   -1    0    0  502    0  0.00000000000E+00  0.00000000000E+00  0.98531983850E+02  0.98531983850E+02  0.00000000000E+00 0. -1.
         -1   -1    0    0    0  501 -0.00000000000E+00 -0.00000000000E+00 -0.27734839798E+03  0.27734839798E+03  0.00000000000E+00 0.  1.
         24    2    1    2    0    0  0.11381939312E+02  0.38787243808E+02 -0.17943154227E+03  0.20035859622E+03  0.79459989256E+02 0.  0.
         23    2    1    2    0    0 -0.39268318657E+02 -0.53253164532E+02  0.44950275331E+02  0.12118470535E+03  0.91034637223E+02 0.  0.
        -11    1    3    3    0    0  0.17818388787E+02  0.55644795407E+02 -0.78669061359E+02  0.97993160221E+02  0.00000000000E+00 0.  1.
         12    1    3    3    0    0 -0.64364494745E+01 -0.16857551599E+02 -0.10076248091E+03  0.10236543600E+03  0.00000000000E+00 0. -1.
        -13    1    4    4    0    0 -0.18307889342E+02  0.23954706864E+02  0.23860719834E+02  0.38449196924E+02  0.00000000000E+00 0.  1.
         13    1    4    4    0    0 -0.20960429315E+02 -0.77207871396E+02  0.21089555497E+02  0.82735508421E+02  0.00000000000E+00 0. -1.
         21    1    1    2  502  501  0.27886379345E+02  0.14465920724E+02 -0.44335147185E+02  0.54337080261E+02  0.00000000000E+00 0.  1.
<scales pt_clust_5="13000.00000" pt_clust_6="13000.00000" pt_clust_7="13000.00000" pt_clust_8="13000.00000" pt_clust_9="31.41517"></scales>
<clustering>
<clus scale="   31.415">  2  9  1 -1</clus>
<clus scale="   79.460">  5  6 -1 -1</clus>
<clus scale="   91.035">  7  8 -1 -1</clus>
<clus scale="  100.477">  2  5  1 -1</clus>
<clus scale="  109.859">  1  5  2 -1</clus>
</clustering>
</event>
<event>
 9    2  0.3402837E-005  0.1022581E+03  0.7546771E-02  0.1282366E+00
          4   -1    0    0  502    0  0.00000000000E+00  0.00000000000E+00  0.16632592331E+03  0.16632592331E+03  0.00000000000E+00 0. -1.
         -3   -1    0    0    0  501 -0.00000000000E+00 -0.00000000000E+00 -0.13784743516E+03  0.13784743516E+03  0.00000000000E+00 0.  1.
         24    2    1    2    0    0 -0.16835157216E+01 -0.20284574896E+02 -0.80287315312E+02  0.11573014543E+03  0.80827689294E+02 0.  0.
         23    2    1    2    0    0  0.14154054896E+02  0.40811767915E+02  0.12267630961E+03  0.16068745360E+03  0.94366536085E+02 0.  0.
        -11    1    3    3    0    0 -0.40152160224E+02 -0.13569838456E+01 -0.33921259206E+02  0.52580311923E+02  0.00000000000E+00 0.  1.
         12    1    3    3    0    0  0.38468644502E+02 -0.18927591050E+02 -0.46366056106E+02  0.63149833504E+02  0.00000000000E+00 0. -1.
        -13    1    4    4    0    0  0.22011473843E+02 -0.14765326245E+02  0.81154528317E+00  0.26517512055E+02  0.00000000000E+00 0.  1.
         13    1    4    4    0    0 -0.78574189466E+01  0.55577094161E+02  0.12186476433E+03  0.13416994154E+03  0.00000000000E+00 0. -1.
         21    1    1    2  502  501 -0.12470539175E+02 -0.20527193020E+02 -0.13910506156E+02  0.27755759440E+02  0.00000000000E+00 0. -1.
<scales pt_clust_5="13000.00000" pt_clust_6="13000.00000" pt_clust_7="13000.00000" pt_clust_8="13000.00000" pt_clust_9="24.01833"></scales>
<clustering>
<clus scale="   24.018">  2  9  1 -1</clus>
<clus scale="   80.828">  5  6 -1 -1</clus>
<clus scale="   89.916">  2  5  1 -1</clus>
<clus scale="   94.367">  7  8 -1 -1</clus>
<clus scale="  102.258">  1  5  2 -1</clus>
</clustering>
</event>
<event>
 9    2  0.3402837E-005  0.1104463E+03  0.7546771E-02  0.1266560E+00
         -3   -1    0    0    0  501 -0.00000000000E+00  0.00000000000E+00  0.33748728086E+03  0.33748728086E+03  0.00000000000E+00 0.  1.
          4   -1    0    0  502    0  0.00000000000E+00 -0.00000000000E+00 -0.44988881785E+02  0.44988881785E+02  0.00000000000E+00 0. -1.
         24    2    1    2    0    0 -0.36098537770E+02  0.37194873672E+02  0.14331167398E+03  0.17044766915E+03  0.76338777588E+02 0.  0.
         23    2    1    2    0    0  0.64162237544E+02 -0.22244130623E+02  0.95857365974E+02  0.14993890896E+03  0.93174286882E+02 0.  0.
        -13    1    3    3    0    0 -0.11673159352E+02  0.43369481708E+02  0.13742127542E+03  0.14457448437E+03  0.00000000000E+00 0.  1.
         14    1    3    3    0    0 -0.24425378419E+02 -0.61746080361E+01  0.58903985529E+01  0.25873184775E+02  0.00000000000E+00 0. -1.
        -11    1    4    4    0    0  0.82160593334E+02 -0.38776090272E+02  0.74932110539E+02  0.11776573977E+03  0.00000000000E+00 0.  1.
         11    1    4    4    0    0 -0.17998355789E+02  0.16531959649E+02  0.20925255435E+02  0.32173169194E+02  0.00000000000E+00 0. -1.
         21    1    1    2  502  501 -0.28063699774E+02 -0.14950743049E+02  0.53329359125E+02  0.62089584533E+02  0.00000000000E+00 0.  1.
<scales pt_clust_5="13000.00000" pt_clust_6="13000.00000" pt_clust_7="13000.00000" pt_clust_8="13000.00000" pt_clust_9="31.79774"></scales>
<clustering>
<clus scale="   31.798">  1  9  2 -1</clus>
<clus scale="   76.339">  5  6 -1 -1</clus>
<clus scale="   93.174">  7  8 -1 -1</clus>
<clus scale="   96.667">  1  5  2 -1</clus>
<clus scale="  110.446">  2  5  1 -1</clus>
</clustering>
</event>
<event>
 9    2  0.3402837E-005  0.1457461E+03  0.7546771E-02  0.1207724E+00
         -1   -1    0    0    0  501 -0.00000000000E+00  0.00000000000E+00  0.23491959369E+03  0.23491959369E+03  0.00000000000E+00 0.  1.
          2   -1    0    0  502    0  0.00000000000E+00 -0.00000000000E+00 -0.30337618251E+03  0.30337618251E+03  0.00000000000E+00 0. -1.
         24    2    1    2    0    0 -0.10599987259E+03  0.15504432081E+02  0.15295942885E+03  0.20385693477E+03  0.81760030437E+02 0.  0.
         23    2    1    2    0    0  0.11400623045E+03  0.99792990975E+01 -0.25343637306E+03  0.29273961505E+03  0.91484862335E+02 0.  0.
        -11    1    3    3    0    0 -0.10176787719E+03  0.38345200047E+02  0.13993436740E+03  0.17722494851E+03  0.00000000000E+00 0.  1.
         12    1    3    3    0    0 -0.42319953974E+01 -0.22840767966E+02  0.13025061442E+02  0.26631986255E+02  0.00000000000E+00 0. -1.
        -11    1    4    4    0    0  0.65598629058E+02 -0.39716877240E+02 -0.14451333078E+03  0.16359924586E+03  0.00000000000E+00 0.  1.
         11    1    4    4    0    0  0.48407601396E+02  0.49696176338E+02 -0.10892304229E+03  0.12914036920E+03  0.00000000000E+00 0. -1.
         21    1    1    2  502  501 -0.80063578617E+01 -0.25483731178E+02  0.32020355393E+02  0.41699226378E+02  0.00000000000E+00 0.  1.
<scales pt_clust_5="13000.00000" pt_clust_6="13000.00000" pt_clust_7="13000.00000" pt_clust_8="13000.00000" pt_clust_9="26.71184"></scales>
<clustering>
<clus scale="   26.712">  1  9  2 -1</clus>
<clus scale="   81.760">  5  6 -1 -1</clus>
<clus scale="   91.485">  7  8 -1 -1</clus>
<clus scale="  139.847">  1  5  2 -1</clus>
<clus scale="  145.746">  2  5  1 -1</clus>
</clustering>
</event>
<event>
 9    2  0.3402837E-005  0.1311315E+03  0.7546771E-02  0.1228572E+00
          2   -1    0    0  502    0  0.00000000000E+00  0.00000000000E+00  0.82587862792E+03  0.82587862792E+03  0.00000000000E+00 0. -1.
         -1   -1    0    0    0  501 -0.00000000000E+00 -0.00000000000E+00 -0.34059653613E+02  0.34059653613E+02  0.00000000000E+00 0.  1.
         24    2    1    2    0    0 -0.26907096958E+02 -0.62262453982E+02  0.10152685726E+03  0.14603572911E+03  0.80113209821E+02 0.  0.
         23    2    1    2    0    0  0.26077397579E+02  0.10056793740E+03  0.60207294175E+03  0.61772240193E+03  0.91077977341E+02 0.  0.
        -13    1    3    3    0    0 -0.24647232181E+02 -0.19271044430E+02 -0.44938056013E+01  0.31607807523E+02  0.00000000000E+00 0.  1.
         14    1    3    3    0    0 -0.22598647764E+01 -0.42991409552E+02  0.10602066287E+03  0.11442792159E+03  0.00000000000E+00 0. -1.
        -11    1    4    4    0    0 -0.27702494015E+02  0.34541548727E+02  0.11439401594E+03  0.12266432915E+03  0.00000000000E+00 0.  1.
         11    1    4    4    0    0  0.53779891593E+02  0.66026388669E+02  0.48767892581E+03  0.49505807278E+03  0.00000000000E+00 0. -1.
         21    1    1    2  502  501  0.82969937907E+00 -0.38305483413E+02  0.88219175285E+02  0.96180150492E+02  0.00000000000E+00 0.  1.
<scales pt_clust_5="13000.00000" pt_clust_6="13000.00000" pt_clust_7="13000.00000" pt_clust_8="13000.00000" pt_clust_9="38.31447"></scales>
<clustering>
<clus scale="   38.314">  2  9  1 -1</clus>
<clus scale="   80.113">  5  6 -1 -1</clus>
<clus scale="   91.078">  7  8 -1 -1</clus>
<clus scale="  123.768">  2  5  1 -1</clus>
<clus scale="  131.132">  1  5  2 -1</clus>
</clustering>
</event>
<event>
 9    2  0.3402837E-005  0.1512203E+03  0.7546771E-02  0.1200306E+00
         -1   -1    0    0    0  501 -0.00000000000E+00  0.00000000000E+00  0.10160398968E+03  0.10160398968E+03  0.00000000000E+00 0.  1.
          2   -1    0    0  502    0  0.00000000000E+00 -0.00000000000E+00 -0.42812363491E+03  0.42812363491E+03  0.00000000000E+00 0. -1.
         24    2    1    2    0    0 -0.61132498377E+02 -0.90779792086E+02 -0.65131084871E+02  0.15266890868E+03  0.84187792769E+02 0.  0.
         23    2    1    2    0    0  0.26505410297E+02  0.12546877313E+03 -0.28269204698E+03  0.32361529557E+03  0.91471942662E+02 0.  0.
        -11    1    3    3    0    0 -0.33757362925E+02 -0.28796695319E+02  0.15815312684E+02  0.47105555173E+02  0.00000000000E+00 0.  1.
         12    1    3    3    0    0 -0.27375135453E+02 -0.61983096767E+02 -0.80946397555E+02  0.10556335350E+03  0.00000000000E+00 0. -1.
        -13    1    4    4    0    0 -0.12296099851E+02  0.11393203923E+03 -0.23187447754E+03  0.25864546578E+03  0.00000000000E+00 0. -1.
         13    1    4    4    0    0  0.38801510148E+02  0.11536733900E+02 -0.50817569442E+02  0.64969829789E+02  0.00000000000E+00 0.  1.
         21    1    1    2  502  501  0.34627088080E+02 -0.34688981048E+02  0.21303486626E+02  0.53443420339E+02  0.00000000000E+00 0. -1.
<scales pt_clust_5="13000.00000" pt_clust_6="13000.00000" pt_clust_7="13000.00000" pt_clust_8="13000.00000" pt_clust_9="49.01388"></scales>
<clustering>
<clus scale="   49.014">  1  9  2 -1</clus>
<clus scale="   84.188">  5  6 -1 -1</clus>
<clus scale="   91.472">  7  8 -1 -1</clus>
<clus scale="  146.929">  1  5  2 -1</clus>
<clus scale="  151.220">  2  5  1 -1</clus>
</clustering>
</event>
<event>
 9    2  0.3402837E-005  0.2183300E+03  0.7546771E-02  0.1135959E+00
          2   -1    0    0  502    0  0.00000000000E+00  0.00000000000E+00  0.11750565588E+04  0.11750565588E+04  0.00000000000E+00 0. -1.
         -1   -1    0    0    0  501 -0.00000000000E+00 -0.00000000000E+00 -0.48470828500E+02  0.48470828500E+02  0.00000000000E+00 0.  1.
         23    2    1    2    0    0  0.15801167298E+03  0.98407798959E+02  0.35448463859E+03  0.41060588876E+03  0.91027760573E+02 0.  0.
         24    2    1    2    0    0 -0.16131904398E+03 -0.12859277316E+03  0.71178577347E+03  0.74539365995E+03  0.80079870857E+02 0.  0.
        -13    1    4    4    0    0 -0.66400554555E+02 -0.40614562129E+02  0.15115887815E+03  0.17002230073E+03  0.00000000000E+00 0.  1.
         14    1    4    4    0    0 -0.94918489422E+02 -0.87978211027E+02  0.56062689532E+03  0.57537135922E+03  0.00000000000E+00 0. -1.
        -11    1    3    3    0    0  0.47006929752E+02 -0.95320154231E+01  0.12391001696E+03  0.13286912006E+03  0.00000000000E+00 0. -1.
         11    1    3    3    0    0  0.11100474323E+03  0.10793981438E+03  0.23057462163E+03  0.27773676870E+03  0.00000000000E+00 0.  1.
         21    1    1    2  502  501  0.33073709954E+01  0.30184974197E+02  0.60315318212E+02  0.67527838564E+02  0.00000000000E+00 0.  1.
<scales pt_clust_5="13000.00000" pt_clust_6="13000.00000" pt_clust_7="13000.00000" pt_clust_8="13000.00000" pt_clust_9="30.36563"></scales>
<clustering>
<clus scale="   30.366">  2  9  1 -1</clus>
<clus scale="   80.080">  5  6 -1 -1</clus>
<clus scale="   91.028">  7  8 -1 -1</clus>
<clus scale="  213.997">  1  5  2 -1</clus>
<clus scale="  213.997">  1  5  2 -1</clus>
</clustering>
</event>
<event>
 9    2  0.3402837E-005  0.1004071E+03  0.7546771E-02  0.1284112E+00
          2   -1    0    0  502    0  0.00000000000E+00  0.00000000000E+00  0.16104363656E+03  0.16104363656E+03  0.00000000000E+00 0. -1.
         -1   -1    0    0    0  501 -0.00000000000E+00 -0.00000000000E+00 -0.31312267952E+03  0.31312267952E+03  0.00000000000E+00 0.  1.
         23    2    1    2    0    0  0.28953856694E+02 -0.80394489746E+02 -0.21411489348E+03  0.24739426012E+03  0.89761531464E+02 0.  0.
         24    2    1    2    0    0 -0.16050252083E+02  0.39222600899E+02  0.12256471207E+03  0.15243921986E+03  0.80122307084E+02 0.  0.
        -13    1    4    4    0    0 -0.39365997120E+02 -0.50826380985E+01  0.43802919136E+02  0.59111848762E+02  0.00000000000E+00 0.  1.
         14    1    4    4    0    0  0.23315745036E+02  0.44305238997E+02  0.78761792933E+02  0.93327371093E+02  0.00000000000E+00 0. -1.
        -11    1    3    3    0    0  0.43316457658E+02 -0.84926844509E+01 -0.12149202915E+03  0.12926234695E+03  0.00000000000E+00 0.  1.
         11    1    3    3    0    0 -0.14362600964E+02 -0.71901805295E+02 -0.92622864328E+02  0.11813191316E+03  0.00000000000E+00 0. -1.
         21    1    1    2  502  501 -0.12903604610E+02  0.41171888847E+02 -0.60528861556E+02  0.74332836112E+02  0.00000000000E+00 0. -1.
<scales pt_clust_5="13000.00000" pt_clust_6="13000.00000" pt_clust_7="13000.00000" pt_clust_8="13000.00000" pt_clust_9="43.14658"></scales>
<clustering>
<clus scale="   43.147">  2  9  1 -1</clus>
<clus scale="   80.122">  5  6 -1 -1</clus>
<clus scale="   89.762">  7  8 -1 -1</clus>
<clus scale="   91.891">  1  5  2 -1</clus>
<clus scale="   91.891">  1  5  2 -1</clus>
</clustering>
</event>
<event>
 9    2  0.3402837E-005  0.9860759E+02  0.7546771E-02  0.1287729E+00
         -1   -1    0    0    0  501 -0.00000000000E+00  0.00000000000E+00  0.15212851747E+03  0.15212851747E+03  0.00000000000E+00 0.  1.
          2   -1    0    0  502    0  0.00000000000E+00 -0.00000000000E+00 -0.14584271838E+03  0.14584271838E+03  0.00000000000E+00 0. -1.
         23    2    1    2    0    0  0.50872202580E+02 -0.18883138225E+02 -0.10737236577E+01  0.10487982104E+03  0.89744471001E+02 0.  0.
         24    2    1    2    0    0 -0.36281451445E+02 -0.10080797191E+01 -0.69320834834E+02  0.11254063697E+03  0.80886691641E+02 0.  0.
        -11    1    4    4    0    0 -0.56850019324E+02  0.78571440478E+01 -0.24432543096E+02  0.62374743060E+02  0.00000000000E+00 0.  1.
         12    1    4    4    0    0  0.20568567878E+02 -0.88652237669E+01 -0.44888291738E+02  0.50165893914E+02  0.00000000000E+00 0. -1.
        -13    1    3    3    0    0  0.74014485014E+02 -0.16378071286E+02 -0.15665830068E+02  0.77406740292E+02  0.00000000000E+00 0. -1.
         13    1    3    3    0    0 -0.23142282433E+02 -0.25050669391E+01  0.14592106410E+02  0.27473080753E+02  0.00000000000E+00 0.  1.
         21    1    1    2  502  501 -0.14590751135E+02  0.19891217944E+02  0.76680357581E+02  0.80550777828E+02  0.00000000000E+00 0.  1.
<scales pt_clust_5="13000.00000" pt_clust_6="13000.00000" pt_clust_7="13000.00000" pt_clust_8="13000.00000" pt_clust_9="24.66882"></scales>
<clustering>
<clus scale="   24.669">  1  9  2 -1</clus>
<clus scale="   80.887">  5  6 -1 -1</clus>
<clus scale="   89.744">  7  8 -1 -1</clus>
<clus scale="   90.620">  2  5  1 -1</clus>
<clus scale="   90.620">  2  5  1 -1</clus>
</clustering>
</event>
<event>
 9    2  0.3402837E-005  0.1172899E+03  0.7546771E-02  0.1253359E+00
          2   -1    0    0  502    0  0.00000000000E+00  0.00000000000E+00  0.14018363796E+03  0.14018363796E+03  0.00000000000E+00 0. -1.
         -1   -1    0    0    0  501 -0.00000000000E+00 -0.00000000000E+00 -0.12180492580E+03  0.12180492580E+03  0.00000000000E+00 0.  1.
         23    2    1    2    0    0 -0.70308479781E+02  0.35142286967E+02 -0.66444526443E+01  0.12456096527E+03  0.96400324983E+02 0.  0.
         24    2    1    2    0    0  0.43376097302E+02 -0.43859288288E+02  0.35170626791E+02  0.10735584559E+03  0.80518206678E+02 0.  0.
        -11    1    4    4    0    0 -0.98043863772E+01 -0.44285433141E+02  0.35803865446E+01  0.45498843376E+02  0.00000000000E+00 0.  1.
         12    1    4    4    0    0  0.53180483679E+02  0.42614485288E+00  0.31590240246E+02  0.61857002212E+02  0.00000000000E+00 0. -1.
        -11    1    3    3    0    0 -0.86564147219E+02  0.71146883411E+01 -0.20627560265E+02  0.89271869121E+02  0.00000000000E+00 0.  1.
         11    1    3    3    0    0  0.16255667438E+02  0.28027598626E+02  0.13983107621E+02  0.35289096153E+02  0.00000000000E+00 0. -1.
         21    1    1    2  502  501  0.26932382479E+02  0.87170013208E+01 -0.10147461988E+02  0.30071752906E+02  0.00000000000E+00 0. -1.
<scales pt_clust_5="13000.00000" pt_clust_6="13000.00000" pt_clust_7="13000.00000" pt_clust_8="13000.00000" pt_clust_9="28.30794"></scales>
<clustering>
<clus scale="   28.308">  2  9  1 -1</clus>
<clus scale="   80.518">  5  6 -1 -1</clus>
<clus scale="   96.400">  7  8 -1 -1</clus>
<clus scale="  104.628">  1  5  2 -1</clus>
<clus scale="  104.628">  1  5  2 -1</clus>
</clustering>
</event>
<event>
 9    2  0.3402837E-005  0.9506020E+02  0.7546771E-02  0.1298092E+00
          2   -1    0    0  502    0  0.00000000000E+00  0.00000000000E+00  0.47140699512E+03  0.47140699512E+03  0.00000000000E+00 0. -1.
         -1   -1    0    0    0  501 -0.00000000000E+00 -0.00000000000E+00 -0.64735151945E+02  0.64735151945E+02  0.00000000000E+00 0.  1.
         23    2    1    2    0    0 -0.31555121127E+02 -0.68540143675E+01 -0.70060305637E+01  0.10047336421E+03  0.94884715679E+02 0.  0.
         24    2    1    2    0    0  0.36261965880E+01 -0.11657210741E+01  0.38818067401E+03  0.39701068957E+03  0.83178986228E+02 0.  0.
        -11    1    4    4    0    0 -0.35727842233E+02 -0.10124207794E+02  0.11453346620E+03  0.12040304470E+03  0.00000000000E+00 0.  1.
         12    1    4    4    0    0  0.39354038821E+02  0.89584867198E+01  0.27364720781E+03  0.27660764487E+03  0.00000000000E+00 0. -1.
        -13    1    3    3    0    0 -0.51186653513E+02 -0.32223542940E+02 -0.22898304069E+02  0.64674280411E+02  0.00000000000E+00 0.  1.
         13    1    3    3    0    0  0.19631532386E+02  0.25369528573E+02  0.15892273505E+02  0.35799083801E+02  0.00000000000E+00 0. -1.
         21    1    1    2  502  501  0.27928924539E+02  0.80197354416E+01  0.25497199730E+02  0.38658093286E+02  0.00000000000E+00 0. -1.
<scales pt_clust_5="13000.00000" pt_clust_6="13000.00000" pt_clust_7="13000.00000" pt_clust_8="13000.00000" pt_clust_9="29.05755"></scales>
<clustering>
<clus scale="   29.058">  2  9  1 -1</clus>
<clus scale="   83.179">  5  6 -1 -1</clus>
<clus scale="   83.379">  1  5  2 -1</clus>
<clus scale="   94.885">  7  8 -1 -1</clus>
<clus scale="   83.379">  1  5  2 -1</clus>
</clustering>
</event>
<event>
 9    2  0.3402837E-005  0.1621061E+03  0.7546771E-02  0.1190221E+00
         -1   -1    0    0    0  501 -0.00000000000E+00  0.00000000000E+00  0.74444515036E+02  0.74444515036E+02  0.00000000000E+00 0.  1.
          2   -1    0    0  502    0  0.00000000000E+00 -0.00000000000E+00 -0.18147894229E+04  0.18147894229E+04  0.00000000000E+00 0. -1.
         23    2    1    2    0    0 -0.73685213352E+02  0.18918331583E+01 -0.27254438403E+03  0.29999176572E+03  0.10139787243E+03 0.  0.
         24    2    1    2    0    0  0.14196828091E+03  0.24341850562E+02 -0.15002772638E+04  0.15092076665E+04  0.78284058637E+02 0.  0.
        -13    1    4    4    0    0  0.22824192487E+02  0.32684860398E+02 -0.24052968910E+03  0.24381094151E+03  0.00000000000E+00 0.  1.
         14    1    4    4    0    0  0.11914408842E+03 -0.83430098364E+01 -0.12597475747E+04  0.12653967250E+04  0.00000000000E+00 0. -1.
        -11    1    3    3    0    0 -0.88647596633E+02 -0.15209402433E+02 -0.25745849207E+03  0.27271706483E+03  0.00000000000E+00 0.  1.
         11    1    3    3    0    0  0.14962383280E+02  0.17101235592E+02 -0.15085891957E+02  0.27274700884E+02  0.00000000000E+00 0. -1.
         21    1    1    2  502  501 -0.68283067559E+02 -0.26233683720E+02  0.32476739930E+02  0.80034505766E+02  0.00000000000E+00 0.  1.
<scales pt_clust_5="13000.00000" pt_clust_6="13000.00000" pt_clust_7="13000.00000" pt_clust_8="13000.00000" pt_clust_9="73.14905"></scales>
<clustering>
<clus scale="   73.149">  1  9  2 -1</clus>
<clus scale="   78.284">  5  6 -1 -1</clus>
<clus scale="  101.398">  7  8 -1 -1</clus>
<clus scale="  148.746">  2  5  1 -1</clus>
<clus scale="  148.746">  2  5  1 -1</clus>
</clustering>
</event>
<event>
 9    2  0.3402837E-005  0.1574212E+03  0.7546771E-02  0.1193131E+00
         -1   -1    0    0    0  501 -0.00000000000E+00  0.00000000000E+00  0.86046871686E+02  0.86046871686E+02  0.00000000000E+00 0.  1.
          2   -1    0    0  502    0  0.00000000000E+00 -0.00000000000E+00 -0.45538073290E+03  0.45538073290E+03  0.00000000000E+00 0. -1.
         24    2    1    2    0    0 -0.27192970013E+02  0.12269757357E+03 -0.37634941959E+02  0.15553804910E+03  0.83555632262E+02 0.  0.
         23    2    1    2    0    0  0.57738452441E+02 -0.12263907049E+03 -0.29947051674E+03  0.34148572853E+03  0.92497794009E+02 0.  0.
        -13    1    3    3    0    0  0.26679359965E+02  0.51001148573E+02 -0.31582841786E+02  0.65653494189E+02  0.00000000000E+00 0.  1.
         14    1    3    3    0    0 -0.53872329978E+02  0.71696425001E+02 -0.60521001732E+01  0.89884554912E+02  0.00000000000E+00 0. -1.
        -11    1    4    4    0    0  0.53026539000E+02 -0.20711444224E+02 -0.69103282229E+02  0.89532348205E+02  0.00000000000E+00 0.  1.
         11    1    4    4    0    0  0.47119134410E+01 -0.10192762626E+03 -0.23036723451E+03  0.25195338033E+03  0.00000000000E+00 0. -1.
         21    1    1    2  502  501 -0.30545482428E+02 -0.58503087656E-01 -0.32228402522E+02  0.44403826958E+02  0.00000000000E+00 0. -1.
<scales pt_clust_5="13000.00000" pt_clust_6="13000.00000" pt_clust_7="13000.00000" pt_clust_8="13000.00000" pt_clust_9="30.54554"></scales>
<clustering>
<clus scale="   30.546">  2  9  1 -1</clus>
<clus scale="   83.556">  5  6 -1 -1</clus>
<clus scale="   92.498">  7  8 -1 -1</clus>
<clus scale="  152.339">  1  5  2 -1</clus>
<clus scale="   30.546">  2  5  1 -1</clus>
</clustering>
</event>
<event>
 9    2  0.3402837E-005  0.2147236E+03  0.7546771E-02  0.1138785E+00
         -1   -1    0    0    0  501 -0.00000000000E+00  0.00000000000E+00  0.39842428193E+02  0.39842428193E+02  0.00000000000E+00 0.  1.
          2   -1    0    0  502    0  0.00000000000E+00 -0.00000000000E+00 -0.16474354530E+04  0.16474354530E+04  0.00000000000E+00 0. -1.
         23    2    1    2    0    0  0.15068412077E+03 -0.83837809759E+02 -0.47156448857E+03  0.51046212805E+03  0.92000188543E+02 0.  0.
         24    2    1    2    0    0 -0.14752694752E+03  0.15093675472E+03 -0.99880654741E+03  0.10240345031E+04  0.80535955637E+02 0.  0.
        -11    1    4    4    0    0 -0.10701196997E+03  0.56079081883E+02 -0.60487329842E+03  0.61682098885E+03  0.00000000000E+00 0.  1.
         12    1    4    4    0    0 -0.40514977549E+02  0.94857672838E+02 -0.39393324899E+03  0.40721351422E+03  0.00000000000E+00 0. -1.
        -13    1    3    3    0    0  0.82917939442E+01 -0.36268966942E+02 -0.45813810438E+02  0.59017768822E+02  0.00000000000E+00 0.  1.
         13    1    3    3    0    0  0.14239232683E+03 -0.47568842817E+02 -0.42575067813E+03  0.45144435923E+03  0.00000000000E+00 0. -1.
         21    1    1    2  502  501 -0.31571732510E+01 -0.67098944962E+02 -0.13722198880E+03  0.15278125006E+03  0.00000000000E+00 0.  1.
<scales pt_clust_5="13000.00000" pt_clust_6="13000.00000" pt_clust_7="13000.00000" pt_clust_8="13000.00000" pt_clust_9="67.17318"></scales>
<clustering>
<clus scale="   67.173">  1  9  2 -1</clus>
<clus scale="   80.536">  5  6 -1 -1</clus>
<clus scale="   92.000">  7  8 -1 -1</clus>
<clus scale="  210.067">  2  5  1 -1</clus>
<clus scale="  210.067">  2  5  1 -1</clus>
</clustering>
</event>
<event>
 9    2  0.3402837E-005  0.1171086E+03  0.7546771E-02  0.1249568E+00
         -3   -1    0    0    0  501 -0.00000000000E+00  0.00000000000E+00  0.10988652056E+03  0.10988652056E+03  0.00000000000E+00 0.  1.
          4   -1    0    0  502    0  0.00000000000E+00 -0.00000000000E+00 -0.30016454037E+03  0.30016454037E+03  0.00000000000E+00 0. -1.
         23    2    1    2    0    0  0.29148209563E+02  0.11919624819E+01  0.26395985110E+02  0.97846651441E+02  0.89588951736E+02 0.  0.
         24    2    1    2    0    0 -0.79602749237E+02 -0.36900052445E+02 -0.21867527003E+03  0.25035998108E+03  0.84634714196E+02 0.  0.
        -13    1    4    4    0    0 -0.19106745639E+02 -0.48449318518E+02 -0.14648282685E+03  0.15546582504E+03  0.00000000000E+00 0.  1.
         14    1    4    4    0    0 -0.60496003599E+02  0.11549266073E+02 -0.72192443189E+02  0.94894156047E+02  0.00000000000E+00 0. -1.
        -11    1    3    3    0    0  0.57015855366E+02 -0.20465651993E+01  0.36837180590E+02  0.67911516446E+02  0.00000000000E+00 0.  1.
         11    1    3    3    0    0 -0.27867645803E+02  0.32385276813E+01 -0.10441195480E+02  0.29935134995E+02  0.00000000000E+00 0. -1.
         21    1    1    2  502  501  0.50454539674E+02  0.35708089963E+02  0.20012651081E+01  0.61844428404E+02  0.00000000000E+00 0.  1.
<scales pt_clust_5="13000.00000" pt_clust_6="13000.00000" pt_clust_7="13000.00000" pt_clust_8="13000.00000" pt_clust_9="61.81204"></scales>
<clustering>
<clus scale="   61.812">  1  9  2 -1</clus>
<clus scale="   84.635">  5  6 -1 -1</clus>
<clus scale="   89.589">  7  8 -1 -1</clus>
<clus scale="  113.363">  2  5  1 -1</clus>
<clus scale="  113.363">  2  5  1 -1</clus>
</clustering>
</event>
<event>
 9    2  0.3402837E-005  0.1362607E+03  0.7546771E-02  0.1220557E+00
         -1   -1    0    0    0  501 -0.00000000000E+00  0.00000000000E+00  0.66472536986E+02  0.66472536986E+02  0.00000000000E+00 0.  1.
          2   -1    0    0  502    0  0.00000000000E+00 -0.00000000000E+00 -0.48990571358E+03  0.48990571358E+03  0.00000000000E+00 0. -1.
         24    2    1    2    0    0  0.10948466549E+03  0.29520387400E+02 -0.18754051615E+03  0.23413311681E+03  0.82392511411E+02 0.  0.
         23    2    1    2    0    0 -0.92769870791E+02 -0.95909509402E+01 -0.25730325727E+03  0.28855566276E+03  0.91439428275E+02 0.  0.
        -13    1    3    3    0    0  0.11536842269E+03  0.19911082896E+02 -0.12771357683E+03  0.17325438489E+03  0.00000000000E+00 0.  1.
         14    1    3    3    0    0 -0.58837571940E+01  0.96093045041E+01 -0.59826939319E+02  0.60878731919E+02  0.00000000000E+00 0. -1.
        -13    1    4    4    0    0 -0.10326735072E+03  0.13438959387E+02 -0.22092905072E+03  0.24424249590E+03  0.00000000000E+00 0. -1.
         13    1    4    4    0    0  0.10497479931E+02 -0.23029910327E+02 -0.36374206555E+02  0.44313166859E+02  0.00000000000E+00 0.  1.
         21    1    1    2  502  501 -0.16714794701E+02 -0.19929436460E+02  0.21410596830E+02  0.33689470998E+02  0.00000000000E+00 0.  1.
<scales pt_clust_5="13000.00000" pt_clust_6="13000.00000" pt_clust_7="13000.00000" pt_clust_8="13000.00000" pt_clust_9="26.01090"></scales>
<clustering>
<clus scale="   26.011">  1  9  2 -1</clus>
<clus scale="   82.393">  5  6 -1 -1</clus>
<clus scale="   91.439">  7  8 -1 -1</clus>
<clus scale="  130.362">  1  5  2 -1</clus>
<clus scale="  136.261">  2  5  1 -1</clus>
</clustering>
</event>
<event>
 9    2  0.3402837E-005  0.9406659E+02  0.7546771E-02  0.1293329E+00
         -1   -1    0    0    0  501 -0.00000000000E+00  0.00000000000E+00  0.23285057046E+03  0.23285057046E+03  0.00000000000E+00 0.  1.
          2   -1    0    0  502    0  0.00000000000E+00 -0.00000000000E+00 -0.77767712075E+02  0.77767712075E+02  0.00000000000E+00 0. -1.
         23    2    1    2    0    0  0.36646615047E+02  0.33195224193E+02  0.13072490610E+03  0.16658522828E+03  0.90646234903E+02 0.  0.
         24    2    1    2    0    0 -0.11099447389E+02 -0.15255179319E+02 -0.15070475705E+02  0.93742857210E+02  0.90579720752E+02 0.  0.
        -11    1    4    4    0    0 -0.70711428972E+01  0.31979040939E+02 -0.29615667543E+02  0.44155949602E+02  0.00000000000E+00 0.  1.
         12    1    4    4    0    0 -0.40283044921E+01 -0.47234220258E+02  0.14545191838E+02  0.49586907608E+02  0.00000000000E+00 0. -1.
        -11    1    3    3    0    0  0.48423225767E+02 -0.82866345941E+01  0.10611578762E+03  0.11693604016E+03  0.00000000000E+00 0.  1.
         11    1    3    3    0    0 -0.11776610720E+02  0.41481858787E+02  0.24609118487E+02  0.49649188122E+02  0.00000000000E+00 0. -1.
         21    1    1    2  502  501 -0.25547167658E+02 -0.17940044874E+02  0.39428427990E+02  0.50290197048E+02  0.00000000000E+00 0.  1.
<scales pt_clust_5="13000.00000" pt_clust_6="13000.00000" pt_clust_7="13000.00000" pt_clust_8="13000.00000" pt_clust_9="31.21703"></scales>
<clustering>
<clus scale="   31.217">  1  9  2 -1</clus>
<clus scale="   90.580">  5  6 -1 -1</clus>
<clus scale="   90.646">  7  8 -1 -1</clus>
<clus scale="   94.002">  2  5  1 -1</clus>
<clus scale="   94.002">  2  5  1 -1</clus>
</clustering>
</event>
<event>
 9    2  0.3402837E-005  0.1122971E+03  0.7546771E-02  0.1260274E+00
          2   -1    0    0  502    0  0.00000000000E+00  0.00000000000E+00  0.16490829908E+04  0.16490829908E+04  0.00000000000E+00 0. -1.
         -1   -1    0    0    0  501 -0.00000000000E+00 -0.00000000000E+00 -0.19428583739E+02  0.19428583739E+02  0.00000000000E+00 0.  1.
         23    2    1    2    0    0  0.39216449768E+02  0.85681898130E+01  0.10456192155E+03  0.13302714253E+03  0.71775214402E+02 0.  0.
         24    2    1    2    0    0 -0.81170752385E+02 -0.64603095289E+01  0.13652564134E+04  0.13702204716E+04  0.83358501533E+02 0.  0.
        -11    1    4    4    0    0 -0.15562002271E+02 -0.21763710191E+02  0.11187501571E+03  0.11502979673E+03  0.00000000000E+00 0.  1.
         12    1    4    4    0    0 -0.65608750114E+02  0.15303400662E+02  0.12533813977E+04  0.12551906748E+04  0.00000000000E+00 0. -1.
        -13    1    3    3    0    0 -0.20383197028E+02  0.45056596338E+01  0.16469489426E+02  0.26589843395E+02  0.00000000000E+00 0. -1.
         13    1    3    3    0    0  0.59599646796E+02  0.40625301793E+01  0.88092432120E+02  0.10643729913E+03  0.00000000000E+00 0.  1.
         21    1    1    2  502  501  0.41954302617E+02 -0.21078802842E+01  0.15983607214E+03  0.16526396045E+03  0.00000000000E+00 0.  1.
<scales pt_clust_5="13000.00000" pt_clust_6="13000.00000" pt_clust_7="13000.00000" pt_clust_8="13000.00000" pt_clust_9="42.00722"></scales>
<clustering>
<clus scale="   42.007">  2  9  1 -1</clus>
<clus scale="   71.775">  7  8 -1 -1</clus>
<clus scale="   83.359">  5  6 -1 -1</clus>
<clus scale="  103.989">  2  7  1 -1</clus>
<clus scale="  112.297">  1  5  2 -1</clus>
</clustering>
</event>
<event>
 9    2  0.3402837E-005  0.9324670E+02  0.7546771E-02  0.1298705E+00
         -1   -1    0    0    0  501 -0.00000000000E+00  0.00000000000E+00  0.61709534227E+02  0.61709534227E+02  0.00000000000E+00 0.  1.
          2   -1    0    0  502    0  0.00000000000E+00 -0.00000000000E+00 -0.74049487527E+03  0.74049487527E+03  0.00000000000E+00 0. -1.
         23    2    1    2    0    0  0.58096097265E+02  0.25286597387E+02 -0.10288166980E+03  0.15119179910E+03  0.90883186623E+02 0.  0.
         24    2    1    2    0    0  0.21107703440E+02 -0.16555157142E+02 -0.56336929572E+03  0.57034916970E+03  0.84815114477E+02 0.  0.
        -11    1    4    4    0    0 -0.18475303632E+02  0.14574100325E+02 -0.59724233951E+02  0.64192876284E+02  0.00000000000E+00 0.  1.
         12    1    4    4    0    0  0.39583007071E+02 -0.31129257467E+02 -0.50364506177E+03  0.50615629342E+03  0.00000000000E+00 0. -1.
        -13    1    3    3    0    0 -0.21529026700E+01 -0.23139792768E+02 -0.94150649916E+00  0.23258792611E+02  0.00000000000E+00 0.  1.
         13    1    3    3    0    0  0.60248999935E+02  0.48426390154E+02 -0.10194016330E+03  0.12793300649E+03  0.00000000000E+00 0. -1.
         21    1    1    2  502  501 -0.79203800705E+02 -0.87314402450E+01 -0.12534375522E+02  0.80663440694E+02  0.00000000000E+00 0.  1.
<scales pt_clust_5="13000.00000" pt_clust_6="13000.00000" pt_clust_7="13000.00000" pt_clust_8="13000.00000" pt_clust_9="79.68363"></scales>
<clustering>
<clus scale="   79.684">  1  9  2 -1</clus>
<clus scale="   84.815">  5  6 -1 -1</clus>
<clus scale="   87.343">  2  5  1 -1</clus>
<clus scale="   90.883">  7  8 -1 -1</clus>
<clus scale="   87.343">  2  5  1 -1</clus>
</clustering>
</event>
<event>
 9    2  0.3402837E-005  0.9462300E+02  0.7546771E-02  0.1296563E+00
          2   -1    0    0  502    0  0.00000000000E+00  0.00000000000E+00  0.12697189894E+03  0.12697189894E+03  0.00000000000E+00 0. -1.
         -1   -1    0    0    0  501 -0.00000000000E+00 -0.00000000000E+00 -0.27892254314E+03  0.27892254314E+03  0.00000000000E+00 0.  1.
         23    2    1    2    0    0  0.31369131678E+02 -0.90643608335E+01 -0.23718399264E+03  0.25528872267E+03  0.88599664190E+02 0.  0.
         24    2    1    2    0    0 -0.33005107937E+02  0.29020531713E+02  0.91650322612E+02  0.12957948028E+03  0.80371211664E+02 0.  0.
        -13    1    4    4    0    0 -0.28958008347E+02  0.44729744911E+02  0.21302791855E+02  0.57385758408E+02  0.00000000000E+00 0.  1.
         14    1    4    4    0    0 -0.40470995898E+01 -0.15709213198E+02  0.70347530757E+02  0.72193721874E+02  0.00000000000E+00 0. -1.
        -13    1    3    3    0    0  0.26039032150E+02  0.37901490621E+02 -0.13705933370E+03  0.14456768360E+03  0.00000000000E+00 0. -1.
         13    1    3    3    0    0  0.53300995287E+01 -0.46965851454E+02 -0.10012465894E+03  0.11072103907E+03  0.00000000000E+00 0.  1.
         21    1    1    2  502  501  0.16359762585E+01 -0.19956170880E+02 -0.64169741679E+01  0.21026239130E+02  0.00000000000E+00 0. -1.
<scales pt_clust_5="13000.00000" pt_clust_6="13000.00000" pt_clust_7="13000.00000" pt_clust_8="13000.00000" pt_clust_9="20.02312"></scales>
<clustering>
<clus scale="   20.023">  1  9  2 -1</clus>
<clus scale="   80.371">  5  6 -1 -1</clus>
<clus scale="   86.966">  1  5  2 -1</clus>
<clus scale="   88.600">  7  8 -1 -1</clus>
<clus scale="   20.023">  1  5  2 -1</clus>
</clustering>
</event>
<event>
 9    2  0.3402837E-005  0.1260026E+03  0.7546771E-02  0.1255429E+00
          2   -1    0    0  502    0  0.00000000000E+00  0.00000000000E+00  0.17069260911E+03  0.17069260911E+03  0.00000000000E+00 0. -1.
         -1   -1    0    0    0  501 -0.00000000000E+00 -0.00000000000E+00 -0.22981344353E+03  0.22981344353E+03  0.00000000000E+00 0.  1.
         24    2    1    2    0    0 -0.10798131871E+02 -0.20165212695E+02 -0.28770551985E+02  0.85953032704E+02  0.77697771619E+02 0.  0.
         23    2    1    2    0    0 -0.76224039676E+02  0.23975682524E+02  0.98165541028E+02  0.15929937296E+03  0.96720624500E+02 0.  0.
        -11    1    3    3    0    0  0.20368937549E+02 -0.26996354433E+02 -0.39768626046E+02  0.52203834985E+02  0.00000000000E+00 0.  1.
         12    1    3    3    0    0 -0.31167069420E+02  0.68311417377E+01  0.10998074061E+02  0.33749197720E+02  0.00000000000E+00 0. -1.
        -11    1    4    4    0    0  0.10651511657E+02  0.29936674175E+02  0.51473787995E+02  0.60491404446E+02  0.00000000000E+00 0. -1.
         11    1    4    4    0    0 -0.86875551333E+02 -0.59609916509E+01  0.46691753032E+02  0.98807968515E+02  0.00000000000E+00 0.  1.
         21    1    1    2  502  501  0.87022171547E+02 -0.38104698289E+01 -0.12851582346E+03  0.15525364698E+03  0.00000000000E+00 0.  1.
<scales pt_clust_5="13000.00000" pt_clust_6="13000.00000" pt_clust_7="13000.00000" pt_clust_8="13000.00000" pt_clust_9="80.75744"></scales>
<clustering>
<clus scale="   77.698">  5  6 -1 -1</clus>
<clus scale="   80.995">  2  5  1 -1</clus>
<clus scale="   80.757">  2  9  1 -1</clus>
<clus scale="   96.721">  7  8 -1 -1</clus>
<clus scale="  126.003">  1  5  2 -1</clus>
</clustering>
</event>
<event>
 9    2  0.3402837E-005  0.1844758E+03  0.7546771E-02  0.1197500E+00
         -1   -1    0    0    0  501 -0.00000000000E+00  0.00000000000E+00  0.51315989976E+03  0.51315989976E+03  0.00000000000E+00 0.  1.
          2   -1    0    0  502    0  0.00000000000E+00 -0.00000000000E+00 -0.49720199260E+03  0.49720199260E+03  0.00000000000E+00 0. -1.
         23    2    1    2    0    0 -0.68990248144E+02  0.14946333539E+03  0.10913303467E+03  0.21732999005E+03  0.90682756647E+02 0.  0.
         24    2    1    2    0    0  0.30859027647E+02  0.59837850398E+01 -0.42021279824E+03  0.42892829713E+03  0.80078730018E+02 0.  0.
        -11    1    4    4    0    0 -0.71083288483E+01 -0.29242738721E+02 -0.96053077039E+02  0.10065713942E+03  0.00000000000E+00 0.  1.
         12    1    4    4    0    0  0.37967356496E+02  0.35226523761E+02 -0.32415972120E+03  0.32827115771E+03  0.00000000000E+00 0. -1.
        -13    1    3    3    0    0 -0.23284398820E+02  0.78000078611E+02  0.10437903740E+03  0.13236751467E+03  0.00000000000E+00 0.  1.
         13    1    3    3    0    0 -0.45705849324E+02  0.71463256778E+02  0.47539972671E+01  0.84962475374E+02  0.00000000000E+00 0. -1.
         21    1    1    2  502  501  0.38131220496E+02 -0.15544712043E+03  0.32703767074E+03  0.36410360518E+03  0.00000000000E+00 0.  1.
<scales pt_clust_5="13000.00000" pt_clust_6="13000.00000" pt_clust_7="13000.00000" pt_clust_8="13000.00000" pt_clust_9="160.64850"></scales>
<clustering>
<clus scale="   80.079">  5  6 -1 -1</clus>
<clus scale="   86.027">  2  5  1 -1</clus>
<clus scale="   90.683">  7  8 -1 -1</clus>
<clus scale="  160.649">  1  9  2 -1</clus>
<clus scale="   86.027">  2  5  1 -1</clus>
</clustering>
</event>
<event>
 9    2  0.3402837E-005  0.9444074E+02  0.7546771E-02  0.1300236E+00
         -1   -1    0    0    0  501 -0.00000000000E+00  0.00000000000E+00  0.92267264021E+02  0.92267264021E+02  0.00000000000E+00 0.  1.
          2   -1    0    0  502    0  0.00000000000E+00 -0.00000000000E+00 -0.25637666339E+03  0.25637666339E+03  0.00000000000E+00 0. -1.
         24    2    1    2    0    0  0.32409533405E+00 -0.80299057710E+01  0.50519872424E+02  0.93924595385E+02  0.78771744199E+02 0.  0.
         23    2    1    2    0    0  0.19123887713E+02  0.14771310058E+02 -0.21397837987E+03  0.23412578361E+03  0.91892441564E+02 0.  0.
        -11    1    3    3    0    0 -0.27372377644E+02 -0.30397774491E+02  0.38969819121E+02  0.56497066776E+02  0.00000000000E+00 0.  1.
         12    1    3    3    0    0  0.27696472979E+02  0.22367868720E+02  0.11550053303E+02  0.37427528610E+02  0.00000000000E+00 0. -1.
        -13    1    4    4    0    0  0.56450740350E+02  0.95854624601E+01 -0.12454242727E+03  0.13707437167E+03  0.00000000000E+00 0. -1.
         13    1    4    4    0    0 -0.37326852638E+02  0.51858475977E+01 -0.89435952595E+02  0.97051411941E+02  0.00000000000E+00 0.  1.
         21    1    1    2  502  501 -0.19447983047E+02 -0.67414042868E+01 -0.65089193094E+00  0.20593548423E+02  0.00000000000E+00 0. -1.
<scales pt_clust_5="13000.00000" pt_clust_6="13000.00000" pt_clust_7="13000.00000" pt_clust_8="13000.00000" pt_clust_9="20.58326"></scales>
<clustering>
<clus scale="   20.583">  1  9  2 -1</clus>
<clus scale="   78.772">  5  6 -1 -1</clus>
<clus scale="   81.730">  1  5  2 -1</clus>
<clus scale="   91.892">  7  8 -1 -1</clus>
<clus scale="   94.441">  2  5  1 -1</clus>
</clustering>
</event>
<event>
 9    2  0.3402837E-005  0.1149688E+03  0.7546771E-02  0.1255418E+00
          2   -1    0    0  502    0  0.00000000000E+00  0.00000000000E+00  0.58363657909E+03  0.58363657909E+03  0.00000000000E+00 0. -1.
         -1   -1    0    0    0  501 -0.00000000000E+00 -0.00000000000E+00 -0.26823385937E+02  0.26823385937E+02  0.00000000000E+00 0.  1.
         23    2    1    2    0    0  0.76215311348E+02 -0.33671246524E+02  0.28888142484E+03  0.31398432730E+03  0.90504992400E+02 0.  0.
         24    2    1    2    0    0 -0.51640716792E+02  0.32515146951E+02  0.23355428635E+03  0.25420202267E+03  0.79668470821E+02 0.  0.
        -11    1    4    4    0    0 -0.34891716190E+02  0.56451885512E+02  0.12195997518E+03  0.13884697614E+03  0.00000000000E+00 0.  1.
         12    1    4    4    0    0 -0.16749000602E+02 -0.23936738562E+02  0.11159431117E+03  0.11535504653E+03  0.00000000000E+00 0. -1.
        -13    1    3    3    0    0  0.58112654507E+02  0.14843280261E+01  0.67422830872E+02  0.89023154103E+02  0.00000000000E+00 0.  1.
         13    1    3    3    0    0  0.18102656841E+02 -0.35155574550E+02  0.22145859396E+03  0.22496117320E+03  0.00000000000E+00 0. -1.
         21    1    1    2  502  501 -0.24574594556E+02  0.11560995731E+01  0.34377481965E+02  0.42273615058E+02  0.00000000000E+00 0.  1.
<scales pt_clust_5="13000.00000" pt_clust_6="13000.00000" pt_clust_7="13000.00000" pt_clust_8="13000.00000" pt_clust_9="24.60177"></scales>
<clustering>
<clus scale="   24.602">  2  9  1 -1</clus>
<clus scale="   79.668">  5  6 -1 -1</clus>
<clus scale="   90.505">  7  8 -1 -1</clus>
<clus scale="  106.648">  1  5  2 -1</clus>
<clus scale="  106.648">  1  5  2 -1</clus>
</clustering>
</event>
<event>
 9    2  0.3402837E-005  0.1259344E+03  0.7546771E-02  0.1240414E+00
          2   -1    0    0  502    0  0.00000000000E+00  0.00000000000E+00  0.57023104427E+02  0.57023104427E+02  0.00000000000E+00 0. -1.
         -1   -1    0    0    0  501 -0.00000000000E+00 -0.00000000000E+00 -0.78246344179E+03  0.78246344179E+03  0.00000000000E+00 0.  1.
         23    2    1    2    0    0  0.75959699718E+02 -0.57727072063E+02 -0.53604977654E+03  0.55419848932E+03  0.10336494475E+03 0.  0.
         24    2    1    2    0    0 -0.68526998987E+02  0.14643583597E+02 -0.19859129879E+02  0.11020996548E+03  0.82713162919E+02 0.  0.
        -13    1    4    4    0    0 -0.83102134410E+01  0.38085259472E+02  0.80799070396E+01  0.39809942655E+02  0.00000000000E+00 0.  1.
         14    1    4    4    0    0 -0.60216785546E+02 -0.23441675874E+02 -0.27939036919E+02  0.70400022821E+02  0.00000000000E+00 0. -1.
        -11    1    3    3    0    0  0.22830075433E+02 -0.78599892377E+02 -0.27193694842E+03  0.28398742814E+03  0.00000000000E+00 0.  1.
         11    1    3    3    0    0  0.53129624285E+02  0.20872820313E+02 -0.26411282812E+03  0.27021106118E+03  0.00000000000E+00 0. -1.
         21    1    1    2  502  501 -0.74327007306E+01  0.43083488466E+02 -0.16953143094E+03  0.17507809142E+03  0.00000000000E+00 0.  1.
<scales pt_clust_5="13000.00000" pt_clust_6="13000.00000" pt_clust_7="13000.00000" pt_clust_8="13000.00000" pt_clust_9="43.71993"></scales>
<clustering>
<clus scale="   43.720">  2  9  1 -1</clus>
<clus scale="   82.713">  5  6 -1 -1</clus>
<clus scale="  103.365">  7  8 -1 -1</clus>
<clus scale="  109.620">  1  5  2 -1</clus>
<clus scale="  109.620">  1  5  2 -1</clus>
</clustering>
</event>
<event>
 9    2  0.3402837E-005  0.1093128E+03  0.7546771E-02  0.1265723E+00
         -1   -1    0    0    0  501 -0.00000000000E+00  0.00000000000E+00  0.75555056980E+02  0.75555056980E+02  0.00000000000E+00 0.  1.
          2   -1    0    0  502    0  0.00000000000E+00 -0.00000000000E+00 -0.47500674101E+03  0.47500674101E+03  0.00000000000E+00 0. -1.
         24    2    1    2    0    0  0.14321388221E+00  0.45999201925E+02 -0.11774517755E+03  0.14984306365E+03  0.80455390125E+02 0.  0.
         23    2    1    2    0    0 -0.25858525092E+02 -0.67951083584E+02 -0.32542284930E+03  0.34545318478E+03  0.90287645614E+02 0.  0.
        -11    1    3    3    0    0  0.14418326963E+02  0.24293464239E+02  0.10212988179E+01  0.28268420692E+02  0.00000000000E+00 0.  1.
         12    1    3    3    0    0 -0.14275113081E+02  0.21705737685E+02 -0.11876647636E+03  0.12157464296E+03  0.00000000000E+00 0. -1.
        -13    1    4    4    0    0  0.26062863401E+02 -0.44862858487E+02 -0.21613846506E+03  0.22227862021E+03  0.00000000000E+00 0. -1.
         13    1    4    4    0    0 -0.51921388493E+02 -0.23088225097E+02 -0.10928438424E+03  0.12317456458E+03  0.00000000000E+00 0.  1.
         21    1    1    2  502  501  0.25715311210E+02  0.21951881660E+02  0.43716342814E+02  0.55265549559E+02  0.00000000000E+00 0.  1.
<scales pt_clust_5="13000.00000" pt_clust_6="13000.00000" pt_clust_7="13000.00000" pt_clust_8="13000.00000" pt_clust_9="33.81068"></scales>
<clustering>
<clus scale="   33.811">  1  9  2 -1</clus>
<clus scale="   80.455">  5  6 -1 -1</clus>
<clus scale="   90.288">  7  8 -1 -1</clus>
<clus scale="  101.344">  1  5  2 -1</clus>
<clus scale="  109.313">  2  5  1 -1</clus>
</clustering>
</event>
<event>
 9    2  0.3402837E-005  0.1163972E+03  0.7546771E-02  0.1254864E+00
         -1   -1    0    0    0  501 -0.00000000000E+00  0.00000000000E+00  0.69623807036E+02  0.69623807036E+02  0.00000000000E+00 0.  1.
          2   -1    0    0  502    0  0.00000000000E+00 -0.00000000000E+00 -0.65438343026E+03  0.65438343026E+03  0.00000000000E+00 0. -1.
         23    2    1    2    0    0  0.37029221290E+02 -0.15704319368E+02 -0.26689716823E+01  0.10059509581E+03  0.92165400308E+02 0.  0.
         24    2    1    2    0    0 -0.54899834175E+02  0.50178818636E+02 -0.57401188323E+03  0.58374961003E+03  0.75776378149E+02 0.  0.
        -13    1    4    4    0    0  0.88556993329E+01  0.30547409311E+02 -0.96640098570E+02  0.10173925633E+03  0.00000000000E+00 0.  1.
         14    1    4    4    0    0 -0.63755533508E+02  0.19631409325E+02 -0.47737178466E+03  0.48201035370E+03  0.00000000000E+00 0. -1.
        -11    1    3    3    0    0 -0.14817208118E+02 -0.38022384709E+02 -0.13769492247E+02  0.43067973160E+02  0.00000000000E+00 0.  1.
         11    1    3    3    0    0  0.51846429409E+02  0.22318065341E+02  0.11100520565E+02  0.57527122645E+02  0.00000000000E+00 0. -1.
         21    1    1    2  502  501  0.17870612885E+02 -0.34474499268E+02 -0.80787683104E+01  0.39662531463E+02  0.00000000000E+00 0. -1.
<scales pt_clust_5="13000.00000" pt_clust_6="13000.00000" pt_clust_7="13000.00000" pt_clust_8="13000.00000" pt_clust_9="38.83104"></scales>
<clustering>
<clus scale="   38.831">  1  9  2 -1</clus>
<clus scale="   75.776">  5  6 -1 -1</clus>
<clus scale="   92.165">  7  8 -1 -1</clus>
<clus scale="  103.903">  2  5  1 -1</clus>
<clus scale="  103.903">  2  5  1 -1</clus>
</clustering>
</event>
<event>
 9    2  0.3402837E-005  0.1107531E+03  0.7546771E-02  0.1263180E+00
         -1   -1    0    0    0  501 -0.00000000000E+00  0.00000000000E+00  0.79414816653E+02  0.79414816653E+02  0.00000000000E+00 0.  1.
          2   -1    0    0  502    0  0.00000000000E+00 -0.00000000000E+00 -0.21892843943E+03  0.21892843943E+03  0.00000000000E+00 0. -1.
         23    2    1    2    0    0 -0.33550841560E+02 -0.37429753014E+02 -0.48877714771E+01  0.10224546256E+03  0.88902187402E+02 0.  0.
         24    2    1    2    0    0  0.51579494769E+02  0.50193219441E+02 -0.13751717076E+03  0.17382004363E+03  0.78247247597E+02 0.  0.
        -13    1    4    4    0    0  0.59323054628E+02  0.81186657979E+01 -0.57133678331E+02  0.82761070223E+02  0.00000000000E+00 0.  1.
         14    1    4    4    0    0 -0.77435598597E+01  0.42074553643E+02 -0.80383492426E+02  0.91058973408E+02  0.00000000000E+00 0. -1.
        -13    1    3    3    0    0  0.88316544194E+01  0.23747651831E+02 -0.10893742261E+02  0.27579389183E+02  0.00000000000E+00 0. -1.
         13    1    3    3    0    0 -0.42382495979E+02 -0.61177404845E+02  0.60059707835E+01  0.74666073381E+02  0.00000000000E+00 0.  1.
         21    1    1    2  502  501 -0.18028653209E+02 -0.12763466427E+02  0.28913194587E+01  0.22277749885E+02  0.00000000000E+00 0. -1.
<scales pt_clust_5="13000.00000" pt_clust_6="13000.00000" pt_clust_7="13000.00000" pt_clust_8="13000.00000" pt_clust_9="22.08933"></scales>
<clustering>
<clus scale="   22.089">  1  9  2 -1</clus>
<clus scale="   78.247">  5  6 -1 -1</clus>
<clus scale="   88.902">  7  8 -1 -1</clus>
<clus scale="  102.398">  2  5  1 -1</clus>
<clus scale="  102.398">  2  5  1 -1</clus>
</clustering>
</event>
<event>
 9    2  0.3402837E-005  0.1063561E+03  0.7546771E-02  0.1270754E+00
         -1   -1    0    0    0  501 -0.00000000000E+00  0.00000000000E+00  0.85982494567E+02  0.85982494567E+02  0.00000000000E+00 0.  1.
          2   -1    0    0  502    0  0.00000000000E+00 -0.00000000000E+00 -0.27703817266E+03  0.27703817266E+03  0.00000000000E+00 0. -1.
         24    2    1    2    0    0  0.49853661911E+02 -0.31543290779E+02  0.29046888660E+02  0.10684834270E+03  0.84216861720E+02 0.  0.
         23    2    1    2    0    0 -0.31610357413E+02  0.30431374651E+01 -0.16460267027E+03  0.19116989835E+03  0.91888060145E+02 0.  0.
        -11    1    3    3    0    0  0.53330930756E+02 -0.46693211918E+02  0.45487313896E+02  0.84223155605E+02  0.00000000000E+00 0.  1.
         12    1    3    3    0    0 -0.34772688453E+01  0.15149921139E+02 -0.16440425237E+02  0.22625187096E+02  0.00000000000E+00 0. -1.
        -13    1    4    4    0    0  0.33891636152E+01  0.43432461043E+02 -0.67675229527E+02  0.80484792313E+02  0.00000000000E+00 0.  1.
         13    1    4    4    0    0 -0.34999521028E+02 -0.40389323578E+02 -0.96927440739E+02  0.11068510604E+03  0.00000000000E+00 0. -1.
         21    1    1    2  502  501 -0.18243304498E+02  0.28500153314E+02 -0.55499896485E+02  0.65002426168E+02  0.00000000000E+00 0. -1.
<scales pt_clust_5="13000.00000" pt_clust_6="13000.00000" pt_clust_7="13000.00000" pt_clust_8="13000.00000" pt_clust_9="33.83898"></scales>
<clustering>
<clus scale="   33.839">  2  9  1 -1</clus>
<clus scale="   84.217">  5  6 -1 -1</clus>
<clus scale="   91.888">  7  8 -1 -1</clus>
<clus scale="   99.803">  1  5  2 -1</clus>
<clus scale="   33.839">  2  5  1 -1</clus>
</clustering>
</event>
<event>
 9    2  0.3402837E-005  0.9398269E+02  0.7546771E-02  0.1300633E+00
         -1   -1    0    0    0  501 -0.00000000000E+00  0.00000000000E+00  0.27977712450E+03  0.27977712450E+03  0.00000000000E+00 0.  1.
          2   -1    0    0  502    0  0.00000000000E+00 -0.00000000000E+00 -0.25079468494E+03  0.25079468494E+03  0.00000000000E+00 0. -1.
         23    2    1    2    0    0  0.19064757480E+02 -0.25469235841E+02  0.79191985099E+02  0.12494636898E+03  0.91258301894E+02 0.  0.
         24    2    1    2    0    0 -0.22622180721E+02 -0.39825812472E+01 -0.21912281731E+03  0.23412687436E+03  0.79202021543E+02 0.  0.
        -11    1    4    4    0    0 -0.35405052794E+01 -0.33067160290E+02 -0.41755382769E+02  0.53380560670E+02  0.00000000000E+00 0.  1.
         12    1    4    4    0    0 -0.19081675442E+02  0.29084579043E+02 -0.17736743455E+03  0.18074631369E+03  0.00000000000E+00 0. -1.
        -13    1    3    3    0    0 -0.26268931715E+02  0.18801150526E+02  0.18609064990E+02  0.37280522184E+02  0.00000000000E+00 0.  1.
         13    1    3    3    0    0  0.45333689195E+02 -0.44270386366E+02  0.60582920110E+02  0.87665846794E+02  0.00000000000E+00 0. -1.
         21    1    1    2  502  501  0.35574232410E+01  0.29451817088E+02  0.16891327178E+03  0.17149856609E+03  0.00000000000E+00 0.  1.
<scales pt_clust_5="13000.00000" pt_clust_6="13000.00000" pt_clust_7="13000.00000" pt_clust_8="13000.00000" pt_clust_9="29.66589"></scales>
<clustering>
<clus scale="   29.666">  1  9  2 -1</clus>
<clus scale="   79.202">  5  6 -1 -1</clus>
<clus scale="   82.326">  2  5  1 -1</clus>
<clus scale="   91.258">  7  8 -1 -1</clus>
<clus scale="   82.326">  2  5  1 -1</clus>
</clustering>
</event>
<event>
 9    2  0.3402837E-005  0.1273035E+03  0.7546771E-02  0.1232909E+00
          2   -1    0    0  502    0  0.00000000000E+00  0.00000000000E+00  0.29565846233E+03  0.29565846233E+03  0.00000000000E+00 0. -1.
         -1   -1    0    0    0  501 -0.00000000000E+00 -0.00000000000E+00 -0.32716712243E+03  0.32716712243E+03  0.00000000000E+00 0.  1.
         23    2    1    2    0    0 -0.26447662584E+02 -0.90521508320E+02 -0.24427173334E+03  0.27507575396E+03  0.84287415329E+02 0.  0.
         24    2    1    2    0    0  0.12468002951E+03  0.74841293924E+02  0.17651674578E+03  0.24187602246E+03  0.78737028556E+02 0.  0.
        -11    1    4    4    0    0  0.75174354014E+02  0.25336167758E+02  0.40895212121E+02  0.89249780238E+02  0.00000000000E+00 0.  1.
         12    1    4    4    0    0  0.49505675498E+02  0.49505126166E+02  0.13562153366E+03  0.15262624222E+03  0.00000000000E+00 0. -1.
        -13    1    3    3    0    0 -0.56804836654E+02 -0.68373061369E+02 -0.17353555751E+03  0.19497757488E+03  0.00000000000E+00 0.  1.
         13    1    3    3    0    0  0.30357174070E+02 -0.22148446951E+02 -0.70736175836E+02  0.80098179079E+02  0.00000000000E+00 0. -1.
         21    1    1    2  502  501 -0.98232366928E+02  0.15680214396E+02  0.36246327466E+02  0.10587380833E+03  0.00000000000E+00 0. -1.
<scales pt_clust_5="13000.00000" pt_clust_6="13000.00000" pt_clust_7="13000.00000" pt_clust_8="13000.00000" pt_clust_9="99.47596"></scales>
<clustering>
<clus scale="   78.737">  5  6 -1 -1</clus>
<clus scale="   84.287">  7  8 -1 -1</clus>
<clus scale="   99.476">  1  9  2 -1</clus>
<clus scale="  123.699">  1  5  2 -1</clus>
<clus scale="   99.476">  1  5  2 -1</clus>
</clustering>
</event>
<event>
 9    2  0.3402837E-005  0.1307467E+03  0.7546771E-02  0.1229570E+00
          4   -1    0    0  502    0  0.00000000000E+00  0.00000000000E+00  0.34149806719E+03  0.34149806719E+03  0.00000000000E+00 0. -1.
         -3   -1    0    0    0  501 -0.00000000000E+00 -0.00000000000E+00 -0.17968519416E+03  0.17968519416E+03  0.00000000000E+00 0.  1.
         23    2    1    2    0    0 -0.69577952831E+02  0.55609406453E+02 -0.13253497515E+03  0.18417754869E+03  0.91773374125E+02 0.  0.
         24    2    1    2    0    0  0.84409394107E+02 -0.40471852541E+02  0.29066592056E+03  0.31549585957E+03  0.79297183889E+02 0.  0.
        -11    1    4    4    0    0  0.65862626480E+02 -0.24872308809E+02  0.94518582651E+02  0.11785703110E+03  0.00000000000E+00 0.  1.
         12    1    4    4    0    0  0.18546767626E+02 -0.15599543732E+02  0.19614733791E+03  0.19763882848E+03  0.00000000000E+00 0. -1.
        -11    1    3    3    0    0  0.98881889561E+01  0.29941932936E+02 -0.78798658746E+02  0.84873578038E+02  0.00000000000E+00 0. -1.
         11    1    3    3    0    0 -0.79466141787E+02  0.25667473517E+02 -0.53736316407E+02  0.99303970657E+02  0.00000000000E+00 0.  1.
         21    1    1    2  502  501 -0.14831441276E+02 -0.15137553912E+02  0.36819276277E+01  0.21509853087E+02  0.00000000000E+00 0.  1.
<scales pt_clust_5="13000.00000" pt_clust_6="13000.00000" pt_clust_7="13000.00000" pt_clust_8="13000.00000" pt_clust_9="21.19239"></scales>
<clustering>
<clus scale="   21.192">  2  9  1 -1</clus>
<clus scale="   79.297">  5  6 -1 -1</clus>
<clus scale="   91.773">  7  8 -1 -1</clus>
<clus scale="  122.313">  1  5  2 -1</clus>
<clus scale="  122.313">  1  5  2 -1</clus>
</clustering>
</event>
<event>
 9    2  0.3402837E-005  0.9393825E+02  0.7546771E-02  0.1300508E+00
         -1   -1    0    0    0  501 -0.00000000000E+00  0.00000000000E+00  0.26119516774E+02  0.26119516774E+02  0.00000000000E+00 0.  1.
          2   -1    0    0  502    0  0.00000000000E+00 -0.00000000000E+00 -0.95258189080E+03  0.95258189080E+03  0.00000000000E+00 0. -1.
         23    2    1    2    0    0  0.37880710286E+02  0.28388441129E+02 -0.13493508885E+03  0.16972550358E+03  0.91424376195E+02 0.  0.
         24    2    1    2    0    0 -0.17837243717E+02 -0.53360490240E+01 -0.76233447657E+03  0.76672222476E+03  0.79765124530E+02 0.  0.
        -13    1    4    4    0    0  0.17009986481E+02 -0.22481505269E+02 -0.12215783669E+03  0.12536863557E+03  0.00000000000E+00 0.  1.
         14    1    4    4    0    0 -0.34847230198E+02  0.17145456245E+02 -0.64017663988E+03  0.64135358920E+03  0.00000000000E+00 0. -1.
        -11    1    3    3    0    0  0.66725116601E+02  0.20186486188E+02 -0.11220243842E+03  0.13209512708E+03  0.00000000000E+00 0.  1.
         11    1    3    3    0    0 -0.28844406315E+02  0.82019549412E+01 -0.22732650425E+02  0.37630376504E+02  0.00000000000E+00 0. -1.
         21    1    1    2  502  501 -0.20043466569E+02 -0.23052392105E+02 -0.29192808604E+02  0.42253679225E+02  0.00000000000E+00 0. -1.
<scales pt_clust_5="13000.00000" pt_clust_6="13000.00000" pt_clust_7="13000.00000" pt_clust_8="13000.00000" pt_clust_9="30.54756"></scales>
<clustering>
<clus scale="   30.548">  1  9  2 -1</clus>
<clus scale="   79.765">  5  6 -1 -1</clus>
<clus scale="   82.634">  2  5  1 -1</clus>
<clus scale="   91.424">  7  8 -1 -1</clus>
<clus scale="   82.634">  2  5  1 -1</clus>
</clustering>
</event>
<event>
 9    2  0.3402837E-005  0.1177213E+03  0.7546771E-02  0.1249997E+00
          2   -1    0    0  502    0  0.00000000000E+00  0.00000000000E+00  0.10444893719E+04  0.10444893719E+04  0.00000000000E+00 0. -1.
         -1   -1    0    0    0  501 -0.00000000000E+00 -0.00000000000E+00 -0.34898980602E+02  0.34898980602E+02  0.00000000000E+00 0.  1.
         24    2    1    2    0    0  0.33638273565E+02  0.87437972285E+02  0.13428701529E+03  0.18242633075E+03  0.80432774592E+02 0.  0.
         23    2    1    2    0    0 -0.52549902552E+02  0.21136768375E+01  0.48752306194E+03  0.49852668252E+03  0.89911942336E+02 0.  0.
        -13    1    3    3    0    0  0.33884076391E+01  0.75689598447E+02  0.46653181406E+02  0.88977052967E+02  0.00000000000E+00 0.  1.
         14    1    3    3    0    0  0.30249865926E+02  0.11748373838E+02  0.87633833882E+02  0.93449277778E+02  0.00000000000E+00 0. -1.
        -13    1    4    4    0    0 -0.17966056954E+02  0.43761360404E+02  0.28470184369E+03  0.28860522461E+03  0.00000000000E+00 0.  1.
         13    1    4    4    0    0 -0.34583845598E+02 -0.41647683566E+02  0.20282121825E+03  0.20992145792E+03  0.00000000000E+00 0. -1.
         21    1    1    2  502  501  0.18911628986E+02 -0.89551649123E+02  0.38778031410E+03  0.39843533926E+03  0.00000000000E+00 0. -1.
<scales pt_clust_5="13000.00000" pt_clust_6="13000.00000" pt_clust_7="13000.00000" pt_clust_8="13000.00000" pt_clust_9="91.52676"></scales>
<clustering>
<clus scale="   80.433">  5  6 -1 -1</clus>
<clus scale="   89.912">  7  8 -1 -1</clus>
<clus scale="   91.527">  1  9  2 -1</clus>
<clus scale="  110.651">  2  5  1 -1</clus>
<clus scale="   91.527">  1  5  2 -1</clus>
</clustering>
</event>
<event>
 9    2  0.3402837E-005  0.1386483E+03  0.7546771E-02  0.1216965E+00
          2   -1    0    0  502    0  0.00000000000E+00  0.00000000000E+00  0.16027378936E+04  0.16027378936E+04  0.00000000000E+00 0. -1.
         -1   -1    0    0    0  501 -0.00000000000E+00 -0.00000000000E+00 -0.38240398189E+02  0.38240398189E+02  0.00000000000E+00 0.  1.
         23    2    1    2    0    0  0.52543735924E+02 -0.61527541902E+02  0.14427684991E+03  0.18843258001E+03  0.90247133971E+02 0.  0.
         24    2    1    2    0    0 -0.10155180686E+03  0.21539963242E+02  0.13520577321E+04  0.13595565714E+04  0.97761037279E+02 0.  0.
        -13    1    4    4    0    0 -0.37613071279E+02  0.25045393846E+02  0.17440375409E+03  0.18016293826E+03  0.00000000000E+00 0.  1.
         14    1    4    4    0    0 -0.63938735585E+02 -0.35054306045E+01  0.11776539781E+04  0.11793936332E+04  0.00000000000E+00 0. -1.
        -11    1    3    3    0    0  0.77671684452E+02 -0.42880255297E+02  0.11759687099E+03  0.14731134011E+03  0.00000000000E+00 0.  1.
         11    1    3    3    0    0 -0.25127948528E+02 -0.18647286605E+02  0.26679978928E+02  0.41121239896E+02  0.00000000000E+00 0. -1.
         21    1    1    2  502  501  0.49008070941E+02  0.39987578660E+02  0.68162913364E+02  0.92989140349E+02  0.00000000000E+00 0.  1.
<scales pt_clust_5="13000.00000" pt_clust_6="13000.00000" pt_clust_7="13000.00000" pt_clust_8="13000.00000" pt_clust_9="63.25186"></scales>
<clustering>
<clus scale="   63.252">  2  9  1 -1</clus>
<clus scale="   90.247">  7  8 -1 -1</clus>
<clus scale="   97.761">  5  6 -1 -1</clus>
<clus scale="  133.457">  2  7  1 -1</clus>
<clus scale="  138.648">  1  5  2 -1</clus>
</clustering>
</event>
<event>
 9    2  0.3402837E-005  0.9774686E+02  0.7546771E-02  0.1289368E+00
         -1   -1    0    0    0  501 -0.00000000000E+00  0.00000000000E+00  0.65786580386E+02  0.65786580386E+02  0.00000000000E+00 0.  1.
          2   -1    0    0  502    0  0.00000000000E+00 -0.00000000000E+00 -0.27129619634E+03  0.27129619634E+03  0.00000000000E+00 0. -1.
         23    2    1    2    0    0 -0.21959312003E+02  0.33749288773E+02 -0.32041836799E+02  0.10381783417E+03  0.90167829679E+02 0.  0.
         24    2    1    2    0    0  0.42727960691E+02  0.53451355210E+01 -0.16350209416E+03  0.18788845463E+03  0.81944417080E+02 0.  0.
        -11    1    4    4    0    0  0.65650196200E+02  0.81848715178E+01 -0.14046966655E+03  0.15526966093E+03  0.00000000000E+00 0.  1.
         12    1    4    4    0    0 -0.22922235509E+02 -0.28397359967E+01 -0.23032427604E+02  0.32618793702E+02  0.00000000000E+00 0. -1.
        -11    1    3    3    0    0  0.21049424574E+02  0.39136385400E+02 -0.39952207751E+02  0.59757123770E+02  0.00000000000E+00 0.  1.
         11    1    3    3    0    0 -0.43008736576E+02 -0.53870966273E+01  0.79103709520E+01  0.44060710396E+02  0.00000000000E+00 0. -1.
         21    1    1    2  502  501 -0.20768648689E+02 -0.39094424294E+02 -0.99656849924E+01  0.45376487927E+02  0.00000000000E+00 0. -1.
<scales pt_clust_5="13000.00000" pt_clust_6="13000.00000" pt_clust_7="13000.00000" pt_clust_8="13000.00000" pt_clust_9="44.26862"></scales>
<clustering>
<clus scale="   44.269">  1  9  2 -1</clus>
<clus scale="   81.944">  5  6 -1 -1</clus>
<clus scale="   90.168">  7  8 -1 -1</clus>
<clus scale="   90.217">  2  5  1 -1</clus>
<clus scale="   90.217">  2  5  1 -1</clus>
</clustering>
</event>
<event>
 9    2  0.3402837E-005  0.1576441E+03  0.7546771E-02  0.1193156E+00
          2   -1    0    0  502    0  0.00000000000E+00  0.00000000000E+00  0.68607036293E+03  0.68607036293E+03  0.00000000000E+00 0. -1.
         -1   -1    0    0    0  501 -0.00000000000E+00 -0.00000000000E+00 -0.48569492000E+02  0.48569492000E+02  0.00000000000E+00 0.  1.
         23    2    1    2    0    0  0.11233743770E+03  0.71810374416E+02  0.16238889306E+03  0.22909360946E+03  0.91308814060E+02 0.  0.
         24    2    1    2    0    0 -0.86659142118E+02 -0.82273320724E+02  0.41650520720E+03  0.44071105689E+03  0.80442164470E+02 0.  0.
        -13    1    4    4    0    0 -0.76427218281E+02 -0.22835416039E+02  0.28650498611E+03  0.29740155175E+03  0.00000000000E+00 0.  1.
         14    1    4    4    0    0 -0.10231923837E+02 -0.59437904685E+02  0.13000022109E+03  0.14330950513E+03  0.00000000000E+00 0. -1.
        -11    1    3    3    0    0  0.92189344303E+02  0.67256226690E+02  0.17191852361E+03  0.20634498780E+03  0.00000000000E+00 0. -1.
         11    1    3    3    0    0  0.20148093397E+02  0.45541477257E+01 -0.95296305492E+01  0.22748621660E+02  0.00000000000E+00 0.  1.
         21    1    1    2  502  501 -0.25678295582E+02  0.10462946308E+02  0.58606770677E+02  0.64835188583E+02  0.00000000000E+00 0.  1.
<scales pt_clust_5="13000.00000" pt_clust_6="13000.00000" pt_clust_7="13000.00000" pt_clust_8="13000.00000" pt_clust_9="27.72811"></scales>
<clustering>
<clus scale="   27.728">  1  9  2 -1</clus>
<clus scale="   80.442">  5  6 -1 -1</clus>
<clus scale="   91.309">  7  8 -1 -1</clus>
<clus scale="  151.609">  1  5  2 -1</clus>
<clus scale="   27.728">  1  5  2 -1</clus>
</clustering>
</event>
<event>
 9    2  0.3402837E-005  0.1697547E+03  0.7546771E-02  0.1180316E+00
          2   -1    0    0  502    0  0.00000000000E+00  0.00000000000E+00  0.10468229047E+04  0.10468229047E+04  0.00000000000E+00 0. -1.
         -1   -1    0    0    0  501 -0.00000000000E+00 -0.00000000000E+00 -0.13668326785E+03  0.13668326785E+03  0.00000000000E+00 0.  1.
         23    2    1    2    0    0  0.69280491853E+02  0.11585092659E+03 -0.32047662937E+01  0.16637046378E+03  0.97198955496E+02 0.  0.
         24    2    1    2    0    0 -0.92993926344E+02 -0.10423727965E+03  0.95455220457E+03  0.96819404275E+03  0.81954330905E+02 0.  0.
        -13    1    4    4    0    0 -0.45312415984E+02 -0.26592531289E+02  0.15933410635E+03  0.16777286791E+03  0.00000000000E+00 0.  1.
         14    1    4    4    0    0 -0.47681510359E+02 -0.77644748363E+02  0.79521809823E+03  0.80042117483E+03  0.00000000000E+00 0. -1.
        -11    1    3    3    0    0  0.91617110384E+02  0.11002393409E+03 -0.45531069199E+01  0.14324696077E+03  0.00000000000E+00 0.  1.
         11    1    3    3    0    0 -0.22336618531E+02  0.58269924945E+01  0.13483406262E+01  0.23123503008E+02  0.00000000000E+00 0. -1.
         21    1    1    2  502  501  0.23713434491E+02 -0.11613646936E+02 -0.41207801452E+02  0.48941666002E+02  0.00000000000E+00 0.  1.
<scales pt_clust_5="13000.00000" pt_clust_6="13000.00000" pt_clust_7="13000.00000" pt_clust_8="13000.00000" pt_clust_9="26.40462"></scales>
<clustering>
<clus scale="   26.405">  2  9  1 -1</clus>
<clus scale="   81.954">  5  6 -1 -1</clus>
<clus scale="   97.199">  7  8 -1 -1</clus>
<clus scale="  161.510">  1  5  2 -1</clus>
<clus scale="  161.510">  1  5  2 -1</clus>
</clustering>
</event>
<event>
 9    2  0.3773332E-005  0.2675481E+03  0.7546771E-02  0.1103216E+00
          2   -1    0    0  502    0  0.00000000000E+00  0.00000000000E+00  0.26136505820E+03  0.26136505820E+03  0.00000000000E+00 0. -1.
         -1   -1    0    0    0  501 -0.00000000000E+00 -0.00000000000E+00 -0.80553319637E+03  0.80553319637E+03  0.00000000000E+00 0.  1.
         24    2    1    2    0    0  0.24499275144E+03 -0.15086835512E+02 -0.67698854194E+03  0.72451677081E+03  0.79762174025E+02 0.  0.
         23    2    1    2    0    0 -0.25232782096E+03 -0.38590464461E+01  0.15698606025E+03  0.31081047426E+03  0.90963214125E+02 0.  0.
        -11    1    3    3    0    0  0.18911792954E+03  0.22853620778E+02 -0.50651146249E+03  0.54114853866E+03  0.00000000000E+00 0.  1.
         12    1    3    3    0    0  0.55874821896E+02 -0.37940456290E+02 -0.17047707945E+03  0.18336823216E+03  0.00000000000E+00 0. -1.
        -13    1    4    4    0    0 -0.10755961802E+03  0.16830955785E+02  0.20514451213E+02  0.11078445383E+03  0.00000000000E+00 0.  1.
         13    1    4    4    0    0 -0.14476820294E+03 -0.20690002231E+02  0.13647160904E+03  0.20002602043E+03  0.00000000000E+00 0. -1.
         21    1    1    2  502  501  0.73350695191E+01  0.18945881958E+02 -0.24165656475E+02  0.31571009501E+02  0.00000000000E+00 0.  1.
<scales pt_clust_5="13000.00000" pt_clust_6="13000.00000" pt_clust_7="13000.00000" pt_clust_8="13000.00000" pt_clust_9="20.31624"></scales>
<clustering>
<clus scale="   20.316">  2  9  1 -1</clus>
<clus scale="   79.762">  5  6 -1 -1</clus>
<clus scale="   90.963">  7  8 -1 -1</clus>
<clus scale="  263.950">  2  5  1 -1</clus>
<clus scale="  267.548">  1  5  2 -1</clus>
</clustering>
</event>
<event>
 9    2  0.3402837E-005  0.1203820E+03  0.7546771E-02  0.1243783E+00
          4   -1    0    0  502    0  0.00000000000E+00  0.00000000000E+00  0.18793011726E+03  0.18793011726E+03  0.00000000000E+00 0. -1.
         -3   -1    0    0    0  501 -0.00000000000E+00 -0.00000000000E+00 -0.29418346234E+03  0.29418346234E+03  0.00000000000E+00 0.  1.
         23    2    1    2    0    0  0.23140171950E+02 -0.72493814763E+02 -0.23392401741E+03  0.26279113044E+03  0.92454916475E+02 0.  0.
         24    2    1    2    0    0  0.33185928027E+02  0.46978457046E+02  0.10420804208E+03  0.15318503133E+03  0.96426430737E+02 0.  0.
        -11    1    4    4    0    0  0.50664466742E+01 -0.29830600838E+02  0.23923515431E+02  0.38572894873E+02  0.00000000000E+00 0.  1.
         12    1    4    4    0    0  0.28119481353E+02  0.76809057884E+02  0.80284526647E+02  0.11461213646E+03  0.00000000000E+00 0. -1.
        -13    1    3    3    0    0 -0.14157659036E+02 -0.51818818548E+02 -0.47999827829E+02  0.72038966794E+02  0.00000000000E+00 0. -1.
         13    1    3    3    0    0  0.37297830986E+02 -0.20674996215E+02 -0.18592418958E+03  0.19075216365E+03  0.00000000000E+00 0.  1.
         21    1    1    2  502  501 -0.56326099977E+02  0.25515357718E+02  0.23462630252E+02  0.66137417824E+02  0.00000000000E+00 0. -1.
<scales pt_clust_5="13000.00000" pt_clust_6="13000.00000" pt_clust_7="13000.00000" pt_clust_8="13000.00000" pt_clust_9="61.83577"></scales>
<clustering>
<clus scale="   61.836">  1  9  2 -1</clus>
<clus scale="   92.455">  7  8 -1 -1</clus>
<clus scale="   96.426">  5  6 -1 -1</clus>
<clus scale="  117.225">  2  7  1 -1</clus>
<clus scale="   61.836">  1  5  2 -1</clus>
</clustering>
</event>
<event>
 9    2  0.3402837E-005  0.1713154E+03  0.7546771E-02  0.1177685E+00
         -1   -1    0    0    0  501 -0.00000000000E+00  0.00000000000E+00  0.50919088052E+02  0.50919088052E+02  0.00000000000E+00 0.  1.
          2   -1    0    0  502    0  0.00000000000E+00 -0.00000000000E+00 -0.96632619960E+03  0.96632619960E+03  0.00000000000E+00 0. -1.
         24    2    1    2    0    0  0.16881568125E+03 -0.10083873529E+02 -0.20457702263E+03  0.27641321468E+03  0.77149778465E+02 0.  0.
         23    2    1    2    0    0 -0.14144665861E+03 -0.11788857402E+02 -0.64692379631E+03  0.66795207577E+03  0.86622415698E+02 0.  0.
        -13    1    3    3    0    0  0.16429931963E+03  0.10114951101E+02 -0.17436095279E+03  0.23978807419E+03  0.00000000000E+00 0.  1.
         14    1    3    3    0    0  0.45163616189E+01 -0.20198824631E+02 -0.30216069848E+02  0.36625140488E+02  0.00000000000E+00 0. -1.
        -13    1    4    4    0    0 -0.10961356739E+03 -0.40254608680E+02 -0.54631736263E+03  0.55865752334E+03  0.00000000000E+00 0. -1.
         13    1    4    4    0    0 -0.31833091217E+02  0.28465751279E+02 -0.10060643369E+03  0.10929455243E+03  0.00000000000E+00 0.  1.
         21    1    1    2  502  501 -0.27369022638E+02  0.21872730931E+02 -0.63906292602E+02  0.72879997205E+02  0.00000000000E+00 0. -1.
<scales pt_clust_5="13000.00000" pt_clust_6="13000.00000" pt_clust_7="13000.00000" pt_clust_8="13000.00000" pt_clust_9="35.03541"></scales>
<clustering>
<clus scale="   35.035">  1  9  2 -1</clus>
<clus scale="   77.150">  5  6 -1 -1</clus>
<clus scale="   86.622">  7  8 -1 -1</clus>
<clus scale="  166.726">  1  5  2 -1</clus>
<clus scale="  171.315">  2  5  1 -1</clus>
</clustering>
</event>
<event>
 9    2  0.3402837E-005  0.9485951E+02  0.7546771E-02  0.1295738E+00
         -1   -1    0    0    0  501 -0.00000000000E+00  0.00000000000E+00  0.26764104355E+02  0.26764104355E+02  0.00000000000E+00 0.  1.
          2   -1    0    0  502    0  0.00000000000E+00 -0.00000000000E+00 -0.14836241575E+04  0.14836241575E+04  0.00000000000E+00 0. -1.
         23    2    1    2    0    0 -0.39014235237E+02 -0.40738066429E+01 -0.18174380898E+03  0.20597593443E+03  0.88637277768E+02 0.  0.
         24    2    1    2    0    0  0.13965579410E+02  0.32536104739E+02 -0.12607961256E+04  0.12638832839E+04  0.80873046098E+02 0.  0.
        -11    1    4    4    0    0  0.28184387889E+02  0.44194411787E+00 -0.15577749236E+03  0.15830723976E+03  0.00000000000E+00 0.  1.
         12    1    4    4    0    0 -0.14218808478E+02  0.32094160621E+02 -0.11050186332E+04  0.11055760441E+04  0.00000000000E+00 0. -1.
        -11    1    3    3    0    0 -0.41540739519E+02 -0.40766474175E+02 -0.13058366746E+03  0.14296724333E+03  0.00000000000E+00 0.  1.
         11    1    3    3    0    0  0.25265042825E+01  0.36692667532E+02 -0.51160141521E+02  0.63008691107E+02  0.00000000000E+00 0. -1.
         21    1    1    2  502  501  0.25048655827E+02 -0.28462298096E+02 -0.14320118600E+02  0.40529043516E+02  0.00000000000E+00 0.  1.
<scales pt_clust_5="13000.00000" pt_clust_6="13000.00000" pt_clust_7="13000.00000" pt_clust_8="13000.00000" pt_clust_9="37.91487"></scales>
<clustering>
<clus scale="   37.915">  1  9  2 -1</clus>
<clus scale="   80.873">  5  6 -1 -1</clus>
<clus scale="   87.648">  2  5  1 -1</clus>
<clus scale="   88.637">  7  8 -1 -1</clus>
<clus scale="   87.648">  2  5  1 -1</clus>
</clustering>
</event>
<event>
 9    2  0.3402837E-005  0.1477936E+03  0.7546771E-02  0.1205840E+00
          4   -1    0    0  502    0  0.00000000000E+00  0.00000000000E+00  0.49570654575E+02  0.49570654575E+02  0.00000000000E+00 0. -1.
         -3   -1    0    0    0  501 -0.00000000000E+00 -0.00000000000E+00 -0.98171874580E+03  0.98171874580E+03  0.00000000000E+00 0.  1.
         24    2    1    2    0    0  0.62506867006E+02 -0.92417703420E+02 -0.41117048870E+03  0.43332348075E+03  0.79119705892E+02 0.  0.
         23    2    1    2    0    0  0.39657238282E+02  0.12665706491E+03 -0.18862906554E+03  0.24858734513E+03  0.92736374474E+02 0.  0.
        -11    1    3    3    0    0  0.97844623818E+01 -0.82564463122E+02 -0.24996763078E+03  0.26343204572E+03  0.00000000000E+00 0.  1.
         12    1    3    3    0    0  0.52722404625E+02 -0.98532402987E+01 -0.16120285792E+03  0.16989143503E+03  0.00000000000E+00 0. -1.
        -13    1    4    4    0    0  0.24818311314E+02  0.95729151710E+02 -0.60469391129E+02  0.11591620390E+03  0.00000000000E+00 0. -1.
         13    1    4    4    0    0  0.14838926968E+02  0.30927913202E+02 -0.12815967442E+03  0.13267114123E+03  0.00000000000E+00 0.  1.
         21    1    1    2  502  501 -0.10216410529E+03 -0.34239361492E+02 -0.33234853699E+03  0.34937857450E+03  0.00000000000E+00 0.  1.
<scales pt_clust_5="13000.00000" pt_clust_6="13000.00000" pt_clust_7="13000.00000" pt_clust_8="13000.00000" pt_clust_9="107.74896"></scales>
<clustering>
<clus scale="   79.120">  5  6 -1 -1</clus>
<clus scale="   92.736">  7  8 -1 -1</clus>
<clus scale="  107.749">  2  9  1 -1</clus>
<clus scale="  139.653">  2  5  1 -1</clus>
<clus scale="  147.794">  1  5  2 -1</clus>
</clustering>
</event>
<event>
 9    2  0.3402837E-005  0.9159963E+02  0.7546771E-02  0.1302029E+00
         -1   -1    0    0    0  501 -0.00000000000E+00  0.00000000000E+00  0.46192980445E+02  0.46192980445E+02  0.00000000000E+00 0.  1.
          2   -1    0    0  502    0  0.00000000000E+00 -0.00000000000E+00 -0.36687643270E+03  0.36687643270E+03  0.00000000000E+00 0. -1.
         23    2    1    2    0    0  0.12337077561E+02 -0.30359188312E+02 -0.25427123184E+02  0.96055044544E+02  0.86638035476E+02 0.  0.
         24    2    1    2    0    0  0.10399943635E+02  0.20744054995E+02 -0.26367586766E+03  0.27693010155E+03  0.81405425600E+02 0.  0.
        -13    1    4    4    0    0 -0.24530294192E+02 -0.15021358507E+02 -0.15020618608E+03  0.15293552524E+03  0.00000000000E+00 0.  1.
         14    1    4    4    0    0  0.34930237827E+02  0.35765413502E+02 -0.11346968158E+03  0.12399457631E+03  0.00000000000E+00 0. -1.
        -11    1    3    3    0    0  0.17195643474E+02  0.26465524323E+02  0.41106470105E+01  0.31827842387E+02  0.00000000000E+00 0.  1.
         11    1    3    3    0    0 -0.48585659134E+01 -0.56824712635E+02 -0.29537770195E+02  0.64227202156E+02  0.00000000000E+00 0. -1.
         21    1    1    2  502  501 -0.22737021196E+02  0.96151333168E+01 -0.31580461415E+02  0.40084267048E+02  0.00000000000E+00 0. -1.
<scales pt_clust_5="13000.00000" pt_clust_6="13000.00000" pt_clust_7="13000.00000" pt_clust_8="13000.00000" pt_clust_9="24.68649"></scales>
<clustering>
<clus scale="   24.686">  2  9  1 -1</clus>
<clus scale="   81.405">  5  6 -1 -1</clus>
<clus scale="   86.638">  7  8 -1 -1</clus>
<clus scale="   86.667">  2  5  1 -1</clus>
<clus scale="   24.686">  2  5  1 -1</clus>
</clustering>
</event>
<event>
 9    2  0.3402837E-005  0.1011905E+03  0.7546771E-02  0.1285714E+00
          2   -1    0    0  502    0  0.00000000000E+00  0.00000000000E+00  0.69983301774E+03  0.69983301774E+03  0.00000000000E+00 0. -1.
         -1   -1    0    0    0  501 -0.00000000000E+00 -0.00000000000E+00 -0.37557174016E+02  0.37557174016E+02  0.00000000000E+00 0.  1.
         23    2    1    2    0    0  0.63261995309E+02  0.93232802546E+01  0.14538427723E+03  0.18344395351E+03  0.91793749290E+02 0.  0.
         24    2    1    2    0    0 -0.38768599324E+02  0.34098435794E+01  0.51926830878E+03  0.52623869788E+03  0.75979992889E+02 0.  0.
        -13    1    4    4    0    0  0.80555045193E+01 -0.23621270381E+02  0.84110874710E+02  0.87735368079E+02  0.00000000000E+00 0.  1.
         14    1    4    4    0    0 -0.46824103844E+02  0.27031113961E+02  0.43515743407E+03  0.43850332980E+03  0.00000000000E+00 0. -1.
        -13    1    3    3    0    0  0.26604905346E+02 -0.31293565965E+01 -0.57766665824E+01  0.27404082506E+02  0.00000000000E+00 0.  1.
         13    1    3    3    0    0  0.36657089963E+02  0.12452636851E+02  0.15116094381E+03  0.15603987100E+03  0.00000000000E+00 0. -1.
         21    1    1    2  502  501 -0.24493395984E+02 -0.12733123834E+02 -0.23767422790E+01  0.27707540369E+02  0.00000000000E+00 0.  1.
<scales pt_clust_5="13000.00000" pt_clust_6="13000.00000" pt_clust_7="13000.00000" pt_clust_8="13000.00000" pt_clust_9="27.60541"></scales>
<clustering>
<clus scale="   27.605">  2  9  1 -1</clus>
<clus scale="   75.980">  5  6 -1 -1</clus>
<clus scale="   87.100">  1  5  2 -1</clus>
<clus scale="   91.794">  7  8 -1 -1</clus>
<clus scale="   87.100">  1  5  2 -1</clus>
</clustering>
</event>
<event>
 9    2  0.3402837E-005  0.9980327E+02  0.7546771E-02  0.1286091E+00
         -1   -1    0    0    0  501 -0.00000000000E+00  0.00000000000E+00  0.13300438831E+03  0.13300438831E+03  0.00000000000E+00 0.  1.
          2   -1    0    0  502    0  0.00000000000E+00 -0.00000000000E+00 -0.59144225566E+03  0.59144225566E+03  0.00000000000E+00 0. -1.
         24    2    1    2    0    0 -0.41144436319E+02  0.28584187070E+02 -0.19847096065E+03  0.21989046244E+03  0.80319193581E+02 0.  0.
         23    2    1    2    0    0 -0.15963935763E+02 -0.48227076770E+02 -0.36707754856E+03  0.38159318352E+03  0.91031493872E+02 0.  0.
        -13    1    3    3    0    0 -0.48987017435E+02 -0.13857590862E+02 -0.95057738650E+02  0.10783197290E+03  0.00000000000E+00 0.  1.
         14    1    3    3    0    0  0.78425811166E+01  0.42441777933E+02 -0.10341322201E+03  0.11205848954E+03  0.00000000000E+00 0. -1.
        -11    1    4    4    0    0  0.28853474948E+02 -0.24426859730E+02 -0.64279121157E+02  0.74572112144E+02  0.00000000000E+00 0.  1.
         11    1    4    4    0    0 -0.44817410711E+02 -0.23800217040E+02 -0.30279842740E+03  0.30702107138E+03  0.00000000000E+00 0. -1.
         21    1    1    2  502  501  0.57108372082E+02  0.19642889700E+02  0.10711064187E+03  0.12296299801E+03  0.00000000000E+00 0.  1.
<scales pt_clust_5="13000.00000" pt_clust_6="13000.00000" pt_clust_7="13000.00000" pt_clust_8="13000.00000" pt_clust_9="60.39213"></scales>
<clustering>
<clus scale="   60.392">  1  9  2 -1</clus>
<clus scale="   80.319">  5  6 -1 -1</clus>
<clus scale="   90.140">  1  5  2 -1</clus>
<clus scale="   91.031">  7  8 -1 -1</clus>
<clus scale="   99.803">  2  5  1 -1</clus>
</clustering>
</event>
<event>
 9    2  0.3402837E-005  0.1022488E+03  0.7546771E-02  0.1279032E+00
          2   -1    0    0  502    0  0.00000000000E+00  0.00000000000E+00  0.38621392075E+03  0.38621392075E+03  0.00000000000E+00 0. -1.
         -1   -1    0    0    0  501 -0.00000000000E+00 -0.00000000000E+00 -0.37681672247E+02  0.37681672247E+02  0.00000000000E+00 0.  1.
         24    2    1    2    0    0  0.31928567519E+02 -0.10362408315E+02  0.87461543906E+02  0.12554993329E+03  0.83584993605E+02 0.  0.
         23    2    1    2    0    0 -0.51122512097E+02  0.17987608418E+02  0.25610764326E+03  0.27710458716E+03  0.90877731006E+02 0.  0.
        -11    1    3    3    0    0  0.33463236294E+02  0.16010951010E+02  0.31884727029E+01  0.37233118238E+02  0.00000000000E+00 0.  1.
         12    1    3    3    0    0 -0.15346687753E+01 -0.26373359325E+02  0.84273071203E+02  0.88316815049E+02  0.00000000000E+00 0. -1.
        -11    1    4    4    0    0 -0.26408718312E+02 -0.35248595945E+02  0.14367142605E+03  0.15027096387E+03  0.00000000000E+00 0.  1.
         11    1    4    4    0    0 -0.24713793785E+02  0.53236204363E+02  0.11243621721E+03  0.12683362330E+03  0.00000000000E+00 0. -1.
         21    1    1    2  502  501  0.19193944578E+02 -0.76252001026E+01  0.49630613395E+01  0.21241072546E+02  0.00000000000E+00 0. -1.
<scales pt_clust_5="13000.00000" pt_clust_6="13000.00000" pt_clust_7="13000.00000" pt_clust_8="13000.00000" pt_clust_9="20.65312"></scales>
<clustering>
<clus scale="   20.653">  2  9  1 -1</clus>
<clus scale="   83.585">  5  6 -1 -1</clus>
<clus scale="   90.878">  7  8 -1 -1</clus>
<clus scale="   95.825">  2  5  1 -1</clus>
<clus scale="  102.249">  1  5  2 -1</clus>
</clustering>
</event>
<event>
 9    2  0.3402837E-005  0.1261616E+03  0.7546771E-02  0.1236818E+00
         -1   -1    0    0    0  501 -0.00000000000E+00  0.00000000000E+00  0.69920377964E+02  0.69920377964E+02  0.00000000000E+00 0.  1.
          2   -1    0    0  502    0  0.00000000000E+00 -0.00000000000E+00 -0.57364272916E+03  0.57364272916E+03  0.00000000000E+00 0. -1.
         23    2    1    2    0    0  0.73215167132E+02  0.66752743655E+02 -0.22090656740E+02  0.13732000918E+03  0.92479177782E+02 0.  0.
         24    2    1    2    0    0 -0.42947674071E+02 -0.97389692851E+01 -0.27454211918E+03  0.28932656147E+03  0.79982083872E+02 0.  0.
        -11    1    4    4    0    0  0.14171924002E+02 -0.18430357193E+02 -0.29474096496E+02  0.37539896916E+02  0.00000000000E+00 0.  1.
         12    1    4    4    0    0 -0.57119598073E+02  0.86913879084E+01 -0.24506802268E+03  0.25178666456E+03  0.00000000000E+00 0. -1.
        -13    1    3    3    0    0  0.38088728358E+02 -0.18134525146E+02  0.23682020581E+01  0.42251871097E+02  0.00000000000E+00 0.  1.
         13    1    3    3    0    0  0.35126438773E+02  0.84887268801E+02 -0.24458858798E+02  0.95068138086E+02  0.00000000000E+00 0. -1.
         21    1    1    2  502  501 -0.30267493061E+02 -0.57013774370E+02 -0.20708957528E+03  0.21691653647E+03  0.00000000000E+00 0. -1.
<scales pt_clust_5="13000.00000" pt_clust_6="13000.00000" pt_clust_7="13000.00000" pt_clust_8="13000.00000" pt_clust_9="64.54992"></scales>
<clustering>
<clus scale="   64.550">  2  9  1 -1</clus>
<clus scale="   79.982">  5  6 -1 -1</clus>
<clus scale="   92.479">  7  8 -1 -1</clus>
<clus scale="  117.309">  2  5  1 -1</clus>
<clus scale="   64.550">  2  5  1 -1</clus>
</clustering>
</event>
<event>
 9    2  0.3402837E-005  0.1382921E+03  0.7546771E-02  0.1232573E+00
          2   -1    0    0  502    0  0.00000000000E+00  0.00000000000E+00  0.44497857896E+03  0.44497857896E+03  0.00000000000E+00 0. -1.
         -1   -1    0    0    0  501 -0.00000000000E+00 -0.00000000000E+00 -0.59928709319E+02  0.59928709319E+02  0.00000000000E+00 0.  1.
         24    2    1    2    0    0  0.29528107315E+02  0.71323575666E+02  0.19469490726E+03  0.22313547123E+03  0.76969929465E+02 0.  0.
         23    2    1    2    0    0 -0.10288157067E+02 -0.33693194633E+02  0.19999006887E+03  0.23842373128E+03  0.12493506495E+03 0.  0.
        -13    1    3    3    0    0  0.34929268273E+02  0.49294736372E+02  0.55286317432E+02  0.81893844160E+02  0.00000000000E+00 0.  1.
         14    1    3    3    0    0 -0.54011609576E+01  0.22028839293E+02  0.13940858983E+03  0.14124162707E+03  0.00000000000E+00 0. -1.
        -11    1    4    4    0    0  0.47659508364E+02  0.28385285228E+00  0.14164685006E+03  0.14945012359E+03  0.00000000000E+00 0. -1.
         11    1    4    4    0    0 -0.57947665431E+02 -0.33977047485E+02  0.58343218807E+02  0.88973607691E+02  0.00000000000E+00 0.  1.
         21    1    1    2  502  501 -0.19239950248E+02 -0.37630381033E+02 -0.96351064868E+01  0.43348085762E+02  0.00000000000E+00 0.  1.
<scales pt_clust_5="13000.00000" pt_clust_6="13000.00000" pt_clust_7="13000.00000" pt_clust_8="13000.00000" pt_clust_9="42.26371"></scales>
<clustering>
<clus scale="   42.264">  2  9  1 -1</clus>
<clus scale="   76.970">  5  6 -1 -1</clus>
<clus scale="   97.161">  2  5  1 -1</clus>
<clus scale="  124.935">  7  8 -1 -1</clus>
<clus scale="  138.292">  1  5  2 -1</clus>
</clustering>
</event>
<event>
 9    2  0.3402837E-005  0.9549345E+02  0.7546771E-02  0.1297008E+00
         -1   -1    0    0    0  501 -0.00000000000E+00  0.00000000000E+00  0.45625720560E+02  0.45625720560E+02  0.00000000000E+00 0.  1.
          2   -1    0    0  502    0  0.00000000000E+00 -0.00000000000E+00 -0.35373322439E+03  0.35373322439E+03  0.00000000000E+00 0. -1.
         23    2    1    2    0    0 -0.12858553043E+02 -0.80570056591E+01 -0.12540322336E+03  0.15654890009E+03  0.92473412189E+02 0.  0.
         24    2    1    2    0    0 -0.33615548313E+02  0.28405915327E+02 -0.16554725695E+03  0.18925368504E+03  0.80462176847E+02 0.  0.
        -13    1    4    4    0    0 -0.56193444990E+02  0.14976714510E+02 -0.74605900488E+02  0.94594109885E+02  0.00000000000E+00 0.  1.
         14    1    4    4    0    0  0.22577896677E+02  0.13429200818E+02 -0.90941356466E+02  0.94659575157E+02  0.00000000000E+00 0. -1.
        -11    1    3    3    0    0 -0.46864300864E+02 -0.21778419796E+01 -0.31510084950E+02  0.56514521538E+02  0.00000000000E+00 0. -1.
         11    1    3    3    0    0  0.34005747821E+02 -0.58791636794E+01 -0.93893138415E+02  0.10003437855E+03  0.00000000000E+00 0.  1.
         21    1    1    2  502  501  0.46474101355E+02 -0.20348909668E+02 -0.17157023511E+02  0.53556359821E+02  0.00000000000E+00 0.  1.
<scales pt_clust_5="13000.00000" pt_clust_6="13000.00000" pt_clust_7="13000.00000" pt_clust_8="13000.00000" pt_clust_9="50.73382"></scales>
<clustering>
<clus scale="   50.734">  1  9  2 -1</clus>
<clus scale="   80.462">  5  6 -1 -1</clus>
<clus scale="   83.916">  2  5  1 -1</clus>
<clus scale="   92.473">  7  8 -1 -1</clus>
<clus scale="   83.916">  2  5  1 -1</clus>
</clustering>
</event>
<event>
 9    2  0.3402837E-005  0.1053903E+03  0.7546771E-02  0.1273696E+00
         -1   -1    0    0    0  501 -0.00000000000E+00  0.00000000000E+00  0.32322711979E+02  0.32322711979E+02  0.00000000000E+00 0.  1.
          2   -1    0    0  502    0  0.00000000000E+00 -0.00000000000E+00 -0.78039891066E+03  0.78039891066E+03  0.00000000000E+00 0. -1.
         23    2    1    2    0    0 -0.21627759122E+02 -0.29078969211E+02 -0.17782907060E+03  0.20333847004E+03  0.91706099200E+02 0.  0.
         24    2    1    2    0    0  0.39370063989E+02  0.41599721382E+02 -0.57781669658E+03  0.58638626185E+03  0.81830156334E+02 0.  0.
        -13    1    4    4    0    0 -0.58654761726E+01 -0.21436813063E+02 -0.11968953569E+03  0.12173547436E+03  0.00000000000E+00 0.  1.
         14    1    4    4    0    0  0.45235540161E+02  0.63036534445E+02 -0.45812716089E+03  0.46465078749E+03  0.00000000000E+00 0. -1.
        -13    1    3    3    0    0  0.28418106056E+02 -0.38316031478E+02 -0.87594916133E+02  0.99742550360E+02  0.00000000000E+00 0. -1.
         13    1    3    3    0    0 -0.50045865178E+02  0.92370622667E+01 -0.90234154468E+02  0.10359591968E+03  0.00000000000E+00 0.  1.
         21    1    1    2  502  501 -0.17742304867E+02 -0.12520752171E+02  0.75695685004E+01  0.22996890751E+02  0.00000000000E+00 0. -1.
<scales pt_clust_5="13000.00000" pt_clust_6="13000.00000" pt_clust_7="13000.00000" pt_clust_8="13000.00000" pt_clust_9="21.71540"></scales>
<clustering>
<clus scale="   21.715">  1  9  2 -1</clus>
<clus scale="   81.830">  5  6 -1 -1</clus>
<clus scale="   91.706">  7  8 -1 -1</clus>
<clus scale="   96.919">  2  5  1 -1</clus>
<clus scale="   96.919">  2  5  1 -1</clus>
</clustering>
</event>
<event>
 9    2  0.3402837E-005  0.1079969E+03  0.7546771E-02  0.1271084E+00
         -1   -1    0    0    0  501 -0.00000000000E+00  0.00000000000E+00  0.13087410129E+03  0.13087410129E+03  0.00000000000E+00 0.  1.
          2   -1    0    0  502    0  0.00000000000E+00 -0.00000000000E+00 -0.22475895577E+03  0.22475895577E+03  0.00000000000E+00 0. -1.
         23    2    1    2    0    0 -0.12178891601E+02 -0.66840952410E+02  0.27928909037E+02  0.11824182836E+03  0.92655640382E+02 0.  0.
         24    2    1    2    0    0  0.39962001312E+02  0.38064137517E+02 -0.15755741564E+03  0.18374782344E+03  0.76766420292E+02 0.  0.
        -13    1    4    4    0    0 -0.22234988326E+02  0.19159630255E+02 -0.54496084180E+02  0.61897571263E+02  0.00000000000E+00 0.  1.
         14    1    4    4    0    0  0.62196989637E+02  0.18904507262E+02 -0.10306133146E+03  0.12185025218E+03  0.00000000000E+00 0. -1.
        -11    1    3    3    0    0 -0.52222724437E+02 -0.45152270287E+02  0.12495291556E+02  0.70157485494E+02  0.00000000000E+00 0.  1.
         11    1    3    3    0    0  0.40043832837E+02 -0.21688682123E+02  0.15433617481E+02  0.48084342868E+02  0.00000000000E+00 0. -1.
         21    1    1    2  502  501 -0.27783109711E+02  0.28776814893E+02  0.35743652118E+02  0.53643405255E+02  0.00000000000E+00 0.  1.
<scales pt_clust_5="13000.00000" pt_clust_6="13000.00000" pt_clust_7="13000.00000" pt_clust_8="13000.00000" pt_clust_9="40.00008"></scales>
<clustering>
<clus scale="   40.000">  1  9  2 -1</clus>
<clus scale="   76.766">  5  6 -1 -1</clus>
<clus scale="   92.656">  7  8 -1 -1</clus>
<clus scale="   94.717">  2  5  1 -1</clus>
<clus scale="   94.717">  2  5  1 -1</clus>
</clustering>
</event>
<event>
 9    2  0.3402837E-005  0.1103022E+03  0.7546771E-02  0.1263955E+00
          2   -1    0    0  502    0  0.00000000000E+00  0.00000000000E+00  0.56690623891E+03  0.56690623891E+03  0.00000000000E+00 0. -1.
         -1   -1    0    0    0  501 -0.00000000000E+00 -0.00000000000E+00 -0.13489984358E+03  0.13489984358E+03  0.00000000000E+00 0.  1.
         23    2    1    2    0    0  0.43333577069E+02 -0.19106208141E+01 -0.76579505407E+02  0.12663181873E+03  0.91048050462E+02 0.  0.
         24    2    1    2    0    0 -0.53049795947E+02  0.34862099240E+02  0.52648539597E+03  0.53643672681E+03  0.80918742504E+02 0.  0.
        -13    1    4    4    0    0 -0.27438878187E+02 -0.95768540392E+00  0.43444523134E+02  0.51392954651E+02  0.00000000000E+00 0.  1.
         14    1    4    4    0    0 -0.25610917761E+02  0.35819784644E+02  0.48304087283E+03  0.48504377216E+03  0.00000000000E+00 0. -1.
        -13    1    3    3    0    0 -0.24083613564E+02  0.17196581360E+02 -0.14231424761E+02  0.32837117771E+02  0.00000000000E+00 0. -1.
         13    1    3    3    0    0  0.67417190633E+02 -0.19107202174E+02 -0.62348080646E+02  0.93794700959E+02  0.00000000000E+00 0.  1.
         21    1    1    2  502  501  0.97162188786E+01 -0.32951478426E+02 -0.17899495233E+02  0.38737536955E+02  0.00000000000E+00 0. -1.
<scales pt_clust_5="13000.00000" pt_clust_6="13000.00000" pt_clust_7="13000.00000" pt_clust_8="13000.00000" pt_clust_9="34.35411"></scales>
<clustering>
<clus scale="   34.354">  2  9  1 -1</clus>
<clus scale="   80.919">  5  6 -1 -1</clus>
<clus scale="   91.048">  7  8 -1 -1</clus>
<clus scale="  102.101">  1  5  2 -1</clus>
<clus scale="  102.101">  1  5  2 -1</clus>
</clustering>
</event>
<event>
 9    2  0.3402837E-005  0.9674748E+02  0.7546771E-02  0.1294083E+00
         -1   -1    0    0    0  501 -0.00000000000E+00  0.00000000000E+00  0.55765015041E+02  0.55765015041E+02  0.00000000000E+00 0.  1.
          2   -1    0    0  502    0  0.00000000000E+00 -0.00000000000E+00 -0.92845644051E+03  0.92845644051E+03  0.00000000000E+00 0. -1.
         23    2    1    2    0    0 -0.34698404082E+02  0.30825930117E+02 -0.15996265626E+03  0.19064655351E+03  0.92756885205E+02 0.  0.
         24    2    1    2    0    0  0.24566964376E+02 -0.57893030654E+01 -0.74597237122E+03  0.75074248629E+03  0.80637772372E+02 0.  0.
        -11    1    4    4    0    0  0.88984376872E+01  0.25212022453E+02 -0.90915135215E+02  0.94764920095E+02  0.00000000000E+00 0.  1.
         12    1    4    4    0    0  0.15668526689E+02 -0.31001325518E+02 -0.65505723600E+03  0.65597756619E+03  0.00000000000E+00 0. -1.
        -13    1    3    3    0    0  0.96710437434E+01 -0.24226619650E+02 -0.16947975227E+02  0.31107749051E+02  0.00000000000E+00 0. -1.
         13    1    3    3    0    0 -0.44369447825E+02  0.55052549766E+02 -0.14301468104E+03  0.15953880446E+03  0.00000000000E+00 0.  1.
         21    1    1    2  502  501  0.10131439706E+02 -0.25036627051E+02  0.33243602010E+02  0.42832415753E+02  0.00000000000E+00 0.  1.
<scales pt_clust_5="13000.00000" pt_clust_6="13000.00000" pt_clust_7="13000.00000" pt_clust_8="13000.00000" pt_clust_9="27.00886"></scales>
<clustering>
<clus scale="   27.009">  1  9  2 -1</clus>
<clus scale="   80.638">  5  6 -1 -1</clus>
<clus scale="   85.198">  2  5  1 -1</clus>
<clus scale="   92.757">  7  8 -1 -1</clus>
<clus scale="   85.198">  2  5  1 -1</clus>
</clustering>
</event>
<event>
 9    2  0.3402837E-005  0.9723211E+02  0.7546771E-02  0.1291861E+00
          2   -1    0    0  502    0  0.00000000000E+00  0.00000000000E+00  0.33984330644E+03  0.33984330644E+03  0.00000000000E+00 0. -1.
         -1   -1    0    0    0  501 -0.00000000000E+00 -0.00000000000E+00 -0.62803453098E+02  0.62803453098E+02  0.00000000000E+00 0.  1.
         23    2    1    2    0    0 -0.15914705051E+02 -0.35988428613E+02  0.58403162097E+01  0.99327579534E+02  0.91013262395E+02 0.  0.
         24    2    1    2    0    0 -0.11808265980E+02  0.32821108281E+02  0.25788335585E+03  0.27240129319E+03  0.80510738511E+02 0.  0.
        -13    1    4    4    0    0  0.24912779386E+02 -0.68768676291E+01  0.37931274430E+02  0.45899013769E+02  0.00000000000E+00 0.  1.
         14    1    4    4    0    0 -0.36721045366E+02  0.39697975910E+02  0.21995208142E+03  0.22650227942E+03  0.00000000000E+00 0. -1.
        -13    1    3    3    0    0 -0.37602708605E+02 -0.55942659105E+02  0.13792683647E+02  0.68802492138E+02  0.00000000000E+00 0.  1.
         13    1    3    3    0    0  0.21688003555E+02  0.19954230492E+02 -0.79523674373E+01  0.30525087397E+02  0.00000000000E+00 0. -1.
         21    1    1    2  502  501  0.27722971031E+02  0.31673203323E+01  0.13316181285E+02  0.30917886812E+02  0.00000000000E+00 0. -1.
<scales pt_clust_5="13000.00000" pt_clust_6="13000.00000" pt_clust_7="13000.00000" pt_clust_8="13000.00000" pt_clust_9="27.90332"></scales>
<clustering>
<clus scale="   27.903">  2  9  1 -1</clus>
<clus scale="   80.511">  5  6 -1 -1</clus>
<clus scale="   87.479">  1  5  2 -1</clus>
<clus scale="   91.013">  7  8 -1 -1</clus>
<clus scale="   87.479">  1  5  2 -1</clus>
</clustering>
</event>
<event>
 9    2  0.3402837E-005  0.1754949E+03  0.7546771E-02  0.1191647E+00
         -1   -1    0    0    0  501 -0.00000000000E+00  0.00000000000E+00  0.11004242809E+03  0.11004242809E+03  0.00000000000E+00 0.  1.
          2   -1    0    0  502    0  0.00000000000E+00 -0.00000000000E+00 -0.10035177168E+04  0.10035177168E+04  0.00000000000E+00 0. -1.
         24    2    1    2    0    0 -0.65133444578E+02  0.49307177073E+02  0.14160049454E+02  0.11448154075E+03  0.78942718846E+02 0.  0.
         23    2    1    2    0    0 -0.84446227844E+01  0.13837119687E+03 -0.65732602546E+03  0.67768841127E+03  0.89253455134E+02 0.  0.
        -11    1    3    3    0    0 -0.64739474283E+02  0.67670010063E+02  0.18841796254E+02  0.95527185023E+02  0.00000000000E+00 0.  1.
         12    1    3    3    0    0 -0.39397029475E+00 -0.18362832989E+02 -0.46817468002E+01  0.18954355728E+02  0.00000000000E+00 0. -1.
        -11    1    4    4    0    0 -0.32821888790E+02  0.11199690885E+03 -0.58948965387E+03  0.60093147363E+03  0.00000000000E+00 0. -1.
         11    1    4    4    0    0  0.24377266006E+02  0.26374288028E+02 -0.67836371585E+02  0.76756937646E+02  0.00000000000E+00 0.  1.
         21    1    1    2  502  501  0.73578067362E+02 -0.18767837395E+03 -0.25030931273E+03  0.32139019289E+03  0.00000000000E+00 0.  1.
<scales pt_clust_5="13000.00000" pt_clust_6="13000.00000" pt_clust_7="13000.00000" pt_clust_8="13000.00000" pt_clust_9="151.10359"></scales>
<clustering>
<clus scale="   78.943">  5  6 -1 -1</clus>
<clus scale="   89.253">  7  8 -1 -1</clus>
<clus scale="  113.602">  1  5  2 -1</clus>
<clus scale="  151.104">  1  9  2 -1</clus>
<clus scale="  175.495">  2  5  1 -1</clus>
</clustering>
</event>
<event>
 9    2  0.3402837E-005  0.1870588E+03  0.7546771E-02  0.1162473E+00
         -1   -1    0    0    0  501 -0.00000000000E+00  0.00000000000E+00  0.64079127592E+02  0.64079127592E+02  0.00000000000E+00 0.  1.
          2   -1    0    0  502    0  0.00000000000E+00 -0.00000000000E+00 -0.77259853178E+03  0.77259853178E+03  0.00000000000E+00 0. -1.
         24    2    1    2    0    0 -0.81382544927E+02 -0.14223656752E+03 -0.15587764508E+03  0.23924436613E+03  0.78010683439E+02 0.  0.
         23    2    1    2    0    0  0.98361329728E+02  0.13125538005E+03 -0.54417804233E+03  0.57551298044E+03  0.90457298929E+02 0.  0.
        -11    1    3    3    0    0 -0.89612870224E+02 -0.10815144397E+03 -0.96921385216E+02  0.17064863391E+03  0.00000000000E+00 0.  1.
         12    1    3    3    0    0  0.82303252973E+01 -0.34085123547E+02 -0.58956259862E+02  0.68595732219E+02  0.00000000000E+00 0. -1.
        -11    1    4    4    0    0  0.76843101138E+01  0.56146645869E+02 -0.90286271565E+02  0.10659786723E+03  0.00000000000E+00 0.  1.
         11    1    4    4    0    0  0.90677019614E+02  0.75108734178E+02 -0.45389177076E+03  0.46891511322E+03  0.00000000000E+00 0. -1.
         21    1    1    2  502  501 -0.16978784802E+02  0.10981187469E+02 -0.84637167789E+01  0.21920312800E+02  0.00000000000E+00 0.  1.
<scales pt_clust_5="13000.00000" pt_clust_6="13000.00000" pt_clust_7="13000.00000" pt_clust_8="13000.00000" pt_clust_9="20.22043"></scales>
<clustering>
<clus scale="   20.220">  1  9  2 -1</clus>
<clus scale="   78.011">  5  6 -1 -1</clus>
<clus scale="   90.457">  7  8 -1 -1</clus>
<clus scale="  181.367">  1  5  2 -1</clus>
<clus scale="  187.059">  2  5  1 -1</clus>
</clustering>
</event>
<event>
 9    2  0.3402837E-005  0.1049667E+03  0.7546771E-02  0.1274363E+00
         -1   -1    0    0    0  501 -0.00000000000E+00  0.00000000000E+00  0.48350538223E+02  0.48350538223E+02  0.00000000000E+00 0.  1.
          2   -1    0    0  502    0  0.00000000000E+00 -0.00000000000E+00 -0.27589538743E+03  0.27589538743E+03  0.00000000000E+00 0. -1.
         24    2    1    2    0    0  0.42936828077E+02  0.52428057119E+02 -0.80078435554E+02  0.13172624815E+03  0.79667912184E+02 0.  0.
         23    2    1    2    0    0 -0.31513850826E+02 -0.34524409980E+02 -0.13261270252E+03  0.16660331733E+03  0.89361506243E+02 0.  0.
        -11    1    3    3    0    0  0.62172284030E+02  0.35382512032E+02 -0.34544299367E+02  0.79439434023E+02  0.00000000000E+00 0.  1.
         12    1    3    3    0    0 -0.19235455953E+02  0.17045545087E+02 -0.45534136187E+02  0.52286814125E+02  0.00000000000E+00 0. -1.
        -13    1    4    4    0    0  0.19687361749E+02 -0.11309598031E+02 -0.15062066961E+00  0.22705107506E+02  0.00000000000E+00 0.  1.
         13    1    4    4    0    0 -0.51201212575E+02 -0.23214811948E+02 -0.13246208185E+03  0.14389820982E+03  0.00000000000E+00 0. -1.
         21    1    1    2  502  501 -0.11422977252E+02 -0.17903647139E+02 -0.14853711133E+02  0.25916360173E+02  0.00000000000E+00 0.  1.
<scales pt_clust_5="13000.00000" pt_clust_6="13000.00000" pt_clust_7="13000.00000" pt_clust_8="13000.00000" pt_clust_9="21.23735"></scales>
<clustering>
<clus scale="   21.237">  1  9  2 -1</clus>
<clus scale="   79.668">  5  6 -1 -1</clus>
<clus scale="   89.362">  7  8 -1 -1</clus>
<clus scale="   96.848">  1  5  2 -1</clus>
<clus scale="  104.967">  2  5  1 -1</clus>
</clustering>
</event>
<event>
 9    2  0.3402837E-005  0.1858557E+03  0.7546771E-02  0.1175743E+00
          2   -1    0    0  502    0  0.00000000000E+00  0.00000000000E+00  0.14921678301E+04  0.14921678301E+04  0.00000000000E+00 0. -1.
         -1   -1    0    0    0  501 -0.00000000000E+00 -0.00000000000E+00 -0.71291763232E+02  0.71291763232E+02  0.00000000000E+00 0.  1.
         23    2    1    2    0    0 -0.51626643083E+02 -0.87266017256E+02  0.57298935362E+02  0.14798138736E+03  0.91294331516E+02 0.  0.
         24    2    1    2    0    0  0.64041531681E+02 -0.11441586353E+03  0.32629855929E+03  0.35870171736E+03  0.70737999981E+02 0.  0.
        -13    1    4    4    0    0  0.75067553908E+02 -0.69760767878E+02  0.23850706955E+03  0.25959068668E+03  0.00000000000E+00 0.  1.
         14    1    4    4    0    0 -0.11026022227E+02 -0.44655095650E+02  0.87791489738E+02  0.99111030688E+02  0.00000000000E+00 0. -1.
        -13    1    3    3    0    0 -0.54485884319E+01 -0.88573767617E+02  0.47881451803E+02  0.10083468080E+03  0.00000000000E+00 0.  1.
         13    1    3    3    0    0 -0.46178054651E+02  0.13077503617E+01  0.94174835590E+01  0.47146706554E+02  0.00000000000E+00 0. -1.
         21    1    1    2  502  501 -0.12414888598E+02  0.20168188078E+03  0.10372785723E+04  0.10567764886E+04  0.00000000000E+00 0. -1.
<scales pt_clust_5="13000.00000" pt_clust_6="13000.00000" pt_clust_7="13000.00000" pt_clust_8="13000.00000" pt_clust_9="171.86762"></scales>
<clustering>
<clus scale="   70.738">  5  6 -1 -1</clus>
<clus scale="   91.294">  7  8 -1 -1</clus>
<clus scale="  136.438">  2  7  1 -1</clus>
<clus scale="  171.868">  1  9  2 -1</clus>
<clus scale="  171.868">  1  5  2 -1</clus>
</clustering>
</event>
<event>
 9    2  0.3402837E-005  0.3444140E+03  0.7546771E-02  0.1112631E+00
         -1   -1    0    0    0  501 -0.00000000000E+00  0.00000000000E+00  0.34790489966E+03  0.34790489966E+03  0.00000000000E+00 0.  1.
          2   -1    0    0  502    0  0.00000000000E+00 -0.00000000000E+00 -0.10295452533E+04  0.10295452533E+04  0.00000000000E+00 0. -1.
         23    2    1    2    0    0 -0.28632695112E+02 -0.21198393424E+02  0.15070110809E+03  0.17935997969E+03  0.90498481881E+02 0.  0.
         24    2    1    2    0    0 -0.24070077094E+03  0.23081617066E+03 -0.78084176246E+03  0.85293463226E+03  0.81059627114E+02 0.  0.
        -11    1    4    4    0    0 -0.87121340386E+02  0.13393077218E+03 -0.32176535205E+03  0.35924994289E+03  0.00000000000E+00 0.  1.
         12    1    4    4    0    0 -0.15357943056E+03  0.96885398474E+02 -0.45907641041E+03  0.49368468937E+03  0.00000000000E+00 0. -1.
        -13    1    3    3    0    0  0.18786380053E+02  0.21099368558E+02  0.21926959636E+02  0.35761753144E+02  0.00000000000E+00 0. -1.
         13    1    3    3    0    0 -0.47419075165E+02 -0.42297761981E+02  0.12877414845E+03  0.14359822655E+03  0.00000000000E+00 0.  1.
         21    1    1    2  502  501  0.26933346605E+03 -0.20961777723E+03 -0.51499699292E+02  0.34515554102E+03  0.00000000000E+00 0.  1.
<scales pt_clust_5="13000.00000" pt_clust_6="13000.00000" pt_clust_7="13000.00000" pt_clust_8="13000.00000" pt_clust_9="334.73918"></scales>
<clustering>
<clus scale="   81.060">  5  6 -1 -1</clus>
<clus scale="   90.498">  7  8 -1 -1</clus>
<clus scale="   97.258">  1  7  2 -1</clus>
<clus scale="  334.739">  1  9  2 -1</clus>
<clus scale="  344.414">  2  5  1 -1</clus>
</clustering>
</event>
<event>
 9    2  0.3402837E-005  0.2198823E+03  0.7546771E-02  0.1134823E+00
         -1   -1    0    0    0  501 -0.00000000000E+00  0.00000000000E+00  0.31211586290E+03  0.31211586290E+03  0.00000000000E+00 0.  1.
          2   -1    0    0  502    0  0.00000000000E+00 -0.00000000000E+00 -0.28521409600E+03  0.28521409600E+03  0.00000000000E+00 0. -1.
         23    2    1    2    0    0 -0.14523388812E+03  0.11073176579E+03  0.19458483739E+03  0.28249627586E+03  0.92663265183E+02 0.  0.
         24    2    1    2    0    0  0.15708236141E+03 -0.12855411564E+03 -0.18567536737E+03  0.28687397596E+03  0.81365269744E+02 0.  0.
        -13    1    4    4    0    0  0.96881709966E+02 -0.28689024962E+02 -0.10015606732E+03  0.14226863217E+03  0.00000000000E+00 0.  1.
         14    1    4    4    0    0  0.60200651440E+02 -0.99865090679E+02 -0.85519300048E+02  0.14460534378E+03  0.00000000000E+00 0. -1.
        -13    1    3    3    0    0 -0.52160108302E+02  0.75068414294E+01  0.10401261620E+03  0.11660040263E+03  0.00000000000E+00 0.  1.
         13    1    3    3    0    0 -0.93073779822E+02  0.10322492436E+03  0.90572221200E+02  0.16589587322E+03  0.00000000000E+00 0. -1.
         21    1    1    2  502  501 -0.11848473283E+02  0.17822349850E+02  0.17992296876E+02  0.27959707083E+02  0.00000000000E+00 0.  1.
<scales pt_clust_5="13000.00000" pt_clust_6="13000.00000" pt_clust_7="13000.00000" pt_clust_8="13000.00000" pt_clust_9="21.40146"></scales>
<clustering>
<clus scale="   21.401">  1  9  2 -1</clus>
<clus scale="   81.365">  5  6 -1 -1</clus>
<clus scale="   92.663">  7  8 -1 -1</clus>
<clus scale="  215.365">  2  5  1 -1</clus>
<clus scale="  215.365">  2  5  1 -1</clus>
</clustering>
</event>
<event>
 9    2  0.3402837E-005  0.1240679E+03  0.7546771E-02  0.1240053E+00
         -1   -1    0    0    0  501 -0.00000000000E+00  0.00000000000E+00  0.42870874958E+03  0.42870874958E+03  0.00000000000E+00 0.  1.
          2   -1    0    0  502    0  0.00000000000E+00 -0.00000000000E+00 -0.90192041382E+03  0.90192041382E+03  0.00000000000E+00 0. -1.
         23    2    1    2    0    0 -0.40867401827E+02 -0.39059853951E+02 -0.39942181040E+02  0.11551496824E+03  0.92479799629E+02 0.  0.
         24    2    1    2    0    0 -0.24971864624E+00  0.87580021362E+02 -0.81726535398E+03  0.82588720095E+03  0.80602030860E+02 0.  0.
        -13    1    4    4    0    0  0.19582065120E+02  0.82388940986E+02 -0.44060028757E+03  0.44866469471E+03  0.00000000000E+00 0.  1.
         14    1    4    4    0    0 -0.19831783766E+02  0.51910803763E+01 -0.37666506641E+03  0.37722250625E+03  0.00000000000E+00 0. -1.
        -13    1    3    3    0    0 -0.26756372016E+02  0.28416274735E+02 -0.95810531811E+01  0.40189360449E+02  0.00000000000E+00 0. -1.
         13    1    3    3    0    0 -0.14111029811E+02 -0.67476128686E+02 -0.30361127859E+02  0.75325607795E+02  0.00000000000E+00 0.  1.
         21    1    1    2  502  501  0.41117120473E+02 -0.48520167411E+02  0.38399587078E+03  0.38922699421E+03  0.00000000000E+00 0.  1.
<scales pt_clust_5="13000.00000" pt_clust_6="13000.00000" pt_clust_7="13000.00000" pt_clust_8="13000.00000" pt_clust_9="63.59893"></scales>
<clustering>
<clus scale="   63.599">  1  9  2 -1</clus>
<clus scale="   80.602">  5  6 -1 -1</clus>
<clus scale="   92.480">  7  8 -1 -1</clus>
<clus scale="  115.486">  2  5  1 -1</clus>
<clus scale="  115.486">  2  5  1 -1</clus>
</clustering>
</event>
<event>
 9    2  0.3402837E-005  0.1177764E+03  0.7546771E-02  0.1250632E+00
         -1   -1    0    0    0  501 -0.00000000000E+00  0.00000000000E+00  0.85860642907E+02  0.85860642907E+02  0.00000000000E+00 0.  1.
          2   -1    0    0  502    0  0.00000000000E+00 -0.00000000000E+00 -0.55339576225E+03  0.55339576225E+03  0.00000000000E+00 0. -1.
         23    2    1    2    0    0  0.18456359081E+02  0.55032770303E+02 -0.98318367515E+02  0.14686668105E+03  0.92380071516E+02 0.  0.
         24    2    1    2    0    0  0.70403410263E+02  0.35879772091E+02 -0.34480704613E+03  0.36294095932E+03  0.81180309632E+02 0.  0.
        -13    1    4    4    0    0  0.71593410789E+01 -0.24640676583E+02 -0.84465190896E+02  0.88276766934E+02  0.00000000000E+00 0.  1.
         14    1    4    4    0    0  0.63244069184E+02  0.60520448674E+02 -0.26034185523E+03  0.27466419239E+03  0.00000000000E+00 0. -1.
        -13    1    3    3    0    0 -0.29562675931E+02 -0.72337155967E+01 -0.29137967698E+02  0.42134304446E+02  0.00000000000E+00 0.  1.
         13    1    3    3    0    0  0.48019035013E+02  0.62266485900E+02 -0.69180399816E+02  0.10473237660E+03  0.00000000000E+00 0. -1.
         21    1    1    2  502  501 -0.88859769344E+02 -0.90912542394E+02 -0.24409705699E+02  0.12944876479E+03  0.00000000000E+00 0.  1.
<scales pt_clust_5="13000.00000" pt_clust_6="13000.00000" pt_clust_7="13000.00000" pt_clust_8="13000.00000" pt_clust_9="85.32895"></scales>
<clustering>
<clus scale="   81.180">  5  6 -1 -1</clus>
<clus scale="   92.380">  7  8 -1 -1</clus>
<clus scale="  109.102">  1  7  2 -1</clus>
<clus scale="   85.329">  1  9  2 -1</clus>
<clus scale="  117.776">  2  5  1 -1</clus>
</clustering>
</event>
<event>
 9    2  0.3402837E-005  0.1157399E+03  0.7546771E-02  0.1256401E+00
          4   -1    0    0  502    0  0.00000000000E+00  0.00000000000E+00  0.21537123858E+03  0.21537123858E+03  0.00000000000E+00 0. -1.
         -3   -1    0    0    0  501 -0.00000000000E+00 -0.00000000000E+00 -0.12279466406E+03  0.12279466406E+03  0.00000000000E+00 0.  1.
         24    2    1    2    0    0  0.68755746793E+02 -0.39057234109E+00 -0.31396738212E+02  0.11200995905E+03  0.82661783741E+02 0.  0.
         23    2    1    2    0    0 -0.29056907816E+02 -0.54556107845E+02  0.10244906373E+03  0.15503331165E+03  0.98584198867E+02 0.  0.
        -11    1    3    3    0    0  0.19848117653E+02 -0.39691985316E+02 -0.17780947396E+02  0.47807568051E+02  0.00000000000E+00 0.  1.
         12    1    3    3    0    0  0.48907629140E+02  0.39301412975E+02 -0.13615790816E+02  0.64202390994E+02  0.00000000000E+00 0. -1.
        -11    1    4    4    0    0  0.21767779180E+02 -0.45331686508E+02  0.88067876271E+02  0.10141375076E+03  0.00000000000E+00 0. -1.
         11    1    4    4    0    0 -0.50824686996E+02 -0.92244213378E+01  0.14381187461E+02  0.53619560890E+02  0.00000000000E+00 0.  1.
         21    1    1    2  502  501 -0.39698838977E+02  0.54946680187E+02  0.21524249004E+02  0.71122631945E+02  0.00000000000E+00 0. -1.
<scales pt_clust_5="13000.00000" pt_clust_6="13000.00000" pt_clust_7="13000.00000" pt_clust_8="13000.00000" pt_clust_9="67.78743"></scales>
<clustering>
<clus scale="   67.787">  1  9  2 -1</clus>
<clus scale="   82.662">  5  6 -1 -1</clus>
<clus scale="   98.584">  7  8 -1 -1</clus>
<clus scale="  102.518">  2  5  1 -1</clus>
<clus scale="   67.787">  1  5  2 -1</clus>
</clustering>
</event>
<event>
 9    2  0.3402837E-005  0.1030289E+03  0.7546771E-02  0.1279178E+00
         -1   -1    0    0    0  501 -0.00000000000E+00  0.00000000000E+00  0.12074935593E+03  0.12074935593E+03  0.00000000000E+00 0.  1.
          2   -1    0    0  502    0  0.00000000000E+00 -0.00000000000E+00 -0.17051910802E+03  0.17051910802E+03  0.00000000000E+00 0. -1.
         24    2    1    2    0    0 -0.15511345282E+01 -0.37926114295E+02  0.18204491005E+02  0.95482337580E+02  0.85701091785E+02 0.  0.
         23    2    1    2    0    0  0.21631266637E+02  0.31740845150E+02 -0.10862073053E+03  0.15003018468E+03  0.96099949367E+02 0.  0.
        -13    1    3    3    0    0 -0.10664879274E+02 -0.64626309642E+02  0.11871380730E+02  0.66567478759E+02  0.00000000000E+00 0.  1.
         14    1    3    3    0    0  0.91137447455E+01  0.26700195347E+02  0.63331102751E+01  0.28914858821E+02  0.00000000000E+00 0. -1.
        -13    1    4    4    0    0  0.22510470931E+02  0.65733495460E+02 -0.73743125406E+02  0.10131960458E+03  0.00000000000E+00 0. -1.
         13    1    4    4    0    0 -0.87920429347E+00 -0.33992650309E+02 -0.34877605119E+02  0.48710580104E+02  0.00000000000E+00 0.  1.
         21    1    1    2  502  501 -0.20080132109E+02  0.61852691450E+01  0.40646487427E+02  0.45755941691E+02  0.00000000000E+00 0. -1.
<scales pt_clust_5="13000.00000" pt_clust_6="13000.00000" pt_clust_7="13000.00000" pt_clust_8="13000.00000" pt_clust_9="21.01117"></scales>
<clustering>
<clus scale="   21.011">  1  9  2 -1</clus>
<clus scale="   85.701">  5  6 -1 -1</clus>
<clus scale="   93.405">  1  5  2 -1</clus>
<clus scale="   96.100">  7  8 -1 -1</clus>
<clus scale="  103.029">  2  5  1 -1</clus>
</clustering>
</event>
<event>
 9    2  0.3402837E-005  0.9668515E+02  0.7546771E-02  0.1294334E+00
          2   -1    0    0  502    0  0.00000000000E+00  0.00000000000E+00  0.75094082910E+02  0.75094082910E+02  0.00000000000E+00 0. -1.
         -1   -1    0    0    0  501 -0.00000000000E+00 -0.00000000000E+00 -0.28793556042E+03  0.28793556042E+03  0.00000000000E+00 0.  1.
         24    2    1    2    0    0  0.29054177390E+02  0.31148104031E+02 -0.62705474579E+02  0.10964056518E+03  0.79213176816E+02 0.  0.
         23    2    1    2    0    0  0.30026884319E+02 -0.29190873409E+02 -0.99792987952E+01  0.10127627686E+03  0.91671025833E+02 0.  0.
        -11    1    3    3    0    0 -0.21895250368E+02  0.57045425430E+01 -0.44380907302E+02  0.49815747784E+02  0.00000000000E+00 0.  1.
         12    1    3    3    0    0  0.50949427758E+02  0.25443561487E+02 -0.18324567278E+02  0.59824817392E+02  0.00000000000E+00 0. -1.
        -11    1    4    4    0    0  0.86257277828E+01 -0.30555388679E+02 -0.48043740337E+02  0.57586768816E+02  0.00000000000E+00 0.  1.
         11    1    4    4    0    0  0.21401156536E+02  0.13645152702E+01  0.38064441541E+02  0.43689508041E+02  0.00000000000E+00 0. -1.
         21    1    1    2  502  501 -0.59081061709E+02 -0.19572306215E+01 -0.14015670414E+03  0.15211280130E+03  0.00000000000E+00 0.  1.
<scales pt_clust_5="13000.00000" pt_clust_6="13000.00000" pt_clust_7="13000.00000" pt_clust_8="13000.00000" pt_clust_9="59.11347"></scales>
<clustering>
<clus scale="   59.113">  2  9  1 -1</clus>
<clus scale="   79.213">  5  6 -1 -1</clus>
<clus scale="   84.966">  2  5  1 -1</clus>
<clus scale="   91.671">  7  8 -1 -1</clus>
<clus scale="   96.685">  1  5  2 -1</clus>
</clustering>
</event>
<event>
 9    2  0.3402837E-005  0.9176505E+02  0.7546771E-02  0.1304138E+00
         -1   -1    0    0    0  501 -0.00000000000E+00  0.00000000000E+00  0.96597166844E+02  0.96597166844E+02  0.00000000000E+00 0.  1.
          2   -1    0    0  502    0  0.00000000000E+00 -0.00000000000E+00 -0.20810542783E+03  0.20810542783E+03  0.00000000000E+00 0. -1.
         24    2    1    2    0    0  0.26874613107E+02 -0.16505463167E+02  0.46638008954E+02  0.96999429484E+02  0.78988038949E+02 0.  0.
         23    2    1    2    0    0 -0.91652036136E+01 -0.16643941952E+02 -0.78396327658E+02  0.11954104442E+03  0.88221626318E+02 0.  0.
        -11    1    3    3    0    0  0.39714747586E+02 -0.37094929148E+02  0.13621719111E+02  0.56025406521E+02  0.00000000000E+00 0.  1.
         12    1    3    3    0    0 -0.12840134478E+02  0.20589465981E+02  0.33016289843E+02  0.40974022963E+02  0.00000000000E+00 0. -1.
        -11    1    4    4    0    0  0.26056343236E+02  0.65132342761E+01 -0.72076089876E+02  0.76917605107E+02  0.00000000000E+00 0. -1.
         11    1    4    4    0    0 -0.35221546850E+02 -0.23157176228E+02 -0.63202377815E+01  0.42623439314E+02  0.00000000000E+00 0.  1.
         21    1    1    2  502  501 -0.17709409493E+02  0.33149405120E+02 -0.79749942281E+02  0.88162120768E+02  0.00000000000E+00 0. -1.
<scales pt_clust_5="13000.00000" pt_clust_6="13000.00000" pt_clust_7="13000.00000" pt_clust_8="13000.00000" pt_clust_9="37.58332"></scales>
<clustering>
<clus scale="   37.583">  2  9  1 -1</clus>
<clus scale="   78.988">  5  6 -1 -1</clus>
<clus scale="   82.927">  1  5  2 -1</clus>
<clus scale="   88.222">  7  8 -1 -1</clus>
<clus scale="   37.583">  2  5  1 -1</clus>
</clustering>
</event>
<event>
 9    2  0.3402837E-005  0.9404985E+02  0.7546771E-02  0.1300761E+00
          2   -1    0    0  502    0  0.00000000000E+00  0.00000000000E+00  0.23705564030E+03  0.23705564030E+03  0.00000000000E+00 0. -1.
         -1   -1    0    0    0  501 -0.00000000000E+00 -0.00000000000E+00 -0.61309865593E+02  0.61309865593E+02  0.00000000000E+00 0.  1.
         24    2    1    2    0    0  0.81549558748E+01 -0.80463424520E+01  0.32053439462E+02  0.84439060971E+02  0.77274090768E+02 0.  0.
         23    2    1    2    0    0 -0.37096512725E+02  0.21399432591E+01  0.15437514682E+03  0.18251590963E+03  0.89998003856E+02 0.  0.
        -11    1    3    3    0    0  0.31753369589E+02 -0.30333163477E+02  0.95427586390E+01  0.44938196773E+02  0.00000000000E+00 0.  1.
         12    1    3    3    0    0 -0.23598413714E+02  0.22286821025E+02  0.22510680823E+02  0.39500864197E+02  0.00000000000E+00 0. -1.
        -13    1    4    4    0    0  0.29341725675E+02  0.85190336779E+01  0.51730499875E+02  0.60079575712E+02  0.00000000000E+00 0.  1.
         13    1    4    4    0    0 -0.66438238401E+02 -0.63790904188E+01  0.10264464695E+03  0.12243633392E+03  0.00000000000E+00 0. -1.
         21    1    1    2  502  501  0.28941556851E+02  0.59063991929E+01 -0.10682811574E+02  0.31410535295E+02  0.00000000000E+00 0.  1.
<scales pt_clust_5="13000.00000" pt_clust_6="13000.00000" pt_clust_7="13000.00000" pt_clust_8="13000.00000" pt_clust_9="29.53810"></scales>
<clustering>
<clus scale="   29.538">  2  9  1 -1</clus>
<clus scale="   77.274">  5  6 -1 -1</clus>
<clus scale="   81.957">  2  5  1 -1</clus>
<clus scale="   89.998">  7  8 -1 -1</clus>
<clus scale="   94.050">  1  5  2 -1</clus>
</clustering>
</event>
<event>
 9    2  0.3402837E-005  0.9760990E+02  0.7546771E-02  0.1291164E+00
          2   -1    0    0  502    0  0.00000000000E+00  0.00000000000E+00  0.15057662610E+03  0.15057662610E+03  0.00000000000E+00 0. -1.
         -1   -1    0    0    0  501 -0.00000000000E+00 -0.00000000000E+00 -0.20456622526E+03  0.20456622526E+03  0.00000000000E+00 0.  1.
         23    2    1    2    0    0  0.23726990323E+02  0.24593006972E+01 -0.25036370043E+02  0.97817879165E+02  0.91501362993E+02 0.  0.
         24    2    1    2    0    0 -0.16514800945E+02 -0.36500428064E+02  0.93591770212E+02  0.12993544794E+03  0.80738970025E+02 0.  0.
        -13    1    4    4    0    0 -0.36895077523E+02  0.71646532072E+01  0.21732470809E+02  0.43415196516E+02  0.00000000000E+00 0.  1.
         14    1    4    4    0    0  0.20380276578E+02 -0.43665081271E+02  0.71859299403E+02  0.86520251424E+02  0.00000000000E+00 0. -1.
        -11    1    3    3    0    0 -0.15039912515E+02 -0.36233759853E+02 -0.52491368742E+01  0.39580775125E+02  0.00000000000E+00 0. -1.
         11    1    3    3    0    0  0.38766902838E+02  0.38693060551E+02 -0.19787233169E+02  0.58237104040E+02  0.00000000000E+00 0.  1.
         21    1    1    2  502  501 -0.72121893776E+01  0.34041127366E+02 -0.12254499933E+03  0.12738952425E+03  0.00000000000E+00 0.  1.
<scales pt_clust_5="13000.00000" pt_clust_6="13000.00000" pt_clust_7="13000.00000" pt_clust_8="13000.00000" pt_clust_9="34.79675"></scales>
<clustering>
<clus scale="   34.797">  2  9  1 -1</clus>
<clus scale="   80.739">  5  6 -1 -1</clus>
<clus scale="   87.601">  1  5  2 -1</clus>
<clus scale="   91.501">  7  8 -1 -1</clus>
<clus scale="   87.601">  1  5  2 -1</clus>
</clustering>
</event>
<event>
 9    2  0.3402837E-005  0.1236760E+03  0.7546771E-02  0.1239495E+00
          2   -1    0    0  502    0  0.00000000000E+00  0.00000000000E+00  0.56750410265E+03  0.56750410265E+03  0.00000000000E+00 0. -1.
         -1   -1    0    0    0  501 -0.00000000000E+00 -0.00000000000E+00 -0.11312090004E+03  0.11312090004E+03  0.00000000000E+00 0.  1.
         23    2    1    2    0    0  0.16796611726E+02  0.53725551528E+02 -0.53423030290E+02  0.11879965980E+03  0.89948751800E+02 0.  0.
         24    2    1    2    0    0 -0.79825870230E+01 -0.86895710436E+02  0.51330753888E+03  0.52706601550E+03  0.81849673378E+02 0.  0.
        -11    1    4    4    0    0 -0.74235196153E+01 -0.64598778637E+02  0.15528573388E+03  0.16835014105E+03  0.00000000000E+00 0.  1.
         12    1    4    4    0    0 -0.55906740774E+00 -0.22296931799E+02  0.35802180501E+03  0.35871587445E+03  0.00000000000E+00 0. -1.
        -11    1    3    3    0    0  0.37783785178E+02 -0.89314484584E+01 -0.11296477307E+02  0.40435078749E+02  0.00000000000E+00 0. -1.
         11    1    3    3    0    0 -0.20987173452E+02  0.62656999986E+02 -0.42126552983E+02  0.78364581049E+02  0.00000000000E+00 0.  1.
         21    1    1    2  502  501 -0.88140247026E+01  0.33170158909E+02 -0.55013059842E+01  0.34759327396E+02  0.00000000000E+00 0.  1.
<scales pt_clust_5="13000.00000" pt_clust_6="13000.00000" pt_clust_7="13000.00000" pt_clust_8="13000.00000" pt_clust_9="34.32122"></scales>
<clustering>
<clus scale="   34.321">  2  9  1 -1</clus>
<clus scale="   81.850">  5  6 -1 -1</clus>
<clus scale="   89.949">  7  8 -1 -1</clus>
<clus scale="  117.917">  1  5  2 -1</clus>
<clus scale="  117.917">  1  5  2 -1</clus>
</clustering>
</event>
<event>
 9    2  0.3402837E-005  0.2737524E+03  0.7546771E-02  0.1115738E+00
         -1   -1    0    0    0  501 -0.00000000000E+00  0.00000000000E+00  0.11492966256E+03  0.11492966256E+03  0.00000000000E+00 0.  1.
          2   -1    0    0  502    0  0.00000000000E+00 -0.00000000000E+00 -0.23674196026E+04  0.23674196026E+04  0.00000000000E+00 0. -1.
         23    2    1    2    0    0 -0.18684116723E+02  0.32871108842E+03 -0.16477679792E+04  0.16827865510E+04  0.90725889992E+02 0.  0.
         24    2    1    2    0    0  0.12665367161E+03 -0.98840786603E+02 -0.48847320705E+03  0.52025723049E+03  0.79062369271E+02 0.  0.
        -13    1    4    4    0    0  0.65096383371E+02 -0.10371805035E+02 -0.12741709350E+03  0.14345810951E+03  0.00000000000E+00 0.  1.
         14    1    4    4    0    0  0.61557288240E+02 -0.88468981568E+02 -0.36105611355E+03  0.37679912098E+03  0.00000000000E+00 0. -1.
        -13    1    3    3    0    0  0.35430765080E+02  0.10804156949E+03 -0.50342543695E+03  0.51610608446E+03  0.00000000000E+00 0.  1.
         13    1    3    3    0    0 -0.54114881804E+02  0.22066951893E+03 -0.11443425422E+04  0.11666804665E+04  0.00000000000E+00 0. -1.
         21    1    1    2  502  501 -0.10796955489E+03 -0.22987030182E+03 -0.11624875378E+03  0.27930548365E+03  0.00000000000E+00 0.  1.
<scales pt_clust_5="13000.00000" pt_clust_6="13000.00000" pt_clust_7="13000.00000" pt_clust_8="13000.00000" pt_clust_9="258.28127"></scales>
<clustering>
<clus scale="   79.062">  5  6 -1 -1</clus>
<clus scale="   90.726">  7  8 -1 -1</clus>
<clus scale="  179.057">  2  5  1 -1</clus>
<clus scale="  258.281">  1  9  2 -1</clus>
<clus scale="  179.057">  2  5  1 -1</clus>
</clustering>
</event>
<event>
 9    2  0.3402837E-005  0.2245055E+03  0.7546771E-02  0.1161043E+00
         -3   -1    0    0    0  501 -0.00000000000E+00  0.00000000000E+00  0.16948462831E+03  0.16948462831E+03  0.00000000000E+00 0.  1.
          4   -1    0    0  502    0  0.00000000000E+00 -0.00000000000E+00 -0.14967645875E+04  0.14967645875E+04  0.00000000000E+00 0. -1.
         24    2    1    2    0    0  0.47617723162E+02 -0.56807423944E+02  0.11113851806E+03  0.15528316560E+03  0.79161609054E+02 0.  0.
         23    2    1    2    0    0 -0.23786411609E+03  0.38971463869E+02 -0.63936834943E+03  0.68938652378E+03  0.91453705199E+02 0.  0.
        -13    1    3    3    0    0  0.65838907333E+02 -0.57445494433E+02  0.76474691552E+02  0.11611685923E+03  0.00000000000E+00 0.  1.
         14    1    3    3    0    0 -0.18221184171E+02  0.63807048857E+00  0.34663826506E+02  0.39166306369E+02  0.00000000000E+00 0. -1.
        -13    1    4    4    0    0 -0.14173197019E+03  0.17418386810E+02 -0.49056055275E+03  0.51092172344E+03  0.00000000000E+00 0. -1.
         13    1    4    4    0    0 -0.96132145897E+02  0.21553077058E+02 -0.14880779669E+03  0.17846480034E+03  0.00000000000E+00 0.  1.
         21    1    1    2  502  501  0.19024639293E+03  0.17835960075E+02 -0.79905012781E+03  0.82157952643E+03  0.00000000000E+00 0. -1.
<scales pt_clust_5="13000.00000" pt_clust_6="13000.00000" pt_clust_7="13000.00000" pt_clust_8="13000.00000" pt_clust_9="205.03401"></scales>
<clustering>
<clus scale="   79.162">  5  6 -1 -1</clus>
<clus scale="   91.454">  7  8 -1 -1</clus>
<clus scale="  108.449">  1  5  2 -1</clus>
<clus scale="  205.034">  2  9  1 -1</clus>
<clus scale="  205.034">  2  5  1 -1</clus>
</clustering>
</event>
<event>
 9    2  0.3402837E-005  0.1071887E+03  0.7546771E-02  0.1266257E+00
         -1   -1    0    0    0  501 -0.00000000000E+00  0.00000000000E+00  0.89758805284E+02  0.89758805284E+02  0.00000000000E+00 0.  1.
          2   -1    0    0  502    0  0.00000000000E+00 -0.00000000000E+00 -0.40487902737E+03  0.40487902737E+03  0.00000000000E+00 0. -1.
         23    2    1    2    0    0 -0.17316927624E+02 -0.21875643502E+02  0.38123342776E+02  0.10383138101E+03  0.92461595580E+02 0.  0.
         24    2    1    2    0    0  0.41922304879E+02  0.39128099211E+02 -0.34212079192E+03  0.35876292038E+03  0.91518899584E+02 0.  0.
        -13    1    4    4    0    0 -0.18433970994E+02 -0.17345747744E+02 -0.83968597663E+02  0.87700693526E+02  0.00000000000E+00 0.  1.
         14    1    4    4    0    0  0.60356275874E+02  0.56473846954E+02 -0.25815219426E+03  0.27106222686E+03  0.00000000000E+00 0. -1.
        -13    1    3    3    0    0 -0.33364117558E+02  0.16144106156E+01 -0.20132081084E+02  0.39000914743E+02  0.00000000000E+00 0.  1.
         13    1    3    3    0    0  0.16047189934E+02 -0.23490054118E+02  0.58255423861E+02  0.64830466267E+02  0.00000000000E+00 0. -1.
         21    1    1    2  502  501 -0.24605377256E+02 -0.17252455708E+02 -0.11122772939E+02  0.32043531262E+02  0.00000000000E+00 0.  1.
<scales pt_clust_5="13000.00000" pt_clust_6="13000.00000" pt_clust_7="13000.00000" pt_clust_8="13000.00000" pt_clust_9="30.05115"></scales>
<clustering>
<clus scale="   30.051">  1  9  2 -1</clus>
<clus scale="   91.519">  5  6 -1 -1</clus>
<clus scale="   92.462">  7  8 -1 -1</clus>
<clus scale="  106.377">  2  5  1 -1</clus>
<clus scale="  106.377">  2  5  1 -1</clus>
</clustering>
</event>
<event>
 9    2  0.3402837E-005  0.1082388E+03  0.7546771E-02  0.1268263E+00
          2   -1    0    0  502    0  0.00000000000E+00  0.00000000000E+00  0.64099899753E+03  0.64099899753E+03  0.00000000000E+00 0. -1.
         -1   -1    0    0    0  501 -0.00000000000E+00 -0.00000000000E+00 -0.32600861832E+02  0.32600861832E+02  0.00000000000E+00 0.  1.
         23    2    1    2    0    0 -0.16719931941E+02 -0.66736661404E+02  0.24631764972E+03  0.27151223913E+03  0.91176605182E+02 0.  0.
         24    2    1    2    0    0 -0.77069665595E+01  0.54044291921E+02  0.36172179643E+03  0.37455766798E+03  0.80440075850E+02 0.  0.
        -11    1    4    4    0    0  0.12107015574E+02  0.25761931579E+02  0.31188327901E+02  0.42225214530E+02  0.00000000000E+00 0.  1.
         12    1    4    4    0    0 -0.19813982134E+02  0.28282360341E+02  0.33053346853E+03  0.33233245345E+03  0.00000000000E+00 0. -1.
        -13    1    3    3    0    0 -0.41595958772E+02 -0.76730399412E+02  0.19384272996E+03  0.21258594013E+03  0.00000000000E+00 0.  1.
         13    1    3    3    0    0  0.24876026831E+02  0.99937380081E+01  0.52474919757E+02  0.58926298999E+02  0.00000000000E+00 0. -1.
         21    1    1    2  502  501  0.24426898500E+02  0.12692369483E+02  0.35868954914E+00  0.27529952263E+02  0.00000000000E+00 0. -1.
<scales pt_clust_5="13000.00000" pt_clust_6="13000.00000" pt_clust_7="13000.00000" pt_clust_8="13000.00000" pt_clust_9="27.52762"></scales>
<clustering>
<clus scale="   27.528">  2  9  1 -1</clus>
<clus scale="   80.440">  5  6 -1 -1</clus>
<clus scale="   91.177">  7  8 -1 -1</clus>
<clus scale="   99.363">  1  5  2 -1</clus>
<clus scale="   99.363">  1  5  2 -1</clus>
</clustering>
</event>
<event>
 9    2  0.3402837E-005  0.9150995E+02  0.7546771E-02  0.1302659E+00
          2   -1    0    0  502    0  0.00000000000E+00  0.00000000000E+00  0.39519047182E+03  0.39519047182E+03  0.00000000000E+00 0. -1.
         -1   -1    0    0    0  501 -0.00000000000E+00 -0.00000000000E+00 -0.10626288095E+03  0.10626288095E+03  0.00000000000E+00 0.  1.
         23    2    1    2    0    0  0.49970129439E+01 -0.93702536357E+01  0.25913404134E+02  0.78947319803E+02  0.73813298251E+02 0.  0.
         24    2    1    2    0    0  0.11817282290E+02  0.51998851331E+02  0.32863512030E+03  0.34246838690E+03  0.80249766536E+02 0.  0.
        -11    1    4    4    0    0  0.44678413679E+02  0.42763671248E+02  0.19701095123E+03  0.20649021074E+03  0.00000000000E+00 0.  1.
         12    1    4    4    0    0 -0.32861131389E+02  0.92351800822E+01  0.13162416908E+03  0.13597817616E+03  0.00000000000E+00 0. -1.
        -13    1    3    3    0    0 -0.54933528852E+01  0.19992345236E+02  0.39751980228E+02  0.44834035352E+02  0.00000000000E+00 0. -1.
         13    1    3    3    0    0  0.10490365829E+02 -0.29362598871E+02 -0.13838576094E+02  0.34113284451E+02  0.00000000000E+00 0.  1.
         21    1    1    2  502  501 -0.16814295234E+02 -0.42628597695E+02 -0.65620933570E+02  0.80037646069E+02  0.00000000000E+00 0.  1.
<scales pt_clust_5="13000.00000" pt_clust_6="13000.00000" pt_clust_7="13000.00000" pt_clust_8="13000.00000" pt_clust_9="45.82486"></scales>
<clustering>
<clus scale="   45.825">  2  9  1 -1</clus>
<clus scale="   73.813">  7  8 -1 -1</clus>
<clus scale="   80.250">  5  6 -1 -1</clus>
<clus scale="   85.921">  2  7  1 -1</clus>
<clus scale="   91.510">  1  5  2 -1</clus>
</clustering>
</event>
<event>
 9    2  0.3402837E-005  0.1164430E+03  0.7546771E-02  0.1252605E+00
         -1   -1    0    0    0  501 -0.00000000000E+00  0.00000000000E+00  0.28437811602E+02  0.28437811602E+02  0.00000000000E+00 0.  1.
          2   -1    0    0  502    0  0.00000000000E+00 -0.00000000000E+00 -0.92241001580E+03  0.92241001580E+03  0.00000000000E+00 0. -1.
         23    2    1    2    0    0  0.36304161205E+02  0.68665869114E+02 -0.24418214522E+03  0.27220659679E+03  0.91861404233E+02 0.  0.
         24    2    1    2    0    0  0.30177627617E+02 -0.71716339704E+02 -0.52747455238E+03  0.53939247202E+03  0.81614415848E+02 0.  0.
        -11    1    4    4    0    0  0.48668970245E+01 -0.39929846841E+02 -0.75079620464E+02  0.85176456632E+02  0.00000000000E+00 0.  1.
         12    1    4    4    0    0  0.25310730593E+02 -0.31786492864E+02 -0.45239493192E+03  0.45421601539E+03  0.00000000000E+00 0. -1.
        -13    1    3    3    0    0 -0.20294956914E+02  0.44241421428E+02 -0.16397844286E+03  0.17105004639E+03  0.00000000000E+00 0.  1.
         13    1    3    3    0    0  0.56599118119E+02  0.24424447685E+02 -0.80203702367E+02  0.10115655041E+03  0.00000000000E+00 0. -1.
         21    1    1    2  502  501 -0.66481788822E+02  0.30504705908E+01 -0.12231550659E+03  0.13924875858E+03  0.00000000000E+00 0.  1.
<scales pt_clust_5="13000.00000" pt_clust_6="13000.00000" pt_clust_7="13000.00000" pt_clust_8="13000.00000" pt_clust_9="66.55174"></scales>
<clustering>
<clus scale="   66.552">  1  9  2 -1</clus>
<clus scale="   81.614">  5  6 -1 -1</clus>
<clus scale="   91.861">  7  8 -1 -1</clus>
<clus scale="  108.542">  2  5  1 -1</clus>
<clus scale="  108.542">  2  5  1 -1</clus>
</clustering>
</event>
<event>
 9    2  0.3402837E-005  0.1706243E+03  0.7546771E-02  0.1178742E+00
         -1   -1    0    0    0  501 -0.00000000000E+00  0.00000000000E+00  0.48351374031E+02  0.48351374031E+02  0.00000000000E+00 0.  1.
          2   -1    0    0  502    0  0.00000000000E+00 -0.00000000000E+00 -0.69545930199E+03  0.69545930199E+03  0.00000000000E+00 0. -1.
         23    2    1    2    0    0 -0.78614723910E+02  0.10613396398E+03 -0.24000710999E+03  0.28888646014E+03  0.91691225770E+02 0.  0.
         24    2    1    2    0    0  0.93419392991E+02 -0.12068281334E+03 -0.39473611083E+03  0.43076364413E+03  0.80306883245E+02 0.  0.
        -11    1    4    4    0    0  0.13011699722E+02 -0.81717202704E+02 -0.17598898269E+03  0.19447140555E+03  0.00000000000E+00 0.  1.
         12    1    4    4    0    0  0.80407693269E+02 -0.38965610634E+02 -0.21874712813E+03  0.23629223858E+03  0.00000000000E+00 0. -1.
        -11    1    3    3    0    0 -0.97494826613E+02  0.88874416705E+02 -0.17597857261E+03  0.21993717552E+03  0.00000000000E+00 0.  1.
         11    1    3    3    0    0  0.18880102703E+02  0.17259547277E+02 -0.64028537378E+02  0.68949284616E+02  0.00000000000E+00 0. -1.
         21    1    1    2  502  501 -0.14804669082E+02  0.14548849356E+02 -0.12364707149E+02  0.24160571746E+02  0.00000000000E+00 0. -1.
<scales pt_clust_5="13000.00000" pt_clust_6="13000.00000" pt_clust_7="13000.00000" pt_clust_8="13000.00000" pt_clust_9="20.75686"></scales>
<clustering>
<clus scale="   20.757">  1  9  2 -1</clus>
<clus scale="   80.307">  5  6 -1 -1</clus>
<clus scale="   91.691">  7  8 -1 -1</clus>
<clus scale="  164.786">  2  5  1 -1</clus>
<clus scale="  164.786">  2  5  1 -1</clus>
</clustering>
</event>
<event>
 9    2  0.3402837E-005  0.1020290E+03  0.7546771E-02  0.1283541E+00
          2   -1    0    0  502    0  0.00000000000E+00  0.00000000000E+00  0.54285970153E+03  0.54285970153E+03  0.00000000000E+00 0. -1.
         -1   -1    0    0    0  501 -0.00000000000E+00 -0.00000000000E+00 -0.63357314669E+02  0.63357314669E+02  0.00000000000E+00 0.  1.
         23    2    1    2    0    0  0.13552562439E+02  0.99039277208E+01  0.92977963411E+02  0.13375329187E+03  0.94674609438E+02 0.  0.
         24    2    1    2    0    0 -0.19250142291E+02 -0.39067746557E+02  0.41880689142E+03  0.42858721029E+03  0.79943278170E+02 0.  0.
        -13    1    4    4    0    0  0.14504866632E+02 -0.43135051842E+02  0.12898205418E+03  0.13677497634E+03  0.00000000000E+00 0.  1.
         14    1    4    4    0    0 -0.33755008924E+02  0.40673052847E+01  0.28982483724E+03  0.29181223395E+03  0.00000000000E+00 0. -1.
        -11    1    3    3    0    0  0.49395362333E+02  0.12076917423E+02  0.24529242036E+02  0.56457395169E+02  0.00000000000E+00 0.  1.
         11    1    3    3    0    0 -0.35842799893E+02 -0.21729897025E+01  0.68448721374E+02  0.77295896697E+02  0.00000000000E+00 0. -1.
         21    1    1    2  502  501  0.56975798520E+01  0.29163818836E+02 -0.32282467976E+02  0.43876514035E+02  0.00000000000E+00 0.  1.
<scales pt_clust_5="13000.00000" pt_clust_6="13000.00000" pt_clust_7="13000.00000" pt_clust_8="13000.00000" pt_clust_9="29.71516"></scales>
<clustering>
<clus scale="   29.715">  2  9  1 -1</clus>
<clus scale="   79.943">  5  6 -1 -1</clus>
<clus scale="   88.530">  1  5  2 -1</clus>
<clus scale="   94.675">  7  8 -1 -1</clus>
<clus scale="   88.530">  1  5  2 -1</clus>
</clustering>
</event>
<event>
 9    2  0.3402837E-005  0.8954500E+02  0.7546771E-02  0.1309287E+00
          2   -1    0    0  502    0  0.00000000000E+00  0.00000000000E+00  0.19209815215E+03  0.19209815215E+03  0.00000000000E+00 0. -1.
         -1   -1    0    0    0  501 -0.00000000000E+00 -0.00000000000E+00 -0.14374532096E+03  0.14374532096E+03  0.00000000000E+00 0.  1.
         24    2    1    2    0    0  0.79771966161E+01  0.28613711670E+02 -0.41095305561E+02  0.95716993555E+02  0.81182131991E+02 0.  0.
         23    2    1    2    0    0  0.52727339886E+01  0.59451938807E+01  0.14665871996E+03  0.17198743461E+03  0.89486035046E+02 0.  0.
        -13    1    3    3    0    0 -0.28676211909E+02  0.62492225094E+01  0.80730881707E+01  0.30439327588E+02  0.00000000000E+00 0.  1.
         14    1    3    3    0    0  0.36653408525E+02  0.22364489160E+02 -0.49168393732E+02  0.65277665967E+02  0.00000000000E+00 0. -1.
        -11    1    4    4    0    0 -0.23100238132E+01  0.46205959208E+02  0.98051878483E+02  0.10841816153E+03  0.00000000000E+00 0.  1.
         11    1    4    4    0    0  0.75827578018E+01 -0.40260765328E+02  0.48606841481E+02  0.63569273076E+02  0.00000000000E+00 0. -1.
         21    1    1    2  502  501 -0.13249930605E+02 -0.34558905550E+02 -0.57210583216E+02  0.68139044943E+02  0.00000000000E+00 0.  1.
<scales pt_clust_5="13000.00000" pt_clust_6="13000.00000" pt_clust_7="13000.00000" pt_clust_8="13000.00000" pt_clust_9="37.01187"></scales>
<clustering>
<clus scale="   37.012">  2  9  1 -1</clus>
<clus scale="   81.182">  5  6 -1 -1</clus>
<clus scale="   81.247">  2  5  1 -1</clus>
<clus scale="   89.486">  7  8 -1 -1</clus>
<clus scale="   89.545">  1  5  2 -1</clus>
</clustering>
</event>
<event>
 9    2  0.3402837E-005  0.1492235E+03  0.7546771E-02  0.1203756E+00
         -1   -1    0    0    0  501 -0.00000000000E+00  0.00000000000E+00  0.34632275583E+03  0.34632275583E+03  0.00000000000E+00 0.  1.
          2   -1    0    0  502    0  0.00000000000E+00 -0.00000000000E+00 -0.20400065027E+03  0.20400065027E+03  0.00000000000E+00 0. -1.
         23    2    1    2    0    0  0.11394410830E+03 -0.80539626617E+02  0.23789417861E+03  0.29136138249E+03  0.93957031227E+02 0.  0.
         24    2    1    2    0    0 -0.89868213690E+02  0.69215159275E+02 -0.14584812045E+03  0.20207992446E+03  0.81838789843E+02 0.  0.
        -11    1    4    4    0    0 -0.60038167974E+02  0.23426039848E+01 -0.96852517736E+02  0.11397578514E+03  0.00000000000E+00 0.  1.
         12    1    4    4    0    0 -0.29830045716E+02  0.66872555290E+02 -0.48995602717E+02  0.88104139313E+02  0.00000000000E+00 0. -1.
        -13    1    3    3    0    0  0.18942110848E+02 -0.48144355042E+02  0.14740326259E+03  0.15621909072E+03  0.00000000000E+00 0.  1.
         13    1    3    3    0    0  0.95001997454E+02 -0.32395271576E+02  0.90490916027E+02  0.13514229177E+03  0.00000000000E+00 0. -1.
         21    1    1    2  502  501 -0.24075894613E+02  0.11324467343E+02  0.50276047400E+02  0.56882099154E+02  0.00000000000E+00 0.  1.
<scales pt_clust_5="13000.00000" pt_clust_6="13000.00000" pt_clust_7="13000.00000" pt_clust_8="13000.00000" pt_clust_9="26.60624"></scales>
<clustering>
<clus scale="   26.606">  1  9  2 -1</clus>
<clus scale="   81.839">  5  6 -1 -1</clus>
<clus scale="   93.957">  7  8 -1 -1</clus>
<clus scale="  141.906">  2  5  1 -1</clus>
<clus scale="  141.906">  2  5  1 -1</clus>
</clustering>
</event>
<event>
 9    2  0.3402837E-005  0.9707200E+02  0.7546771E-02  0.1291866E+00
          2   -1    0    0  502    0  0.00000000000E+00  0.00000000000E+00  0.15694318255E+03  0.15694318255E+03  0.00000000000E+00 0. -1.
         -1   -1    0    0    0  501 -0.00000000000E+00 -0.00000000000E+00 -0.11339394205E+03  0.11339394205E+03  0.00000000000E+00 0.  1.
         23    2    1    2    0    0  0.21169379153E+02  0.27767154081E+02 -0.60543524610E+02  0.11526256140E+03  0.91655781207E+02 0.  0.
         24    2    1    2    0    0  0.37592259571E+01 -0.26482377853E+02  0.95653446990E+02  0.12872483658E+03  0.81884391149E+02 0.  0.
        -13    1    4    4    0    0 -0.76249316211E+01  0.28378338625E+02  0.41099288020E+02  0.50523471388E+02  0.00000000000E+00 0.  1.
         14    1    4    4    0    0  0.11384157578E+02 -0.54860716479E+02  0.54554158971E+02  0.78201365188E+02  0.00000000000E+00 0. -1.
        -13    1    3    3    0    0 -0.24183572650E+02 -0.20558623473E+02 -0.17643562879E+02  0.36315251566E+02  0.00000000000E+00 0. -1.
         13    1    3    3    0    0  0.45352951803E+02  0.48325777554E+02 -0.42899961731E+02  0.78947309833E+02  0.00000000000E+00 0.  1.
         21    1    1    2  502  501 -0.24928605110E+02 -0.12847762277E+01  0.84393181241E+01  0.26349726622E+02  0.00000000000E+00 0.  1.
<scales pt_clust_5="13000.00000" pt_clust_6="13000.00000" pt_clust_7="13000.00000" pt_clust_8="13000.00000" pt_clust_9="24.96169"></scales>
<clustering>
<clus scale="   24.962">  1  9  2 -1</clus>
<clus scale="   81.884">  5  6 -1 -1</clus>
<clus scale="   87.905">  1  5  2 -1</clus>
<clus scale="   91.656">  7  8 -1 -1</clus>
<clus scale="   24.962">  1  5  2 -1</clus>
</clustering>
</event>
<event>
 9    2  0.3402837E-005  0.9487265E+02  0.7546771E-02  0.1297149E+00
         -1   -1    0    0    0  501 -0.00000000000E+00  0.00000000000E+00  0.26563976056E+02  0.26563976056E+02  0.00000000000E+00 0.  1.
          2   -1    0    0  502    0  0.00000000000E+00 -0.00000000000E+00 -0.73896075601E+03  0.73896075601E+03  0.00000000000E+00 0. -1.
         23    2    1    2    0    0  0.72481827231E+01  0.18651538692E+02 -0.12190710412E+03  0.15358765574E+03  0.91254643245E+02 0.  0.
         24    2    1    2    0    0  0.13001199018E+02 -0.25183259596E+02 -0.58308495056E+03  0.58940863218E+03  0.81309583576E+02 0.  0.
        -11    1    4    4    0    0  0.33517157797E+02 -0.84881685469E+01 -0.10405436901E+03  0.10964834965E+03  0.00000000000E+00 0.  1.
         12    1    4    4    0    0 -0.20515958779E+02 -0.16695091049E+02 -0.47903058155E+03  0.47976028253E+03  0.00000000000E+00 0. -1.
        -11    1    3    3    0    0 -0.68393478318E+00  0.40538155416E+02 -0.13535181570E+02  0.42743548653E+02  0.00000000000E+00 0.  1.
         11    1    3    3    0    0  0.79321175063E+01 -0.21886616724E+02 -0.10837192255E+03  0.11084410709E+03  0.00000000000E+00 0. -1.
         21    1    1    2  502  501 -0.20249381741E+02  0.65317209040E+01 -0.74047252706E+01  0.22528444136E+02  0.00000000000E+00 0. -1.
<scales pt_clust_5="13000.00000" pt_clust_6="13000.00000" pt_clust_7="13000.00000" pt_clust_8="13000.00000" pt_clust_9="21.27677"></scales>
<clustering>
<clus scale="   21.277">  1  9  2 -1</clus>
<clus scale="   81.310">  5  6 -1 -1</clus>
<clus scale="   85.350">  2  5  1 -1</clus>
<clus scale="   91.255">  7  8 -1 -1</clus>
<clus scale="   85.350">  2  5  1 -1</clus>
</clustering>
</event>
<event>
 9    2  0.3402837E-005  0.1756129E+03  0.7546771E-02  0.1189800E+00
          2   -1    0    0  502    0  0.00000000000E+00  0.00000000000E+00  0.37947784735E+03  0.37947784735E+03  0.00000000000E+00 0. -1.
         -1   -1    0    0    0  501 -0.00000000000E+00 -0.00000000000E+00 -0.16156211521E+03  0.16156211521E+03  0.00000000000E+00 0.  1.
         23    2    1    2    0    0  0.34930762740E+02 -0.14249737389E+03  0.12649912479E+03  0.21358741898E+03  0.89954973301E+02 0.  0.
         24    2    1    2    0    0 -0.86261749626E+02 -0.83202189202E+01  0.11684071165E+03  0.16612306211E+03  0.80217232395E+02 0.  0.
        -11    1    4    4    0    0 -0.26869690438E+02 -0.18747694516E+02 -0.20362381526E+01  0.32826857597E+02  0.00000000000E+00 0.  1.
         12    1    4    4    0    0 -0.59392059188E+02  0.10427475596E+02  0.11887694980E+03  0.13329620451E+03  0.00000000000E+00 0. -1.
        -13    1    3    3    0    0  0.60019146464E+02 -0.13123734781E+03  0.11064049124E+03  0.18184294791E+03  0.00000000000E+00 0. -1.
         13    1    3    3    0    0 -0.25088383725E+02 -0.11260026078E+02  0.15858633549E+02  0.31744471066E+02  0.00000000000E+00 0.  1.
         21    1    1    2  502  501  0.51330986886E+02  0.15081759281E+03 -0.25424104298E+02  0.16132948148E+03  0.00000000000E+00 0.  1.
<scales pt_clust_5="13000.00000" pt_clust_6="13000.00000" pt_clust_7="13000.00000" pt_clust_8="13000.00000" pt_clust_9="150.82439"></scales>
<clustering>
<clus scale="   80.217">  5  6 -1 -1</clus>
<clus scale="   89.955">  7  8 -1 -1</clus>
<clus scale="  118.089">  1  5  2 -1</clus>
<clus scale="  150.824">  2  9  1 -1</clus>
<clus scale="  118.089">  1  5  2 -1</clus>
</clustering>
</event>
<event>
 9    2  0.3402837E-005  0.9433788E+02  0.7546771E-02  0.1295073E+00
          2   -1    0    0  502    0  0.00000000000E+00  0.00000000000E+00  0.24908411782E+03  0.24908411782E+03  0.00000000000E+00 0. -1.
         -1   -1    0    0    0  501 -0.00000000000E+00 -0.00000000000E+00 -0.11772997661E+03  0.11772997661E+03  0.00000000000E+00 0.  1.
         24    2    1    2    0    0 -0.27653631979E+02 -0.60964733581E+02 -0.36933378205E+02  0.11891946336E+03  0.91084259006E+02 0.  0.
         23    2    1    2    0    0 -0.14039975453E+02  0.17399914003E+02  0.16466477496E+03  0.18748457657E+03  0.86810716064E+02 0.  0.
        -13    1    3    3    0    0  0.17542417422E+02 -0.38716858537E+02 -0.51217854074E+02  0.66558246071E+02  0.00000000000E+00 0.  1.
         14    1    3    3    0    0 -0.45196049401E+02 -0.22247875043E+02  0.14284475870E+02  0.52361217292E+02  0.00000000000E+00 0. -1.
        -13    1    4    4    0    0  0.33151114207E+02 -0.10297729652E+02  0.70268432891E+02  0.78375329474E+02  0.00000000000E+00 0.  1.
         13    1    4    4    0    0 -0.47191089660E+02  0.27697643655E+02  0.94396342064E+02  0.10910924710E+03  0.00000000000E+00 0. -1.
         21    1    1    2  502  501  0.41693607432E+02  0.43564819577E+02  0.36227444595E+01  0.60410054485E+02  0.00000000000E+00 0.  1.
<scales pt_clust_5="13000.00000" pt_clust_6="13000.00000" pt_clust_7="13000.00000" pt_clust_8="13000.00000" pt_clust_9="60.30133"></scales>
<clustering>
<clus scale="   60.301">  2  9  1 -1</clus>
<clus scale="   86.811">  7  8 -1 -1</clus>
<clus scale="   90.219">  1  7  2 -1</clus>
<clus scale="   91.084">  5  6 -1 -1</clus>
<clus scale="   90.219">  1  5  2 -1</clus>
</clustering>
</event>
<event>
 9    2  0.3402837E-005  0.9945618E+02  0.7546771E-02  0.1283898E+00
         -1   -1    0    0    0  501 -0.00000000000E+00  0.00000000000E+00  0.10167154470E+03  0.10167154470E+03  0.00000000000E+00 0.  1.
          2   -1    0    0  502    0  0.00000000000E+00 -0.00000000000E+00 -0.32754827628E+03  0.32754827628E+03  0.00000000000E+00 0. -1.
         23    2    1    2    0    0 -0.30427345201E+02 -0.58586054176E+01  0.88721599300E+00  0.94312890745E+02  0.89072934245E+02 0.  0.
         24    2    1    2    0    0 -0.41793005750E+02  0.40021515127E+02 -0.23342454911E+03  0.25473681671E+03  0.83996718130E+02 0.  0.
        -11    1    4    4    0    0  0.10824077294E+02  0.43405278664E+02 -0.70518677365E+02  0.83510853920E+02  0.00000000000E+00 0.  1.
         12    1    4    4    0    0 -0.52617083043E+02 -0.33837635366E+01 -0.16290587174E+03  0.17122596279E+03  0.00000000000E+00 0. -1.
        -13    1    3    3    0    0  0.15789542194E+02 -0.19087126222E+02  0.29380987080E+02  0.38430071973E+02  0.00000000000E+00 0.  1.
         13    1    3    3    0    0 -0.46216887394E+02  0.13228520804E+02 -0.28493771087E+02  0.55882818771E+02  0.00000000000E+00 0. -1.
         21    1    1    2  502  501  0.72220350950E+02 -0.34162909710E+02  0.66606015389E+01  0.80170113534E+02  0.00000000000E+00 0.  1.
<scales pt_clust_5="13000.00000" pt_clust_6="13000.00000" pt_clust_7="13000.00000" pt_clust_8="13000.00000" pt_clust_9="79.89295"></scales>
<clustering>
<clus scale="   79.893">  1  9  2 -1</clus>
<clus scale="   83.997">  5  6 -1 -1</clus>
<clus scale="   89.073">  7  8 -1 -1</clus>
<clus scale="   94.937">  2  5  1 -1</clus>
<clus scale="   94.937">  2  5  1 -1</clus>
</clustering>
</event>
<event>
 9    2  0.3402837E-005  0.1110789E+03  0.7546771E-02  0.1262763E+00
         -1   -1    0    0    0  501 -0.00000000000E+00  0.00000000000E+00  0.32340810919E+02  0.32340810919E+02  0.00000000000E+00 0.  1.
          2   -1    0    0  502    0  0.00000000000E+00 -0.00000000000E+00 -0.53087737935E+03  0.53087737935E+03  0.00000000000E+00 0. -1.
         23    2    1    2    0    0 -0.20937420776E+02 -0.69889214412E+02 -0.12399037899E+03  0.16878663299E+03  0.88274772805E+02 0.  0.
         24    2    1    2    0    0  0.32701194605E+02  0.46902845684E+02 -0.32043654509E+03  0.33447646464E+03  0.76978444418E+02 0.  0.
        -13    1    4    4    0    0  0.20094927623E+02  0.40679082845E+01 -0.14053168932E+02  0.24856499170E+02  0.00000000000E+00 0.  1.
         14    1    4    4    0    0  0.12606266982E+02  0.42834937399E+02 -0.30638337616E+03  0.30961996547E+03  0.00000000000E+00 0. -1.
        -11    1    3    3    0    0 -0.20009164772E+02 -0.19535828149E+02  0.66763828766E+01  0.28750466860E+02  0.00000000000E+00 0.  1.
         11    1    3    3    0    0 -0.92825600438E+00 -0.50353386263E+02 -0.13066676187E+03  0.14003616613E+03  0.00000000000E+00 0. -1.
         21    1    1    2  502  501 -0.11763773829E+02  0.22986368729E+02 -0.54109644345E+02  0.59955092637E+02  0.00000000000E+00 0.  1.
<scales pt_clust_5="13000.00000" pt_clust_6="13000.00000" pt_clust_7="13000.00000" pt_clust_8="13000.00000" pt_clust_9="25.82169"></scales>
<clustering>
<clus scale="   25.822">  2  9  1 -1</clus>
<clus scale="   76.978">  5  6 -1 -1</clus>
<clus scale="   88.275">  7  8 -1 -1</clus>
<clus scale="  102.332">  2  5  1 -1</clus>
<clus scale="   25.822">  2  5  1 -1</clus>
</clustering>
</event>
<event>
 9    2  0.3402837E-005  0.1170435E+03  0.7546771E-02  0.1252947E+00
         -1   -1    0    0    0  501 -0.00000000000E+00  0.00000000000E+00  0.93713515129E+02  0.93713515129E+02  0.00000000000E+00 0.  1.
          2   -1    0    0  502    0  0.00000000000E+00 -0.00000000000E+00 -0.46081901334E+03  0.46081901334E+03  0.00000000000E+00 0. -1.
         23    2    1    2    0    0 -0.48837989886E+02 -0.10993270594E+02 -0.66987035898E+02  0.12596415228E+03  0.94200336658E+02 0.  0.
         24    2    1    2    0    0  0.57323658428E+02  0.50959632969E+02 -0.34820014099E+03  0.36547190627E+03  0.80271352780E+02 0.  0.
        -13    1    4    4    0    0  0.12547115930E+02  0.47291692026E+02 -0.81847951627E+02  0.95357335525E+02  0.00000000000E+00 0.  1.
         14    1    4    4    0    0  0.44776542498E+02  0.36679409431E+01 -0.26635218937E+03  0.27011457075E+03  0.00000000000E+00 0. -1.
        -13    1    3    3    0    0  0.88260161794E+01  0.32899086327E+02 -0.18390580939E+02  0.38709971713E+02  0.00000000000E+00 0. -1.
         13    1    3    3    0    0 -0.57664006066E+02 -0.43892356921E+02 -0.48596454958E+02  0.87254180566E+02  0.00000000000E+00 0.  1.
         21    1    1    2  502  501 -0.84856685422E+01 -0.39966362375E+02  0.48081678678E+02  0.63096469922E+02  0.00000000000E+00 0.  1.
<scales pt_clust_5="13000.00000" pt_clust_6="13000.00000" pt_clust_7="13000.00000" pt_clust_8="13000.00000" pt_clust_9="40.85727"></scales>
<clustering>
<clus scale="   40.857">  1  9  2 -1</clus>
<clus scale="   80.271">  5  6 -1 -1</clus>
<clus scale="   94.200">  7  8 -1 -1</clus>
<clus scale="  106.155">  2  5  1 -1</clus>
<clus scale="  106.155">  2  5  1 -1</clus>
</clustering>
</event>
<event>
 9    2  0.3402837E-005  0.1183378E+03  0.7546771E-02  0.1248637E+00
          2   -1    0    0  502    0  0.00000000000E+00  0.00000000000E+00  0.37686919940E+03  0.37686919940E+03  0.00000000000E+00 0. -1.
         -1   -1    0    0    0  501 -0.00000000000E+00 -0.00000000000E+00 -0.66376627795E+02  0.66376627795E+02  0.00000000000E+00 0.  1.
         24    2    1    2    0    0 -0.31796953306E+02 -0.38065142653E+02  0.11995340706E+02  0.96808258730E+02  0.82267547885E+02 0.  0.
         23    2    1    2    0    0  0.50480068907E+02  0.67066995236E+02  0.28257100727E+03  0.30844005722E+03  0.90789181849E+02 0.  0.
        -13    1    3    3    0    0 -0.41778704405E+02 -0.58328111861E+02  0.11614366183E+01  0.71756377486E+02  0.00000000000E+00 0.  1.
         14    1    3    3    0    0  0.99817510986E+01  0.20262969207E+02  0.10833904088E+02  0.25051881244E+02  0.00000000000E+00 0. -1.
        -11    1    4    4    0    0 -0.18663937109E+02 -0.90952643667E+01  0.49521812253E+02  0.53698009936E+02  0.00000000000E+00 0.  1.
         11    1    4    4    0    0  0.69144006016E+02  0.76162259603E+02  0.23304919502E+03  0.25474204728E+03  0.00000000000E+00 0. -1.
         21    1    1    2  502  501 -0.18683115601E+02 -0.29001852583E+02  0.15926223629E+02  0.37997511246E+02  0.00000000000E+00 0.  1.
<scales pt_clust_5="13000.00000" pt_clust_6="13000.00000" pt_clust_7="13000.00000" pt_clust_8="13000.00000" pt_clust_9="34.49879"></scales>
<clustering>
<clus scale="   34.499">  2  9  1 -1</clus>
<clus scale="   82.268">  5  6 -1 -1</clus>
<clus scale="   90.789">  7  8 -1 -1</clus>
<clus scale="  111.933">  2  5  1 -1</clus>
<clus scale="  118.338">  1  5  2 -1</clus>
</clustering>
</event>
<event>
 9    2  0.3402837E-005  0.1360935E+03  0.7546771E-02  0.1221484E+00
         -1   -1    0    0    0  501 -0.00000000000E+00  0.00000000000E+00  0.45044503529E+02  0.45044503529E+02  0.00000000000E+00 0.  1.
          2   -1    0    0  502    0  0.00000000000E+00 -0.00000000000E+00 -0.60018155461E+03  0.60018155461E+03  0.00000000000E+00 0. -1.
         23    2    1    2    0    0 -0.97894484886E+02 -0.34396906415E+02 -0.15885099102E+03  0.20932002865E+03  0.88401129530E+02 0.  0.
         24    2    1    2    0    0  0.87863426280E+02  0.55910934653E+02 -0.39086104694E+03  0.41155636183E+03  0.75896420570E+02 0.  0.
        -11    1    4    4    0    0  0.15561426620E+02 -0.14818865157E+02 -0.30775731240E+02  0.37535348624E+02  0.00000000000E+00 0.  1.
         12    1    4    4    0    0  0.72301999660E+02  0.70729799809E+02 -0.36008531570E+03  0.37402101321E+03  0.00000000000E+00 0. -1.
        -11    1    3    3    0    0 -0.97701870671E+02 -0.55086879510E+02 -0.11399589245E+03  0.15992274173E+03  0.00000000000E+00 0.  1.
         11    1    3    3    0    0 -0.19261421547E+00  0.20689973095E+02 -0.44855098576E+02  0.49397286921E+02  0.00000000000E+00 0. -1.
         21    1    1    2  502  501  0.10031058607E+02 -0.21514028238E+02 -0.54250131124E+01  0.24349667658E+02  0.00000000000E+00 0.  1.
<scales pt_clust_5="13000.00000" pt_clust_6="13000.00000" pt_clust_7="13000.00000" pt_clust_8="13000.00000" pt_clust_9="23.73764"></scales>
<clustering>
<clus scale="   23.738">  1  9  2 -1</clus>
<clus scale="   75.896">  5  6 -1 -1</clus>
<clus scale="   88.401">  7  8 -1 -1</clus>
<clus scale="  128.324">  2  5  1 -1</clus>
<clus scale="  128.324">  2  5  1 -1</clus>
</clustering>
</event>
<event>
 9    2  0.3402837E-005  0.9079957E+02  0.7546771E-02  0.1308181E+00
         -1   -1    0    0    0  501 -0.00000000000E+00  0.00000000000E+00  0.17922612255E+03  0.17922612255E+03  0.00000000000E+00 0.  1.
          2   -1    0    0  502    0  0.00000000000E+00 -0.00000000000E+00 -0.55114282273E+02  0.55114282273E+02  0.00000000000E+00 0. -1.
         24    2    1    2    0    0  0.21549735172E+01 -0.24284360927E+02  0.42704618830E+02  0.92360636099E+02  0.78182021813E+02 0.  0.
         23    2    1    2    0    0 -0.29422853507E+01  0.33224628417E+01  0.46063783377E+02  0.10088013800E+03  0.89639468433E+02 0.  0.
        -11    1    3    3    0    0 -0.14207525620E+02 -0.49401678468E+02  0.21917295265E+02  0.55881548399E+02  0.00000000000E+00 0.  1.
         12    1    3    3    0    0  0.16362499137E+02  0.25117317541E+02  0.20787323565E+02  0.36479087701E+02  0.00000000000E+00 0. -1.
        -11    1    4    4    0    0  0.36654728882E+02  0.71390449984E+01 -0.32923857762E+01  0.37488330411E+02  0.00000000000E+00 0. -1.
         11    1    4    4    0    0 -0.39597014233E+02 -0.38165821567E+01  0.49356169153E+02  0.63391807586E+02  0.00000000000E+00 0.  1.
         21    1    1    2  502  501  0.78731183348E+00  0.20961898085E+02  0.35343438070E+02  0.41099630727E+02  0.00000000000E+00 0.  1.
<scales pt_clust_5="13000.00000" pt_clust_6="13000.00000" pt_clust_7="13000.00000" pt_clust_8="13000.00000" pt_clust_9="20.97668"></scales>
<clustering>
<clus scale="   20.977">  1  9  2 -1</clus>
<clus scale="   78.182">  5  6 -1 -1</clus>
<clus scale="   79.509">  1  5  2 -1</clus>
<clus scale="   89.639">  7  8 -1 -1</clus>
<clus scale="   90.800">  2  5  1 -1</clus>
</clustering>
</event>
<event>
 9    2  0.3402837E-005  0.1058398E+03  0.7546771E-02  0.1271905E+00
         -1   -1    0    0    0  501 -0.00000000000E+00  0.00000000000E+00  0.26480413547E+02  0.26480413547E+02  0.00000000000E+00 0.  1.
          2   -1    0    0  502    0  0.00000000000E+00 -0.00000000000E+00 -0.18701948290E+04  0.18701948290E+04  0.00000000000E+00 0. -1.
         23    2    1    2    0    0  0.26104991166E+02 -0.29990526198E+02 -0.34582051051E+03  0.35972505615E+03  0.90715976050E+02 0.  0.
         24    2    1    2    0    0  0.64095162152E+02 -0.12574156985E+02 -0.13739210078E+04  0.13778367076E+04  0.80676873432E+02 0.  0.
        -13    1    4    4    0    0  0.26662122541E+02  0.19276052075E+02 -0.18517158040E+03  0.18807165961E+03  0.00000000000E+00 0.  1.
         14    1    4    4    0    0  0.37433039611E+02 -0.31850209060E+02 -0.11887494274E+04  0.11897650479E+04  0.00000000000E+00 0. -1.
        -13    1    3    3    0    0  0.59165368427E+02 -0.29190192084E+02 -0.22913406637E+03  0.23844292505E+03  0.00000000000E+00 0.  1.
         13    1    3    3    0    0 -0.33060377261E+02 -0.80033411398E+00 -0.11668644414E+03  0.12128213111E+03  0.00000000000E+00 0. -1.
         21    1    1    2  502  501 -0.90200153318E+02  0.42564683183E+02 -0.12397289723E+03  0.15911347888E+03  0.00000000000E+00 0.  1.
<scales pt_clust_5="13000.00000" pt_clust_6="13000.00000" pt_clust_7="13000.00000" pt_clust_8="13000.00000" pt_clust_9="68.50773"></scales>
<clustering>
<clus scale="   80.677">  5  6 -1 -1</clus>
<clus scale="   90.716">  7  8 -1 -1</clus>
<clus scale="   99.047">  1  7  2 -1</clus>
<clus scale="   68.508">  1  9  2 -1</clus>
<clus scale="  105.840">  2  5  1 -1</clus>
</clustering>
</event>
<event>
 9    2  0.3402837E-005  0.1015353E+03  0.7546771E-02  0.1283747E+00
         -1   -1    0    0    0  501 -0.00000000000E+00  0.00000000000E+00  0.36034242776E+03  0.36034242776E+03  0.00000000000E+00 0.  1.
          2   -1    0    0  502    0  0.00000000000E+00 -0.00000000000E+00 -0.68163552047E+02  0.68163552047E+02  0.00000000000E+00 0. -1.
         23    2    1    2    0    0  0.55781832911E+01 -0.43799583941E+02  0.30039471582E+03  0.31722714832E+03  0.91905161204E+02 0.  0.
         24    2    1    2    0    0 -0.24071041857E+02  0.34454449059E+02  0.13840437906E+00  0.88938044457E+02  0.78380051544E+02 0.  0.
        -11    1    4    4    0    0  0.78498485869E+01  0.24804877950E+02  0.33065347758E+02  0.42073974322E+02  0.00000000000E+00 0.  1.
         12    1    4    4    0    0 -0.31920890444E+02  0.96495711091E+01 -0.32926943379E+02  0.46864070135E+02  0.00000000000E+00 0. -1.
        -11    1    3    3    0    0 -0.41361434802E+02 -0.70915581100E+01  0.11038574593E+03  0.11809348581E+03  0.00000000000E+00 0. -1.
         11    1    3    3    0    0  0.46939618094E+02 -0.36708025831E+02  0.19000896989E+03  0.19913366251E+03  0.00000000000E+00 0.  1.
         21    1    1    2  502  501  0.18492858566E+02  0.93451348824E+01 -0.83542444917E+01  0.22340787026E+02  0.00000000000E+00 0.  1.
<scales pt_clust_5="13000.00000" pt_clust_6="13000.00000" pt_clust_7="13000.00000" pt_clust_8="13000.00000" pt_clust_9="20.71997"></scales>
<clustering>
<clus scale="   20.720">  2  9  1 -1</clus>
<clus scale="   78.380">  5  6 -1 -1</clus>
<clus scale="   89.478">  2  5  1 -1</clus>
<clus scale="   91.905">  7  8 -1 -1</clus>
<clus scale="   20.720">  2  5  1 -1</clus>
</clustering>
</event>
<event>
 9    2  0.3402837E-005  0.1031050E+03  0.7546771E-02  0.1277930E+00
         -1   -1    0    0    0  501 -0.00000000000E+00  0.00000000000E+00  0.55293756559E+02  0.55293756559E+02  0.00000000000E+00 0.  1.
          2   -1    0    0  502    0  0.00000000000E+00 -0.00000000000E+00 -0.40506747811E+03  0.40506747811E+03  0.00000000000E+00 0. -1.
         24    2    1    2    0    0 -0.28962521604E+02 -0.82148813115E+01 -0.16548053726E+02  0.90032253281E+02  0.83220530016E+02 0.  0.
         23    2    1    2    0    0  0.45648363038E+02  0.21495098157E+02 -0.33287938299E+03  0.34900056426E+03  0.91907007026E+02 0.  0.
        -13    1    3    3    0    0 -0.21394309941E+02  0.34949070566E+02 -0.20890344315E+02  0.45995222761E+02  0.00000000000E+00 0.  1.
         14    1    3    3    0    0 -0.75682116625E+01 -0.43163951877E+02  0.43422905887E+01  0.44037030520E+02  0.00000000000E+00 0. -1.
        -11    1    4    4    0    0 -0.18204276431E+02  0.21077697696E+02 -0.37006339653E+02  0.46315593433E+02  0.00000000000E+00 0.  1.
         11    1    4    4    0    0  0.63852639469E+02  0.41740046043E+00 -0.29587304334E+03  0.30268497083E+03  0.00000000000E+00 0. -1.
         21    1    1    2  502  501 -0.16685841434E+02 -0.13280216845E+02 -0.34628482964E+00  0.21328417124E+02  0.00000000000E+00 0.  1.
<scales pt_clust_5="13000.00000" pt_clust_6="13000.00000" pt_clust_7="13000.00000" pt_clust_8="13000.00000" pt_clust_9="21.32561"></scales>
<clustering>
<clus scale="   21.326">  1  9  2 -1</clus>
<clus scale="   83.221">  5  6 -1 -1</clus>
<clus scale="   91.907">  7  8 -1 -1</clus>
<clus scale="   95.443">  1  5  2 -1</clus>
<clus scale="  103.105">  2  5  1 -1</clus>
</clustering>
</event>
<event>
 9    2  0.3402837E-005  0.1467908E+03  0.7546771E-02  0.1218103E+00
          2   -1    0    0  502    0  0.00000000000E+00  0.00000000000E+00  0.44327109404E+03  0.44327109404E+03  0.00000000000E+00 0. -1.
         -1   -1    0    0    0  501 -0.00000000000E+00 -0.00000000000E+00 -0.25719938354E+03  0.25719938354E+03  0.00000000000E+00 0.  1.
         23    2    1    2    0    0 -0.67556472677E+02  0.75350257764E+02 -0.11970085602E+03  0.18063724500E+03  0.89777396951E+02 0.  0.
         24    2    1    2    0    0 -0.72371470302E+02 -0.13566270981E+02  0.34489477225E+03  0.36194834658E+03  0.81440335477E+02 0.  0.
        -11    1    4    4    0    0 -0.43165029216E+02 -0.35175667880E+02  0.10073565434E+03  0.11510090970E+03  0.00000000000E+00 0.  1.
         12    1    4    4    0    0 -0.29206441086E+02  0.21609396899E+02  0.24415911791E+03  0.24684743688E+03  0.00000000000E+00 0. -1.
        -13    1    3    3    0    0 -0.89398123947E+02  0.66760368723E+02 -0.10282466122E+03  0.15172963571E+03  0.00000000000E+00 0. -1.
         13    1    3    3    0    0  0.21841651270E+02  0.85898890403E+01 -0.16876194794E+02  0.28907609286E+02  0.00000000000E+00 0.  1.
         21    1    1    2  502  501  0.13992794298E+03 -0.61783986782E+02 -0.39122205737E+02  0.15788488601E+03  0.00000000000E+00 0.  1.
<scales pt_clust_5="13000.00000" pt_clust_6="13000.00000" pt_clust_7="13000.00000" pt_clust_8="13000.00000" pt_clust_9="116.13594"></scales>
<clustering>
<clus scale="   81.440">  5  6 -1 -1</clus>
<clus scale="   89.777">  7  8 -1 -1</clus>
<clus scale="  109.792">  1  5  2 -1</clus>
<clus scale="  116.136">  1  9  2 -1</clus>
<clus scale="  109.792">  1  5  2 -1</clus>
</clustering>
</event>
<event>
 9    2  0.3402837E-005  0.1432888E+03  0.7546771E-02  0.1211850E+00
          2   -1    0    0  502    0  0.00000000000E+00  0.00000000000E+00  0.63300500901E+03  0.63300500901E+03  0.00000000000E+00 0. -1.
         -1   -1    0    0    0  501 -0.00000000000E+00 -0.00000000000E+00 -0.71557234263E+02  0.71557234263E+02  0.00000000000E+00 0.  1.
         23    2    1    2    0    0  0.18434455009E+02 -0.10964771927E+03  0.87692627931E+02  0.16843046905E+03  0.91194157912E+02 0.  0.
         24    2    1    2    0    0 -0.10753552704E+03  0.79855805537E+02  0.25691423725E+03  0.29981305042E+03  0.77085022178E+02 0.  0.
        -13    1    4    4    0    0 -0.75485960362E+02  0.32634660234E+02  0.83284763614E+02  0.11704487648E+03  0.00000000000E+00 0.  1.
         14    1    4    4    0    0 -0.32049566678E+02  0.47221145303E+02  0.17362947364E+03  0.18276817394E+03  0.00000000000E+00 0. -1.
        -13    1    3    3    0    0 -0.13679871908E+01 -0.12094433475E+03  0.75406549134E+02  0.14253263187E+03  0.00000000000E+00 0.  1.
         13    1    3    3    0    0  0.19802442200E+02  0.11296615473E+02  0.12286078797E+02  0.25897837177E+02  0.00000000000E+00 0. -1.
         21    1    1    2  502  501  0.89101072030E+02  0.29791913736E+02  0.21684090956E+03  0.23631872381E+03  0.00000000000E+00 0. -1.
<scales pt_clust_5="13000.00000" pt_clust_6="13000.00000" pt_clust_7="13000.00000" pt_clust_8="13000.00000" pt_clust_9="93.94977"></scales>
<clustering>
<clus scale="   77.085">  5  6 -1 -1</clus>
<clus scale="   91.194">  7  8 -1 -1</clus>
<clus scale="   93.950">  1  9  2 -1</clus>
<clus scale="  134.749">  1  5  2 -1</clus>
<clus scale="   93.950">  1  5  2 -1</clus>
</clustering>
</event>
<event>
 9    2  0.3402837E-005  0.1055771E+03  0.7546771E-02  0.1272362E+00
         -1   -1    0    0    0  501 -0.00000000000E+00  0.00000000000E+00  0.10372423899E+03  0.10372423899E+03  0.00000000000E+00 0.  1.
          2   -1    0    0  502    0  0.00000000000E+00 -0.00000000000E+00 -0.52030788867E+03  0.52030788867E+03  0.00000000000E+00 0. -1.
         23    2    1    2    0    0 -0.72356162700E+02  0.28769345965E+02 -0.45559525368E+02  0.12660119363E+03  0.88820618830E+02 0.  0.
         24    2    1    2    0    0  0.53559759580E+02 -0.96761077181E+01 -0.42561499248E+03  0.43661959130E+03  0.80785337622E+02 0.  0.
        -11    1    4    4    0    0  0.39606145246E+02 -0.19068006763E+02 -0.85948848743E+02  0.96537247854E+02  0.00000000000E+00 0.  1.
         12    1    4    4    0    0  0.13953614334E+02  0.93918990451E+01 -0.33966614374E+03  0.34008234345E+03  0.00000000000E+00 0. -1.
        -11    1    3    3    0    0 -0.87145671254E+01 -0.30134204509E+02 -0.13433472420E+02  0.34124362892E+02  0.00000000000E+00 0. -1.
         11    1    3    3    0    0 -0.63641595574E+02  0.58903550473E+02 -0.32126052948E+02  0.92476830740E+02  0.00000000000E+00 0.  1.
         21    1    1    2  502  501  0.18796403120E+02 -0.19093238247E+02  0.54590868172E+02  0.60811342731E+02  0.00000000000E+00 0. -1.
<scales pt_clust_5="13000.00000" pt_clust_6="13000.00000" pt_clust_7="13000.00000" pt_clust_8="13000.00000" pt_clust_9="26.79284"></scales>
<clustering>
<clus scale="   26.793">  1  9  2 -1</clus>
<clus scale="   80.785">  5  6 -1 -1</clus>
<clus scale="   88.821">  7  8 -1 -1</clus>
<clus scale="   98.913">  2  5  1 -1</clus>
<clus scale="   98.913">  2  5  1 -1</clus>
</clustering>
</event>
<event>
 9    2  0.3402837E-005  0.2529788E+03  0.7546771E-02  0.1151912E+00
         -1   -1    0    0    0  501 -0.00000000000E+00  0.00000000000E+00  0.12814804397E+03  0.12814804397E+03  0.00000000000E+00 0.  1.
          2   -1    0    0  502    0  0.00000000000E+00 -0.00000000000E+00 -0.92033165551E+03  0.92033165551E+03  0.00000000000E+00 0. -1.
         24    2    1    2    0    0 -0.28514779027E+02 -0.27530432173E+02 -0.87372183942E+02  0.12824220034E+03  0.85094924071E+02 0.  0.
         23    2    1    2    0    0 -0.22183736055E+03 -0.48481469574E+02 -0.58093047802E+03  0.63075435167E+03  0.93853952654E+02 0.  0.
        -13    1    3    3    0    0  0.10390980267E+02 -0.40330578738E+02 -0.74428068863E+02  0.85288132158E+02  0.00000000000E+00 0.  1.
         14    1    3    3    0    0 -0.38905759294E+02  0.12800146564E+02 -0.12944115079E+02  0.42954068183E+02  0.00000000000E+00 0. -1.
        -11    1    4    4    0    0 -0.12194689794E+03 -0.73904094940E+02 -0.34255015709E+03  0.37104375926E+03  0.00000000000E+00 0.  1.
         11    1    4    4    0    0 -0.99890462605E+02  0.25422625366E+02 -0.23838032093E+03  0.25971059240E+03  0.00000000000E+00 0. -1.
         21    1    1    2  502  501  0.25035213958E+03  0.76011901747E+02 -0.12388094958E+03  0.28948314746E+03  0.00000000000E+00 0.  1.
<scales pt_clust_5="13000.00000" pt_clust_6="13000.00000" pt_clust_7="13000.00000" pt_clust_8="13000.00000" pt_clust_9="234.92485"></scales>
<clustering>
<clus scale="   85.095">  5  6 -1 -1</clus>
<clus scale="   93.854">  7  8 -1 -1</clus>
<clus scale="   93.873">  1  5  2 -1</clus>
<clus scale="  234.925">  1  9  2 -1</clus>
<clus scale="  252.979">  2  5  1 -1</clus>
</clustering>
</event>
<event>
 9    2  0.3402837E-005  0.1701599E+03  0.7546771E-02  0.1179160E+00
         -1   -1    0    0    0  501 -0.00000000000E+00  0.00000000000E+00  0.91938657462E+02  0.91938657462E+02  0.00000000000E+00 0.  1.
          2   -1    0    0  502    0  0.00000000000E+00 -0.00000000000E+00 -0.72067083265E+03  0.72067083265E+03  0.00000000000E+00 0. -1.
         24    2    1    2    0    0  0.11790817491E+03 -0.15178100688E+03 -0.98452689863E+02  0.23047098594E+03  0.80524104818E+02 0.  0.
         23    2    1    2    0    0 -0.61488442875E+02  0.11871118953E+03 -0.45201409089E+03  0.48014698027E+03  0.91384950456E+02 0.  0.
        -13    1    3    3    0    0  0.10102498328E+03 -0.14458597439E+03 -0.57375915564E+02  0.18548085325E+03  0.00000000000E+00 0.  1.
         14    1    3    3    0    0  0.16883191623E+02 -0.71950324974E+01 -0.41076774299E+02  0.44990132683E+02  0.00000000000E+00 0. -1.
        -13    1    4    4    0    0 -0.93098488400E+01  0.37201328393E+02 -0.34568325116E+02  0.51629267097E+02  0.00000000000E+00 0.  1.
         13    1    4    4    0    0 -0.52178594035E+02  0.81509861136E+02 -0.41744576578E+03  0.42851771317E+03  0.00000000000E+00 0. -1.
         21    1    1    2  502  501 -0.56419732033E+02  0.33069817355E+02 -0.78265394429E+02  0.10199152390E+03  0.00000000000E+00 0. -1.
<scales pt_clust_5="13000.00000" pt_clust_6="13000.00000" pt_clust_7="13000.00000" pt_clust_8="13000.00000" pt_clust_9="65.39724"></scales>
<clustering>
<clus scale="   65.397">  1  9  2 -1</clus>
<clus scale="   80.524">  5  6 -1 -1</clus>
<clus scale="   91.385">  7  8 -1 -1</clus>
<clus scale="  164.582">  1  5  2 -1</clus>
<clus scale="  170.160">  2  5  1 -1</clus>
</clustering>
</event>
<event>
 9    2  0.3402837E-005  0.1197583E+03  0.7546771E-02  0.1246933E+00
         -1   -1    0    0    0  501 -0.00000000000E+00  0.00000000000E+00  0.10532028991E+03  0.10532028991E+03  0.00000000000E+00 0.  1.
          2   -1    0    0  502    0  0.00000000000E+00 -0.00000000000E+00 -0.55491923550E+03  0.55491923550E+03  0.00000000000E+00 0. -1.
         24    2    1    2    0    0  0.36373692168E+02  0.52324574033E+02  0.50960643825E+02  0.11522571157E+03  0.81357672405E+02 0.  0.
         23    2    1    2    0    0 -0.60955028356E+02 -0.48545100327E+02 -0.50547425333E+03  0.51966267122E+03  0.92048513464E+02 0.  0.
        -11    1    3    3    0    0  0.31050846058E+02  0.32644227309E+02  0.72632805177E+02  0.85471194009E+02  0.00000000000E+00 0.  1.
         12    1    3    3    0    0  0.53228461101E+01  0.19680346724E+02 -0.21672161352E+02  0.29754517565E+02  0.00000000000E+00 0. -1.
        -13    1    4    4    0    0  0.53259327394E+01 -0.44703290416E+02 -0.11344614670E+03  0.12205235735E+03  0.00000000000E+00 0.  1.
         13    1    4    4    0    0 -0.66280961095E+02 -0.38418099119E+01 -0.39202810663E+03  0.39761031387E+03  0.00000000000E+00 0. -1.
         21    1    1    2  502  501  0.24581336188E+02 -0.37794737059E+01  0.49146639183E+01  0.25351142611E+02  0.00000000000E+00 0. -1.
<scales pt_clust_5="13000.00000" pt_clust_6="13000.00000" pt_clust_7="13000.00000" pt_clust_8="13000.00000" pt_clust_9="24.87019"></scales>
<clustering>
<clus scale="   24.870">  1  9  2 -1</clus>
<clus scale="   81.358">  5  6 -1 -1</clus>
<clus scale="   92.049">  7  8 -1 -1</clus>
<clus scale="  111.751">  1  5  2 -1</clus>
<clus scale="  119.758">  2  5  1 -1</clus>
</clustering>
</event>
<event>
 9    2  0.3402837E-005  0.1068145E+03  0.7546771E-02  0.1271005E+00
          2   -1    0    0  502    0  0.00000000000E+00  0.00000000000E+00  0.73519645152E+03  0.73519645152E+03  0.00000000000E+00 0. -1.
         -1   -1    0    0    0  501 -0.00000000000E+00 -0.00000000000E+00 -0.27085768843E+02  0.27085768843E+02  0.00000000000E+00 0.  1.
         23    2    1    2    0    0 -0.17778126054E+02 -0.48354517583E+02  0.13248586891E+03  0.16865434926E+03  0.90761020972E+02 0.  0.
         24    2    1    2    0    0 -0.23356735648E+01  0.75318709454E+02  0.47245803963E+03  0.48511512593E+03  0.80260344070E+02 0.  0.
        -11    1    4    4    0    0  0.21083585953E+02 -0.41631117842E+01  0.47234518625E+02  0.51893630111E+02  0.00000000000E+00 0.  1.
         12    1    4    4    0    0 -0.23419259518E+02  0.79481821238E+02  0.42522352101E+03  0.43322149582E+03  0.00000000000E+00 0. -1.
        -13    1    3    3    0    0  0.34043551442E+02 -0.11073560527E+02  0.25085186735E+02  0.43713312973E+02  0.00000000000E+00 0. -1.
         13    1    3    3    0    0 -0.51821677496E+02 -0.37280957056E+02  0.10740068217E+03  0.12494103629E+03  0.00000000000E+00 0.  1.
         21    1    1    2  502  501  0.20113799619E+02 -0.26964191871E+02  0.10316677414E+03  0.10851274517E+03  0.00000000000E+00 0.  1.
<scales pt_clust_5="13000.00000" pt_clust_6="13000.00000" pt_clust_7="13000.00000" pt_clust_8="13000.00000" pt_clust_9="33.63975"></scales>
<clustering>
<clus scale="   33.640">  1  9  2 -1</clus>
<clus scale="   80.260">  5  6 -1 -1</clus>
<clus scale="   90.761">  7  8 -1 -1</clus>
<clus scale="   98.048">  1  5  2 -1</clus>
<clus scale="   33.640">  1  5  2 -1</clus>
</clustering>
</event>
<event>
 9    2  0.3402837E-005  0.9092019E+02  0.7546771E-02  0.1309209E+00
          2   -1    0    0  502    0  0.00000000000E+00  0.00000000000E+00  0.27672888166E+03  0.27672888166E+03  0.00000000000E+00 0. -1.
         -1   -1    0    0    0  501 -0.00000000000E+00 -0.00000000000E+00 -0.72277778743E+02  0.72277778743E+02  0.00000000000E+00 0.  1.
         23    2    1    2    0    0 -0.39237861233E+02  0.14129729988E+02  0.55638912697E+02  0.11342174878E+03  0.89607731070E+02 0.  0.
         24    2    1    2    0    0 -0.12709980842E+02 -0.15780646608E+02  0.16355213118E+03  0.18156112351E+03  0.76187725613E+02 0.  0.
        -11    1    4    4    0    0 -0.98729637446E+01 -0.43441880240E+02  0.62495083638E+02  0.76748341030E+02  0.00000000000E+00 0.  1.
         12    1    4    4    0    0 -0.28370170975E+01  0.27661233632E+02  0.10105704754E+03  0.10481278248E+03  0.00000000000E+00 0. -1.
        -13    1    3    3    0    0  0.28684915184E+02  0.11265461567E+02  0.18787519051E+02  0.36093016715E+02  0.00000000000E+00 0.  1.
         13    1    3    3    0    0 -0.67922776418E+02  0.28642684209E+01  0.36851393645E+02  0.77328732069E+02  0.00000000000E+00 0. -1.
         21    1    1    2  502  501  0.51947842075E+02  0.16509166200E+01 -0.14739940967E+02  0.54023788109E+02  0.00000000000E+00 0.  1.
<scales pt_clust_5="13000.00000" pt_clust_6="13000.00000" pt_clust_7="13000.00000" pt_clust_8="13000.00000" pt_clust_9="51.97407"></scales>
<clustering>
<clus scale="   51.974">  2  9  1 -1</clus>
<clus scale="   76.188">  5  6 -1 -1</clus>
<clus scale="   77.727">  1  5  2 -1</clus>
<clus scale="   89.608">  7  8 -1 -1</clus>
<clus scale="   77.727">  1  5  2 -1</clus>
</clustering>
</event>
<event>
 9    2  0.3402837E-005  0.1091282E+03  0.7546771E-02  0.1268628E+00
          2   -1    0    0  502    0  0.00000000000E+00  0.00000000000E+00  0.63011279402E+03  0.63011279402E+03  0.00000000000E+00 0. -1.
         -1   -1    0    0    0  501 -0.00000000000E+00 -0.00000000000E+00 -0.12746434677E+03  0.12746434677E+03  0.00000000000E+00 0.  1.
         23    2    1    2    0    0 -0.22522122829E+02 -0.26689812567E+02  0.14160692191E+03  0.17388316707E+03  0.94674407024E+02 0.  0.
         24    2    1    2    0    0  0.57327911907E+01  0.62376980788E+02  0.46322927980E+03  0.47415953715E+03  0.79511938600E+02 0.  0.
        -13    1    4    4    0    0  0.21903268399E+02 -0.12087033039E+02  0.11663577323E+03  0.11928852892E+03  0.00000000000E+00 0.  1.
         14    1    4    4    0    0 -0.16170477208E+02  0.74464013827E+02  0.34659350657E+03  0.35487100823E+03  0.00000000000E+00 0. -1.
        -11    1    3    3    0    0 -0.23786050651E+02  0.23189390131E+02  0.10979279818E+03  0.11470824971E+03  0.00000000000E+00 0. -1.
         11    1    3    3    0    0  0.12639278220E+01 -0.49879202698E+02  0.31814123733E+02  0.59174917357E+02  0.00000000000E+00 0.  1.
         21    1    1    2  502  501  0.16789331639E+02 -0.35687168222E+02 -0.10218775446E+03  0.10953443657E+03  0.00000000000E+00 0.  1.
<scales pt_clust_5="13000.00000" pt_clust_6="13000.00000" pt_clust_7="13000.00000" pt_clust_8="13000.00000" pt_clust_9="39.43927"></scales>
<clustering>
<clus scale="   39.439">  2  9  1 -1</clus>
<clus scale="   79.512">  5  6 -1 -1</clus>
<clus scale="   94.674">  7  8 -1 -1</clus>
<clus scale="   96.270">  1  5  2 -1</clus>
<clus scale="   96.270">  1  5  2 -1</clus>
</clustering>
</event>
<event>
 9    2  0.3402837E-005  0.9630387E+02  0.7546771E-02  0.1294657E+00
         -1   -1    0    0    0  501 -0.00000000000E+00  0.00000000000E+00  0.57553407592E+02  0.57553407592E+02  0.00000000000E+00 0.  1.
          2   -1    0    0  502    0  0.00000000000E+00 -0.00000000000E+00 -0.43069335212E+03  0.43069335212E+03  0.00000000000E+00 0. -1.
         23    2    1    2    0    0  0.20665195820E+02 -0.39692043070E+02 -0.49673284288E+02  0.11429254983E+03  0.92697589899E+02 0.  0.
         24    2    1    2    0    0  0.27063085381E+02  0.13147272624E+02 -0.30373784512E+03  0.31588666464E+03  0.81378406065E+02 0.  0.
        -11    1    4    4    0    0  0.35968291546E+02 -0.10569074223E+02 -0.59412380935E+02  0.70251365361E+02  0.00000000000E+00 0.  1.
         12    1    4    4    0    0 -0.89052061650E+01  0.23716346847E+02 -0.24432546418E+03  0.24563529928E+03  0.00000000000E+00 0. -1.
        -13    1    3    3    0    0 -0.20276179836E+02  0.19556378335E+02 -0.26400289488E+02  0.38607650632E+02  0.00000000000E+00 0. -1.
         13    1    3    3    0    0  0.40941375656E+02 -0.59248421404E+02 -0.23272994801E+02  0.75684899197E+02  0.00000000000E+00 0.  1.
         21    1    1    2  502  501 -0.47728281201E+02  0.26544770446E+02 -0.19728815124E+02  0.58067545244E+02  0.00000000000E+00 0. -1.
<scales pt_clust_5="13000.00000" pt_clust_6="13000.00000" pt_clust_7="13000.00000" pt_clust_8="13000.00000" pt_clust_9="54.61331"></scales>
<clustering>
<clus scale="   54.613">  1  9  2 -1</clus>
<clus scale="   81.378">  5  6 -1 -1</clus>
<clus scale="   85.464">  2  5  1 -1</clus>
<clus scale="   92.698">  7  8 -1 -1</clus>
<clus scale="   85.464">  2  5  1 -1</clus>
</clustering>
</event>
<event>
 9    2  0.3402837E-005  0.1446148E+03  0.7546771E-02  0.1210140E+00
         -1   -1    0    0    0  501 -0.00000000000E+00  0.00000000000E+00  0.25511987613E+03  0.25511987613E+03  0.00000000000E+00 0.  1.
          2   -1    0    0  502    0  0.00000000000E+00 -0.00000000000E+00 -0.92005646364E+03  0.92005646364E+03  0.00000000000E+00 0. -1.
         23    2    1    2    0    0  0.21410058533E+02  0.11753474565E+03  0.53366626546E+02  0.16136802104E+03  0.94439580389E+02 0.  0.
         24    2    1    2    0    0  0.58956410266E+02 -0.93509715989E+02 -0.84821435341E+03  0.85917043371E+03  0.80537690168E+02 0.  0.
        -13    1    4    4    0    0  0.58543765389E+02 -0.22178596168E+02 -0.31077602022E+03  0.31701892268E+03  0.00000000000E+00 0.  1.
         14    1    4    4    0    0  0.41264487636E+00 -0.71331119822E+02 -0.53743833320E+03  0.54215151104E+03  0.00000000000E+00 0. -1.
        -13    1    3    3    0    0  0.46131438371E+02  0.11624605848E+03  0.33089104503E+02  0.12936825173E+03  0.00000000000E+00 0. -1.
         13    1    3    3    0    0 -0.24721379838E+02  0.12886871671E+01  0.20277522043E+02  0.31999769310E+02  0.00000000000E+00 0.  1.
         21    1    1    2  502  501 -0.80366468799E+02 -0.24025029658E+02  0.12991113935E+03  0.15463788503E+03  0.00000000000E+00 0.  1.
<scales pt_clust_5="13000.00000" pt_clust_6="13000.00000" pt_clust_7="13000.00000" pt_clust_8="13000.00000" pt_clust_9="83.88070"></scales>
<clustering>
<clus scale="   80.538">  5  6 -1 -1</clus>
<clus scale="   83.881">  1  9  2 -1</clus>
<clus scale="   94.440">  7  8 -1 -1</clus>
<clus scale="  135.945">  2  5  1 -1</clus>
<clus scale="  135.945">  2  5  1 -1</clus>
</clustering>
</event>
<event>
 9    2  0.3402837E-005  0.9540144E+02  0.7546771E-02  0.1295553E+00
          2   -1    0    0  502    0  0.00000000000E+00  0.00000000000E+00  0.54411242856E+03  0.54411242856E+03  0.00000000000E+00 0. -1.
         -1   -1    0    0    0  501 -0.00000000000E+00 -0.00000000000E+00 -0.25822602100E+02  0.25822602100E+02  0.00000000000E+00 0.  1.
         23    2    1    2    0    0  0.19854171605E+02 -0.35392754189E+01  0.13457287839E+03  0.16332174021E+03  0.90318417974E+02 0.  0.
         24    2    1    2    0    0 -0.25803701092E+02  0.24425039519E+02  0.37118694824E+03  0.38154113580E+03  0.80817536594E+02 0.  0.
        -11    1    4    4    0    0 -0.11986374259E+02 -0.22397357599E+02  0.44612662256E+02  0.51338138151E+02  0.00000000000E+00 0.  1.
         12    1    4    4    0    0 -0.13817326834E+02  0.46822397118E+02  0.32657428598E+03  0.33020299765E+03  0.00000000000E+00 0. -1.
        -13    1    3    3    0    0 -0.26348788580E+02 -0.13889382555E+02  0.10094337264E+03  0.10524608348E+03  0.00000000000E+00 0. -1.
         13    1    3    3    0    0  0.46202960185E+02  0.10350107136E+02  0.33629505750E+02  0.58075656729E+02  0.00000000000E+00 0.  1.
         21    1    1    2  502  501  0.59495294869E+01 -0.20885764100E+02  0.12529999835E+02  0.25072154655E+02  0.00000000000E+00 0.  1.
<scales pt_clust_5="13000.00000" pt_clust_6="13000.00000" pt_clust_7="13000.00000" pt_clust_8="13000.00000" pt_clust_9="21.71663"></scales>
<clustering>
<clus scale="   21.717">  2  9  1 -1</clus>
<clus scale="   80.818">  5  6 -1 -1</clus>
<clus scale="   86.461">  1  5  2 -1</clus>
<clus scale="   90.318">  7  8 -1 -1</clus>
<clus scale="   86.461">  1  5  2 -1</clus>
</clustering>
</event>
<event>
 9    2  0.3402837E-005  0.1155771E+03  0.7546771E-02  0.1257096E+00
          2   -1    0    0  502    0  0.00000000000E+00  0.00000000000E+00  0.18197533579E+03  0.18197533579E+03  0.00000000000E+00 0. -1.
         -1   -1    0    0    0  501 -0.00000000000E+00 -0.00000000000E+00 -0.18249584186E+03  0.18249584186E+03  0.00000000000E+00 0.  1.
         23    2    1    2    0    0 -0.60687496255E+02 -0.26929198354E+02 -0.95135445763E+02  0.15062430413E+03  0.96066508361E+02 0.  0.
         24    2    1    2    0    0  0.59246940466E+02 -0.32956239472E+02  0.11075654359E+03  0.15180743251E+03  0.78626782596E+02 0.  0.
        -11    1    4    4    0    0  0.32375462762E+02 -0.53881829003E+02  0.43576880770E+02  0.76487689358E+02  0.00000000000E+00 0.  1.
         12    1    4    4    0    0  0.26871477704E+02  0.20925589531E+02  0.67179662821E+02  0.75319743149E+02  0.00000000000E+00 0. -1.
        -11    1    3    3    0    0 -0.46169364638E+02  0.12787555782E+02 -0.15546901057E+01  0.47932753679E+02  0.00000000000E+00 0. -1.
         11    1    3    3    0    0 -0.14518131617E+02 -0.39716754136E+02 -0.93580755658E+02  0.10269155045E+03  0.00000000000E+00 0.  1.
         21    1    1    2  502  501  0.14405557891E+01  0.59885437826E+02 -0.16141603904E+02  0.62039441013E+02  0.00000000000E+00 0.  1.
<scales pt_clust_5="13000.00000" pt_clust_6="13000.00000" pt_clust_7="13000.00000" pt_clust_8="13000.00000" pt_clust_9="59.90276"></scales>
<clustering>
<clus scale="   59.903">  2  9  1 -1</clus>
<clus scale="   78.627">  5  6 -1 -1</clus>
<clus scale="   96.067">  7  8 -1 -1</clus>
<clus scale="  101.545">  1  5  2 -1</clus>
<clus scale="  101.545">  1  5  2 -1</clus>
</clustering>
</event>
<event>
 9    2  0.3402837E-005  0.1607025E+03  0.7546771E-02  0.1188908E+00
         -1   -1    0    0    0  501 -0.00000000000E+00  0.00000000000E+00  0.30688814542E+03  0.30688814542E+03  0.00000000000E+00 0.  1.
          2   -1    0    0  502    0  0.00000000000E+00 -0.00000000000E+00 -0.11762525750E+03  0.11762525750E+03  0.00000000000E+00 0. -1.
         23    2    1    2    0    0  0.85329995562E+02  0.76386125358E+02  0.12601097709E+03  0.19267676826E+03  0.90163864111E+02 0.  0.
         24    2    1    2    0    0 -0.11779806360E+03 -0.70702993078E+02  0.84959845709E+01  0.16792509505E+03  0.96183983987E+02 0.  0.
        -13    1    4    4    0    0 -0.28455939123E+02  0.22605789199E+02 -0.93197289283E+01  0.37518255876E+02  0.00000000000E+00 0.  1.
         14    1    4    4    0    0 -0.89342124478E+02 -0.93308782277E+02  0.17815713499E+02  0.13040683918E+03  0.00000000000E+00 0. -1.
        -13    1    3    3    0    0  0.61315312985E+01  0.34484619377E+02  0.89163242323E+02  0.95795972939E+02  0.00000000000E+00 0.  1.
         13    1    3    3    0    0  0.79198464263E+02  0.41901505982E+02  0.36847734764E+02  0.96880795323E+02  0.00000000000E+00 0. -1.
         21    1    1    2  502  501  0.32468068039E+02 -0.56831322804E+01  0.54755926264E+02  0.63911539613E+02  0.00000000000E+00 0. -1.
<scales pt_clust_5="13000.00000" pt_clust_6="13000.00000" pt_clust_7="13000.00000" pt_clust_8="13000.00000" pt_clust_9="32.96170"></scales>
<clustering>
<clus scale="   32.962">  1  9  2 -1</clus>
<clus scale="   90.164">  7  8 -1 -1</clus>
<clus scale="   96.184">  5  6 -1 -1</clus>
<clus scale="  157.173">  1  7  2 -1</clus>
<clus scale="  160.702">  2  5  1 -1</clus>
</clustering>
</event>
<event>
 9    2  0.3402837E-005  0.1445172E+03  0.7546771E-02  0.1209060E+00
         -1   -1    0    0    0  501 -0.00000000000E+00  0.00000000000E+00  0.12794669679E+03  0.12794669679E+03  0.00000000000E+00 0.  1.
          2   -1    0    0  502    0  0.00000000000E+00 -0.00000000000E+00 -0.32247140552E+03  0.32247140552E+03  0.00000000000E+00 0. -1.
         23    2    1    2    0    0  0.35263482117E+02  0.10554589001E+03  0.51423356304E+02  0.15363989322E+03  0.92614292337E+02 0.  0.
         24    2    1    2    0    0 -0.55958483275E+02 -0.96108034471E+02 -0.22978129484E+03  0.26887264246E+03  0.84409408640E+02 0.  0.
        -11    1    4    4    0    0 -0.41590297935E+02 -0.33986859694E+02 -0.35466279683E+02  0.64363937952E+02  0.00000000000E+00 0.  1.
         12    1    4    4    0    0 -0.14368185340E+02 -0.62121174777E+02 -0.19431501516E+03  0.20450870451E+03  0.00000000000E+00 0. -1.
        -13    1    3    3    0    0  0.28857328136E+02 -0.85962808559E+01  0.15111881968E+02  0.33689915529E+02  0.00000000000E+00 0. -1.
         13    1    3    3    0    0  0.64061539810E+01  0.11414217087E+03  0.36311474336E+02  0.11994997769E+03  0.00000000000E+00 0.  1.
         21    1    1    2  502  501  0.20695001157E+02 -0.94378555423E+01 -0.16166770201E+02  0.27905566629E+02  0.00000000000E+00 0.  1.
<scales pt_clust_5="13000.00000" pt_clust_6="13000.00000" pt_clust_7="13000.00000" pt_clust_8="13000.00000" pt_clust_9="22.74547"></scales>
<clustering>
<clus scale="   22.745">  2  9  1 -1</clus>
<clus scale="   84.409">  5  6 -1 -1</clus>
<clus scale="   92.614">  7  8 -1 -1</clus>
<clus scale="  139.401">  2  5  1 -1</clus>
<clus scale="   22.745">  2  5  1 -1</clus>
</clustering>
</event>
<event>
 9    2  0.3402837E-005  0.1044796E+03  0.7546771E-02  0.1275323E+00
         -1   -1    0    0    0  501 -0.00000000000E+00  0.00000000000E+00  0.23373087751E+03  0.23373087751E+03  0.00000000000E+00 0.  1.
          2   -1    0    0  502    0  0.00000000000E+00 -0.00000000000E+00 -0.26629320586E+03  0.26629320586E+03  0.00000000000E+00 0. -1.
         23    2    1    2    0    0  0.76860279018E+02 -0.21646078038E+02  0.14262295604E+03  0.18663070371E+03  0.90075839126E+02 0.  0.
         24    2    1    2    0    0 -0.48256457127E+02 -0.20104314084E+02 -0.22359780813E+03  0.24335734376E+03  0.80585034997E+02 0.  0.
        -13    1    4    4    0    0  0.21887963634E+02 -0.24927692269E+01 -0.73751193826E+02  0.76971003899E+02  0.00000000000E+00 0.  1.
         14    1    4    4    0    0 -0.70144420761E+02 -0.17611544857E+02 -0.14984661430E+03  0.16638633986E+03  0.00000000000E+00 0. -1.
        -13    1    3    3    0    0  0.25557524753E+02  0.33455877134E+02  0.71990155436E+02  0.83397033916E+02  0.00000000000E+00 0.  1.
         13    1    3    3    0    0  0.51302754265E+02 -0.55101955172E+02  0.70632800603E+02  0.10323366980E+03  0.00000000000E+00 0. -1.
         21    1    1    2  502  501 -0.28603821891E+02  0.41750392122E+02  0.48412523734E+02  0.70036035892E+02  0.00000000000E+00 0.  1.
<scales pt_clust_5="13000.00000" pt_clust_6="13000.00000" pt_clust_7="13000.00000" pt_clust_8="13000.00000" pt_clust_9="50.60903"></scales>
<clustering>
<clus scale="   50.609">  1  9  2 -1</clus>
<clus scale="   80.585">  5  6 -1 -1</clus>
<clus scale="   90.076">  7  8 -1 -1</clus>
<clus scale="   96.417">  2  5  1 -1</clus>
<clus scale="   96.417">  2  5  1 -1</clus>
</clustering>
</event>
<event>
 9    2  0.3402837E-005  0.1041274E+03  0.7546771E-02  0.1279175E+00
         -1   -1    0    0    0  501 -0.00000000000E+00  0.00000000000E+00  0.55022561641E+02  0.55022561641E+02  0.00000000000E+00 0.  1.
          2   -1    0    0  502    0  0.00000000000E+00 -0.00000000000E+00 -0.25275423394E+03  0.25275423394E+03  0.00000000000E+00 0. -1.
         23    2    1    2    0    0 -0.45728491498E+02 -0.20515163749E+01 -0.50591311948E+02  0.11760876113E+03  0.95796848566E+02 0.  0.
         24    2    1    2    0    0  0.30900909016E+02 -0.23535454050E+02 -0.12185264380E+03  0.15125763911E+03  0.80759041667E+02 0.  0.
        -11    1    4    4    0    0  0.14984276080E+02 -0.33624188206E+02 -0.10441620001E+02  0.38264108384E+02  0.00000000000E+00 0.  1.
         12    1    4    4    0    0  0.15916632936E+02  0.10088734156E+02 -0.11141102380E+03  0.11299353072E+03  0.00000000000E+00 0. -1.
        -13    1    3    3    0    0  0.27263412776E+02  0.14535824227E+02 -0.10096565369E+02  0.32504222716E+02  0.00000000000E+00 0. -1.
         13    1    3    3    0    0 -0.72991904273E+02 -0.16587340602E+02 -0.40494746578E+02  0.85104538411E+02  0.00000000000E+00 0.  1.
         21    1    1    2  502  501  0.14827582481E+02  0.25586970425E+02 -0.25287716546E+02  0.38910395344E+02  0.00000000000E+00 0. -1.
<scales pt_clust_5="13000.00000" pt_clust_6="13000.00000" pt_clust_7="13000.00000" pt_clust_8="13000.00000" pt_clust_9="29.57280"></scales>
<clustering>
<clus scale="   29.573">  2  9  1 -1</clus>
<clus scale="   80.759">  5  6 -1 -1</clus>
<clus scale="   90.485">  2  5  1 -1</clus>
<clus scale="   95.797">  7  8 -1 -1</clus>
<clus scale="   29.573">  2  5  1 -1</clus>
</clustering>
</event>
<event>
 9    2  0.3402837E-005  0.2111036E+03  0.7546771E-02  0.1141376E+00
         -1   -1    0    0    0  501 -0.00000000000E+00  0.00000000000E+00  0.81874198354E+02  0.81874198354E+02  0.00000000000E+00 0.  1.
          2   -1    0    0  502    0  0.00000000000E+00 -0.00000000000E+00 -0.14242413054E+04  0.14242413054E+04  0.00000000000E+00 0. -1.
         23    2    1    2    0    0 -0.21685109899E+03  0.23627898157E+01 -0.22137794373E+03  0.32246479819E+03  0.89136806050E+02 0.  0.
         24    2    1    2    0    0  0.15783550617E+03 -0.11018315370E+03 -0.95246285440E+03  0.97506214437E+03  0.80674171786E+02 0.  0.
        -13    1    4    4    0    0  0.85801536566E+02 -0.26083339629E+02 -0.29466864279E+03  0.30801274864E+03  0.00000000000E+00 0.  1.
         14    1    4    4    0    0  0.72033969606E+02 -0.84099814073E+02 -0.65779421162E+03  0.66704939573E+03  0.00000000000E+00 0. -1.
        -11    1    3    3    0    0 -0.16135123835E+02 -0.25877255511E+02 -0.41258926423E+02  0.51305687634E+02  0.00000000000E+00 0. -1.
         11    1    3    3    0    0 -0.20071597515E+03  0.28240045327E+02 -0.18011901731E+03  0.27115911056E+03  0.00000000000E+00 0.  1.
         21    1    1    2  502  501  0.59015592818E+02  0.10782036389E+03 -0.16852630888E+03  0.20858856116E+03  0.00000000000E+00 0.  1.
<scales pt_clust_5="13000.00000" pt_clust_6="13000.00000" pt_clust_7="13000.00000" pt_clust_8="13000.00000" pt_clust_9="122.91489"></scales>
<clustering>
<clus scale="   80.674">  5  6 -1 -1</clus>
<clus scale="   89.137">  7  8 -1 -1</clus>
<clus scale="  122.915">  1  9  2 -1</clus>
<clus scale="  207.672">  2  5  1 -1</clus>
<clus scale="  207.672">  2  5  1 -1</clus>
</clustering>
</event>
<event>
 9    2  0.3402837E-005  0.9869508E+02  0.7546771E-02  0.1290500E+00
         -1   -1    0    0    0  501 -0.00000000000E+00  0.00000000000E+00  0.58041852842E+02  0.58041852842E+02  0.00000000000E+00 0.  1.
          2   -1    0    0  502    0  0.00000000000E+00 -0.00000000000E+00 -0.56359633431E+03  0.56359633431E+03  0.00000000000E+00 0. -1.
         24    2    1    2    0    0  0.30237110271E+02  0.30224116896E+02 -0.10745462595E+02  0.93499857044E+02  0.82455916835E+02 0.  0.
         23    2    1    2    0    0  0.29886595694E+02 -0.53922517679E+01 -0.40476877563E+03  0.41705850769E+03  0.95800585242E+02 0.  0.
        -13    1    3    3    0    0  0.54439890772E+02  0.38835134891E+02 -0.42751527225E+01  0.67008554231E+02  0.00000000000E+00 0.  1.
         14    1    3    3    0    0 -0.24202780501E+02 -0.86110179952E+01 -0.64703098727E+01  0.26491302813E+02  0.00000000000E+00 0. -1.
        -13    1    4    4    0    0  0.56288014886E+02 -0.29107036542E+02 -0.29368043590E+03  0.30043927610E+03  0.00000000000E+00 0.  1.
         13    1    4    4    0    0 -0.26401419191E+02  0.23714784774E+02 -0.11108833973E+03  0.11661923159E+03  0.00000000000E+00 0. -1.
         21    1    1    2  502  501 -0.60123705966E+02 -0.24831865128E+02 -0.90040243249E+02  0.11107982242E+03  0.00000000000E+00 0. -1.
<scales pt_clust_5="13000.00000" pt_clust_6="13000.00000" pt_clust_7="13000.00000" pt_clust_8="13000.00000" pt_clust_9="65.04984"></scales>
<clustering>
<clus scale="   65.050">  1  9  2 -1</clus>
<clus scale="   82.456">  5  6 -1 -1</clus>
<clus scale="   85.802">  1  5  2 -1</clus>
<clus scale="   95.801">  7  8 -1 -1</clus>
<clus scale="   98.695">  2  5  1 -1</clus>
</clustering>
</event>
<event>
 9    2  0.3402837E-005  0.8810404E+02  0.7546771E-02  0.1312211E+00
          2   -1    0    0  502    0  0.00000000000E+00  0.00000000000E+00  0.29194567140E+03  0.29194567140E+03  0.00000000000E+00 0. -1.
         -1   -1    0    0    0  501 -0.00000000000E+00 -0.00000000000E+00 -0.47507533232E+02  0.47507533232E+02  0.00000000000E+00 0.  1.
         23    2    1    2    0    0 -0.17427633955E+01 -0.16465637135E+02  0.36101635676E+02  0.96334534413E+02  0.87765938675E+02 0.  0.
         24    2    1    2    0    0  0.13484731870E+01 -0.14269090077E+02  0.19112272829E+03  0.20788952115E+03  0.80527823928E+02 0.  0.
        -13    1    4    4    0    0 -0.70152158268E+01 -0.33882600829E+02  0.18101571633E+03  0.18429306404E+03  0.00000000000E+00 0.  1.
         14    1    4    4    0    0  0.83636890138E+01  0.19613510752E+02  0.10107011953E+02  0.23596457118E+02  0.00000000000E+00 0. -1.
        -13    1    3    3    0    0  0.96135137052E+01  0.34552554969E+02  0.22458369670E+02  0.42316392437E+02  0.00000000000E+00 0. -1.
         13    1    3    3    0    0 -0.11356277101E+02 -0.51018192104E+02  0.13643266006E+02  0.54018141975E+02  0.00000000000E+00 0.  1.
         21    1    1    2  502  501  0.39429020845E+00  0.30734727212E+02  0.17213774208E+02  0.35229149068E+02  0.00000000000E+00 0. -1.
<scales pt_clust_5="13000.00000" pt_clust_6="13000.00000" pt_clust_7="13000.00000" pt_clust_8="13000.00000" pt_clust_9="30.73726"></scales>
<clustering>
<clus scale="   30.737">  2  9  1 -1</clus>
<clus scale="   80.528">  5  6 -1 -1</clus>
<clus scale="   80.896">  1  5  2 -1</clus>
<clus scale="   87.766">  7  8 -1 -1</clus>
<clus scale="   80.896">  1  5  2 -1</clus>
</clustering>
</event>
<event>
 9    2  0.3402837E-005  0.1414424E+03  0.7546771E-02  0.1213518E+00
         -1   -1    0    0    0  501 -0.00000000000E+00  0.00000000000E+00  0.42835437135E+03  0.42835437135E+03  0.00000000000E+00 0.  1.
          2   -1    0    0  502    0  0.00000000000E+00 -0.00000000000E+00 -0.19714223722E+03  0.19714223722E+03  0.00000000000E+00 0. -1.
         24    2    1    2    0    0 -0.30034491733E+02 -0.97374937868E+02  0.32752297039E+03  0.35256097387E+03  0.81510704466E+02 0.  0.
         23    2    1    2    0    0  0.71908664230E+02  0.82035297130E+02 -0.14753357685E+03  0.20502009852E+03  0.91468237843E+02 0.  0.
        -13    1    3    3    0    0 -0.63521653270E+01 -0.10415518951E+03  0.24148312519E+03  0.26306416187E+03  0.00000000000E+00 0.  1.
         14    1    3    3    0    0 -0.23682326406E+02  0.67802516446E+01  0.86039845194E+02  0.89496811996E+02  0.00000000000E+00 0. -1.
        -13    1    4    4    0    0  0.81781043090E+02  0.48620993114E+02 -0.64424083848E+02  0.11490257856E+03  0.00000000000E+00 0.  1.
         13    1    4    4    0    0 -0.98723788607E+01  0.33414304016E+02 -0.83109493000E+02  0.90117519962E+02  0.00000000000E+00 0. -1.
         21    1    1    2  502  501 -0.41874172497E+02  0.15339640738E+02  0.51222740594E+02  0.67915536177E+02  0.00000000000E+00 0. -1.
<scales pt_clust_5="13000.00000" pt_clust_6="13000.00000" pt_clust_7="13000.00000" pt_clust_8="13000.00000" pt_clust_9="44.59541"></scales>
<clustering>
<clus scale="   44.595">  1  9  2 -1</clus>
<clus scale="   81.511">  5  6 -1 -1</clus>
<clus scale="   91.468">  7  8 -1 -1</clus>
<clus scale="  135.217">  1  5  2 -1</clus>
<clus scale="  141.442">  2  5  1 -1</clus>
</clustering>
</event>
<event>
 9    2  0.3402837E-005  0.9070854E+02  0.7546771E-02  0.1303867E+00
         -1   -1    0    0    0  501 -0.00000000000E+00  0.00000000000E+00  0.14429662430E+03  0.14429662430E+03  0.00000000000E+00 0.  1.
          2   -1    0    0  502    0  0.00000000000E+00 -0.00000000000E+00 -0.22139073184E+03  0.22139073184E+03  0.00000000000E+00 0. -1.
         23    2    1    2    0    0 -0.55768873055E+02 -0.39090335715E+02  0.42832041332E+02  0.11402451550E+03  0.80800896170E+02 0.  0.
         24    2    1    2    0    0  0.25547788896E+02 -0.13466831700E+02 -0.15664421585E+03  0.18078416813E+03  0.85507075798E+02 0.  0.
        -13    1    4    4    0    0  0.30891831605E+02 -0.39948959389E+02 -0.51123045024E+02  0.71859518149E+02  0.00000000000E+00 0.  1.
         14    1    4    4    0    0 -0.53440427084E+01  0.26482127690E+02 -0.10552117083E+03  0.10892464998E+03  0.00000000000E+00 0. -1.
        -13    1    3    3    0    0 -0.21071575144E+01 -0.50631107076E+02  0.17959363684E+02  0.53763257532E+02  0.00000000000E+00 0. -1.
         13    1    3    3    0    0 -0.53661715541E+02  0.11540771361E+02  0.24872677648E+02  0.60261257967E+02  0.00000000000E+00 0.  1.
         21    1    1    2  502  501  0.30221084159E+02  0.52557167415E+02  0.36718066988E+02  0.70878672517E+02  0.00000000000E+00 0.  1.
<scales pt_clust_5="13000.00000" pt_clust_6="13000.00000" pt_clust_7="13000.00000" pt_clust_8="13000.00000" pt_clust_9="60.62648"></scales>
<clustering>
<clus scale="   60.626">  1  9  2 -1</clus>
<clus scale="   80.801">  7  8 -1 -1</clus>
<clus scale="   85.507">  5  6 -1 -1</clus>
<clus scale="   86.287">  1  7  2 -1</clus>
<clus scale="   90.709">  2  5  1 -1</clus>
</clustering>
</event>
<event>
 9    2  0.3402837E-005  0.1040645E+03  0.7546771E-02  0.1276958E+00
         -1   -1    0    0    0  501 -0.00000000000E+00  0.00000000000E+00  0.18767829823E+03  0.18767829823E+03  0.00000000000E+00 0.  1.
          2   -1    0    0  502    0  0.00000000000E+00 -0.00000000000E+00 -0.16116489953E+03  0.16116489953E+03  0.00000000000E+00 0. -1.
         24    2    1    2    0    0 -0.76121810830E+01  0.31233940850E+02  0.10484028547E+03  0.13527264302E+03  0.79206679829E+02 0.  0.
         23    2    1    2    0    0 -0.10025668702E+02 -0.54397583730E+02 -0.12169507153E+03  0.16133601114E+03  0.90332756565E+02 0.  0.
        -11    1    3    3    0    0 -0.12219716485E+02  0.33344207313E+02  0.11690864025E+03  0.12218341867E+03  0.00000000000E+00 0.  1.
         12    1    3    3    0    0  0.46075354019E+01 -0.21102664626E+01 -0.12068354779E+02  0.13089224350E+02  0.00000000000E+00 0. -1.
        -11    1    4    4    0    0 -0.42441131023E+02 -0.27241399432E+02 -0.26055411587E+02  0.56764671394E+02  0.00000000000E+00 0.  1.
         11    1    4    4    0    0  0.32415462322E+02 -0.27156184298E+02 -0.95639659941E+02  0.10457133975E+03  0.00000000000E+00 0. -1.
         21    1    1    2  502  501  0.17637849785E+02  0.23163642880E+02  0.43368184748E+02  0.52234543598E+02  0.00000000000E+00 0. -1.
<scales pt_clust_5="13000.00000" pt_clust_6="13000.00000" pt_clust_7="13000.00000" pt_clust_8="13000.00000" pt_clust_9="29.11440"></scales>
<clustering>
<clus scale="   29.114">  1  9  2 -1</clus>
<clus scale="   79.207">  5  6 -1 -1</clus>
<clus scale="   90.333">  7  8 -1 -1</clus>
<clus scale="   94.568">  1  5  2 -1</clus>
<clus scale="  104.065">  2  5  1 -1</clus>
</clustering>
</event>
<event>
 9    2  0.3402837E-005  0.1272359E+03  0.7546771E-02  0.1235295E+00
         -1   -1    0    0    0  501 -0.00000000000E+00  0.00000000000E+00  0.14113379678E+03  0.14113379678E+03  0.00000000000E+00 0.  1.
          2   -1    0    0  502    0  0.00000000000E+00 -0.00000000000E+00 -0.42606901101E+03  0.42606901101E+03  0.00000000000E+00 0. -1.
         24    2    1    2    0    0 -0.27841832557E+01 -0.91958842701E+02  0.85619043417E+02  0.14906812253E+03  0.80165479678E+02 0.  0.
         23    2    1    2    0    0  0.22155899625E+02  0.29429803809E+02 -0.32024527998E+03  0.33557478377E+03  0.93254484680E+02 0.  0.
        -11    1    3    3    0    0  0.17616152304E+02 -0.59496303554E+02  0.80871533363E+01  0.62574283916E+02  0.00000000000E+00 0.  1.
         12    1    3    3    0    0 -0.20400335560E+02 -0.32462539147E+02  0.77531890080E+02  0.86493838615E+02  0.00000000000E+00 0. -1.
        -13    1    4    4    0    0 -0.16307844669E+02 -0.27014101026E+02 -0.11574825587E+03  0.11997235594E+03  0.00000000000E+00 0.  1.
         13    1    4    4    0    0  0.38463744294E+02  0.56443904836E+02 -0.20449702411E+03  0.21560242783E+03  0.00000000000E+00 0. -1.
         21    1    1    2  502  501 -0.19371716369E+02  0.62529038891E+02 -0.50308977659E+02  0.82559901483E+02  0.00000000000E+00 0. -1.
<scales pt_clust_5="13000.00000" pt_clust_6="13000.00000" pt_clust_7="13000.00000" pt_clust_8="13000.00000" pt_clust_9="65.46101"></scales>
<clustering>
<clus scale="   65.461">  2  9  1 -1</clus>
<clus scale="   80.165">  5  6 -1 -1</clus>
<clus scale="   93.254">  7  8 -1 -1</clus>
<clus scale="  117.979">  1  5  2 -1</clus>
<clus scale="   65.461">  2  5  1 -1</clus>
</clustering>
</event>
<event>
 9    2  0.3402837E-005  0.1002095E+03  0.7546771E-02  0.1280759E+00
          2   -1    0    0  502    0  0.00000000000E+00  0.00000000000E+00  0.37131347660E+03  0.37131347660E+03  0.00000000000E+00 0. -1.
         -1   -1    0    0    0  501 -0.00000000000E+00 -0.00000000000E+00 -0.48352850990E+02  0.48352850990E+02  0.00000000000E+00 0.  1.
         23    2    1    2    0    0  0.49807724403E+02  0.47337126019E+02  0.53524976231E+02  0.11999710273E+03  0.82539497650E+02 0.  0.
         24    2    1    2    0    0 -0.34694820707E+02 -0.67743100296E+01  0.17966938786E+03  0.20001119154E+03  0.80459716293E+02 0.  0.
        -11    1    4    4    0    0 -0.50862940089E+02 -0.80230771144E+01  0.59222052517E+02  0.78477130077E+02  0.00000000000E+00 0.  1.
         12    1    4    4    0    0  0.16168119382E+02  0.12487670847E+01  0.12044733535E+03  0.12153406146E+03  0.00000000000E+00 0. -1.
        -13    1    3    3    0    0 -0.21803102522E+02  0.74294108721E+01  0.18910957763E+01  0.23111634921E+02  0.00000000000E+00 0. -1.
         13    1    3    3    0    0  0.71610826925E+02  0.39907715147E+02  0.51633880455E+02  0.96885467806E+02  0.00000000000E+00 0.  1.
         21    1    1    2  502  501 -0.15112903697E+02 -0.40562815989E+02  0.89766261518E+02  0.99658033324E+02  0.00000000000E+00 0.  1.
<scales pt_clust_5="13000.00000" pt_clust_6="13000.00000" pt_clust_7="13000.00000" pt_clust_8="13000.00000" pt_clust_9="43.28674"></scales>
<clustering>
<clus scale="   43.287">  1  9  2 -1</clus>
<clus scale="   80.460">  5  6 -1 -1</clus>
<clus scale="   82.539">  7  8 -1 -1</clus>
<clus scale="   98.504">  1  5  2 -1</clus>
<clus scale="   43.287">  1  5  2 -1</clus>
</clustering>
</event>
<event>
 9    2  0.3402837E-005  0.1183424E+03  0.7546771E-02  0.1270143E+00
         -1   -1    0    0    0  501 -0.00000000000E+00  0.00000000000E+00  0.22576960373E+02  0.22576960373E+02  0.00000000000E+00 0.  1.
          2   -1    0    0  502    0  0.00000000000E+00 -0.00000000000E+00 -0.10485169577E+04  0.10485169577E+04  0.00000000000E+00 0. -1.
         23    2    1    2    0    0  0.23747615943E+02 -0.46375577262E+02 -0.24099512198E+03  0.26375877620E+03  0.93677103792E+02 0.  0.
         24    2    1    2    0    0  0.30985823233E+02 -0.27714039571E+02 -0.55188056358E+03  0.55672789117E+03  0.60378796921E+02 0.  0.
        -11    1    4    4    0    0  0.27014012647E+02  0.79215612920E+01 -0.11568288231E+03  0.11905896552E+03  0.00000000000E+00 0.  1.
         12    1    4    4    0    0  0.39718105859E+01 -0.35635600863E+02 -0.43619768128E+03  0.43766892565E+03  0.00000000000E+00 0. -1.
        -13    1    3    3    0    0 -0.15826331046E+01 -0.70775538385E+02 -0.14131213484E+03  0.15805315883E+03  0.00000000000E+00 0. -1.
         13    1    3    3    0    0  0.25330249047E+02  0.24399961123E+02 -0.99682987131E+02  0.10570561737E+03  0.00000000000E+00 0.  1.
         21    1    1    2  502  501 -0.54733439176E+02  0.74089616833E+02 -0.23306431177E+03  0.25060725071E+03  0.00000000000E+00 0.  1.
<scales pt_clust_5="13000.00000" pt_clust_6="13000.00000" pt_clust_7="13000.00000" pt_clust_8="13000.00000" pt_clust_9="72.31542"></scales>
<clustering>
<clus scale="   60.379">  5  6 -1 -1</clus>
<clus scale="   73.306">  2  5  1 -1</clus>
<clus scale="   72.315">  2  9  1 -1</clus>
<clus scale="   93.677">  7  8 -1 -1</clus>
<clus scale="   73.306">  2  5  1 -1</clus>
</clustering>
</event>
<event>
 9    2  0.3402837E-005  0.1140315E+03  0.7546771E-02  0.1258620E+00
         -3   -1    0    0    0  501 -0.00000000000E+00  0.00000000000E+00  0.52763131257E+03  0.52763131257E+03  0.00000000000E+00 0.  1.
          4   -1    0    0  502    0  0.00000000000E+00 -0.00000000000E+00 -0.52407385875E+02  0.52407385875E+02  0.00000000000E+00 0. -1.
         24    2    1    2    0    0  0.63551260298E+02 -0.57571704649E+02  0.35173742837E+03  0.36996725351E+03  0.76179303561E+02 0.  0.
         23    2    1    2    0    0 -0.48237224782E+02  0.43897625914E+02  0.32181288320E+02  0.11648650231E+03  0.90992518846E+02 0.  0.
        -13    1    3    3    0    0  0.10883103473E+02 -0.54346773386E+02  0.24112827604E+03  0.24741636814E+03  0.00000000000E+00 0.  1.
         14    1    3    3    0    0  0.52668156825E+02 -0.32249312635E+01  0.11060915233E+03  0.12255088536E+03  0.00000000000E+00 0. -1.
        -13    1    4    4    0    0 -0.36902293070E+02 -0.23227068894E+02  0.16558610869E+02  0.46641864854E+02  0.00000000000E+00 0. -1.
         13    1    4    4    0    0 -0.11334931713E+02  0.67124694808E+02  0.15622677451E+02  0.69844637452E+02  0.00000000000E+00 0.  1.
         21    1    1    2  502  501 -0.15314035516E+02  0.13674078735E+02  0.91305210008E+02  0.93584942633E+02  0.00000000000E+00 0. -1.
<scales pt_clust_5="13000.00000" pt_clust_6="13000.00000" pt_clust_7="13000.00000" pt_clust_8="13000.00000" pt_clust_9="20.53047"></scales>
<clustering>
<clus scale="   20.530">  1  9  2 -1</clus>
<clus scale="   76.179">  5  6 -1 -1</clus>
<clus scale="   90.993">  7  8 -1 -1</clus>
<clus scale="  102.600">  1  5  2 -1</clus>
<clus scale="  114.032">  2  5  1 -1</clus>
</clustering>
</event>
<event>
 9    2  0.3402837E-005  0.9313449E+02  0.7546771E-02  0.1302544E+00
          2   -1    0    0  502    0  0.00000000000E+00  0.00000000000E+00  0.11824487330E+04  0.11824487330E+04  0.00000000000E+00 0. -1.
         -1   -1    0    0    0  501 -0.00000000000E+00 -0.00000000000E+00 -0.22470979882E+02  0.22470979882E+02  0.00000000000E+00 0.  1.
         23    2    1    2    0    0 -0.15125925661E+02 -0.16281636757E+02  0.14061464118E+03  0.16976342345E+03  0.92483821858E+02 0.  0.
         24    2    1    2    0    0  0.10484304028E+01 -0.13870531471E+02  0.98075302610E+03  0.98418504410E+03  0.80933379948E+02 0.  0.
        -13    1    4    4    0    0 -0.29459528614E+02 -0.62624173796E+01  0.15879793834E+03  0.16162879359E+03  0.00000000000E+00 0.  1.
         14    1    4    4    0    0  0.30507959017E+02 -0.76081140915E+01  0.82195508776E+03  0.82255625051E+03  0.00000000000E+00 0. -1.
        -13    1    3    3    0    0 -0.27781146451E+02  0.27118845974E+02  0.26458711025E+02  0.46981776192E+02  0.00000000000E+00 0.  1.
         13    1    3    3    0    0  0.12655220789E+02 -0.43400482730E+02  0.11415593015E+03  0.12278164726E+03  0.00000000000E+00 0. -1.
         21    1    1    2  502  501  0.14077495259E+02  0.30152168228E+02  0.38610085846E+02  0.50971245331E+02  0.00000000000E+00 0.  1.
<scales pt_clust_5="13000.00000" pt_clust_6="13000.00000" pt_clust_7="13000.00000" pt_clust_8="13000.00000" pt_clust_9="33.27656"></scales>
<clustering>
<clus scale="   33.277">  2  9  1 -1</clus>
<clus scale="   80.933">  5  6 -1 -1</clus>
<clus scale="   81.676">  1  5  2 -1</clus>
<clus scale="   92.484">  7  8 -1 -1</clus>
<clus scale="   81.676">  1  5  2 -1</clus>
</clustering>
</event>
<event>
 9    2  0.3402837E-005  0.9306716E+02  0.7546771E-02  0.1301776E+00
          2   -1    0    0  502    0  0.00000000000E+00  0.00000000000E+00  0.28114152700E+03  0.28114152700E+03  0.00000000000E+00 0. -1.
         -1   -1    0    0    0  501 -0.00000000000E+00 -0.00000000000E+00 -0.70476593257E+02  0.70476593257E+02  0.00000000000E+00 0.  1.
         24    2    1    2    0    0 -0.72043176512E+00  0.22839786276E+02  0.17776976289E+02  0.85759029851E+02  0.80724317624E+02 0.  0.
         23    2    1    2    0    0 -0.21793483102E+02 -0.59992666622E+01  0.21202807794E+03  0.23184697968E+03  0.91028396911E+02 0.  0.
        -13    1    3    3    0    0  0.18383122943E+02 -0.21520280520E+02 -0.10029916101E+02  0.30027668904E+02  0.00000000000E+00 0.  1.
         14    1    3    3    0    0 -0.19103554708E+02  0.44360066796E+02  0.27806892389E+02  0.55731360947E+02  0.00000000000E+00 0. -1.
        -11    1    4    4    0    0  0.23753218822E+02 -0.31546110275E+02  0.11600581001E+03  0.12254272901E+03  0.00000000000E+00 0.  1.
         11    1    4    4    0    0 -0.45546701924E+02  0.25546843613E+02  0.96022267932E+02  0.10930425067E+03  0.00000000000E+00 0. -1.
         21    1    1    2  502  501  0.22513914867E+02 -0.16840519614E+02 -0.19140120491E+02  0.34012110724E+02  0.00000000000E+00 0.  1.
<scales pt_clust_5="13000.00000" pt_clust_6="13000.00000" pt_clust_7="13000.00000" pt_clust_8="13000.00000" pt_clust_9="28.11547"></scales>
<clustering>
<clus scale="   28.115">  2  9  1 -1</clus>
<clus scale="   80.724">  5  6 -1 -1</clus>
<clus scale="   83.017">  2  5  1 -1</clus>
<clus scale="   91.028">  7  8 -1 -1</clus>
<clus scale="   93.067">  1  5  2 -1</clus>
</clustering>
</event>
<event>
 9    2  0.3402837E-005  0.1082661E+03  0.7546771E-02  0.1266443E+00
          2   -1    0    0  502    0  0.00000000000E+00  0.00000000000E+00  0.23208440145E+03  0.23208440145E+03  0.00000000000E+00 0. -1.
         -1   -1    0    0    0  501 -0.00000000000E+00 -0.00000000000E+00 -0.11958738872E+03  0.11958738872E+03  0.00000000000E+00 0.  1.
         23    2    1    2    0    0 -0.34200201813E+02 -0.19380649458E+02  0.55685250744E+01  0.99128897343E+02  0.90830977312E+02 0.  0.
         24    2    1    2    0    0  0.66616457075E+02  0.62131621938E+01  0.15767094808E+03  0.19090691619E+03  0.84314690558E+02 0.  0.
        -11    1    4    4    0    0  0.72251228328E+02 -0.22316269511E+02  0.92028448168E+02  0.11911125535E+03  0.00000000000E+00 0.  1.
         12    1    4    4    0    0 -0.56347712530E+01  0.28529431705E+02  0.65642499914E+02  0.71795660840E+02  0.00000000000E+00 0. -1.
        -11    1    3    3    0    0 -0.62409013911E+02 -0.26894852976E+02 -0.48565613219E+01  0.68130788355E+02  0.00000000000E+00 0.  1.
         11    1    3    3    0    0  0.28208812098E+02  0.75142035180E+01  0.10425086396E+02  0.30998108988E+02  0.00000000000E+00 0. -1.
         21    1    1    2  502  501 -0.32416255262E+02  0.13167487264E+02 -0.50742460427E+02  0.61635976639E+02  0.00000000000E+00 0.  1.
<scales pt_clust_5="13000.00000" pt_clust_6="13000.00000" pt_clust_7="13000.00000" pt_clust_8="13000.00000" pt_clust_9="34.98852"></scales>
<clustering>
<clus scale="   34.989">  2  9  1 -1</clus>
<clus scale="   84.315">  5  6 -1 -1</clus>
<clus scale="   90.831">  7  8 -1 -1</clus>
<clus scale="  102.860">  1  5  2 -1</clus>
<clus scale="  102.860">  1  5  2 -1</clus>
</clustering>
</event>
<event>
 9    2  0.3402837E-005  0.1003197E+03  0.7546771E-02  0.1285950E+00
         -3   -1    0    0    0  501 -0.00000000000E+00  0.00000000000E+00  0.35800103295E+02  0.35800103295E+02  0.00000000000E+00 0.  1.
          4   -1    0    0  502    0  0.00000000000E+00 -0.00000000000E+00 -0.69970972891E+03  0.69970972891E+03  0.00000000000E+00 0. -1.
         23    2    1    2    0    0 -0.40792524806E+02 -0.13585539522E+02 -0.53727691931E+02  0.11449013109E+03  0.91502613479E+02 0.  0.
         24    2    1    2    0    0  0.34109156078E+02 -0.11556126317E+02 -0.51898212377E+03  0.52618207088E+03  0.78918618480E+02 0.  0.
        -11    1    4    4    0    0  0.50528428405E+02 -0.86315890659E+01 -0.19047891341E+03  0.19725578029E+03  0.00000000000E+00 0.  1.
         12    1    4    4    0    0 -0.16419272327E+02 -0.29245372515E+01 -0.32850321036E+03  0.32892629059E+03  0.00000000000E+00 0. -1.
        -13    1    3    3    0    0  0.90091682701E+01 -0.37052118596E+02 -0.44610767886E+02  0.58686840235E+02  0.00000000000E+00 0.  1.
         13    1    3    3    0    0 -0.49801693076E+02  0.23466579074E+02 -0.91169240447E+01  0.55803290859E+02  0.00000000000E+00 0. -1.
         21    1    1    2  502  501  0.66833687282E+01  0.25141665840E+02 -0.91199809913E+02  0.94837630227E+02  0.00000000000E+00 0.  1.
<scales pt_clust_5="13000.00000" pt_clust_6="13000.00000" pt_clust_7="13000.00000" pt_clust_8="13000.00000" pt_clust_9="26.01482"></scales>
<clustering>
<clus scale="   26.015">  2  9  1 -1</clus>
<clus scale="   78.919">  5  6 -1 -1</clus>
<clus scale="   88.991">  2  5  1 -1</clus>
<clus scale="   91.503">  7  8 -1 -1</clus>
<clus scale="   26.015">  2  5  1 -1</clus>
</clustering>
</event>
<event>
 9    2  0.3436452E-005  0.2282384E+03  0.7546771E-02  0.1128782E+00
          2   -1    0    0  502    0  0.00000000000E+00  0.00000000000E+00  0.14123157277E+04  0.14123157277E+04  0.00000000000E+00 0. -1.
         -1   -1    0    0    0  501 -0.00000000000E+00 -0.00000000000E+00 -0.37451502387E+03  0.37451502387E+03  0.00000000000E+00 0.  1.
         24    2    1    2    0    0  0.69254979535E+02 -0.30708864091E+03 -0.20993000898E+03  0.38655449295E+03  0.79082752790E+02 0.  0.
         23    2    1    2    0    0 -0.70249632750E+02  0.19293733560E+03  0.12649582196E+04  0.12848280156E+04  0.92216625057E+02 0.  0.
        -11    1    3    3    0    0  0.63454305049E+02 -0.29937493614E+03 -0.17984477070E+03  0.35495907196E+03  0.00000000000E+00 0.  1.
         12    1    3    3    0    0  0.58006744857E+01 -0.77137047676E+01 -0.30085238274E+02  0.31595420993E+02  0.00000000000E+00 0. -1.
        -13    1    4    4    0    0  0.17944548979E+02  0.74711433989E+02  0.38476772326E+03  0.39236463407E+03  0.00000000000E+00 0.  1.
         13    1    4    4    0    0 -0.88194181729E+02  0.11822590161E+03  0.88019049632E+03  0.89246338150E+03  0.00000000000E+00 0. -1.
         21    1    1    2  502  501  0.99465321535E+00  0.11415130531E+03 -0.17227506762E+02  0.11544824307E+03  0.00000000000E+00 0.  1.
<scales pt_clust_5="13000.00000" pt_clust_6="13000.00000" pt_clust_7="13000.00000" pt_clust_8="13000.00000" pt_clust_9="114.15564"></scales>
<clustering>
<clus scale="   79.083">  5  6 -1 -1</clus>
<clus scale="   92.217">  7  8 -1 -1</clus>
<clus scale="  114.156">  2  9  1 -1</clus>
<clus scale="  223.255">  2  5  1 -1</clus>
<clus scale="  228.238">  1  5  2 -1</clus>
</clustering>
</event>
<event>
 9    2  0.3402837E-005  0.1634242E+03  0.7546771E-02  0.1186648E+00
         -1   -1    0    0    0  501 -0.00000000000E+00  0.00000000000E+00  0.19572569797E+03  0.19572569797E+03  0.00000000000E+00 0.  1.
          2   -1    0    0  502    0  0.00000000000E+00 -0.00000000000E+00 -0.74977128831E+03  0.74977128831E+03  0.00000000000E+00 0. -1.
         24    2    1    2    0    0  0.10588519956E+03  0.54510968540E+02 -0.83047704882E+02  0.16550465568E+03  0.79446514007E+02 0.  0.
         23    2    1    2    0    0 -0.13946801035E+03  0.61781388171E+02 -0.58640170547E+03  0.61275071173E+03  0.91259019871E+02 0.  0.
        -11    1    3    3    0    0  0.11514964020E+03  0.37527260404E+02 -0.59224986104E+02  0.13481592595E+03  0.00000000000E+00 0.  1.
         12    1    3    3    0    0 -0.92644406363E+01  0.16983708136E+02 -0.23822718778E+02  0.30688729728E+02  0.00000000000E+00 0. -1.
        -13    1    4    4    0    0 -0.71569848858E+02 -0.47957426539E+00 -0.38060529508E+03  0.38727621138E+03  0.00000000000E+00 0. -1.
         13    1    4    4    0    0 -0.67898161494E+02  0.62260962436E+02 -0.20579641039E+03  0.22547450035E+03  0.00000000000E+00 0.  1.
         21    1    1    2  502  501  0.33582810793E+02 -0.11629235671E+03  0.11540382002E+03  0.16724161888E+03  0.00000000000E+00 0.  1.
<scales pt_clust_5="13000.00000" pt_clust_6="13000.00000" pt_clust_7="13000.00000" pt_clust_8="13000.00000" pt_clust_9="121.04428"></scales>
<clustering>
<clus scale="   79.447">  5  6 -1 -1</clus>
<clus scale="   91.259">  7  8 -1 -1</clus>
<clus scale="  121.044">  1  9  2 -1</clus>
<clus scale="  157.134">  1  5  2 -1</clus>
<clus scale="  163.424">  2  5  1 -1</clus>
</clustering>
</event>
<event>
 9    2  0.3402837E-005  0.1393221E+03  0.7546771E-02  0.1215984E+00
         -1   -1    0    0    0  501 -0.00000000000E+00  0.00000000000E+00  0.12158467658E+03  0.12158467658E+03  0.00000000000E+00 0.  1.
          2   -1    0    0  502    0  0.00000000000E+00 -0.00000000000E+00 -0.30946527465E+03  0.30946527465E+03  0.00000000000E+00 0. -1.
         23    2    1    2    0    0  0.10715721110E+03 -0.28182712383E+02  0.50045670602E+02  0.15034203949E+03  0.88437698545E+02 0.  0.
         24    2    1    2    0    0 -0.92105859272E+02  0.13544507635E+02 -0.22401057206E+03  0.25551928648E+03  0.80264726813E+02 0.  0.
        -11    1    4    4    0    0 -0.79420427910E+02  0.41124337798E+00 -0.89019776338E+02  0.11929917883E+03  0.00000000000E+00 0.  1.
         12    1    4    4    0    0 -0.12685431362E+02  0.13133264257E+02 -0.13499079572E+03  0.13622010765E+03  0.00000000000E+00 0. -1.
        -11    1    3    3    0    0  0.40879353556E+02 -0.52945533139E+02  0.63670473821E+01  0.67192933549E+02  0.00000000000E+00 0.  1.
         11    1    3    3    0    0  0.66277857543E+02  0.24762820756E+02  0.43678623220E+02  0.83149105941E+02  0.00000000000E+00 0. -1.
         21    1    1    2  502  501 -0.15051351827E+02  0.14638204748E+02 -0.13915696613E+02  0.25188625256E+02  0.00000000000E+00 0.  1.
<scales pt_clust_5="13000.00000" pt_clust_6="13000.00000" pt_clust_7="13000.00000" pt_clust_8="13000.00000" pt_clust_9="20.99572"></scales>
<clustering>
<clus scale="   20.996">  2  9  1 -1</clus>
<clus scale="   80.265">  5  6 -1 -1</clus>
<clus scale="   88.438">  7  8 -1 -1</clus>
<clus scale="  134.283">  2  5  1 -1</clus>
<clus scale="   20.996">  2  5  1 -1</clus>
</clustering>
</event>
<event>
 9    2  0.3402837E-005  0.1370428E+03  0.7546771E-02  0.1218145E+00
          2   -1    0    0  502    0  0.00000000000E+00  0.00000000000E+00  0.38643490996E+03  0.38643490996E+03  0.00000000000E+00 0. -1.
         -1   -1    0    0    0  501 -0.00000000000E+00 -0.00000000000E+00 -0.14919593613E+03  0.14919593613E+03  0.00000000000E+00 0.  1.
         24    2    1    2    0    0  0.68283333089E+02  0.35536722156E+02  0.19379790734E+02  0.12210002712E+03  0.92775902772E+02 0.  0.
         23    2    1    2    0    0 -0.99076766274E+02 -0.43578464385E+02  0.29684309368E+03  0.32837588208E+03  0.89440536064E+02 0.  0.
        -13    1    3    3    0    0  0.38340487811E+01 -0.26838585689E+02 -0.80982809555E+01  0.28294730362E+02  0.00000000000E+00 0.  1.
         14    1    3    3    0    0  0.64449284308E+02  0.62375307845E+02  0.27478071689E+02  0.93805296760E+02  0.00000000000E+00 0. -1.
        -13    1    4    4    0    0 -0.10472812515E+03 -0.11473449628E+02  0.25013575836E+03  0.27141760786E+03  0.00000000000E+00 0. -1.
         13    1    4    4    0    0  0.56513588748E+01 -0.32105014757E+02  0.46707335318E+02  0.56958274221E+02  0.00000000000E+00 0.  1.
         21    1    1    2  502  501  0.30793433185E+02  0.80417422295E+01 -0.78983910588E+02  0.85154936893E+02  0.00000000000E+00 0.  1.
<scales pt_clust_5="13000.00000" pt_clust_6="13000.00000" pt_clust_7="13000.00000" pt_clust_8="13000.00000" pt_clust_9="31.82617"></scales>
<clustering>
<clus scale="   31.826">  2  9  1 -1</clus>
<clus scale="   89.441">  7  8 -1 -1</clus>
<clus scale="   92.776">  5  6 -1 -1</clus>
<clus scale="  134.807">  1  7  2 -1</clus>
<clus scale="  134.807">  1  5  2 -1</clus>
</clustering>
</event>
<event>
 9    2  0.3402837E-005  0.1493931E+03  0.7546771E-02  0.1203553E+00
         -1   -1    0    0    0  501 -0.00000000000E+00  0.00000000000E+00  0.38679449401E+03  0.38679449401E+03  0.00000000000E+00 0.  1.
          2   -1    0    0  502    0  0.00000000000E+00 -0.00000000000E+00 -0.88563128509E+02  0.88563128509E+02  0.00000000000E+00 0. -1.
         24    2    1    2    0    0 -0.88968613135E+02  0.10224049462E+03  0.12179235044E+03  0.19854705162E+03  0.78860777439E+02 0.  0.
         23    2    1    2    0    0  0.50946590064E+02 -0.95053416773E+02  0.59082396138E+02  0.15323911654E+03  0.91437356838E+02 0.  0.
        -13    1    3    3    0    0 -0.78275171977E+02  0.11062652729E+03  0.12523979313E+03  0.18452706271E+03  0.00000000000E+00 0.  1.
         14    1    3    3    0    0 -0.10693441158E+02 -0.83860326741E+01 -0.34474426958E+01  0.14019988907E+02  0.00000000000E+00 0. -1.
        -13    1    4    4    0    0  0.26259066369E+02 -0.58527805203E+02  0.81551025843E+02  0.10375746896E+03  0.00000000000E+00 0.  1.
         13    1    4    4    0    0  0.24687523695E+02 -0.36525611571E+02 -0.22468629705E+02  0.49481647584E+02  0.00000000000E+00 0. -1.
         21    1    1    2  502  501  0.38022023071E+02 -0.71870778466E+01  0.11735661892E+03  0.12357145435E+03  0.00000000000E+00 0.  1.
<scales pt_clust_5="13000.00000" pt_clust_6="13000.00000" pt_clust_7="13000.00000" pt_clust_8="13000.00000" pt_clust_9="38.69533"></scales>
<clustering>
<clus scale="   38.695">  1  9  2 -1</clus>
<clus scale="   78.861">  5  6 -1 -1</clus>
<clus scale="   91.437">  7  8 -1 -1</clus>
<clus scale="  142.044">  1  5  2 -1</clus>
<clus scale="  149.393">  2  5  1 -1</clus>
</clustering>
</event>
<event>
 9    2  0.3402837E-005  0.1415000E+03  0.7546771E-02  0.1218488E+00
         -1   -1    0    0    0  501 -0.00000000000E+00  0.00000000000E+00  0.11000967184E+03  0.11000967184E+03  0.00000000000E+00 0.  1.
          2   -1    0    0  502    0  0.00000000000E+00 -0.00000000000E+00 -0.31885826625E+03  0.31885826625E+03  0.00000000000E+00 0. -1.
         23    2    1    2    0    0  0.48106495869E+01  0.10324003520E+03 -0.51043301995E+02  0.15806267548E+03  0.10815148396E+03 0.  0.
         24    2    1    2    0    0  0.76996232611E+01 -0.87339574821E+02 -0.19503317652E+03  0.22843490834E+03  0.80355969772E+02 0.  0.
        -11    1    4    4    0    0  0.15425108755E+02 -0.28269403840E+02 -0.95057789784E+01  0.33577567028E+02  0.00000000000E+00 0.  1.
         12    1    4    4    0    0 -0.77254854941E+01 -0.59070170982E+02 -0.18552739754E+03  0.19485734131E+03  0.00000000000E+00 0. -1.
        -13    1    3    3    0    0 -0.44600387434E+02  0.32135717853E+02 -0.45394037435E+02  0.71291777617E+02  0.00000000000E+00 0. -1.
         13    1    3    3    0    0  0.49411037021E+02  0.71104317351E+02 -0.56492645600E+01  0.86770897860E+02  0.00000000000E+00 0.  1.
         21    1    1    2  502  501 -0.12510272848E+02 -0.15900460383E+02  0.37227884101E+02  0.42370354280E+02  0.00000000000E+00 0. -1.
<scales pt_clust_5="13000.00000" pt_clust_6="13000.00000" pt_clust_7="13000.00000" pt_clust_8="13000.00000" pt_clust_9="20.23194"></scales>
<clustering>
<clus scale="   20.232">  1  9  2 -1</clus>
<clus scale="   80.356">  5  6 -1 -1</clus>
<clus scale="  108.151">  7  8 -1 -1</clus>
<clus scale="  121.584">  2  5  1 -1</clus>
<clus scale="  121.584">  2  5  1 -1</clus>
</clustering>
</event>
<event>
 9    2  0.3402837E-005  0.1410275E+03  0.7546771E-02  0.1212397E+00
         -1   -1    0    0    0  501 -0.00000000000E+00  0.00000000000E+00  0.89944836359E+02  0.89944836359E+02  0.00000000000E+00 0.  1.
          2   -1    0    0  502    0  0.00000000000E+00 -0.00000000000E+00 -0.53647754490E+03  0.53647754490E+03  0.00000000000E+00 0. -1.
         23    2    1    2    0    0  0.64902122133E+02  0.93157307769E+02 -0.22456464922E+03  0.26785801632E+03  0.91804497603E+02 0.  0.
         24    2    1    2    0    0 -0.10052672227E+03 -0.37793422278E+02 -0.24936338363E+03  0.28725675143E+03  0.93810337857E+02 0.  0.
        -13    1    4    4    0    0 -0.69158790180E+02 -0.20084298740E+01 -0.58667382035E+02  0.90712919502E+02  0.00000000000E+00 0.  1.
         14    1    4    4    0    0 -0.31367932090E+02 -0.35784992404E+02 -0.19069600159E+03  0.19654383192E+03  0.00000000000E+00 0. -1.
        -13    1    3    3    0    0  0.51374149317E+02  0.11175824717E+03 -0.19021088035E+03  0.22651575670E+03  0.00000000000E+00 0. -1.
         13    1    3    3    0    0  0.13527972816E+02 -0.18600939403E+02 -0.34353768869E+02  0.41342259623E+02  0.00000000000E+00 0.  1.
         21    1    1    2  502  501  0.35624600136E+02 -0.55363885491E+02  0.27395324302E+02  0.71307613514E+02  0.00000000000E+00 0.  1.
<scales pt_clust_5="13000.00000" pt_clust_6="13000.00000" pt_clust_7="13000.00000" pt_clust_8="13000.00000" pt_clust_9="65.83519"></scales>
<clustering>
<clus scale="   65.835">  1  9  2 -1</clus>
<clus scale="   91.804">  7  8 -1 -1</clus>
<clus scale="   93.810">  5  6 -1 -1</clus>
<clus scale="  139.701">  1  7  2 -1</clus>
<clus scale="  141.028">  2  5  1 -1</clus>
</clustering>
</event>
<event>
 9    2  0.3402837E-005  0.2754188E+03  0.7546771E-02  0.1098690E+00
          2   -1    0    0  502    0  0.00000000000E+00  0.00000000000E+00  0.15532145795E+04  0.15532145795E+04  0.00000000000E+00 0. -1.
         -1   -1    0    0    0  501 -0.00000000000E+00 -0.00000000000E+00 -0.61510690461E+03  0.61510690461E+03  0.00000000000E+00 0.  1.
         23    2    1    2    0    0 -0.18243766933E+03 -0.73968262157E+02  0.86854590438E+02  0.23370563079E+03  0.91212910205E+02 0.  0.
         24    2    1    2    0    0  0.25625389205E+03  0.92242098651E+02  0.13756883486E+04  0.14046959404E+04  0.80483480087E+02 0.  0.
        -13    1    4    4    0    0  0.10714271085E+03  0.56330307196E+02  0.43256490087E+03  0.44918265489E+03  0.00000000000E+00 0.  1.
         14    1    4    4    0    0  0.14911118120E+03  0.35911791455E+02  0.94312344773E+03  0.95551328551E+03  0.00000000000E+00 0. -1.
        -11    1    3    3    0    0 -0.81826788481E+02 -0.75291043600E+01 -0.47133094870E+01  0.82307508843E+02  0.00000000000E+00 0. -1.
         11    1    3    3    0    0 -0.10061088085E+03 -0.66439157797E+02  0.91567899925E+02  0.15139812195E+03  0.00000000000E+00 0.  1.
         21    1    1    2  502  501 -0.73816222725E+02 -0.18273836494E+02 -0.52443526414E+03  0.52991991292E+03  0.00000000000E+00 0.  1.
<scales pt_clust_5="13000.00000" pt_clust_6="13000.00000" pt_clust_7="13000.00000" pt_clust_8="13000.00000" pt_clust_9="76.04451"></scales>
<clustering>
<clus scale="   76.045">  2  9  1 -1</clus>
<clus scale="   80.483">  5  6 -1 -1</clus>
<clus scale="   91.213">  7  8 -1 -1</clus>
<clus scale="  272.054">  1  5  2 -1</clus>
<clus scale="  272.054">  1  5  2 -1</clus>
</clustering>
</event>
<event>
 9    2  0.3402837E-005  0.1118089E+03  0.7546771E-02  0.1259617E+00
          2   -1    0    0  502    0  0.00000000000E+00  0.00000000000E+00  0.51124323098E+03  0.51124323098E+03  0.00000000000E+00 0. -1.
         -1   -1    0    0    0  501 -0.00000000000E+00 -0.00000000000E+00 -0.10451787800E+03  0.10451787800E+03  0.00000000000E+00 0.  1.
         24    2    1    2    0    0 -0.13271682938E+01 -0.49628574976E+02 -0.28610832765E+02  0.97793053758E+02  0.79247364512E+02 0.  0.
         23    2    1    2    0    0  0.33091404461E+02  0.66577580929E+02  0.46032065990E+03  0.47414500819E+03  0.85969550004E+02 0.  0.
        -13    1    3    3    0    0  0.29155697466E+02 -0.50557073447E+02 -0.32899637170E+02  0.66995958805E+02  0.00000000000E+00 0.  1.
         14    1    3    3    0    0 -0.30482865760E+02  0.92849847124E+00  0.42888044053E+01  0.30797094953E+02  0.00000000000E+00 0. -1.
        -13    1    4    4    0    0  0.50590696611E+02  0.66776287483E+01  0.22203402341E+03  0.22782255565E+03  0.00000000000E+00 0. -1.
         13    1    4    4    0    0 -0.17499292151E+02  0.59899952180E+02  0.23828663649E+03  0.24632245254E+03  0.00000000000E+00 0.  1.
         21    1    1    2  502  501 -0.31764236167E+02 -0.16949005953E+02 -0.24984474154E+02  0.43823047028E+02  0.00000000000E+00 0. -1.
<scales pt_clust_5="13000.00000" pt_clust_6="13000.00000" pt_clust_7="13000.00000" pt_clust_8="13000.00000" pt_clust_9="36.00327"></scales>
<clustering>
<clus scale="   36.003">  2  9  1 -1</clus>
<clus scale="   79.247">  5  6 -1 -1</clus>
<clus scale="   85.970">  7  8 -1 -1</clus>
<clus scale="  106.727">  2  5  1 -1</clus>
<clus scale="  111.809">  1  5  2 -1</clus>
</clustering>
</event>
<event>
 9    2  0.3402837E-005  0.8865705E+02  0.7546771E-02  0.1310163E+00
          4   -1    0    0  502    0  0.00000000000E+00  0.00000000000E+00  0.31895694280E+02  0.31895694280E+02  0.00000000000E+00 0. -1.
         -3   -1    0    0    0  501 -0.00000000000E+00 -0.00000000000E+00 -0.55421374812E+03  0.55421374812E+03  0.00000000000E+00 0.  1.
         24    2    1    2    0    0 -0.32473888578E+02 -0.35255604642E+02 -0.35853977421E+03  0.37062103936E+03  0.80694944257E+02 0.  0.
         23    2    1    2    0    0  0.97456869707E+01  0.24014034508E+01 -0.65579097352E+02  0.10947402154E+03  0.87081560792E+02 0.  0.
        -13    1    3    3    0    0 -0.49892735538E+02 -0.72289175154E+01 -0.29231356080E+03  0.29662899409E+03  0.00000000000E+00 0.  1.
         14    1    3    3    0    0  0.17418846959E+02 -0.28026687126E+02 -0.66226213409E+02  0.73992045269E+02  0.00000000000E+00 0. -1.
        -13    1    4    4    0    0 -0.19792926997E+01 -0.37347328778E+02 -0.55328550034E+02  0.66783149187E+02  0.00000000000E+00 0.  1.
         13    1    4    4    0    0  0.11724979670E+02  0.39748732229E+02 -0.10250547318E+02  0.42690872355E+02  0.00000000000E+00 0. -1.
         21    1    1    2  502  501  0.22728201608E+02  0.32854201191E+02 -0.98199182282E+02  0.10601438150E+03  0.00000000000E+00 0.  1.
<scales pt_clust_5="13000.00000" pt_clust_6="13000.00000" pt_clust_7="13000.00000" pt_clust_8="13000.00000" pt_clust_9="39.94959"></scales>
<clustering>
<clus scale="   39.950">  2  9  1 -1</clus>
<clus scale="   80.695">  5  6 -1 -1</clus>
<clus scale="   82.393">  2  5  1 -1</clus>
<clus scale="   87.082">  7  8 -1 -1</clus>
<clus scale="   88.657">  1  5  2 -1</clus>
</clustering>
</event>
<event>
 9    2  0.3402837E-005  0.1203479E+03  0.7546771E-02  0.1250011E+00
          2   -1    0    0  502    0  0.00000000000E+00  0.00000000000E+00  0.32630974826E+03  0.32630974826E+03  0.00000000000E+00 0. -1.
         -1   -1    0    0    0  501 -0.00000000000E+00 -0.00000000000E+00 -0.10038493987E+03  0.10038493987E+03  0.00000000000E+00 0.  1.
         23    2    1    2    0    0 -0.86241242123E+02 -0.17775126991E+02 -0.10149104413E+02  0.13468955547E+03  0.10141383066E+03 0.  0.
         24    2    1    2    0    0  0.59542021466E+02 -0.19640948193E+02  0.22121958898E+03  0.24369921167E+03  0.80747631869E+02 0.  0.
        -11    1    4    4    0    0  0.11527189872E+02  0.30104641690E+02  0.56334358662E+02  0.64905512273E+02  0.00000000000E+00 0.  1.
         12    1    4    4    0    0  0.48014831594E+02 -0.49745589883E+02  0.16488523032E+03  0.17879369939E+03  0.00000000000E+00 0. -1.
        -13    1    3    3    0    0 -0.64897635576E+02 -0.47044818225E+02  0.25251598282E+02  0.84039045931E+02  0.00000000000E+00 0. -1.
         13    1    3    3    0    0 -0.21343606547E+02  0.29269691234E+02 -0.35400702695E+02  0.50650509540E+02  0.00000000000E+00 0.  1.
         21    1    1    2  502  501  0.26699220657E+02  0.37416075184E+02  0.14854323822E+02  0.48305920983E+02  0.00000000000E+00 0.  1.
<scales pt_clust_5="13000.00000" pt_clust_6="13000.00000" pt_clust_7="13000.00000" pt_clust_8="13000.00000" pt_clust_9="45.96532"></scales>
<clustering>
<clus scale="   45.965">  2  9  1 -1</clus>
<clus scale="   80.748">  5  6 -1 -1</clus>
<clus scale="  101.414">  7  8 -1 -1</clus>
<clus scale="  103.533">  1  5  2 -1</clus>
<clus scale="  103.533">  1  5  2 -1</clus>
</clustering>
</event>
<event>
 9    2  0.3402837E-005  0.1114183E+03  0.7546771E-02  0.1262763E+00
         -1   -1    0    0    0  501 -0.00000000000E+00  0.00000000000E+00  0.62368395008E+02  0.62368395008E+02  0.00000000000E+00 0.  1.
          2   -1    0    0  502    0  0.00000000000E+00 -0.00000000000E+00 -0.10407316486E+04  0.10407316486E+04  0.00000000000E+00 0. -1.
         23    2    1    2    0    0 -0.42406571336E+02 -0.20060646337E+02 -0.11016167074E+03  0.15097839157E+03  0.91968115102E+02 0.  0.
         24    2    1    2    0    0  0.62748891609E+02  0.17932222877E+02 -0.90456697439E+03  0.91039897374E+03  0.79535477783E+02 0.  0.
        -13    1    4    4    0    0  0.47188044623E+02 -0.14480721526E+02 -0.24891272329E+03  0.25375962379E+03  0.00000000000E+00 0.  1.
         14    1    4    4    0    0  0.15560846987E+02  0.32412944403E+02 -0.65565425110E+03  0.65663934995E+03  0.00000000000E+00 0. -1.
        -13    1    3    3    0    0  0.24118386622E+02  0.12686650565E+02 -0.17859922030E+02  0.32582579559E+02  0.00000000000E+00 0. -1.
         13    1    3    3    0    0 -0.66524957958E+02 -0.32747296902E+02 -0.92301748714E+02  0.11839581201E+03  0.00000000000E+00 0.  1.
         21    1    1    2  502  501 -0.20342320273E+02  0.21284234600E+01  0.36365391551E+02  0.41722678284E+02  0.00000000000E+00 0.  1.
<scales pt_clust_5="13000.00000" pt_clust_6="13000.00000" pt_clust_7="13000.00000" pt_clust_8="13000.00000" pt_clust_9="20.45337"></scales>
<clustering>
<clus scale="   20.453">  1  9  2 -1</clus>
<clus scale="   79.535">  5  6 -1 -1</clus>
<clus scale="   91.968">  7  8 -1 -1</clus>
<clus scale="  101.399">  2  5  1 -1</clus>
<clus scale="  101.399">  2  5  1 -1</clus>
</clustering>
</event>
<event>
 9    2  0.3402837E-005  0.2354774E+03  0.7546771E-02  0.1123555E+00
         -1   -1    0    0    0  501 -0.00000000000E+00  0.00000000000E+00  0.16406143093E+03  0.16406143093E+03  0.00000000000E+00 0.  1.
          2   -1    0    0  502    0  0.00000000000E+00 -0.00000000000E+00 -0.27318035121E+04  0.27318035121E+04  0.00000000000E+00 0. -1.
         23    2    1    2    0    0  0.20566781551E+03  0.36943042077E+02  0.22930836782E+02  0.23075670329E+03  0.95177697726E+02 0.  0.
         24    2    1    2    0    0 -0.16053902212E+03 -0.14594529132E+03 -0.25132197425E+04  0.25239803094E+04  0.84441236723E+02 0.  0.
        -11    1    4    4    0    0 -0.14130232956E+01 -0.21639387582E+02 -0.99835804444E+02  0.10216382715E+03  0.00000000000E+00 0.  1.
         12    1    4    4    0    0 -0.15912599882E+03 -0.12430590374E+03 -0.24133839380E+04  0.24218164822E+04  0.00000000000E+00 0. -1.
        -11    1    3    3    0    0  0.12808482151E+03 -0.78183710004E+01  0.49172939694E+02  0.13742207400E+03  0.00000000000E+00 0.  1.
         11    1    3    3    0    0  0.77582994006E+02  0.44761413077E+02 -0.26242102912E+02  0.93334629290E+02  0.00000000000E+00 0. -1.
         21    1    1    2  502  501 -0.45128793393E+02  0.10900224924E+03 -0.77453175448E+02  0.14112793033E+03  0.00000000000E+00 0. -1.
<scales pt_clust_5="13000.00000" pt_clust_6="13000.00000" pt_clust_7="13000.00000" pt_clust_8="13000.00000" pt_clust_9="117.97499"></scales>
<clustering>
<clus scale="   84.441">  5  6 -1 -1</clus>
<clus scale="   95.178">  7  8 -1 -1</clus>
<clus scale="  117.975">  1  9  2 -1</clus>
<clus scale="  231.346">  2  5  1 -1</clus>
<clus scale="  231.346">  2  5  1 -1</clus>
</clustering>
</event>
<event>
 9    2  0.3402837E-005  0.1222837E+03  0.7546771E-02  0.1242362E+00
         -1   -1    0    0    0  501 -0.00000000000E+00  0.00000000000E+00  0.11162782815E+03  0.11162782815E+03  0.00000000000E+00 0.  1.
          2   -1    0    0  502    0  0.00000000000E+00 -0.00000000000E+00 -0.51213540365E+03  0.51213540365E+03  0.00000000000E+00 0. -1.
         24    2    1    2    0    0  0.84193560998E+02 -0.56926686971E+02 -0.82553643154E+02  0.15375648104E+03  0.80602407295E+02 0.  0.
         23    2    1    2    0    0 -0.61510804004E+02  0.46734607748E+02 -0.38262799303E+03  0.40071663553E+03  0.90564553633E+02 0.  0.
        -11    1    3    3    0    0  0.46975625715E+02 -0.40166855897E+02 -0.16049327523E+00  0.61807050423E+02  0.00000000000E+00 0.  1.
         12    1    3    3    0    0  0.37217935283E+02 -0.16759831075E+02 -0.82393149879E+02  0.91949430620E+02  0.00000000000E+00 0. -1.
        -13    1    4    4    0    0 -0.70251280949E+02  0.10358792684E+02 -0.31984034635E+03  0.32762843926E+03  0.00000000000E+00 0. -1.
         13    1    4    4    0    0  0.87404769446E+01  0.36375815064E+02 -0.62787646678E+02  0.73088196271E+02  0.00000000000E+00 0.  1.
         21    1    1    2  502  501 -0.22682756993E+02  0.10192079223E+02  0.64674060679E+02  0.69290115229E+02  0.00000000000E+00 0.  1.
<scales pt_clust_5="13000.00000" pt_clust_6="13000.00000" pt_clust_7="13000.00000" pt_clust_8="13000.00000" pt_clust_9="24.86737"></scales>
<clustering>
<clus scale="   24.867">  1  9  2 -1</clus>
<clus scale="   80.602">  5  6 -1 -1</clus>
<clus scale="   90.565">  7  8 -1 -1</clus>
<clus scale="  115.100">  1  5  2 -1</clus>
<clus scale="  122.284">  2  5  1 -1</clus>
</clustering>
</event>
<event>
 9    2  0.3402837E-005  0.1217600E+03  0.7546771E-02  0.1255755E+00
          2   -1    0    0  502    0  0.00000000000E+00  0.00000000000E+00  0.26077847309E+03  0.26077847309E+03  0.00000000000E+00 0. -1.
         -1   -1    0    0    0  501 -0.00000000000E+00 -0.00000000000E+00 -0.20793939161E+03  0.20793939161E+03  0.00000000000E+00 0.  1.
         23    2    1    2    0    0 -0.13950588031E+01 -0.56590740364E+02 -0.35545281733E+02  0.11281191131E+03  0.90876851810E+02 0.  0.
         24    2    1    2    0    0  0.18160078291E+02 -0.34194962630E+02  0.19526911841E+03  0.21467047401E+03  0.80338657511E+02 0.  0.
        -13    1    4    4    0    0  0.38845599671E+02 -0.28510901273E+01  0.43792287963E+02  0.58607796527E+02  0.00000000000E+00 0.  1.
         14    1    4    4    0    0 -0.20685521380E+02 -0.31343872503E+02  0.15147683045E+03  0.15606267748E+03  0.00000000000E+00 0. -1.
        -13    1    3    3    0    0  0.33043610490E+01  0.24486380848E+02 -0.15076337343E+01  0.24754284649E+02  0.00000000000E+00 0.  1.
         13    1    3    3    0    0 -0.46994198521E+01 -0.81077121213E+02 -0.34037647999E+02  0.88057626657E+02  0.00000000000E+00 0. -1.
         21    1    1    2  502  501 -0.16765019488E+02  0.90785702995E+02 -0.10688475520E+03  0.14123547939E+03  0.00000000000E+00 0.  1.
<scales pt_clust_5="13000.00000" pt_clust_6="13000.00000" pt_clust_7="13000.00000" pt_clust_8="13000.00000" pt_clust_9="81.03644"></scales>
<clustering>
<clus scale="   80.339">  5  6 -1 -1</clus>
<clus scale="   89.182">  1  5  2 -1</clus>
<clus scale="   81.036">  2  9  1 -1</clus>
<clus scale="   90.877">  7  8 -1 -1</clus>
<clus scale="   89.182">  1  5  2 -1</clus>
</clustering>
</event>
<event>
 9    2  0.3402837E-005  0.1239477E+03  0.7546771E-02  0.1239788E+00
          2   -1    0    0  502    0  0.00000000000E+00  0.00000000000E+00  0.70414436193E+03  0.70414436193E+03  0.00000000000E+00 0. -1.
         -1   -1    0    0    0  501 -0.00000000000E+00 -0.00000000000E+00 -0.20902157817E+03  0.20902157817E+03  0.00000000000E+00 0.  1.
         24    2    1    2    0    0 -0.66641307241E+02 -0.67851052992E+02  0.59805062780E+02  0.13748479751E+03  0.79250203720E+02 0.  0.
         23    2    1    2    0    0  0.46436296474E+02  0.69969092067E+02  0.59861414221E+03  0.61112583354E+03  0.89910453752E+02 0.  0.
        -11    1    3    3    0    0 -0.66495659820E+02 -0.12271825007E+02  0.26080414433E+02  0.72473846875E+02  0.00000000000E+00 0.  1.
         12    1    3    3    0    0 -0.14564742174E+00 -0.55579227984E+02  0.33724648347E+02  0.65010950636E+02  0.00000000000E+00 0. -1.
        -11    1    4    4    0    0 -0.25327148456E+02  0.20617951154E+02  0.10759351740E+03  0.11244078151E+03  0.00000000000E+00 0.  1.
         11    1    4    4    0    0  0.71763444930E+02  0.49351140913E+02  0.49102062481E+03  0.49868505204E+03  0.00000000000E+00 0. -1.
         21    1    1    2  502  501  0.20205010767E+02 -0.21180390758E+01 -0.16329642123E+03  0.16455530905E+03  0.00000000000E+00 0.  1.
<scales pt_clust_5="13000.00000" pt_clust_6="13000.00000" pt_clust_7="13000.00000" pt_clust_8="13000.00000" pt_clust_9="20.31572"></scales>
<clustering>
<clus scale="   20.316">  2  9  1 -1</clus>
<clus scale="   79.250">  5  6 -1 -1</clus>
<clus scale="   89.910">  7  8 -1 -1</clus>
<clus scale="  116.446">  2  5  1 -1</clus>
<clus scale="  123.948">  1  5  2 -1</clus>
</clustering>
</event>
<event>
 9    2  0.3402837E-005  0.9844654E+02  0.7546771E-02  0.1287892E+00
          2   -1    0    0  502    0  0.00000000000E+00  0.00000000000E+00  0.27050987677E+03  0.27050987677E+03  0.00000000000E+00 0. -1.
         -1   -1    0    0    0  501 -0.00000000000E+00 -0.00000000000E+00 -0.22851169861E+03  0.22851169861E+03  0.00000000000E+00 0.  1.
         23    2    1    2    0    0  0.17251314492E+02  0.34125291619E+02 -0.54294884831E+02  0.11373300051E+03  0.92331562888E+02 0.  0.
         24    2    1    2    0    0 -0.29564551163E+02 -0.17388950134E+02  0.23140037023E+03  0.24859290781E+03  0.84118156167E+02 0.  0.
        -11    1    4    4    0    0  0.68074022089E+01  0.22353384377E+02  0.21040068778E+02  0.31443584594E+02  0.00000000000E+00 0.  1.
         12    1    4    4    0    0 -0.36371953371E+02 -0.39742334512E+02  0.21036030146E+03  0.21714932322E+03  0.00000000000E+00 0. -1.
        -11    1    3    3    0    0 -0.25533045505E+02  0.48489702619E+02 -0.29293920826E+02  0.62139532266E+02  0.00000000000E+00 0.  1.
         11    1    3    3    0    0  0.42784359998E+02 -0.14364411000E+02 -0.25000964005E+02  0.51593468239E+02  0.00000000000E+00 0. -1.
         21    1    1    2  502  501  0.12313236670E+02 -0.16736341485E+02 -0.13510730725E+03  0.13669566707E+03  0.00000000000E+00 0. -1.
<scales pt_clust_5="13000.00000" pt_clust_6="13000.00000" pt_clust_7="13000.00000" pt_clust_8="13000.00000" pt_clust_9="20.77790"></scales>
<clustering>
<clus scale="   20.778">  2  9  1 -1</clus>
<clus scale="   84.118">  5  6 -1 -1</clus>
<clus scale="   90.788">  1  5  2 -1</clus>
<clus scale="   92.332">  7  8 -1 -1</clus>
<clus scale="   90.788">  1  5  2 -1</clus>
</clustering>
</event>
<event>
 9    2  0.3402837E-005  0.1205197E+03  0.7546771E-02  0.1244465E+00
          4   -1    0    0  502    0  0.00000000000E+00  0.00000000000E+00  0.22135221432E+03  0.22135221432E+03  0.00000000000E+00 0. -1.
         -3   -1    0    0    0  501 -0.00000000000E+00 -0.00000000000E+00 -0.47091415226E+03  0.47091415226E+03  0.00000000000E+00 0.  1.
         23    2    1    2    0    0 -0.58062467957E+02  0.16832938232E+02 -0.35782323979E+03  0.37362321520E+03  0.88894533065E+02 0.  0.
         24    2    1    2    0    0  0.78752872121E+02 -0.23853063254E+02  0.19629344275E+03  0.22794015909E+03  0.81575835690E+02 0.  0.
        -13    1    4    4    0    0 -0.12770772125E+02 -0.20660939879E+02  0.40916997754E+02  0.47583271877E+02  0.00000000000E+00 0.  1.
         14    1    4    4    0    0  0.91523644247E+02 -0.31921233753E+01  0.15537644499E+03  0.18035688722E+03  0.00000000000E+00 0. -1.
        -11    1    3    3    0    0 -0.79002265899E+02  0.23534158402E+02 -0.23988992440E+03  0.25365801871E+03  0.00000000000E+00 0.  1.
         11    1    3    3    0    0  0.20939797942E+02 -0.67012201701E+01 -0.11793331539E+03  0.11996519649E+03  0.00000000000E+00 0. -1.
         21    1    1    2  502  501 -0.20690404165E+02  0.70201250225E+01 -0.88032140897E+02  0.90702992292E+02  0.00000000000E+00 0.  1.
<scales pt_clust_5="13000.00000" pt_clust_6="13000.00000" pt_clust_7="13000.00000" pt_clust_8="13000.00000" pt_clust_9="21.84891"></scales>
<clustering>
<clus scale="   21.849">  2  9  1 -1</clus>
<clus scale="   81.576">  5  6 -1 -1</clus>
<clus scale="   88.895">  7  8 -1 -1</clus>
<clus scale="  115.228">  1  5  2 -1</clus>
<clus scale="  115.228">  1  5  2 -1</clus>
</clustering>
</event>
<event>
 9    2  0.3402837E-005  0.1283814E+03  0.7546771E-02  0.1232311E+00
         -1   -1    0    0    0  501 -0.00000000000E+00  0.00000000000E+00  0.15674481918E+02  0.15674481918E+02  0.00000000000E+00 0.  1.
          2   -1    0    0  502    0  0.00000000000E+00 -0.00000000000E+00 -0.17989862252E+04  0.17989862252E+04  0.00000000000E+00 0. -1.
         23    2    1    2    0    0 -0.67641408883E+02 -0.30925786227E+02 -0.55275869932E+03  0.56516356002E+03  0.91301179890E+02 0.  0.
         24    2    1    2    0    0  0.91528230042E+02  0.37740037134E+02 -0.12111721910E+04  0.12179910889E+04  0.82234355155E+02 0.  0.
        -11    1    4    4    0    0  0.33202929993E+02 -0.17474534615E+02 -0.19024603932E+03  0.19391067376E+03  0.00000000000E+00 0.  1.
         12    1    4    4    0    0  0.58325300049E+02  0.55214571749E+02 -0.10209261517E+04  0.10240804152E+04  0.00000000000E+00 0. -1.
        -13    1    3    3    0    0 -0.39449312864E+02 -0.63438676751E+02 -0.34526944344E+03  0.35325869072E+03  0.00000000000E+00 0.  1.
         13    1    3    3    0    0 -0.28192096019E+02  0.32512890524E+02 -0.20748925588E+03  0.21190486930E+03  0.00000000000E+00 0. -1.
         21    1    1    2  502  501 -0.23886821159E+02 -0.68142509063E+01 -0.19380852995E+02  0.31506058200E+02  0.00000000000E+00 0.  1.
<scales pt_clust_5="13000.00000" pt_clust_6="13000.00000" pt_clust_7="13000.00000" pt_clust_8="13000.00000" pt_clust_9="24.83977"></scales>
<clustering>
<clus scale="   24.840">  1  9  2 -1</clus>
<clus scale="   82.234">  5  6 -1 -1</clus>
<clus scale="   91.301">  7  8 -1 -1</clus>
<clus scale="  122.100">  2  5  1 -1</clus>
<clus scale="  122.100">  2  5  1 -1</clus>
</clustering>
</event>
<event>
 9    2  0.3402837E-005  0.1236720E+03  0.7546771E-02  0.1237895E+00
          2   -1    0    0  502    0  0.00000000000E+00  0.00000000000E+00  0.11704752133E+04  0.11704752133E+04  0.00000000000E+00 0. -1.
         -1   -1    0    0    0  501 -0.00000000000E+00 -0.00000000000E+00 -0.19966410698E+02  0.19966410698E+02  0.00000000000E+00 0.  1.
         23    2    1    2    0    0 -0.78422091797E+02 -0.44463404666E+02  0.44542040221E+03  0.46223825134E+03  0.84485782551E+02 0.  0.
         24    2    1    2    0    0  0.92552306196E+02  0.11611188036E+02  0.65509660558E+03  0.66673703517E+03  0.81767734195E+02 0.  0.
        -11    1    4    4    0    0  0.24756171537E+02  0.42643014959E+02  0.27826056194E+03  0.28259553267E+03  0.00000000000E+00 0.  1.
         12    1    4    4    0    0  0.67796134659E+02 -0.31031826922E+02  0.37683604364E+03  0.38414150250E+03  0.00000000000E+00 0. -1.
        -11    1    3    3    0    0 -0.90038933254E+02 -0.14230757178E+02  0.32651253106E+03  0.33899846149E+03  0.00000000000E+00 0.  1.
         11    1    3    3    0    0  0.11616841458E+02 -0.30232647488E+02  0.11890787115E+03  0.12323978984E+03  0.00000000000E+00 0. -1.
         21    1    1    2  502  501 -0.14130214399E+02  0.32852216630E+02  0.49991794801E+02  0.61466337485E+02  0.00000000000E+00 0. -1.
<scales pt_clust_5="13000.00000" pt_clust_6="13000.00000" pt_clust_7="13000.00000" pt_clust_8="13000.00000" pt_clust_9="35.76215"></scales>
<clustering>
<clus scale="   35.762">  2  9  1 -1</clus>
<clus scale="   81.768">  5  6 -1 -1</clus>
<clus scale="   84.486">  7  8 -1 -1</clus>
<clus scale="  121.831">  1  5  2 -1</clus>
<clus scale="  121.831">  1  5  2 -1</clus>
</clustering>
</event>
<event>
 9    2  0.3402837E-005  0.2327022E+03  0.7546771E-02  0.1125381E+00
         -1   -1    0    0    0  501 -0.00000000000E+00  0.00000000000E+00  0.40114877773E+03  0.40114877773E+03  0.00000000000E+00 0.  1.
          2   -1    0    0  502    0  0.00000000000E+00 -0.00000000000E+00 -0.90521649359E+03  0.90521649359E+03  0.00000000000E+00 0. -1.
         24    2    1    2    0    0 -0.15193307433E+03  0.62642566826E+02  0.22679115436E+03  0.29137402822E+03  0.80354504370E+02 0.  0.
         23    2    1    2    0    0  0.69156630207E+02 -0.21062923140E+03 -0.79763030062E+03  0.83275398973E+03  0.90098825331E+02 0.  0.
        -11    1    3    3    0    0 -0.13294845458E+03  0.73322581981E+02  0.22219228274E+03  0.26911132104E+03  0.00000000000E+00 0.  1.
         12    1    3    3    0    0 -0.18984619751E+02 -0.10680015155E+02  0.45988716177E+01  0.22262707179E+02  0.00000000000E+00 0. -1.
        -13    1    4    4    0    0  0.69204040838E+02 -0.73480130167E+02 -0.29736843959E+03  0.31403266973E+03  0.00000000000E+00 0.  1.
         13    1    4    4    0    0 -0.47410631063E-01 -0.13714910123E+03 -0.50026186104E+03  0.51872132000E+03  0.00000000000E+00 0. -1.
         21    1    1    2  502  501  0.82776444127E+02  0.14798666457E+03  0.66771430406E+02  0.18223725336E+03  0.00000000000E+00 0.  1.
<scales pt_clust_5="13000.00000" pt_clust_6="13000.00000" pt_clust_7="13000.00000" pt_clust_8="13000.00000" pt_clust_9="169.56413"></scales>
<clustering>
<clus scale="   80.355">  5  6 -1 -1</clus>
<clus scale="   90.099">  7  8 -1 -1</clus>
<clus scale="  169.564">  1  9  2 -1</clus>
<clus scale="  229.106">  1  5  2 -1</clus>
<clus scale="  232.702">  2  5  1 -1</clus>
</clustering>
</event>
<event>
 9    2  0.3402837E-005  0.9507739E+02  0.7546771E-02  0.1294494E+00
         -3   -1    0    0    0  501 -0.00000000000E+00  0.00000000000E+00  0.18265336523E+03  0.18265336523E+03  0.00000000000E+00 0.  1.
          4   -1    0    0  502    0  0.00000000000E+00 -0.00000000000E+00 -0.86491682662E+02  0.86491682662E+02  0.00000000000E+00 0. -1.
         24    2    1    2    0    0  0.28967864178E+02 -0.26082919105E+02  0.10001755486E+03  0.13471185258E+03  0.81389901835E+02 0.  0.
         23    2    1    2    0    0 -0.10763040282E+02  0.35042928409E+02 -0.31339702022E+02  0.10027096066E+03  0.87910401896E+02 0.  0.
        -13    1    3    3    0    0  0.43599880520E+02 -0.33660614238E+02  0.10406575724E+03  0.11774407995E+03  0.00000000000E+00 0.  1.
         14    1    3    3    0    0 -0.14632016341E+02  0.75776951330E+01 -0.40482023761E+01  0.16967772636E+02  0.00000000000E+00 0. -1.
        -11    1    4    4    0    0 -0.32328446937E+01  0.55510283613E+02  0.71198960700E+01  0.56058324910E+02  0.00000000000E+00 0. -1.
         11    1    4    4    0    0 -0.75301955886E+01 -0.20467355204E+02 -0.38459598092E+02  0.44212635751E+02  0.00000000000E+00 0.  1.
         21    1    1    2  502  501 -0.18204823896E+02 -0.89600093037E+01  0.27483829722E+02  0.34162234646E+02  0.00000000000E+00 0. -1.
<scales pt_clust_5="13000.00000" pt_clust_6="13000.00000" pt_clust_7="13000.00000" pt_clust_8="13000.00000" pt_clust_9="20.29033"></scales>
<clustering>
<clus scale="   20.290">  1  9  2 -1</clus>
<clus scale="   81.390">  5  6 -1 -1</clus>
<clus scale="   87.910">  7  8 -1 -1</clus>
<clus scale="   89.083">  1  5  2 -1</clus>
<clus scale="   95.077">  2  5  1 -1</clus>
</clustering>
</event>
<event>
 9    2  0.3402837E-005  0.1061126E+03  0.7546771E-02  0.1273074E+00
         -1   -1    0    0    0  501 -0.00000000000E+00  0.00000000000E+00  0.87799940718E+03  0.87799940718E+03  0.00000000000E+00 0.  1.
          2   -1    0    0  502    0  0.00000000000E+00 -0.00000000000E+00 -0.84512384056E+02  0.84512384056E+02  0.00000000000E+00 0. -1.
         23    2    1    2    0    0 -0.25002246052E+02  0.39788579316E+02  0.47246694893E+03  0.48351974921E+03  0.91422572111E+02 0.  0.
         24    2    1    2    0    0 -0.53168313268E+02 -0.22987553314E+02 -0.42188051975E+02  0.10708741214E+03  0.79577540585E+02 0.  0.
        -13    1    4    4    0    0 -0.26076751112E+02  0.54946038199E+01  0.20136802151E+02  0.33401772716E+02  0.00000000000E+00 0.  1.
         14    1    4    4    0    0 -0.27091562156E+02 -0.28482157134E+02 -0.62324854126E+02  0.73685639421E+02  0.00000000000E+00 0. -1.
        -11    1    3    3    0    0  0.80904201549E+01 -0.26413224718E+02  0.98562214956E+02  0.10236026356E+03  0.00000000000E+00 0. -1.
         11    1    3    3    0    0 -0.33092666207E+02  0.66201804034E+02  0.37390473397E+03  0.38115948565E+03  0.00000000000E+00 0.  1.
         21    1    1    2  502  501  0.78170559320E+02 -0.16801026002E+02  0.36320812617E+03  0.37190462989E+03  0.00000000000E+00 0.  1.
<scales pt_clust_5="13000.00000" pt_clust_6="13000.00000" pt_clust_7="13000.00000" pt_clust_8="13000.00000" pt_clust_9="79.95568"></scales>
<clustering>
<clus scale="   79.578">  5  6 -1 -1</clus>
<clus scale="   79.956">  1  9  2 -1</clus>
<clus scale="   91.423">  7  8 -1 -1</clus>
<clus scale="   96.096">  2  5  1 -1</clus>
<clus scale="   96.096">  2  5  1 -1</clus>
</clustering>
</event>
<event>
 9    2  0.3402837E-005  0.1072306E+03  0.7546771E-02  0.1268747E+00
          2   -1    0    0  502    0  0.00000000000E+00  0.00000000000E+00  0.66550190983E+02  0.66550190983E+02  0.00000000000E+00 0. -1.
         -1   -1    0    0    0  501 -0.00000000000E+00 -0.00000000000E+00 -0.50403829335E+03  0.50403829335E+03  0.00000000000E+00 0.  1.
         24    2    1    2    0    0 -0.28748899640E+02  0.65441157122E+02 -0.18117575941E+03  0.21070464061E+03  0.80391202882E+02 0.  0.
         23    2    1    2    0    0  0.45622864258E+02 -0.39280379999E+02 -0.49367451574E+01  0.10658795329E+03  0.87819282265E+02 0.  0.
        -11    1    3    3    0    0 -0.44248202443E+02  0.22763949382E+02 -0.44754310193E+02  0.66925698291E+02  0.00000000000E+00 0.  1.
         12    1    3    3    0    0  0.15499302803E+02  0.42677207739E+02 -0.13642144922E+03  0.14377894232E+03  0.00000000000E+00 0. -1.
        -13    1    4    4    0    0 -0.88364434307E+01 -0.49226801623E+02 -0.99762619910E+01  0.50998887575E+02  0.00000000000E+00 0.  1.
         13    1    4    4    0    0  0.54459307688E+02  0.99464216244E+01  0.50395168337E+01  0.55589065714E+02  0.00000000000E+00 0. -1.
         21    1    1    2  502  501 -0.16873964617E+02 -0.26160777123E+02 -0.25137559780E+03  0.25329589044E+03  0.00000000000E+00 0.  1.
<scales pt_clust_5="13000.00000" pt_clust_6="13000.00000" pt_clust_7="13000.00000" pt_clust_8="13000.00000" pt_clust_9="31.13064"></scales>
<clustering>
<clus scale="   31.131">  2  9  1 -1</clus>
<clus scale="   80.391">  5  6 -1 -1</clus>
<clus scale="   87.819">  7  8 -1 -1</clus>
<clus scale="  101.237">  2  5  1 -1</clus>
<clus scale="  107.231">  1  5  2 -1</clus>
</clustering>
</event>
<event>
 9    2  0.3402837E-005  0.5260662E+03  0.7546771E-02  0.1007264E+00
         -1   -1    0    0    0  501 -0.00000000000E+00  0.00000000000E+00  0.46837339177E+03  0.46837339177E+03  0.00000000000E+00 0.  1.
          2   -1    0    0  502    0  0.00000000000E+00 -0.00000000000E+00 -0.10239746404E+04  0.10239746404E+04  0.00000000000E+00 0. -1.
         23    2    1    2    0    0 -0.23329402260E+03  0.46972253967E+03  0.26950389662E+02  0.53140894392E+03  0.81263626044E+02 0.  0.
         24    2    1    2    0    0  0.25472532890E+03 -0.44968743271E+03 -0.68026606639E+03  0.85891548392E+03  0.88713624130E+02 0.  0.
        -11    1    4    4    0    0  0.68894743240E+02 -0.56164457313E+02 -0.10474674553E+03  0.13737835568E+03  0.00000000000E+00 0.  1.
         12    1    4    4    0    0  0.18583058566E+03 -0.39352297540E+03 -0.57551932086E+03  0.72153712824E+03  0.00000000000E+00 0. -1.
        -13    1    3    3    0    0 -0.18910153430E+03  0.43480617583E+03  0.18990557454E+02  0.47452759886E+03  0.00000000000E+00 0.  1.
         13    1    3    3    0    0 -0.44192488304E+02  0.34916363845E+02  0.79598322080E+01  0.56881345057E+02  0.00000000000E+00 0. -1.
         21    1    1    2  502  501 -0.21431306299E+02 -0.20035106957E+02  0.97714428057E+02  0.10202360438E+03  0.00000000000E+00 0.  1.
<scales pt_clust_5="13000.00000" pt_clust_6="13000.00000" pt_clust_7="13000.00000" pt_clust_8="13000.00000" pt_clust_9="29.33780"></scales>
<clustering>
<clus scale="   29.338">  1  9  2 -1</clus>
<clus scale="   81.264">  7  8 -1 -1</clus>
<clus scale="   88.714">  5  6 -1 -1</clus>
<clus scale="  524.861">  1  7  2 -1</clus>
<clus scale="  526.066">  2  5  1 -1</clus>
</clustering>
</event>
<event>
 9    2  0.3402837E-005  0.1053624E+03  0.7546771E-02  0.1272684E+00
          2   -1    0    0  502    0  0.00000000000E+00  0.00000000000E+00  0.34155875242E+03  0.34155875242E+03  0.00000000000E+00 0. -1.
         -1   -1    0    0    0  501 -0.00000000000E+00 -0.00000000000E+00 -0.17900659585E+03  0.17900659585E+03  0.00000000000E+00 0.  1.
         23    2    1    2    0    0 -0.44898963467E+02  0.80395896922E+01 -0.28485311232E+02  0.10458752944E+03  0.89702767153E+02 0.  0.
         24    2    1    2    0    0  0.28425287055E+02 -0.51107843975E+02  0.28989324149E+03  0.30689656227E+03  0.82020727945E+02 0.  0.
        -11    1    4    4    0    0  0.49112166555E+02 -0.44183785950E+02  0.13309769027E+03  0.14859073659E+03  0.00000000000E+00 0.  1.
         12    1    4    4    0    0 -0.20686879500E+02 -0.69240580249E+01  0.15679555122E+03  0.15830582568E+03  0.00000000000E+00 0. -1.
        -13    1    3    3    0    0 -0.11104856947E+01  0.37141677113E+02 -0.35686402735E+02  0.51519478816E+02  0.00000000000E+00 0.  1.
         13    1    3    3    0    0 -0.43788477772E+02 -0.29102087421E+02  0.72010915036E+01  0.53068050621E+02  0.00000000000E+00 0. -1.
         21    1    1    2  502  501  0.16473676412E+02  0.43068254282E+02 -0.98855773688E+02  0.10908125656E+03  0.00000000000E+00 0. -1.
<scales pt_clust_5="13000.00000" pt_clust_6="13000.00000" pt_clust_7="13000.00000" pt_clust_8="13000.00000" pt_clust_9="46.11135"></scales>
<clustering>
<clus scale="   46.111">  2  9  1 -1</clus>
<clus scale="   82.021">  5  6 -1 -1</clus>
<clus scale="   89.703">  7  8 -1 -1</clus>
<clus scale="   98.904">  1  5  2 -1</clus>
<clus scale="   98.904">  1  5  2 -1</clus>
</clustering>
</event>
<event>
 9    2  0.3402837E-005  0.1125735E+03  0.7546771E-02  0.1257926E+00
          2   -1    0    0  502    0  0.00000000000E+00  0.00000000000E+00  0.28911411416E+03  0.28911411416E+03  0.00000000000E+00 0. -1.
         -1   -1    0    0    0  501 -0.00000000000E+00 -0.00000000000E+00 -0.78343604280E+03  0.78343604280E+03  0.00000000000E+00 0.  1.
         23    2    1    2    0    0 -0.82555903047E+02 -0.65024497994E+01 -0.63557625025E+03  0.64687541485E+03  0.87366317731E+02 0.  0.
         24    2    1    2    0    0  0.62716895246E+02  0.33085049821E+02  0.27100494473E+03  0.29175146163E+03  0.81530398155E+02 0.  0.
        -11    1    4    4    0    0  0.32985742105E+02 -0.25246622889E+02  0.86071751305E+02  0.95570903115E+02  0.00000000000E+00 0.  1.
         12    1    4    4    0    0  0.29731153141E+02  0.58331672710E+02  0.18493319342E+03  0.19618055851E+03  0.00000000000E+00 0. -1.
        -13    1    3    3    0    0 -0.88304333234E+02 -0.32207100814E+02 -0.48917636428E+03  0.49812495217E+03  0.00000000000E+00 0.  1.
         13    1    3    3    0    0  0.57484301876E+01  0.25704651015E+02 -0.14639988598E+03  0.14875046268E+03  0.00000000000E+00 0. -1.
         21    1    1    2  502  501  0.19839007801E+02 -0.26582600022E+02 -0.12975062312E+03  0.13392328048E+03  0.00000000000E+00 0. -1.
<scales pt_clust_5="13000.00000" pt_clust_6="13000.00000" pt_clust_7="13000.00000" pt_clust_8="13000.00000" pt_clust_9="33.16958"></scales>
<clustering>
<clus scale="   33.170">  2  9  1 -1</clus>
<clus scale="   81.530">  5  6 -1 -1</clus>
<clus scale="   87.366">  7  8 -1 -1</clus>
<clus scale="  108.107">  1  5  2 -1</clus>
<clus scale="  108.107">  1  5  2 -1</clus>
</clustering>
</event>
<event>
 9    2  0.3402837E-005  0.1142332E+03  0.7546771E-02  0.1255879E+00
         -1   -1    0    0    0  501 -0.00000000000E+00  0.00000000000E+00  0.18571797791E+03  0.18571797791E+03  0.00000000000E+00 0.  1.
          2   -1    0    0  502    0  0.00000000000E+00 -0.00000000000E+00 -0.22930519093E+03  0.22930519093E+03  0.00000000000E+00 0. -1.
         24    2    1    2    0    0 -0.97594281720E+01 -0.96006440832E+02  0.11404074856E+03  0.16984045733E+03  0.80796073514E+02 0.  0.
         23    2    1    2    0    0  0.64980060632E+01  0.68059571315E+02 -0.17793050418E+03  0.21048606000E+03  0.89279268618E+02 0.  0.
        -13    1    3    3    0    0 -0.51285529143E+01 -0.81923078428E+02  0.12628180985E+03  0.15061470159E+03  0.00000000000E+00 0.  1.
         14    1    3    3    0    0 -0.46308752577E+01 -0.14083362404E+02 -0.12241061297E+02  0.19225755744E+02  0.00000000000E+00 0. -1.
        -11    1    4    4    0    0  0.50749663268E+01  0.88090082299E+02 -0.11841706255E+03  0.14767605962E+03  0.00000000000E+00 0. -1.
         11    1    4    4    0    0  0.14230397364E+01 -0.20030510984E+02 -0.59513441629E+02  0.62810000373E+02  0.00000000000E+00 0.  1.
         21    1    1    2  502  501  0.32614221088E+01  0.27946869517E+02  0.20302542600E+02  0.34696651510E+02  0.00000000000E+00 0. -1.
<scales pt_clust_5="13000.00000" pt_clust_6="13000.00000" pt_clust_7="13000.00000" pt_clust_8="13000.00000" pt_clust_9="28.13653"></scales>
<clustering>
<clus scale="   28.137">  1  9  2 -1</clus>
<clus scale="   80.796">  5  6 -1 -1</clus>
<clus scale="   89.279">  7  8 -1 -1</clus>
<clus scale="  107.733">  1  5  2 -1</clus>
<clus scale="  114.233">  2  5  1 -1</clus>
</clustering>
</event>
<event>
 9    2  0.3402837E-005  0.1185640E+03  0.7546771E-02  0.1246081E+00
          2   -1    0    0  502    0  0.00000000000E+00  0.00000000000E+00  0.11444856808E+03  0.11444856808E+03  0.00000000000E+00 0. -1.
         -1   -1    0    0    0  501 -0.00000000000E+00 -0.00000000000E+00 -0.20519778288E+03  0.20519778288E+03  0.00000000000E+00 0.  1.
         23    2    1    2    0    0 -0.54097172242E+02  0.52781035426E+02 -0.29325807221E+02  0.12162941911E+03  0.90671775541E+02 0.  0.
         24    2    1    2    0    0  0.24062641093E+02 -0.77486375188E+02  0.57100607363E+01  0.12043259425E+03  0.88815854032E+02 0.  0.
        -11    1    4    4    0    0  0.25883149305E+02 -0.79037069821E+02  0.35586202132E+02  0.90460895452E+02  0.00000000000E+00 0.  1.
         12    1    4    4    0    0 -0.18205082120E+01  0.15506946331E+01 -0.29876141395E+02  0.29971698795E+02  0.00000000000E+00 0. -1.
        -11    1    3    3    0    0 -0.23868317321E+02  0.68984761157E+02 -0.42983440234E+02  0.84712277610E+02  0.00000000000E+00 0.  1.
         11    1    3    3    0    0 -0.30228854920E+02 -0.16203725730E+02  0.13657633012E+02  0.36917141504E+02  0.00000000000E+00 0. -1.
         21    1    1    2  502  501  0.30034531149E+02  0.24705339761E+02 -0.67133468315E+02  0.77584337608E+02  0.00000000000E+00 0.  1.
<scales pt_clust_5="13000.00000" pt_clust_6="13000.00000" pt_clust_7="13000.00000" pt_clust_8="13000.00000" pt_clust_9="38.88993"></scales>
<clustering>
<clus scale="   38.890">  2  9  1 -1</clus>
<clus scale="   88.816">  5  6 -1 -1</clus>
<clus scale="   90.672">  7  8 -1 -1</clus>
<clus scale="  117.151">  1  5  2 -1</clus>
<clus scale="  117.151">  1  5  2 -1</clus>
</clustering>
</event>
<event>
 9    2  0.3402837E-005  0.9726936E+02  0.7546771E-02  0.1291613E+00
          4   -1    0    0  502    0  0.00000000000E+00  0.00000000000E+00  0.11632821180E+03  0.11632821180E+03  0.00000000000E+00 0. -1.
         -3   -1    0    0    0  501 -0.00000000000E+00 -0.00000000000E+00 -0.32602593439E+03  0.32602593439E+03  0.00000000000E+00 0.  1.
         24    2    1    2    0    0 -0.50413747710E+01  0.50971810814E+01 -0.24737658124E+03  0.26018282476E+03  0.80302756098E+02 0.  0.
         23    2    1    2    0    0  0.38189871178E+02  0.25930205045E+01  0.80779483940E+02  0.12725660651E+03  0.90574438216E+02 0.  0.
        -11    1    3    3    0    0  0.15857773597E+02  0.34355176776E+02 -0.17871309682E+03  0.18267489737E+03  0.00000000000E+00 0.  1.
         12    1    3    3    0    0 -0.20899148368E+02 -0.29257995695E+02 -0.68663484426E+02  0.77507927389E+02  0.00000000000E+00 0. -1.
        -13    1    4    4    0    0 -0.11857265335E+01  0.39006779827E+02  0.13671270292E+02  0.41350192881E+02  0.00000000000E+00 0.  1.
         13    1    4    4    0    0  0.39375597711E+02 -0.36413759322E+02  0.67108213648E+02  0.85906413627E+02  0.00000000000E+00 0. -1.
         21    1    1    2  502  501 -0.33148496407E+02 -0.76902015860E+01 -0.43100625297E+02  0.54914714926E+02  0.00000000000E+00 0.  1.
<scales pt_clust_5="13000.00000" pt_clust_6="13000.00000" pt_clust_7="13000.00000" pt_clust_8="13000.00000" pt_clust_9="34.02884"></scales>
<clustering>
<clus scale="   34.029">  2  9  1 -1</clus>
<clus scale="   80.303">  5  6 -1 -1</clus>
<clus scale="   87.785">  2  5  1 -1</clus>
<clus scale="   90.574">  7  8 -1 -1</clus>
<clus scale="   97.269">  1  5  2 -1</clus>
</clustering>
</event>
<event>
 9    2  0.3402837E-005  0.1264755E+03  0.7546771E-02  0.1236659E+00
          2   -1    0    0  502    0  0.00000000000E+00  0.00000000000E+00  0.64579706995E+03  0.64579706995E+03  0.00000000000E+00 0. -1.
         -1   -1    0    0    0  501 -0.00000000000E+00 -0.00000000000E+00 -0.41043424943E+02  0.41043424943E+02  0.00000000000E+00 0.  1.
         24    2    1    2    0    0  0.56823964080E+02 -0.15163890562E+02  0.14849501894E+03  0.17874420913E+03  0.80248459040E+02 0.  0.
         23    2    1    2    0    0 -0.10770084326E+03 -0.14386930892E+02  0.40633310440E+03  0.43093239785E+03  0.93753316557E+02 0.  0.
        -13    1    3    3    0    0  0.61258197989E+02  0.16303529420E+02  0.72104546670E+02  0.96007486911E+02  0.00000000000E+00 0.  1.
         14    1    3    3    0    0 -0.44342339096E+01 -0.31467419982E+02  0.76390472266E+02  0.82736722220E+02  0.00000000000E+00 0. -1.
        -11    1    4    4    0    0 -0.23655958310E+02  0.89540515911E+01  0.13777500067E+02  0.28802758749E+02  0.00000000000E+00 0.  1.
         11    1    4    4    0    0 -0.84044884951E+02 -0.23340982483E+02  0.39255560433E+03  0.40212963910E+03  0.00000000000E+00 0. -1.
         21    1    1    2  502  501  0.50876879182E+02  0.29550821454E+02  0.49925521674E+02  0.77163887916E+02  0.00000000000E+00 0.  1.
<scales pt_clust_5="13000.00000" pt_clust_6="13000.00000" pt_clust_7="13000.00000" pt_clust_8="13000.00000" pt_clust_9="58.83628"></scales>
<clustering>
<clus scale="   58.836">  2  9  1 -1</clus>
<clus scale="   80.248">  5  6 -1 -1</clus>
<clus scale="   93.753">  7  8 -1 -1</clus>
<clus scale="  116.817">  2  5  1 -1</clus>
<clus scale="  126.476">  1  5  2 -1</clus>
</clustering>
</event>
<event>
 9    2  0.3402837E-005  0.1071091E+03  0.7546771E-02  0.1271737E+00
          2   -1    0    0  502    0  0.00000000000E+00  0.00000000000E+00  0.12634665761E+04  0.12634665761E+04  0.00000000000E+00 0. -1.
         -1   -1    0    0    0  501 -0.00000000000E+00 -0.00000000000E+00 -0.84210579057E+02  0.84210579057E+02  0.00000000000E+00 0.  1.
         23    2    1    2    0    0 -0.50531356984E+01  0.61738600329E+02  0.24790178151E+02  0.11478975362E+03  0.93407417546E+02 0.  0.
         24    2    1    2    0    0  0.52252927557E+02 -0.12869711191E+02  0.11606485633E+04  0.11646655942E+04  0.80279890379E+02 0.  0.
        -13    1    4    4    0    0  0.37191766080E+02 -0.11425377846E+02  0.19218052632E+03  0.19607937531E+03  0.00000000000E+00 0.  1.
         14    1    4    4    0    0  0.15061161477E+02 -0.14443333446E+01  0.96846803699E+03  0.96858621885E+03  0.00000000000E+00 0. -1.
        -11    1    3    3    0    0  0.33913587042E+02  0.63308104378E+02  0.24199508682E+02  0.75786962509E+02  0.00000000000E+00 0. -1.
         11    1    3    3    0    0 -0.38966722740E+02 -0.15695040483E+01  0.59066946916E+00  0.39002791112E+02  0.00000000000E+00 0.  1.
         21    1    1    2  502  501 -0.47199791858E+02 -0.48868889138E+02 -0.61827443933E+01  0.68221807403E+02  0.00000000000E+00 0.  1.
<scales pt_clust_5="13000.00000" pt_clust_6="13000.00000" pt_clust_7="13000.00000" pt_clust_8="13000.00000" pt_clust_9="67.94107"></scales>
<clustering>
<clus scale="   67.941">  2  9  1 -1</clus>
<clus scale="   80.280">  5  6 -1 -1</clus>
<clus scale="   93.407">  7  8 -1 -1</clus>
<clus scale="   95.876">  1  5  2 -1</clus>
<clus scale="   95.876">  1  5  2 -1</clus>
</clustering>
</event>
<event>
 9    2  0.3402837E-005  0.1142607E+03  0.7546771E-02  0.1256571E+00
          4   -1    0    0  502    0  0.00000000000E+00  0.00000000000E+00  0.84976588920E+02  0.84976588920E+02  0.00000000000E+00 0. -1.
         -3   -1    0    0    0  501 -0.00000000000E+00 -0.00000000000E+00 -0.19035176936E+03  0.19035176936E+03  0.00000000000E+00 0.  1.
         24    2    1    2    0    0  0.57084042519E+02  0.56642042563E+02 -0.41664465230E+02  0.12086847221E+03  0.80039684011E+02 0.  0.
         23    2    1    2    0    0 -0.35874482090E+02 -0.49285973230E+02 -0.28589170219E+02  0.11277679438E+03  0.90471979502E+02 0.  0.
        -13    1    3    3    0    0  0.63481189942E+02  0.14155774094E+02 -0.42850063499E+02  0.77886939589E+02  0.00000000000E+00 0.  1.
         14    1    3    3    0    0 -0.63971474232E+01  0.42486268469E+02  0.11855982694E+01  0.42981532625E+02  0.00000000000E+00 0. -1.
        -11    1    4    4    0    0 -0.90550807129E+00 -0.28143343498E+02 -0.56611717989E+02  0.63227797224E+02  0.00000000000E+00 0.  1.
         11    1    4    4    0    0 -0.34968974019E+02 -0.21142629732E+02  0.28022547770E+02  0.49548997159E+02  0.00000000000E+00 0. -1.
         21    1    1    2  502  501 -0.21209560428E+02 -0.73560693324E+01 -0.35121544990E+02  0.41683091681E+02  0.00000000000E+00 0.  1.
<scales pt_clust_5="13000.00000" pt_clust_6="13000.00000" pt_clust_7="13000.00000" pt_clust_8="13000.00000" pt_clust_9="22.44899"></scales>
<clustering>
<clus scale="   22.449">  2  9  1 -1</clus>
<clus scale="   80.040">  5  6 -1 -1</clus>
<clus scale="   90.472">  7  8 -1 -1</clus>
<clus scale="  106.192">  2  5  1 -1</clus>
<clus scale="  114.261">  1  5  2 -1</clus>
</clustering>
</event>
<event>
 9    2  0.3402837E-005  0.1009395E+03  0.7546771E-02  0.1282814E+00
         -1   -1    0    0    0  501 -0.00000000000E+00  0.00000000000E+00  0.35285543363E+02  0.35285543363E+02  0.00000000000E+00 0.  1.
          2   -1    0    0  502    0  0.00000000000E+00 -0.00000000000E+00 -0.39752836153E+03  0.39752836153E+03  0.00000000000E+00 0. -1.
         24    2    1    2    0    0 -0.51244180298E+02  0.31639720506E+02 -0.10759499207E+03  0.14682146371E+03  0.79704591833E+02 0.  0.
         23    2    1    2    0    0  0.16492448077E+02 -0.22382291425E+02 -0.19752445134E+03  0.21849086469E+03  0.89159302726E+02 0.  0.
        -13    1    3    3    0    0 -0.40774800173E+02  0.26491550869E+02 -0.11428601518E+02  0.49949970263E+02  0.00000000000E+00 0.  1.
         14    1    3    3    0    0 -0.10469380125E+02  0.51481696370E+01 -0.96166390554E+02  0.96871493448E+02  0.00000000000E+00 0. -1.
        -11    1    4    4    0    0  0.48443843254E+02 -0.11978855073E+02 -0.66003209585E+02  0.82744924882E+02  0.00000000000E+00 0. -1.
         11    1    4    4    0    0 -0.31951395177E+02 -0.10403436352E+02 -0.13152124175E+03  0.13574593981E+03  0.00000000000E+00 0.  1.
         21    1    1    2  502  501  0.34751732220E+02 -0.92574290810E+01 -0.57123374758E+02  0.67501576495E+02  0.00000000000E+00 0. -1.
<scales pt_clust_5="13000.00000" pt_clust_6="13000.00000" pt_clust_7="13000.00000" pt_clust_8="13000.00000" pt_clust_9="35.96363"></scales>
<clustering>
<clus scale="   35.964">  2  9  1 -1</clus>
<clus scale="   79.705">  5  6 -1 -1</clus>
<clus scale="   89.159">  7  8 -1 -1</clus>
<clus scale="   92.694">  1  5  2 -1</clus>
<clus scale="   35.964">  2  5  1 -1</clus>
</clustering>
</event>
<event>
 9    2  0.3402837E-005  0.4541838E+03  0.7546771E-02  0.1082067E+00
         -1   -1    0    0    0  501 -0.00000000000E+00  0.00000000000E+00  0.25785274836E+03  0.25785274836E+03  0.00000000000E+00 0.  1.
          2   -1    0    0  502    0  0.00000000000E+00 -0.00000000000E+00 -0.13583402029E+04  0.13583402029E+04  0.00000000000E+00 0. -1.
         23    2    1    2    0    0 -0.32951753873E+03 -0.27328271769E+03 -0.56276902986E+03  0.71299743599E+03  0.91603005635E+02 0.  0.
         24    2    1    2    0    0 -0.45199601357E+02  0.18627929312E+02 -0.42639829204E+03  0.43666130615E+03  0.80421322512E+02 0.  0.
        -11    1    4    4    0    0  0.14960190355E+02  0.21742207885E+02 -0.63013164163E+02  0.68316833628E+02  0.00000000000E+00 0.  1.
         12    1    4    4    0    0 -0.60159791712E+02 -0.31142785723E+01 -0.36338512788E+03  0.36834447252E+03  0.00000000000E+00 0. -1.
        -13    1    3    3    0    0 -0.31335181023E+03 -0.22893241689E+03 -0.52313790670E+03  0.65136217108E+03  0.00000000000E+00 0. -1.
         13    1    3    3    0    0 -0.16165728499E+02 -0.44350300792E+02 -0.39631123161E+02  0.61635264916E+02  0.00000000000E+00 0.  1.
         21    1    1    2  502  501  0.37471714009E+03  0.25465478837E+03 -0.11132013259E+03  0.46653420908E+03  0.00000000000E+00 0.  1.
<scales pt_clust_5="13000.00000" pt_clust_6="13000.00000" pt_clust_7="13000.00000" pt_clust_8="13000.00000" pt_clust_9="444.85037"></scales>
<clustering>
<clus scale="   80.421">  5  6 -1 -1</clus>
<clus scale="   91.603">  7  8 -1 -1</clus>
<clus scale="   94.115">  2  5  1 -1</clus>
<clus scale="  444.850">  1  9  2 -1</clus>
<clus scale="   94.115">  2  5  1 -1</clus>
</clustering>
</event>
<event>
 9    2  0.3402837E-005  0.1657523E+03  0.7546771E-02  0.1203089E+00
         -1   -1    0    0    0  501 -0.00000000000E+00  0.00000000000E+00  0.31825928968E+03  0.31825928968E+03  0.00000000000E+00 0.  1.
          2   -1    0    0  502    0  0.00000000000E+00 -0.00000000000E+00 -0.23076866775E+03  0.23076866775E+03  0.00000000000E+00 0. -1.
         24    2    1    2    0    0  0.20118305524E+02 -0.64364308615E+02  0.16546636824E+03  0.19599513930E+03  0.80544802263E+02 0.  0.
         23    2    1    2    0    0 -0.13907602423E+03  0.59416894487E+02 -0.13364917692E+03  0.22159862691E+03  0.91495033163E+02 0.  0.
        -13    1    3    3    0    0  0.12475127248E+02  0.17242601961E+02  0.50510530190E+02  0.54811037048E+02  0.00000000000E+00 0.  1.
         14    1    3    3    0    0  0.76431782762E+01 -0.81606910576E+02  0.11495583805E+03  0.14118410225E+03  0.00000000000E+00 0. -1.
        -13    1    4    4    0    0 -0.22598040194E+02  0.48348718612E+02 -0.16099528321E+02  0.55744639421E+02  0.00000000000E+00 0.  1.
         13    1    4    4    0    0 -0.11647798403E+03  0.11068175875E+02 -0.11754964860E+03  0.16585398749E+03  0.00000000000E+00 0. -1.
         21    1    1    2  502  501  0.11895771870E+03  0.49474141278E+01  0.55673430614E+02  0.13143419122E+03  0.00000000000E+00 0.  1.
<scales pt_clust_5="13000.00000" pt_clust_6="13000.00000" pt_clust_7="13000.00000" pt_clust_8="13000.00000" pt_clust_9="138.21174"></scales>
<clustering>
<clus scale="   80.545">  5  6 -1 -1</clus>
<clus scale="   91.495">  7  8 -1 -1</clus>
<clus scale="  105.047">  1  5  2 -1</clus>
<clus scale="  138.212">  1  9  2 -1</clus>
<clus scale="  165.752">  2  5  1 -1</clus>
</clustering>
</event>
<event>
 9    2  0.3402837E-005  0.1037431E+03  0.7546771E-02  0.1286043E+00
         -1   -1    0    0    0  501 -0.00000000000E+00  0.00000000000E+00  0.13262551768E+03  0.13262551768E+03  0.00000000000E+00 0.  1.
          2   -1    0    0  502    0  0.00000000000E+00 -0.00000000000E+00 -0.14936281671E+03  0.14936281671E+03  0.00000000000E+00 0. -1.
         24    2    1    2    0    0  0.42216241367E+02 -0.19025887445E+02  0.79229838577E+02  0.11307424342E+03  0.66062256809E+02 0.  0.
         23    2    1    2    0    0 -0.25756539476E+02  0.41337793537E+02 -0.94188314455E+02  0.14113087390E+03  0.93135774472E+02 0.  0.
        -11    1    3    3    0    0  0.39332841473E+02  0.15637043506E+02  0.59703962924E+02  0.73185741349E+02  0.00000000000E+00 0.  1.
         12    1    3    3    0    0  0.28833998942E+01 -0.34662930951E+02  0.19525875654E+02  0.39888502066E+02  0.00000000000E+00 0. -1.
        -13    1    4    4    0    0  0.10221129542E+02  0.59662091386E+02 -0.36392722817E+02  0.70629079788E+02  0.00000000000E+00 0.  1.
         13    1    4    4    0    0 -0.35977669018E+02 -0.18324297849E+02 -0.57795591638E+02  0.70501794108E+02  0.00000000000E+00 0. -1.
         21    1    1    2  502  501 -0.16459701891E+02 -0.22311906093E+02 -0.17788231522E+01  0.27783217086E+02  0.00000000000E+00 0. -1.
<scales pt_clust_5="13000.00000" pt_clust_6="13000.00000" pt_clust_7="13000.00000" pt_clust_8="13000.00000" pt_clust_9="27.72621"></scales>
<clustering>
<clus scale="   27.726">  2  9  1 -1</clus>
<clus scale="   66.062">  5  6 -1 -1</clus>
<clus scale="   80.328">  1  5  2 -1</clus>
<clus scale="   93.136">  7  8 -1 -1</clus>
<clus scale="   27.726">  2  5  1 -1</clus>
</clustering>
</event>
<event>
 9    2  0.3402837E-005  0.1283001E+03  0.7546771E-02  0.1233274E+00
          2   -1    0    0  502    0  0.00000000000E+00  0.00000000000E+00  0.23695769539E+03  0.23695769539E+03  0.00000000000E+00 0. -1.
         -1   -1    0    0    0  501 -0.00000000000E+00 -0.00000000000E+00 -0.29277617129E+03  0.29277617129E+03  0.00000000000E+00 0.  1.
         24    2    1    2    0    0 -0.82662989131E+02 -0.15989478073E+02 -0.21787036352E+03  0.24696320872E+03  0.80215322598E+02 0.  0.
         23    2    1    2    0    0  0.77423311829E+02  0.45781073003E+02  0.19772373131E+03  0.23600022094E+03  0.92255918510E+02 0.  0.
        -13    1    3    3    0    0 -0.66700876820E+02 -0.14691871826E+02 -0.22040875605E+03  0.23074851637E+03  0.00000000000E+00 0.  1.
         14    1    3    3    0    0 -0.15962112310E+02 -0.12976062470E+01  0.25383925231E+01  0.16214692349E+02  0.00000000000E+00 0. -1.
        -13    1    4    4    0    0  0.89974263299E+02  0.96948099030E+01  0.13382424629E+03  0.16154964032E+03  0.00000000000E+00 0.  1.
         13    1    4    4    0    0 -0.12550951470E+02  0.36086263100E+02  0.63899485027E+02  0.74450580616E+02  0.00000000000E+00 0. -1.
         21    1    1    2  502  501  0.52396773015E+01 -0.29791594930E+02 -0.35671843688E+02  0.46770437017E+02  0.00000000000E+00 0.  1.
<scales pt_clust_5="13000.00000" pt_clust_6="13000.00000" pt_clust_7="13000.00000" pt_clust_8="13000.00000" pt_clust_9="30.24886"></scales>
<clustering>
<clus scale="   30.249">  2  9  1 -1</clus>
<clus scale="   80.215">  5  6 -1 -1</clus>
<clus scale="   92.256">  7  8 -1 -1</clus>
<clus scale="  119.934">  2  5  1 -1</clus>
<clus scale="  128.300">  1  5  2 -1</clus>
</clustering>
</event>
<event>
 9    2  0.3402837E-005  0.1254568E+03  0.7546771E-02  0.1237715E+00
          4   -1    0    0  502    0  0.00000000000E+00  0.00000000000E+00  0.65515538056E+02  0.65515538056E+02  0.00000000000E+00 0. -1.
         -3   -1    0    0    0  501 -0.00000000000E+00 -0.00000000000E+00 -0.36518902710E+03  0.36518902710E+03  0.00000000000E+00 0.  1.
         24    2    1    2    0    0  0.51928423040E+02 -0.94353585764E+02 -0.21040084066E+03  0.24982077798E+03  0.80887249274E+02 0.  0.
         23    2    1    2    0    0 -0.41236397902E+02  0.63673805341E+02 -0.49395688775E+02  0.12944702759E+03  0.92530021533E+02 0.  0.
        -13    1    3    3    0    0  0.70983847686E+02 -0.89664306006E+02 -0.16971913235E+03  0.20465331243E+03  0.00000000000E+00 0.  1.
         14    1    3    3    0    0 -0.19055424647E+02 -0.46892797575E+01 -0.40681708311E+02  0.45167465550E+02  0.00000000000E+00 0. -1.
        -13    1    4    4    0    0 -0.56815239822E+02  0.29127484141E+01 -0.21914484564E+02  0.60964745657E+02  0.00000000000E+00 0.  1.
         13    1    4    4    0    0  0.15578841920E+02  0.60761056927E+02 -0.27481204211E+02  0.68482281937E+02  0.00000000000E+00 0. -1.
         21    1    1    2  502  501 -0.10692025138E+02  0.30679780423E+02 -0.39876959610E+02  0.51436759580E+02  0.00000000000E+00 0. -1.
<scales pt_clust_5="13000.00000" pt_clust_6="13000.00000" pt_clust_7="13000.00000" pt_clust_8="13000.00000" pt_clust_9="32.48951"></scales>
<clustering>
<clus scale="   32.490">  2  9  1 -1</clus>
<clus scale="   80.887">  5  6 -1 -1</clus>
<clus scale="   92.530">  7  8 -1 -1</clus>
<clus scale="  117.134">  2  5  1 -1</clus>
<clus scale="  125.457">  1  5  2 -1</clus>
</clustering>
</event>
<event>
 9    2  0.3402837E-005  0.1784257E+03  0.7546771E-02  0.1170706E+00
          2   -1    0    0  502    0  0.00000000000E+00  0.00000000000E+00  0.36724348379E+03  0.36724348379E+03  0.00000000000E+00 0. -1.
         -1   -1    0    0    0  501 -0.00000000000E+00 -0.00000000000E+00 -0.13873024219E+03  0.13873024219E+03  0.00000000000E+00 0.  1.
         24    2    1    2    0    0 -0.16057470147E+03 -0.13494722413E+02  0.20903902766E+02  0.18082888333E+03  0.79345885922E+02 0.  0.
         23    2    1    2    0    0  0.14698676837E+03  0.36154239465E+02  0.23042315820E+03  0.29023702127E+03  0.90721869293E+02 0.  0.
        -13    1    3    3    0    0 -0.15852363584E+03  0.59420569216E+01  0.25702649732E+02  0.16070369430E+03  0.00000000000E+00 0.  1.
         14    1    3    3    0    0 -0.20510656311E+01 -0.19436779335E+02 -0.47987469657E+01  0.20125189032E+02  0.00000000000E+00 0. -1.
        -11    1    4    4    0    0  0.48893529894E+02 -0.26206731909E+02  0.45177276367E+02  0.71542689094E+02  0.00000000000E+00 0.  1.
         11    1    4    4    0    0  0.98093238479E+02  0.62360971374E+02  0.18524588184E+03  0.21869433217E+03  0.00000000000E+00 0. -1.
         21    1    1    2  502  501  0.13587933094E+02 -0.22659517052E+02 -0.22813819380E+02  0.34907821380E+02  0.00000000000E+00 0.  1.
<scales pt_clust_5="13000.00000" pt_clust_6="13000.00000" pt_clust_7="13000.00000" pt_clust_8="13000.00000" pt_clust_9="26.42131"></scales>
<clustering>
<clus scale="   26.421">  2  9  1 -1</clus>
<clus scale="   79.346">  5  6 -1 -1</clus>
<clus scale="   90.722">  7  8 -1 -1</clus>
<clus scale="  172.919">  2  5  1 -1</clus>
<clus scale="  178.426">  1  5  2 -1</clus>
</clustering>
</event>
<event>
 9    2  0.3402837E-005  0.2012896E+03  0.7546771E-02  0.1149224E+00
         -1   -1    0    0    0  501 -0.00000000000E+00  0.00000000000E+00  0.10857548300E+03  0.10857548300E+03  0.00000000000E+00 0.  1.
          2   -1    0    0  502    0  0.00000000000E+00 -0.00000000000E+00 -0.61579185874E+03  0.61579185874E+03  0.00000000000E+00 0. -1.
         24    2    1    2    0    0 -0.34380787121E+02  0.23381448520E+03 -0.23288720803E+03  0.34218283302E+03  0.83674294359E+02 0.  0.
         23    2    1    2    0    0  0.40443648800E+02 -0.14147571236E+03 -0.19498421951E+03  0.26028771604E+03  0.89887615108E+02 0.  0.
        -11    1    3    3    0    0  0.19181667024E+02  0.53564060987E+02 -0.25831798222E+02  0.62484612335E+02  0.00000000000E+00 0.  1.
         12    1    3    3    0    0 -0.53562454145E+02  0.18025042421E+03 -0.20705540981E+03  0.27969822069E+03  0.00000000000E+00 0. -1.
        -11    1    4    4    0    0 -0.30011911201E+01 -0.84335606741E+02 -0.48930953696E+02  0.97548654231E+02  0.00000000000E+00 0.  1.
         11    1    4    4    0    0  0.43444839920E+02 -0.57140105623E+02 -0.14605326581E+03  0.16273906181E+03  0.00000000000E+00 0. -1.
         21    1    1    2  502  501 -0.60628616792E+01 -0.92338772837E+02 -0.79344948199E+02  0.12189679268E+03  0.00000000000E+00 0.  1.
<scales pt_clust_5="13000.00000" pt_clust_6="13000.00000" pt_clust_7="13000.00000" pt_clust_8="13000.00000" pt_clust_9="92.53760"></scales>
<clustering>
<clus scale="   83.674">  5  6 -1 -1</clus>
<clus scale="   89.888">  7  8 -1 -1</clus>
<clus scale="   92.538">  1  9  2 -1</clus>
<clus scale="  198.593">  1  5  2 -1</clus>
<clus scale="  201.290">  2  5  1 -1</clus>
</clustering>
</event>
<event>
 9    2  0.3402837E-005  0.1124174E+03  0.7546771E-02  0.1260151E+00
          2   -1    0    0  502    0  0.00000000000E+00  0.00000000000E+00  0.10366012867E+04  0.10366012867E+04  0.00000000000E+00 0. -1.
         -1   -1    0    0    0  501 -0.00000000000E+00 -0.00000000000E+00 -0.13476194090E+03  0.13476194090E+03  0.00000000000E+00 0.  1.
         23    2    1    2    0    0 -0.10293626087E+02  0.58456392595E+02 -0.73238924440E+02  0.13139974600E+03  0.91536029089E+02 0.  0.
         24    2    1    2    0    0  0.11040985361E+03 -0.84898591287E+02  0.19437502447E+03  0.25242300211E+03  0.80855521036E+02 0.  0.
        -11    1    4    4    0    0  0.89096288527E+02 -0.21691042330E+02  0.89528744845E+02  0.12815633461E+03  0.00000000000E+00 0.  1.
         12    1    4    4    0    0  0.21313565079E+02 -0.63207548957E+02  0.10484627962E+03  0.12426666750E+03  0.00000000000E+00 0. -1.
        -11    1    3    3    0    0  0.28348751907E+02  0.57137392077E+02 -0.66513867977E+02  0.92154370169E+02  0.00000000000E+00 0.  1.
         11    1    3    3    0    0 -0.38642377993E+02  0.13190005179E+01 -0.67250564626E+01  0.39245375827E+02  0.00000000000E+00 0. -1.
         21    1    1    2  502  501 -0.10011622752E+03  0.26442198692E+02  0.78070324581E+03  0.78754047954E+03  0.00000000000E+00 0. -1.
<scales pt_clust_5="13000.00000" pt_clust_6="13000.00000" pt_clust_7="13000.00000" pt_clust_8="13000.00000" pt_clust_9="103.54926"></scales>
<clustering>
<clus scale="   80.856">  5  6 -1 -1</clus>
<clus scale="   91.536">  7  8 -1 -1</clus>
<clus scale="  103.549">  1  9  2 -1</clus>
<clus scale="  103.906">  1  5  2 -1</clus>
<clus scale="  103.549">  1  5  2 -1</clus>
</clustering>
</event>
<event>
 9    2  0.3402837E-005  0.2812025E+03  0.7546771E-02  0.1130344E+00
          2   -1    0    0  502    0  0.00000000000E+00  0.00000000000E+00  0.86162458089E+03  0.86162458089E+03  0.00000000000E+00 0. -1.
         -1   -1    0    0    0  501 -0.00000000000E+00 -0.00000000000E+00 -0.45818249888E+03  0.45818249888E+03  0.00000000000E+00 0.  1.
         24    2    1    2    0    0  0.83794094728E+01 -0.81703558534E+02 -0.21297055381E+03  0.24197851944E+03  0.80320987919E+02 0.  0.
         23    2    1    2    0    0  0.32829167545E+02  0.27255060328E+03  0.77428369379E+03  0.82674289318E+03  0.92881577129E+02 0.  0.
        -13    1    3    3    0    0  0.28559985938E-01 -0.75064003417E+02 -0.21772270914E+03  0.23029933456E+03  0.00000000000E+00 0.  1.
         14    1    3    3    0    0  0.83508494869E+01 -0.66395551178E+01  0.47521553246E+01  0.11679184884E+02  0.00000000000E+00 0. -1.
        -13    1    4    4    0    0 -0.12169954492E+02  0.37351730586E+02  0.21171762733E+03  0.21533140340E+03  0.00000000000E+00 0.  1.
         13    1    4    4    0    0  0.44999122038E+02  0.23519887269E+03  0.56256606646E+03  0.61141148977E+03  0.00000000000E+00 0. -1.
         21    1    1    2  502  501 -0.41208577018E+02 -0.19084704475E+03 -0.15787105796E+03  0.25108566715E+03  0.00000000000E+00 0.  1.
<scales pt_clust_5="13000.00000" pt_clust_6="13000.00000" pt_clust_7="13000.00000" pt_clust_8="13000.00000" pt_clust_9="265.42018"></scales>
<clustering>
<clus scale="   80.321">  5  6 -1 -1</clus>
<clus scale="   92.882">  7  8 -1 -1</clus>
<clus scale="  114.879">  2  5  1 -1</clus>
<clus scale="  265.420">  2  9  1 -1</clus>
<clus scale="  281.203">  1  5  2 -1</clus>
</clustering>
</event>
<event>
 9    2  0.3402837E-005  0.2660388E+03  0.7546771E-02  0.1103606E+00
         -1   -1    0    0    0  501 -0.00000000000E+00  0.00000000000E+00  0.58848611730E+02  0.58848611730E+02  0.00000000000E+00 0.  1.
          2   -1    0    0  502    0  0.00000000000E+00 -0.00000000000E+00 -0.18816588509E+04  0.18816588509E+04  0.00000000000E+00 0. -1.
         24    2    1    2    0    0 -0.11013466301E+03 -0.22577176926E+03 -0.66525305748E+03  0.71662189472E+03  0.88784985892E+02 0.  0.
         23    2    1    2    0    0  0.25595936502E+02  0.25513899992E+03 -0.10469477681E+04  0.10816053061E+04  0.89550811662E+02 0.  0.
        -13    1    3    3    0    0 -0.70614612779E+01 -0.43860657444E+02 -0.50366051640E+02  0.67159218762E+02  0.00000000000E+00 0.  1.
         14    1    3    3    0    0 -0.10307320173E+03 -0.18191111181E+03 -0.61488700584E+03  0.64946267596E+03  0.00000000000E+00 0. -1.
        -11    1    4    4    0    0  0.46718096448E+02  0.12333271895E+03 -0.40524961576E+03  0.42616990881E+03  0.00000000000E+00 0.  1.
         11    1    4    4    0    0 -0.21122159946E+02  0.13180628097E+03 -0.64169815234E+03  0.65543539732E+03  0.00000000000E+00 0. -1.
         21    1    1    2  502  501  0.84538726506E+02 -0.29367230663E+02 -0.11060941357E+03  0.14228026176E+03  0.00000000000E+00 0.  1.
<scales pt_clust_5="13000.00000" pt_clust_6="13000.00000" pt_clust_7="13000.00000" pt_clust_8="13000.00000" pt_clust_9="89.49430"></scales>
<clustering>
<clus scale="   88.785">  5  6 -1 -1</clus>
<clus scale="   89.494">  1  9  2 -1</clus>
<clus scale="   89.551">  7  8 -1 -1</clus>
<clus scale="  265.782">  1  5  2 -1</clus>
<clus scale="  266.039">  2  5  1 -1</clus>
</clustering>
</event>
<event>
 9    2  0.3402837E-005  0.9314636E+02  0.7546771E-02  0.1303875E+00
         -1   -1    0    0    0  501 -0.00000000000E+00  0.00000000000E+00  0.84479789538E+02  0.84479789538E+02  0.00000000000E+00 0.  1.
          2   -1    0    0  502    0  0.00000000000E+00 -0.00000000000E+00 -0.15857573391E+03  0.15857573391E+03  0.00000000000E+00 0. -1.
         23    2    1    2    0    0  0.16284033406E+02 -0.34388112052E+01  0.10524419332E+02  0.94089365377E+02  0.92005706934E+02 0.  0.
         24    2    1    2    0    0  0.86122517574E+01  0.30026978973E+02 -0.70419306934E+02  0.10987107279E+03  0.78338901572E+02 0.  0.
        -11    1    4    4    0    0 -0.30791784236E+02  0.45505979104E+01 -0.86597482114E+01  0.32308406907E+02  0.00000000000E+00 0.  1.
         12    1    4    4    0    0  0.39404035994E+02  0.25476381063E+02 -0.61759558723E+02  0.77562665879E+02  0.00000000000E+00 0. -1.
        -13    1    3    3    0    0 -0.29177710894E+02 -0.20269202565E+02 -0.15849504332E+02  0.38902264371E+02  0.00000000000E+00 0.  1.
         13    1    3    3    0    0  0.45461744300E+02  0.16830391359E+02  0.26373923664E+02  0.55187101007E+02  0.00000000000E+00 0. -1.
         21    1    1    2  502  501 -0.24896285164E+02 -0.26588167768E+02 -0.14201056773E+02  0.39095085288E+02  0.00000000000E+00 0.  1.
<scales pt_clust_5="13000.00000" pt_clust_6="13000.00000" pt_clust_7="13000.00000" pt_clust_8="13000.00000" pt_clust_9="36.42466"></scales>
<clustering>
<clus scale="   36.425">  2  9  1 -1</clus>
<clus scale="   78.339">  5  6 -1 -1</clus>
<clus scale="   79.675">  2  5  1 -1</clus>
<clus scale="   92.006">  7  8 -1 -1</clus>
<clus scale="   36.425">  2  5  1 -1</clus>
</clustering>
</event>
<event>
 9    2  0.3402837E-005  0.1316006E+03  0.7546771E-02  0.1227511E+00
          2   -1    0    0  502    0  0.00000000000E+00  0.00000000000E+00  0.57327800965E+03  0.57327800965E+03  0.00000000000E+00 0. -1.
         -1   -1    0    0    0  501 -0.00000000000E+00 -0.00000000000E+00 -0.77005288542E+02  0.77005288542E+02  0.00000000000E+00 0.  1.
         23    2    1    2    0    0  0.10077794751E+03  0.47317961062E+02  0.20863627617E+02  0.14493954283E+03  0.90426743690E+02 0.  0.
         24    2    1    2    0    0 -0.24622672310E+02 -0.43100244785E+02  0.27710081733E+03  0.29287355165E+03  0.80784572779E+02 0.  0.
        -13    1    4    4    0    0 -0.96048975345E+01 -0.64688254965E+02  0.22774895294E+03  0.23695233688E+03  0.00000000000E+00 0.  1.
         14    1    4    4    0    0 -0.15017774775E+02  0.21588010180E+02  0.49351864385E+02  0.55921214767E+02  0.00000000000E+00 0. -1.
        -11    1    3    3    0    0  0.10217564720E+03  0.67888180720E+02  0.20091604085E+02  0.12430744353E+03  0.00000000000E+00 0.  1.
         11    1    3    3    0    0 -0.13976996871E+01 -0.20570219658E+02  0.77202353238E+00  0.20632099300E+02  0.00000000000E+00 0. -1.
         21    1    1    2  502  501 -0.76155275202E+02 -0.42177162766E+01  0.19830827616E+03  0.21247020372E+03  0.00000000000E+00 0. -1.
<scales pt_clust_5="13000.00000" pt_clust_6="13000.00000" pt_clust_7="13000.00000" pt_clust_8="13000.00000" pt_clust_9="76.27198"></scales>
<clustering>
<clus scale="   76.272">  1  9  2 -1</clus>
<clus scale="   80.785">  5  6 -1 -1</clus>
<clus scale="   90.427">  7  8 -1 -1</clus>
<clus scale="  125.171">  1  5  2 -1</clus>
<clus scale="   76.272">  1  5  2 -1</clus>
</clustering>
</event>
<event>
 9    2  0.3402837E-005  0.3225756E+03  0.7546771E-02  0.1106993E+00
         -1   -1    0    0    0  501 -0.00000000000E+00  0.00000000000E+00  0.10055040862E+04  0.10055040862E+04  0.00000000000E+00 0.  1.
          2   -1    0    0  502    0  0.00000000000E+00 -0.00000000000E+00 -0.67017746161E+03  0.67017746161E+03  0.00000000000E+00 0. -1.
         24    2    1    2    0    0 -0.92669702141E+02  0.23754264466E+02  0.16411425819E+03  0.21357005176E+03  0.97605012633E+02 0.  0.
         23    2    1    2    0    0 -0.27670889584E+03  0.12564325684E+03 -0.55166371120E+03  0.63669645404E+03  0.93249575325E+02 0.  0.
        -11    1    3    3    0    0 -0.36039946675E+02 -0.17876703126E+02  0.61796476911E+01  0.40701871168E+02  0.00000000000E+00 0.  1.
         12    1    3    3    0    0 -0.56629755466E+02  0.41630967592E+02  0.15793461050E+03  0.17286818059E+03  0.00000000000E+00 0. -1.
        -11    1    4    4    0    0 -0.14450083494E+03  0.45938656518E+02 -0.18732182960E+03  0.24099858776E+03  0.00000000000E+00 0. -1.
         11    1    4    4    0    0 -0.13220806090E+03  0.79704600324E+02 -0.36434188161E+03  0.39569786627E+03  0.00000000000E+00 0.  1.
         21    1    1    2  502  501  0.36937859798E+03 -0.14939752131E+03  0.72287607756E+03  0.82541504198E+03  0.00000000000E+00 0.  1.
<scales pt_clust_5="13000.00000" pt_clust_6="13000.00000" pt_clust_7="13000.00000" pt_clust_8="13000.00000" pt_clust_9="308.80344"></scales>
<clustering>
<clus scale="   93.250">  7  8 -1 -1</clus>
<clus scale="   97.605">  5  6 -1 -1</clus>
<clus scale="  136.670">  1  5  2 -1</clus>
<clus scale="  308.803">  1  9  2 -1</clus>
<clus scale="  322.576">  2  5  1 -1</clus>
</clustering>
</event>
<event>
 9    2  0.3528930E-005  0.1338686E+03  0.7546771E-02  0.1224025E+00
         -3   -1    0    0    0  501 -0.00000000000E+00  0.00000000000E+00  0.24762743103E+03  0.24762743103E+03  0.00000000000E+00 0.  1.
          4   -1    0    0  502    0  0.00000000000E+00 -0.00000000000E+00 -0.27489881413E+03  0.27489881413E+03  0.00000000000E+00 0. -1.
         24    2    1    2    0    0  0.30911292040E+02 -0.10454460992E+03  0.19091908727E+03  0.23428892183E+03  0.80969855947E+02 0.  0.
         23    2    1    2    0    0 -0.90671386359E+01  0.97832993297E+02 -0.22738535741E+03  0.26360484917E+03  0.90166003351E+02 0.  0.
        -13    1    3    3    0    0 -0.60300375600E+01 -0.96893116776E+02  0.14959288001E+03  0.17833302325E+03  0.00000000000E+00 0.  1.
         14    1    3    3    0    0  0.36941329600E+02 -0.76514931401E+01  0.41326207256E+02  0.55955898581E+02  0.00000000000E+00 0. -1.
        -11    1    4    4    0    0  0.25819026985E+02  0.13475452466E+02 -0.11595402146E+03  0.11955561495E+03  0.00000000000E+00 0. -1.
         11    1    4    4    0    0 -0.34886165621E+02  0.84357540832E+02 -0.11143133594E+03  0.14404923421E+03  0.00000000000E+00 0.  1.
         21    1    1    2  502  501 -0.21844153404E+02  0.67116166188E+01  0.91948870429E+01  0.24632474161E+02  0.00000000000E+00 0. -1.
<scales pt_clust_5="13000.00000" pt_clust_6="13000.00000" pt_clust_7="13000.00000" pt_clust_8="13000.00000" pt_clust_9="22.85198"></scales>
<clustering>
<clus scale="   22.852">  1  9  2 -1</clus>
<clus scale="   80.970">  5  6 -1 -1</clus>
<clus scale="   90.166">  7  8 -1 -1</clus>
<clus scale="  127.855">  1  5  2 -1</clus>
<clus scale="  133.869">  2  5  1 -1</clus>
</clustering>
</event>
<event>
 9    2  0.3402837E-005  0.1103631E+03  0.7546771E-02  0.1264316E+00
         -3   -1    0    0    0  501 -0.00000000000E+00  0.00000000000E+00  0.48758382151E+03  0.48758382151E+03  0.00000000000E+00 0.  1.
          4   -1    0    0  502    0  0.00000000000E+00 -0.00000000000E+00 -0.92134856295E+02  0.92134856295E+02  0.00000000000E+00 0. -1.
         23    2    1    2    0    0  0.23867932729E+01  0.64297197526E+02  0.39536831053E+03  0.41087034475E+03  0.91424902687E+02 0.  0.
         24    2    1    2    0    0 -0.58827121215E+02 -0.39433271660E+02  0.42236785070E+01  0.10703498439E+03  0.80143841422E+02 0.  0.
        -11    1    4    4    0    0 -0.68696191835E+02 -0.55323401602E+02  0.46330763685E+01  0.88325030054E+02  0.00000000000E+00 0.  1.
         12    1    4    4    0    0  0.98690706195E+01  0.15890129942E+02 -0.40939786143E+00  0.18709954331E+02  0.00000000000E+00 0. -1.
        -11    1    3    3    0    0 -0.31878897631E+02 -0.41791157951E+01  0.16519698418E+03  0.16829668061E+03  0.00000000000E+00 0.  1.
         11    1    3    3    0    0  0.34265690904E+02  0.68476313322E+02  0.23017132636E+03  0.24257366414E+03  0.00000000000E+00 0. -1.
         21    1    1    2  502  501  0.56440327942E+02 -0.24863925866E+02 -0.41430238208E+01  0.61813348672E+02  0.00000000000E+00 0. -1.
<scales pt_clust_5="13000.00000" pt_clust_6="13000.00000" pt_clust_7="13000.00000" pt_clust_8="13000.00000" pt_clust_9="61.67435"></scales>
<clustering>
<clus scale="   61.674">  2  9  1 -1</clus>
<clus scale="   80.144">  5  6 -1 -1</clus>
<clus scale="   91.425">  7  8 -1 -1</clus>
<clus scale="  101.215">  2  5  1 -1</clus>
<clus scale="   61.674">  2  5  1 -1</clus>
</clustering>
</event>
<event>
 9    2  0.3402837E-005  0.1352515E+03  0.7546771E-02  0.1223474E+00
         -1   -1    0    0    0  501 -0.00000000000E+00  0.00000000000E+00  0.10995791687E+03  0.10995791687E+03  0.00000000000E+00 0.  1.
          2   -1    0    0  502    0  0.00000000000E+00 -0.00000000000E+00 -0.76460795051E+03  0.76460795051E+03  0.00000000000E+00 0. -1.
         24    2    1    2    0    0 -0.31262545933E+02 -0.10202047638E+03 -0.18286238349E+02  0.13493822636E+03  0.80550692365E+02 0.  0.
         23    2    1    2    0    0  0.71248933968E+01  0.94915824836E+02 -0.67786377065E+03  0.69109568971E+03  0.95153470030E+02 0.  0.
        -11    1    3    3    0    0  0.18321305674E+02 -0.61251594084E+02 -0.28394598003E+02  0.69954851263E+02  0.00000000000E+00 0.  1.
         12    1    3    3    0    0 -0.49583851607E+02 -0.40768882296E+02  0.10108359654E+02  0.64983375095E+02  0.00000000000E+00 0. -1.
        -13    1    4    4    0    0 -0.41513946948E+02  0.25503867575E+02 -0.20628459294E+03  0.21196034614E+03  0.00000000000E+00 0. -1.
         13    1    4    4    0    0  0.48638840345E+02  0.69411957261E+02 -0.47157917771E+03  0.47913534356E+03  0.00000000000E+00 0.  1.
         21    1    1    2  502  501  0.24137652536E+02  0.71046515442E+01  0.41499975363E+02  0.48531951317E+02  0.00000000000E+00 0.  1.
<scales pt_clust_5="13000.00000" pt_clust_6="13000.00000" pt_clust_7="13000.00000" pt_clust_8="13000.00000" pt_clust_9="25.16153"></scales>
<clustering>
<clus scale="   25.162">  1  9  2 -1</clus>
<clus scale="   80.551">  5  6 -1 -1</clus>
<clus scale="   95.153">  7  8 -1 -1</clus>
<clus scale="  125.408">  1  5  2 -1</clus>
<clus scale="  135.252">  2  5  1 -1</clus>
</clustering>
</event>
<event>
 9    2  0.3402837E-005  0.1503236E+03  0.7546771E-02  0.1217867E+00
          2   -1    0    0  502    0  0.00000000000E+00  0.00000000000E+00  0.71513512068E+03  0.71513512068E+03  0.00000000000E+00 0. -1.
         -1   -1    0    0    0  501 -0.00000000000E+00 -0.00000000000E+00 -0.99652083665E+02  0.99652083665E+02  0.00000000000E+00 0.  1.
         23    2    1    2    0    0  0.54194718544E+01 -0.29744666059E+02 -0.10453987982E+01  0.10274571249E+03  0.98191001333E+02 0.  0.
         24    2    1    2    0    0  0.12501348069E+03 -0.74947317082E+01  0.53147243500E+03  0.55193511743E+03  0.80528773320E+02 0.  0.
        -13    1    4    4    0    0  0.35526172544E+02 -0.38943220520E+02  0.15592299874E+03  0.16459242053E+03  0.00000000000E+00 0.  1.
         14    1    4    4    0    0  0.89487308148E+02  0.31448488811E+02  0.37554943626E+03  0.38734269690E+03  0.00000000000E+00 0. -1.
        -11    1    3    3    0    0 -0.20154244791E+02 -0.59581130660E+02 -0.57905985850E+01  0.63163563435E+02  0.00000000000E+00 0.  1.
         11    1    3    3    0    0  0.25573716646E+02  0.29836464601E+02  0.47451997869E+01  0.39582149057E+02  0.00000000000E+00 0. -1.
         21    1    1    2  502  501 -0.13043295255E+03  0.37239397767E+02  0.85056000815E+02  0.16010637442E+03  0.00000000000E+00 0.  1.
<scales pt_clust_5="13000.00000" pt_clust_6="13000.00000" pt_clust_7="13000.00000" pt_clust_8="13000.00000" pt_clust_9="126.93430"></scales>
<clustering>
<clus scale="   80.529">  5  6 -1 -1</clus>
<clus scale="   98.191">  7  8 -1 -1</clus>
<clus scale="  102.740">  2  7  1 -1</clus>
<clus scale="  126.934">  2  9  1 -1</clus>
<clus scale="  150.324">  1  5  2 -1</clus>
</clustering>
</event>
<event>
 9    2  0.3402837E-005  0.1307785E+03  0.7546771E-02  0.1229656E+00
         -1   -1    0    0    0  501 -0.00000000000E+00  0.00000000000E+00  0.16515458362E+03  0.16515458362E+03  0.00000000000E+00 0.  1.
          2   -1    0    0  502    0  0.00000000000E+00 -0.00000000000E+00 -0.68195374102E+03  0.68195374102E+03  0.00000000000E+00 0. -1.
         23    2    1    2    0    0 -0.14892554375E+02 -0.17474582725E+02  0.55711370367E+02  0.11089891126E+03  0.93100282027E+02 0.  0.
         24    2    1    2    0    0  0.89761013755E+02 -0.40456341204E+02 -0.61818151350E+03  0.63110414665E+03  0.80313791800E+02 0.  0.
        -11    1    4    4    0    0  0.33053141757E+02  0.17237928056E+02 -0.10152558520E+03  0.10815313585E+03  0.00000000000E+00 0.  1.
         12    1    4    4    0    0  0.56707871997E+02 -0.57694269259E+02 -0.51665592830E+03  0.52295101080E+03  0.00000000000E+00 0. -1.
        -11    1    3    3    0    0 -0.23895838365E+02  0.33339745116E+02  0.10626532021E+02  0.42373020642E+02  0.00000000000E+00 0.  1.
         11    1    3    3    0    0  0.90032839894E+01 -0.50814327841E+02  0.45084838346E+02  0.68525890620E+02  0.00000000000E+00 0. -1.
         21    1    1    2  502  501 -0.74868459379E+02  0.57930923929E+02  0.45670985724E+02  0.10510526673E+03  0.00000000000E+00 0.  1.
<scales pt_clust_5="13000.00000" pt_clust_6="13000.00000" pt_clust_7="13000.00000" pt_clust_8="13000.00000" pt_clust_9="94.66403"></scales>
<clustering>
<clus scale="   80.314">  5  6 -1 -1</clus>
<clus scale="   93.100">  7  8 -1 -1</clus>
<clus scale="   94.664">  1  9  2 -1</clus>
<clus scale="  122.007">  2  5  1 -1</clus>
<clus scale="  122.007">  2  5  1 -1</clus>
</clustering>
</event>
<event>
 9    2  0.3402837E-005  0.1020330E+03  0.7546771E-02  0.1282959E+00
          2   -1    0    0  502    0  0.00000000000E+00  0.00000000000E+00  0.66241180169E+03  0.66241180169E+03  0.00000000000E+00 0. -1.
         -1   -1    0    0    0  501 -0.00000000000E+00 -0.00000000000E+00 -0.74467125553E+02  0.74467125553E+02  0.00000000000E+00 0.  1.
         23    2    1    2    0    0  0.19628039190E+02 -0.63713348496E+01  0.45227411615E+01  0.95825866252E+02  0.93468110204E+02 0.  0.
         24    2    1    2    0    0 -0.31805929952E+02 -0.29250031134E+02  0.59485438710E+03  0.60170990785E+03  0.79598303054E+02 0.  0.
        -11    1    4    4    0    0 -0.23407069063E+02  0.14066915352E+02  0.72129879303E+02  0.77126444738E+02  0.00000000000E+00 0.  1.
         12    1    4    4    0    0 -0.83988608890E+01 -0.43316946487E+02  0.52272450779E+03  0.52458346311E+03  0.00000000000E+00 0. -1.
        -11    1    3    3    0    0 -0.35104974808E+02 -0.16967038388E+02 -0.48622392058E+01  0.39292251374E+02  0.00000000000E+00 0. -1.
         11    1    3    3    0    0  0.54733013998E+02  0.10595703538E+02  0.93849803674E+01  0.56533614879E+02  0.00000000000E+00 0.  1.
         21    1    1    2  502  501  0.12177890761E+02  0.35621365984E+02 -0.11432452122E+02  0.39343153146E+02  0.00000000000E+00 0.  1.
<scales pt_clust_5="13000.00000" pt_clust_6="13000.00000" pt_clust_7="13000.00000" pt_clust_8="13000.00000" pt_clust_9="37.64549"></scales>
<clustering>
<clus scale="   37.645">  2  9  1 -1</clus>
<clus scale="   79.598">  5  6 -1 -1</clus>
<clus scale="   89.501">  1  5  2 -1</clus>
<clus scale="   93.468">  7  8 -1 -1</clus>
<clus scale="   89.501">  1  5  2 -1</clus>
</clustering>
</event>
<event>
 9    2  0.3402837E-005  0.1467395E+03  0.7546771E-02  0.1206504E+00
         -1   -1    0    0    0  501 -0.00000000000E+00  0.00000000000E+00  0.20874194059E+03  0.20874194059E+03  0.00000000000E+00 0.  1.
          2   -1    0    0  502    0  0.00000000000E+00 -0.00000000000E+00 -0.48290526856E+03  0.48290526856E+03  0.00000000000E+00 0. -1.
         24    2    1    2    0    0  0.87340913718E+02  0.34322403341E+02 -0.90420582244E+02  0.15465867458E+03  0.83288422666E+02 0.  0.
         23    2    1    2    0    0 -0.10924091410E+03 -0.58108905754E+02 -0.34200933833E+03  0.37545302128E+03  0.93189921347E+02 0.  0.
        -11    1    3    3    0    0  0.58307074540E+02  0.41621263941E+02 -0.14557697063E+02  0.73102469844E+02  0.00000000000E+00 0.  1.
         12    1    3    3    0    0  0.29033839178E+02 -0.72988606000E+01 -0.75862885181E+02  0.81556204739E+02  0.00000000000E+00 0. -1.
        -13    1    4    4    0    0 -0.87428493587E+02 -0.72585075782E+01 -0.13364233371E+03  0.15986463268E+03  0.00000000000E+00 0.  1.
         13    1    4    4    0    0 -0.21812420515E+02 -0.50850398176E+02 -0.20836700462E+03  0.21558838860E+03  0.00000000000E+00 0. -1.
         21    1    1    2  502  501  0.21900000384E+02  0.23786502413E+02  0.15826659261E+03  0.16153551328E+03  0.00000000000E+00 0.  1.
<scales pt_clust_5="13000.00000" pt_clust_6="13000.00000" pt_clust_7="13000.00000" pt_clust_8="13000.00000" pt_clust_9="32.33277"></scales>
<clustering>
<clus scale="   32.333">  1  9  2 -1</clus>
<clus scale="   83.288">  5  6 -1 -1</clus>
<clus scale="   93.190">  7  8 -1 -1</clus>
<clus scale="  140.659">  1  5  2 -1</clus>
<clus scale="  146.740">  2  5  1 -1</clus>
</clustering>
</event>
<event>
 9    2  0.3402837E-005  0.1362343E+03  0.7546771E-02  0.1241913E+00
         -1   -1    0    0    0  501 -0.00000000000E+00  0.00000000000E+00  0.84381027659E+02  0.84381027659E+02  0.00000000000E+00 0.  1.
          2   -1    0    0  502    0  0.00000000000E+00 -0.00000000000E+00 -0.32989428354E+03  0.32989428354E+03  0.00000000000E+00 0. -1.
         23    2    1    2    0    0 -0.58986694486E+02 -0.83010704168E+02 -0.12179613167E+03  0.18098097299E+03  0.86888478887E+02 0.  0.
         24    2    1    2    0    0  0.15873489372E+02 -0.15161967481E+02 -0.84441320990E+02  0.11910497516E+03  0.81079007731E+02 0.  0.
        -11    1    4    4    0    0  0.38186625319E+02  0.29187795558E+01 -0.10394092501E+02  0.39683432138E+02  0.00000000000E+00 0.  1.
         12    1    4    4    0    0 -0.22313135947E+02 -0.18080747036E+02 -0.74047228489E+02  0.79421543023E+02  0.00000000000E+00 0. -1.
        -13    1    3    3    0    0 -0.74135612692E+02 -0.33496779951E+02 -0.65050921277E+02  0.10416211257E+03  0.00000000000E+00 0.  1.
         13    1    3    3    0    0  0.15148918206E+02 -0.49513924216E+02 -0.56745210388E+02  0.76818860419E+02  0.00000000000E+00 0. -1.
         21    1    1    2  502  501  0.43113205114E+02  0.98172671648E+02 -0.39275803222E+02  0.11418936304E+03  0.00000000000E+00 0.  1.
<scales pt_clust_5="13000.00000" pt_clust_6="13000.00000" pt_clust_7="13000.00000" pt_clust_8="13000.00000" pt_clust_9="104.92936"></scales>
<clustering>
<clus scale="   81.079">  5  6 -1 -1</clus>
<clus scale="   83.998">  2  5  1 -1</clus>
<clus scale="   86.888">  7  8 -1 -1</clus>
<clus scale="  104.929">  1  9  2 -1</clus>
<clus scale="   83.998">  2  5  1 -1</clus>
</clustering>
</event>
<event>
 9    2  0.3402837E-005  0.3856188E+03  0.7546771E-02  0.1049075E+00
         -1   -1    0    0    0  501 -0.00000000000E+00  0.00000000000E+00  0.29900954119E+03  0.29900954119E+03  0.00000000000E+00 0.  1.
          2   -1    0    0  502    0  0.00000000000E+00 -0.00000000000E+00 -0.19109508457E+04  0.19109508457E+04  0.00000000000E+00 0. -1.
         24    2    1    2    0    0 -0.36688875829E+03  0.13971487380E+03 -0.40692293155E+03  0.57096717868E+03  0.79307250526E+02 0.  0.
         23    2    1    2    0    0  0.34291464832E+03 -0.13828939691E+03 -0.13958031214E+04  0.14467027765E+04  0.89264530206E+02 0.  0.
        -11    1    3    3    0    0 -0.34173650428E+03  0.13815869727E+03 -0.34819833335E+03  0.50706384543E+03  0.00000000000E+00 0.  1.
         12    1    3    3    0    0 -0.25152254006E+02  0.15561765324E+01 -0.58724598198E+02  0.63903333250E+02  0.00000000000E+00 0. -1.
        -11    1    4    4    0    0  0.23910150118E+03 -0.13722130376E+03 -0.10562120134E+04  0.10915965516E+04  0.00000000000E+00 0. -1.
         11    1    4    4    0    0  0.10381314714E+03 -0.10680931566E+01 -0.33959110796E+03  0.35510622488E+03  0.00000000000E+00 0.  1.
         21    1    1    2  502  501  0.23974109965E+02 -0.14254768891E+01  0.19078474841E+03  0.19229043179E+03  0.00000000000E+00 0. -1.
<scales pt_clust_5="13000.00000" pt_clust_6="13000.00000" pt_clust_7="13000.00000" pt_clust_8="13000.00000" pt_clust_9="24.01645"></scales>
<clustering>
<clus scale="   24.016">  1  9  2 -1</clus>
<clus scale="   79.307">  5  6 -1 -1</clus>
<clus scale="   89.265">  7  8 -1 -1</clus>
<clus scale="  383.436">  1  5  2 -1</clus>
<clus scale="  385.619">  2  5  1 -1</clus>
</clustering>
</event>
<event>
 9    2  0.3402837E-005  0.1081545E+03  0.7546771E-02  0.1268530E+00
          2   -1    0    0  502    0  0.00000000000E+00  0.00000000000E+00  0.18307555592E+04  0.18307555592E+04  0.00000000000E+00 0. -1.
         -1   -1    0    0    0  501 -0.00000000000E+00 -0.00000000000E+00 -0.19614611377E+02  0.19614611377E+02  0.00000000000E+00 0.  1.
         23    2    1    2    0    0  0.64063795420E+02  0.44097857459E+02  0.29355264105E+03  0.31730634960E+03  0.91985735368E+02 0.  0.
         24    2    1    2    0    0 -0.50904252082E+02 -0.19018013687E+02  0.14910729098E+04  0.14942664187E+04  0.81122007670E+02 0.  0.
        -13    1    4    4    0    0 -0.24238320948E+02 -0.20227243079E+02  0.16895760795E+03  0.17188167688E+03  0.00000000000E+00 0.  1.
         14    1    4    4    0    0 -0.26665931134E+02  0.12092293913E+01  0.13221153018E+04  0.13223847418E+04  0.00000000000E+00 0. -1.
        -11    1    3    3    0    0 -0.18514400315E+02  0.29535737922E+02  0.11253865864E+03  0.11781380446E+03  0.00000000000E+00 0. -1.
         11    1    3    3    0    0  0.82578195735E+02  0.14562119537E+02  0.18101398242E+03  0.19949254514E+03  0.00000000000E+00 0.  1.
         21    1    1    2  502  501 -0.13159543339E+02 -0.25079843772E+02  0.26515397015E+02  0.38797402276E+02  0.00000000000E+00 0.  1.
<scales pt_clust_5="13000.00000" pt_clust_6="13000.00000" pt_clust_7="13000.00000" pt_clust_8="13000.00000" pt_clust_9="28.32264"></scales>
<clustering>
<clus scale="   28.323">  2  9  1 -1</clus>
<clus scale="   81.122">  5  6 -1 -1</clus>
<clus scale="   91.986">  7  8 -1 -1</clus>
<clus scale="   99.080">  1  5  2 -1</clus>
<clus scale="   99.080">  1  5  2 -1</clus>
</clustering>
</event>
<event>
 9    2  0.3402837E-005  0.9581852E+02  0.7546771E-02  0.1296267E+00
          2   -1    0    0  502    0  0.00000000000E+00  0.00000000000E+00  0.71274320028E+02  0.71274320028E+02  0.00000000000E+00 0. -1.
         -1   -1    0    0    0  501 -0.00000000000E+00 -0.00000000000E+00 -0.24407384305E+03  0.24407384305E+03  0.00000000000E+00 0.  1.
         24    2    1    2    0    0 -0.50755821128E+02 -0.17224155617E+01 -0.11836036649E+03  0.15138518095E+03  0.79556122096E+02 0.  0.
         23    2    1    2    0    0  0.11799699046E+02 -0.22974876568E+02 -0.36971065147E+01  0.95389726944E+02  0.91752131087E+02 0.  0.
        -13    1    3    3    0    0 -0.64590369032E+02 -0.23240669757E+02 -0.90026887456E+02  0.11321168212E+03  0.00000000000E+00 0.  1.
         14    1    3    3    0    0  0.13834547904E+02  0.21518254196E+02 -0.28333479032E+02  0.38173498836E+02  0.00000000000E+00 0. -1.
        -11    1    4    4    0    0  0.33663531534E+02 -0.41146192056E+01 -0.37747511510E+02  0.50744832956E+02  0.00000000000E+00 0. -1.
         11    1    4    4    0    0 -0.21863832488E+02 -0.18860257363E+02  0.34050404995E+02  0.44644893988E+02  0.00000000000E+00 0.  1.
         21    1    1    2  502  501  0.38956122082E+02  0.24697292130E+02 -0.50742050021E+02  0.68573255184E+02  0.00000000000E+00 0. -1.
<scales pt_clust_5="13000.00000" pt_clust_6="13000.00000" pt_clust_7="13000.00000" pt_clust_8="13000.00000" pt_clust_9="46.12522"></scales>
<clustering>
<clus scale="   46.125">  2  9  1 -1</clus>
<clus scale="   79.556">  5  6 -1 -1</clus>
<clus scale="   84.213">  2  5  1 -1</clus>
<clus scale="   91.752">  7  8 -1 -1</clus>
<clus scale="   95.819">  1  5  2 -1</clus>
</clustering>
</event>
<event>
 9    2  0.3402837E-005  0.9095932E+02  0.7546771E-02  0.1300631E+00
          2   -1    0    0  502    0  0.00000000000E+00  0.00000000000E+00  0.32471351237E+03  0.32471351237E+03  0.00000000000E+00 0. -1.
         -1   -1    0    0    0  501 -0.00000000000E+00 -0.00000000000E+00 -0.76199182738E+02  0.76199182738E+02  0.00000000000E+00 0.  1.
         24    2    1    2    0    0  0.28664222455E+02 -0.11760337033E+02 -0.12715102929E+02  0.95051830550E+02  0.88956357122E+02 0.  0.
         23    2    1    2    0    0 -0.16021954137E+02 -0.74023480711E+01  0.26713522842E+03  0.28215614197E+03  0.89103088696E+02 0.  0.
        -11    1    3    3    0    0  0.41258946822E+01  0.22235528304E+02  0.28417070575E+02  0.36317648960E+02  0.00000000000E+00 0.  1.
         12    1    3    3    0    0  0.24538327772E+02 -0.33995865337E+02 -0.41132173505E+02  0.58734181591E+02  0.00000000000E+00 0. -1.
        -13    1    4    4    0    0  0.35003407105E+02 -0.16901793818E+02  0.11956459369E+03  0.12572430635E+03  0.00000000000E+00 0.  1.
         13    1    4    4    0    0 -0.51025361242E+02  0.94994457465E+01  0.14757063473E+03  0.15643183562E+03  0.00000000000E+00 0. -1.
         21    1    1    2  502  501 -0.12642268317E+02  0.19162685105E+02 -0.59057958540E+01  0.23704722595E+02  0.00000000000E+00 0.  1.
<scales pt_clust_5="13000.00000" pt_clust_6="13000.00000" pt_clust_7="13000.00000" pt_clust_8="13000.00000" pt_clust_9="22.95725"></scales>
<clustering>
<clus scale="   22.957">  2  9  1 -1</clus>
<clus scale="   88.956">  5  6 -1 -1</clus>
<clus scale="   89.103">  7  8 -1 -1</clus>
<clus scale="   90.816">  2  5  1 -1</clus>
<clus scale="   90.959">  1  5  2 -1</clus>
</clustering>
</event>
<event>
 9    2  0.3402837E-005  0.1089867E+03  0.7546771E-02  0.1265625E+00
         -1   -1    0    0    0  501 -0.00000000000E+00  0.00000000000E+00  0.51814959255E+02  0.51814959255E+02  0.00000000000E+00 0.  1.
          2   -1    0    0  502    0  0.00000000000E+00 -0.00000000000E+00 -0.33511411167E+03  0.33511411167E+03  0.00000000000E+00 0. -1.
         23    2    1    2    0    0  0.10017946921E+02  0.76095440952E+02 -0.76334282965E+02  0.13431109318E+03  0.79508940392E+02 0.  0.
         24    2    1    2    0    0 -0.19167344900E+02 -0.56455220871E+02 -0.20503854154E+03  0.23086572573E+03  0.87770158516E+02 0.  0.
        -11    1    4    4    0    0  0.30421558083E+02 -0.27627458419E+01 -0.85052470302E+02  0.90371603202E+02  0.00000000000E+00 0.  1.
         12    1    4    4    0    0 -0.49588902983E+02 -0.53692475029E+02 -0.11998607124E+03  0.14049412253E+03  0.00000000000E+00 0. -1.
        -13    1    3    3    0    0 -0.10256236110E+02  0.85919474382E+02 -0.51135119586E+02  0.10050943693E+03  0.00000000000E+00 0.  1.
         13    1    3    3    0    0  0.20274183031E+02 -0.98240334296E+01 -0.25199163380E+02  0.33801656253E+02  0.00000000000E+00 0. -1.
         21    1    1    2  502  501  0.91493979789E+01 -0.19640220081E+02 -0.19263279069E+01  0.21752252008E+02  0.00000000000E+00 0. -1.
<scales pt_clust_5="13000.00000" pt_clust_6="13000.00000" pt_clust_7="13000.00000" pt_clust_8="13000.00000" pt_clust_9="21.66679"></scales>
<clustering>
<clus scale="   21.667">  1  9  2 -1</clus>
<clus scale="   79.509">  7  8 -1 -1</clus>
<clus scale="   87.770">  5  6 -1 -1</clus>
<clus scale="  102.451">  1  7  2 -1</clus>
<clus scale="  108.987">  2  5  1 -1</clus>
</clustering>
</event>
<event>
 9    2  0.3402837E-005  0.9909479E+02  0.7546771E-02  0.1287534E+00
          2   -1    0    0  502    0  0.00000000000E+00  0.00000000000E+00  0.54289731986E+03  0.54289731986E+03  0.00000000000E+00 0. -1.
         -1   -1    0    0    0  501 -0.00000000000E+00 -0.00000000000E+00 -0.36294240698E+02  0.36294240698E+02  0.00000000000E+00 0.  1.
         24    2    1    2    0    0 -0.52722359904E+02 -0.53288841021E+01  0.98916203361E+02  0.13856447488E+03  0.81287478571E+02 0.  0.
         23    2    1    2    0    0  0.13197412148E+02  0.38056049706E+02  0.34702711727E+03  0.36117335594E+03  0.91629352914E+02 0.  0.
        -11    1    3    3    0    0 -0.61204419336E+02 -0.65202349641E+01  0.28849852114E+02  0.67976528135E+02  0.00000000000E+00 0.  1.
         12    1    3    3    0    0  0.84820594314E+01  0.11913508620E+01  0.70066351246E+02  0.70587946748E+02  0.00000000000E+00 0. -1.
        -11    1    4    4    0    0  0.37079540554E+02  0.58074649395E+02  0.24279166674E+03  0.25237937846E+03  0.00000000000E+00 0.  1.
         11    1    4    4    0    0 -0.23882128406E+02 -0.20018599690E+02  0.10423545053E+03  0.10879397749E+03  0.00000000000E+00 0. -1.
         21    1    1    2  502  501  0.39524947756E+02 -0.32727165604E+02  0.60659758535E+02  0.79453729737E+02  0.00000000000E+00 0.  1.
<scales pt_clust_5="13000.00000" pt_clust_6="13000.00000" pt_clust_7="13000.00000" pt_clust_8="13000.00000" pt_clust_9="51.31558"></scales>
<clustering>
<clus scale="   51.316">  2  9  1 -1</clus>
<clus scale="   81.287">  5  6 -1 -1</clus>
<clus scale="   89.619">  2  5  1 -1</clus>
<clus scale="   91.629">  7  8 -1 -1</clus>
<clus scale="   99.095">  1  5  2 -1</clus>
</clustering>
</event>
<event>
 9    2  0.3402837E-005  0.9152512E+02  0.7546771E-02  0.1305035E+00
         -1   -1    0    0    0  501 -0.00000000000E+00  0.00000000000E+00  0.23019657659E+03  0.23019657659E+03  0.00000000000E+00 0.  1.
          2   -1    0    0  502    0  0.00000000000E+00 -0.00000000000E+00 -0.92047465175E+02  0.92047465175E+02  0.00000000000E+00 0. -1.
         24    2    1    2    0    0 -0.22595542183E+02  0.25076974853E+02  0.14964312386E+03  0.17326185119E+03  0.80543102532E+02 0.  0.
         23    2    1    2    0    0  0.10606724169E+02 -0.86978892591E+01 -0.51142406443E+02  0.10444006053E+03  0.90022356286E+02 0.  0.
        -13    1    3    3    0    0 -0.35545508070E+02 -0.88580438911E+00  0.13713083763E+03  0.14166557247E+03  0.00000000000E+00 0.  1.
         14    1    3    3    0    0  0.12949965887E+02  0.25962779242E+02  0.12512286228E+02  0.31596278723E+02  0.00000000000E+00 0. -1.
        -13    1    4    4    0    0  0.42730695937E+02  0.37626633704E+01 -0.55020831231E+02  0.69766481065E+02  0.00000000000E+00 0. -1.
         13    1    4    4    0    0 -0.32123971768E+02 -0.12460552630E+02  0.38784247881E+01  0.34673579463E+02  0.00000000000E+00 0.  1.
         21    1    1    2  502  501  0.11988818014E+02 -0.16379085594E+02  0.39648393995E+02  0.44542130042E+02  0.00000000000E+00 0. -1.
<scales pt_clust_5="13000.00000" pt_clust_6="13000.00000" pt_clust_7="13000.00000" pt_clust_8="13000.00000" pt_clust_9="20.29794"></scales>
<clustering>
<clus scale="   20.298">  1  9  2 -1</clus>
<clus scale="   80.543">  5  6 -1 -1</clus>
<clus scale="   82.219">  1  5  2 -1</clus>
<clus scale="   90.022">  7  8 -1 -1</clus>
<clus scale="   91.525">  2  5  1 -1</clus>
</clustering>
</event>
<event>
 9    2  0.3402837E-005  0.1403545E+03  0.7546771E-02  0.1236433E+00
          2   -1    0    0  502    0  0.00000000000E+00  0.00000000000E+00  0.41401920044E+03  0.41401920044E+03  0.00000000000E+00 0. -1.
         -1   -1    0    0    0  501 -0.00000000000E+00 -0.00000000000E+00 -0.11528651638E+03  0.11528651638E+03  0.00000000000E+00 0.  1.
         24    2    1    2    0    0  0.25153674211E+02 -0.71877060308E+02 -0.64218104396E+02  0.11315140636E+03  0.53668023096E+02 0.  0.
         23    2    1    2    0    0 -0.40084073925E+02  0.52649790935E+02  0.36578957922E+03  0.39164587404E+03  0.12331156037E+03 0.  0.
        -13    1    3    3    0    0  0.33794373711E+02 -0.17486801943E+02 -0.24621215715E+02  0.45321652661E+02  0.00000000000E+00 0.  1.
         14    1    3    3    0    0 -0.86406994997E+01 -0.54390258366E+02 -0.39596888681E+02  0.67829753694E+02  0.00000000000E+00 0. -1.
        -13    1    4    4    0    0 -0.51122089765E+02 -0.10625091637E+02  0.27804141197E+03  0.28290172747E+03  0.00000000000E+00 0. -1.
         13    1    4    4    0    0  0.11038015840E+02  0.63274882573E+02  0.87748167241E+02  0.10874414657E+03  0.00000000000E+00 0.  1.
         21    1    1    2  502  501  0.14930399714E+02  0.19227269373E+02 -0.28387907662E+01  0.24508436428E+02  0.00000000000E+00 0. -1.
<scales pt_clust_5="13000.00000" pt_clust_6="13000.00000" pt_clust_7="13000.00000" pt_clust_8="13000.00000" pt_clust_9="24.34347"></scales>
<clustering>
<clus scale="   24.343">  2  9  1 -1</clus>
<clus scale="   53.668">  5  6 -1 -1</clus>
<clus scale="   85.871">  2  5  1 -1</clus>
<clus scale="  123.312">  7  8 -1 -1</clus>
<clus scale="  140.354">  1  5  2 -1</clus>
</clustering>
</event>
<event>
 9    2  0.3402837E-005  0.1176003E+03  0.7546771E-02  0.1252638E+00
          2   -1    0    0  502    0  0.00000000000E+00  0.00000000000E+00  0.69582712512E+03  0.69582712512E+03  0.00000000000E+00 0. -1.
         -1   -1    0    0    0  501 -0.00000000000E+00 -0.00000000000E+00 -0.93262777599E+02  0.93262777599E+02  0.00000000000E+00 0.  1.
         23    2    1    2    0    0  0.72679285979E+01  0.29464563324E+02 -0.45638055144E+02  0.10909223831E+03  0.94325506120E+02 0.  0.
         24    2    1    2    0    0 -0.12893354014E+02 -0.71439177272E+02  0.61993008141E+03  0.62907774909E+03  0.78458357928E+02 0.  0.
        -11    1    4    4    0    0 -0.33104325272E+02 -0.52494955480E+02  0.23192400798E+03  0.24008407315E+03  0.00000000000E+00 0.  1.
         12    1    4    4    0    0  0.20210971258E+02 -0.18944221792E+02  0.38800607343E+03  0.38899367594E+03  0.00000000000E+00 0. -1.
        -11    1    3    3    0    0  0.61353238134E+01 -0.30991518350E+02 -0.35941538553E+02  0.47853010370E+02  0.00000000000E+00 0. -1.
         11    1    3    3    0    0  0.11326047845E+01  0.60456081674E+02 -0.96965165916E+01  0.61239227943E+02  0.00000000000E+00 0.  1.
         21    1    1    2  502  501  0.56254254162E+01  0.41974613948E+02  0.28272321253E+02  0.50919915320E+02  0.00000000000E+00 0.  1.
<scales pt_clust_5="13000.00000" pt_clust_6="13000.00000" pt_clust_7="13000.00000" pt_clust_8="13000.00000" pt_clust_9="42.34990"></scales>
<clustering>
<clus scale="   42.350">  2  9  1 -1</clus>
<clus scale="   78.458">  5  6 -1 -1</clus>
<clus scale="   94.326">  7  8 -1 -1</clus>
<clus scale="  105.301">  1  5  2 -1</clus>
<clus scale="  105.301">  1  5  2 -1</clus>
</clustering>
</event>
<event>
 9    2  0.3402837E-005  0.1532131E+03  0.7546771E-02  0.1197912E+00
         -1   -1    0    0    0  501 -0.00000000000E+00  0.00000000000E+00  0.80160847156E+02  0.80160847156E+02  0.00000000000E+00 0.  1.
          2   -1    0    0  502    0  0.00000000000E+00 -0.00000000000E+00 -0.62073654378E+03  0.62073654378E+03  0.00000000000E+00 0. -1.
         23    2    1    2    0    0 -0.65793577614E+02 -0.85215921875E+02 -0.75370842567E+02  0.15838617456E+03  0.88401743118E+02 0.  0.
         24    2    1    2    0    0  0.68335203102E+02  0.11086596651E+03 -0.48589780584E+03  0.50945697454E+03  0.80552893651E+02 0.  0.
        -11    1    4    4    0    0  0.49098952607E+02  0.26632451946E+02 -0.10554750270E+03  0.11941637229E+03  0.00000000000E+00 0.  1.
         12    1    4    4    0    0  0.19236250495E+02  0.84233514562E+02 -0.38035030314E+03  0.39004060226E+03  0.00000000000E+00 0. -1.
        -11    1    3    3    0    0 -0.11836447020E+02 -0.45714416420E+02  0.11651527862E+02  0.48638127515E+02  0.00000000000E+00 0.  1.
         11    1    3    3    0    0 -0.53957130593E+02 -0.39501505455E+02 -0.87022370429E+02  0.10974804704E+03  0.00000000000E+00 0. -1.
         21    1    1    2  502  501 -0.25416254880E+01 -0.25650044634E+02  0.20692951783E+02  0.33054241835E+02  0.00000000000E+00 0.  1.
<scales pt_clust_5="13000.00000" pt_clust_6="13000.00000" pt_clust_7="13000.00000" pt_clust_8="13000.00000" pt_clust_9="25.77566"></scales>
<clustering>
<clus scale="   25.776">  1  9  2 -1</clus>
<clus scale="   80.553">  5  6 -1 -1</clus>
<clus scale="   88.402">  7  8 -1 -1</clus>
<clus scale="  148.823">  2  5  1 -1</clus>
<clus scale="  148.823">  2  5  1 -1</clus>
</clustering>
</event>
<event>
 9    2  0.3402837E-005  0.9679812E+02  0.7546771E-02  0.1291193E+00
         -1   -1    0    0    0  501 -0.00000000000E+00  0.00000000000E+00  0.69098533785E+02  0.69098533785E+02  0.00000000000E+00 0.  1.
          2   -1    0    0  502    0  0.00000000000E+00 -0.00000000000E+00 -0.20905496524E+03  0.20905496524E+03  0.00000000000E+00 0. -1.
         23    2    1    2    0    0 -0.12051599411E+02  0.37567591288E+02 -0.32016718784E+02  0.10237299846E+03  0.88874043283E+02 0.  0.
         24    2    1    2    0    0 -0.98397012259E+01 -0.38495558075E+02 -0.12042388733E+03  0.15056255490E+03  0.81169221926E+02 0.  0.
        -11    1    4    4    0    0  0.86560698495E+01 -0.54948153348E+02 -0.46167621416E+02  0.72288839864E+02  0.00000000000E+00 0.  1.
         12    1    4    4    0    0 -0.18495771075E+02  0.16452595273E+02 -0.74256265912E+02  0.78273715040E+02  0.00000000000E+00 0. -1.
        -11    1    3    3    0    0  0.25521818868E+02  0.45541700857E+02  0.25358065092E+00  0.52206073003E+02  0.00000000000E+00 0.  1.
         11    1    3    3    0    0 -0.37573418279E+02 -0.79741095696E+01 -0.32270299435E+02  0.50166925461E+02  0.00000000000E+00 0. -1.
         21    1    1    2  502  501  0.21891300637E+02  0.92796678786E+00  0.12484174662E+02  0.25217945652E+02  0.00000000000E+00 0.  1.
<scales pt_clust_5="13000.00000" pt_clust_6="13000.00000" pt_clust_7="13000.00000" pt_clust_8="13000.00000" pt_clust_9="21.91096"></scales>
<clustering>
<clus scale="   21.911">  1  9  2 -1</clus>
<clus scale="   81.169">  5  6 -1 -1</clus>
<clus scale="   88.874">  7  8 -1 -1</clus>
<clus scale="   89.776">  2  5  1 -1</clus>
<clus scale="   89.776">  2  5  1 -1</clus>
</clustering>
</event>
<event>
 9    2  0.3402837E-005  0.1236115E+03  0.7546771E-02  0.1239188E+00
         -1   -1    0    0    0  501 -0.00000000000E+00  0.00000000000E+00  0.84787284043E+02  0.84787284043E+02  0.00000000000E+00 0.  1.
          2   -1    0    0  502    0  0.00000000000E+00 -0.00000000000E+00 -0.22529114330E+03  0.22529114330E+03  0.00000000000E+00 0. -1.
         23    2    1    2    0    0 -0.61885703198E+02 -0.40821698065E+02 -0.23533303089E+02  0.11785754862E+03  0.88545661215E+02 0.  0.
         24    2    1    2    0    0  0.70647461412E+02  0.61106063108E+02 -0.11632127326E+03  0.17011555265E+03  0.81753580267E+02 0.  0.
        -13    1    4    4    0    0  0.23127146213E+02  0.54996616163E+02 -0.20678592773E+02  0.63143462689E+02  0.00000000000E+00 0.  1.
         14    1    4    4    0    0  0.47520315199E+02  0.61094469450E+01 -0.95642680492E+02  0.10697208996E+03  0.00000000000E+00 0. -1.
        -11    1    3    3    0    0 -0.66080827254E+02 -0.57928748719E+01 -0.41520923292E+02  0.78257397100E+02  0.00000000000E+00 0. -1.
         11    1    3    3    0    0  0.41951240553E+01 -0.35028823193E+02  0.17987620203E+02  0.39600151524E+02  0.00000000000E+00 0.  1.
         21    1    1    2  502  501 -0.87617582139E+01 -0.20284365043E+02 -0.64928289950E+00  0.22105326066E+02  0.00000000000E+00 0.  1.
<scales pt_clust_5="13000.00000" pt_clust_6="13000.00000" pt_clust_7="13000.00000" pt_clust_8="13000.00000" pt_clust_9="22.09579"></scales>
<clustering>
<clus scale="   22.096">  1  9  2 -1</clus>
<clus scale="   81.754">  5  6 -1 -1</clus>
<clus scale="   88.546">  7  8 -1 -1</clus>
<clus scale="  118.841">  2  5  1 -1</clus>
<clus scale="  118.841">  2  5  1 -1</clus>
</clustering>
</event>
<event>
 9    2  0.3402837E-005  0.1040708E+03  0.7546771E-02  0.1277722E+00
         -1   -1    0    0    0  501 -0.00000000000E+00  0.00000000000E+00  0.34225343687E+03  0.34225343687E+03  0.00000000000E+00 0.  1.
          2   -1    0    0  502    0  0.00000000000E+00 -0.00000000000E+00 -0.39134921783E+02  0.39134921783E+02  0.00000000000E+00 0. -1.
         23    2    1    2    0    0  0.15812002049E+02 -0.32950399192E+02  0.15743551932E+03  0.18519226083E+03  0.90412844833E+02 0.  0.
         24    2    1    2    0    0 -0.28931724724E+02  0.53495465764E+02  0.82843867061E+02  0.12879444369E+03  0.77627912912E+02 0.  0.
        -11    1    4    4    0    0 -0.52234958852E+02  0.29108029989E+02  0.71494179470E+02  0.93205075153E+02  0.00000000000E+00 0.  1.
         12    1    4    4    0    0  0.23303234128E+02  0.24387435776E+02  0.11349687590E+02  0.35589368538E+02  0.00000000000E+00 0. -1.
        -11    1    3    3    0    0  0.37116992793E+01 -0.56447499039E+02  0.53189605137E+02  0.77648122668E+02  0.00000000000E+00 0.  1.
         11    1    3    3    0    0  0.12100302770E+02  0.23497099847E+02  0.10424591418E+03  0.10754413816E+03  0.00000000000E+00 0. -1.
         21    1    1    2  502  501  0.13119722675E+02 -0.20545066573E+02  0.62839128708E+02  0.67401654136E+02  0.00000000000E+00 0.  1.
<scales pt_clust_5="13000.00000" pt_clust_6="13000.00000" pt_clust_7="13000.00000" pt_clust_8="13000.00000" pt_clust_9="24.37677"></scales>
<clustering>
<clus scale="   24.377">  1  9  2 -1</clus>
<clus scale="   77.628">  5  6 -1 -1</clus>
<clus scale="   90.413">  7  8 -1 -1</clus>
<clus scale="   93.179">  2  5  1 -1</clus>
<clus scale="   93.179">  2  5  1 -1</clus>
</clustering>
</event>
<event>
 9    2  0.3402837E-005  0.1268657E+03  0.7546771E-02  0.1235025E+00
         -1   -1    0    0    0  501 -0.00000000000E+00  0.00000000000E+00  0.70470757184E+02  0.70470757184E+02  0.00000000000E+00 0.  1.
          2   -1    0    0  502    0  0.00000000000E+00 -0.00000000000E+00 -0.73042174464E+03  0.73042174464E+03  0.00000000000E+00 0. -1.
         23    2    1    2    0    0 -0.75159770641E+02 -0.30489386515E+02 -0.34940671228E+02  0.12654756706E+03  0.90635767824E+02 0.  0.
         24    2    1    2    0    0  0.73842701581E+02  0.51336745861E+02 -0.63830300457E+03  0.64958523715E+03  0.80262373639E+02 0.  0.
        -13    1    4    4    0    0  0.12651833465E+02  0.19901782685E+02 -0.33993871354E+02  0.41373096738E+02  0.00000000000E+00 0.  1.
         14    1    4    4    0    0  0.61190868116E+02  0.31434963176E+02 -0.60430913322E+03  0.60821214041E+03  0.00000000000E+00 0. -1.
        -13    1    3    3    0    0 -0.73709319671E+02  0.60407231721E+01  0.27917674537E+01  0.74009108279E+02  0.00000000000E+00 0.  1.
         13    1    3    3    0    0 -0.14504509702E+01 -0.36530109687E+02 -0.37732438682E+02  0.52538458777E+02  0.00000000000E+00 0. -1.
         21    1    1    2  502  501  0.13170690600E+01 -0.20847359346E+02  0.13292688348E+02  0.24759697618E+02  0.00000000000E+00 0. -1.
<scales pt_clust_5="13000.00000" pt_clust_6="13000.00000" pt_clust_7="13000.00000" pt_clust_8="13000.00000" pt_clust_9="20.88892"></scales>
<clustering>
<clus scale="   20.889">  1  9  2 -1</clus>
<clus scale="   80.262">  5  6 -1 -1</clus>
<clus scale="   90.636">  7  8 -1 -1</clus>
<clus scale="  119.675">  2  5  1 -1</clus>
<clus scale="  119.675">  2  5  1 -1</clus>
</clustering>
</event>
<event>
 9    2  0.3402837E-005  0.1619887E+03  0.7546771E-02  0.1188014E+00
          2   -1    0    0  502    0  0.00000000000E+00  0.00000000000E+00  0.34058634272E+03  0.34058634272E+03  0.00000000000E+00 0. -1.
         -1   -1    0    0    0  501 -0.00000000000E+00 -0.00000000000E+00 -0.27583493713E+03  0.27583493713E+03  0.00000000000E+00 0.  1.
         23    2    1    2    0    0 -0.80103685520E+01  0.12990237050E+03 -0.21361233478E+03  0.26644761481E+03  0.91789487435E+02 0.  0.
         24    2    1    2    0    0  0.28426485555E+02 -0.13081328319E+03  0.28756017324E+03  0.32756335552E+03  0.81772357848E+02 0.  0.
        -13    1    4    4    0    0  0.26612580557E+02 -0.23547956092E+02  0.23661172129E+02  0.42691764388E+02  0.00000000000E+00 0.  1.
         14    1    4    4    0    0  0.18139049974E+01 -0.10726532710E+03  0.26389900111E+03  0.28487159113E+03  0.00000000000E+00 0. -1.
        -11    1    3    3    0    0  0.39846095078E+02  0.48447544049E+02 -0.10672040893E+03  0.12379063575E+03  0.00000000000E+00 0. -1.
         11    1    3    3    0    0 -0.47856463630E+02  0.81454826447E+02 -0.10689192584E+03  0.14265697905E+03  0.00000000000E+00 0.  1.
         21    1    1    2  502  501 -0.20416117003E+02  0.91091269321E+00 -0.91964328753E+01  0.22410309526E+02  0.00000000000E+00 0. -1.
<scales pt_clust_5="13000.00000" pt_clust_6="13000.00000" pt_clust_7="13000.00000" pt_clust_8="13000.00000" pt_clust_9="20.43643"></scales>
<clustering>
<clus scale="   20.436">  2  9  1 -1</clus>
<clus scale="   81.772">  5  6 -1 -1</clus>
<clus scale="   91.789">  7  8 -1 -1</clus>
<clus scale="  156.530">  1  5  2 -1</clus>
<clus scale="  156.530">  1  5  2 -1</clus>
</clustering>
</event>
<event>
 9    2  0.3402837E-005  0.1522087E+03  0.7546771E-02  0.1231320E+00
          2   -1    0    0  502    0  0.00000000000E+00  0.00000000000E+00  0.20357979438E+03  0.20357979438E+03  0.00000000000E+00 0. -1.
         -1   -1    0    0    0  501 -0.00000000000E+00 -0.00000000000E+00 -0.71982693601E+03  0.71982693601E+03  0.00000000000E+00 0.  1.
         23    2    1    2    0    0 -0.21724792138E+02 -0.10621371276E+03 -0.67726347897E+01  0.14097339487E+03  0.89857165033E+02 0.  0.
         24    2    1    2    0    0  0.21398335404E+02 -0.18129916500E+02  0.11967416551E+03  0.14111477456E+03  0.69317321637E+02 0.  0.
        -13    1    4    4    0    0 -0.17966269207E+02  0.11425647990E+02  0.16983235170E+02  0.27235317844E+02  0.00000000000E+00 0.  1.
         14    1    4    4    0    0  0.39364604611E+02 -0.29555564491E+02  0.10269093034E+03  0.11387945671E+03  0.00000000000E+00 0. -1.
        -13    1    3    3    0    0  0.43038933785E+00 -0.73932649632E+02  0.36638685885E+02  0.82514333421E+02  0.00000000000E+00 0. -1.
         13    1    3    3    0    0 -0.22155181476E+02 -0.32281063128E+02 -0.43411320674E+02  0.58459061450E+02  0.00000000000E+00 0.  1.
         21    1    1    2  502  501  0.32645673339E+00  0.12434362926E+03 -0.62914867234E+03  0.64131856095E+03  0.00000000000E+00 0.  1.
<scales pt_clust_5="13000.00000" pt_clust_6="13000.00000" pt_clust_7="13000.00000" pt_clust_8="13000.00000" pt_clust_9="122.85427"></scales>
<clustering>
<clus scale="   69.317">  5  6 -1 -1</clus>
<clus scale="   74.776">  1  5  2 -1</clus>
<clus scale="   89.857">  7  8 -1 -1</clus>
<clus scale="  122.854">  2  9  1 -1</clus>
<clus scale="   74.776">  1  5  2 -1</clus>
</clustering>
</event>
<event>
 9    2  0.3402837E-005  0.1700390E+03  0.7546771E-02  0.1178645E+00
          2   -1    0    0  502    0  0.00000000000E+00  0.00000000000E+00  0.45811876640E+03  0.45811876640E+03  0.00000000000E+00 0. -1.
         -1   -1    0    0    0  501 -0.00000000000E+00 -0.00000000000E+00 -0.11271359589E+03  0.11271359589E+03  0.00000000000E+00 0.  1.
         23    2    1    2    0    0  0.15933851048E+03 -0.18083581419E+02  0.69994807632E+02  0.19677298396E+03  0.90025314688E+02 0.  0.
         24    2    1    2    0    0 -0.13834595261E+03  0.13812469158E+02  0.30019947500E+03  0.34129613725E+03  0.83862635324E+02 0.  0.
        -11    1    4    4    0    0 -0.90713587711E+02 -0.31542609551E+02  0.16413572065E+03  0.19016946654E+03  0.00000000000E+00 0.  1.
         12    1    4    4    0    0 -0.47632364900E+02  0.45355078709E+02  0.13606375435E+03  0.15112667071E+03  0.00000000000E+00 0. -1.
        -13    1    3    3    0    0  0.26585287371E+02 -0.18623838620E+02  0.54072658203E+02  0.63067243753E+02  0.00000000000E+00 0. -1.
         13    1    3    3    0    0  0.13275322311E+03  0.54025720089E+00  0.15922149429E+02  0.13370574021E+03  0.00000000000E+00 0.  1.
         21    1    1    2  502  501 -0.20992557866E+02  0.42711122612E+01 -0.24789112125E+02  0.32763241074E+02  0.00000000000E+00 0.  1.
<scales pt_clust_5="13000.00000" pt_clust_6="13000.00000" pt_clust_7="13000.00000" pt_clust_8="13000.00000" pt_clust_9="21.42265"></scales>
<clustering>
<clus scale="   21.423">  2  9  1 -1</clus>
<clus scale="   83.863">  5  6 -1 -1</clus>
<clus scale="   90.025">  7  8 -1 -1</clus>
<clus scale="  166.858">  1  5  2 -1</clus>
<clus scale="  166.858">  1  5  2 -1</clus>
</clustering>
</event>
<event>
 9    2  0.3402837E-005  0.1034474E+03  0.7546771E-02  0.1279025E+00
          2   -1    0    0  502    0  0.00000000000E+00  0.00000000000E+00  0.48155563059E+03  0.48155563059E+03  0.00000000000E+00 0. -1.
         -1   -1    0    0    0  501 -0.00000000000E+00 -0.00000000000E+00 -0.57523448404E+02  0.57523448404E+02  0.00000000000E+00 0.  1.
         23    2    1    2    0    0  0.39432282764E+02 -0.11481714388E+02  0.32621670796E+02  0.10040310546E+03  0.85614692027E+02 0.  0.
         24    2    1    2    0    0  0.53067373732E+02 -0.29063535226E+01  0.26965272341E+03  0.28509159320E+03  0.75763000356E+02 0.  0.
        -11    1    4    4    0    0 -0.31557505473E+01 -0.26205053711E+02  0.13157832902E+03  0.13419955391E+03  0.00000000000E+00 0.  1.
         12    1    4    4    0    0  0.56223124279E+02  0.23298700189E+02  0.13807439439E+03  0.15089203929E+03  0.00000000000E+00 0. -1.
        -13    1    3    3    0    0 -0.19150786727E+02  0.14467128853E+02  0.26937367594E+02  0.36078694855E+02  0.00000000000E+00 0. -1.
         13    1    3    3    0    0  0.58583069491E+02 -0.25948843241E+02  0.56843032023E+01  0.64324410603E+02  0.00000000000E+00 0.  1.
         21    1    1    2  502  501 -0.92499656496E+02  0.14388067911E+02  0.12175778798E+03  0.15358438033E+03  0.00000000000E+00 0.  1.
<scales pt_clust_5="13000.00000" pt_clust_6="13000.00000" pt_clust_7="13000.00000" pt_clust_8="13000.00000" pt_clust_9="58.06460"></scales>
<clustering>
<clus scale="   75.763">  5  6 -1 -1</clus>
<clus scale="   85.615">  7  8 -1 -1</clus>
<clus scale="   92.545">  1  5  2 -1</clus>
<clus scale="   58.065">  1  9  2 -1</clus>
<clus scale="   92.545">  1  5  2 -1</clus>
</clustering>
</event>
<event>
 9    2  0.3402837E-005  0.1239985E+03  0.7546771E-02  0.1243759E+00
          2   -1    0    0  502    0  0.00000000000E+00  0.00000000000E+00  0.39570917871E+03  0.39570917871E+03  0.00000000000E+00 0. -1.
         -1   -1    0    0    0  501 -0.00000000000E+00 -0.00000000000E+00 -0.76521137127E+02  0.76521137127E+02  0.00000000000E+00 0.  1.
         24    2    1    2    0    0  0.39353035251E+02 -0.78589342054E+02  0.12291185556E+03  0.17087009647E+03  0.79776685579E+02 0.  0.
         23    2    1    2    0    0 -0.31662708880E+02  0.53503049160E+02  0.22988748095E+03  0.25872006977E+03  0.10110745373E+03 0.  0.
        -13    1    3    3    0    0 -0.18829660862E+02 -0.47041195300E+02  0.68415455004E+02  0.85135801322E+02  0.00000000000E+00 0.  1.
         14    1    3    3    0    0  0.58182696113E+02 -0.31548146754E+02  0.54496400556E+02  0.85734295146E+02  0.00000000000E+00 0. -1.
        -11    1    4    4    0    0  0.21877937258E+02  0.60428822565E+02  0.11380053115E+03  0.13069371685E+03  0.00000000000E+00 0.  1.
         11    1    4    4    0    0 -0.53540646138E+02 -0.69257734050E+01  0.11608694981E+03  0.12802635292E+03  0.00000000000E+00 0. -1.
         21    1    1    2  502  501 -0.76903263705E+01  0.25086292894E+02 -0.33611294931E+02  0.42640149599E+02  0.00000000000E+00 0. -1.
<scales pt_clust_5="13000.00000" pt_clust_6="13000.00000" pt_clust_7="13000.00000" pt_clust_8="13000.00000" pt_clust_9="26.23858"></scales>
<clustering>
<clus scale="   26.239">  2  9  1 -1</clus>
<clus scale="   79.777">  5  6 -1 -1</clus>
<clus scale="  101.107">  7  8 -1 -1</clus>
<clus scale="  107.318">  2  5  1 -1</clus>
<clus scale="  123.999">  1  5  2 -1</clus>
</clustering>
</event>
<event>
 9    2  0.3402837E-005  0.2329131E+03  0.7546771E-02  0.1125201E+00
         -1   -1    0    0    0  501 -0.00000000000E+00  0.00000000000E+00  0.10049332718E+03  0.10049332718E+03  0.00000000000E+00 0.  1.
          2   -1    0    0  502    0  0.00000000000E+00 -0.00000000000E+00 -0.73470383427E+03  0.73470383427E+03  0.00000000000E+00 0. -1.
         24    2    1    2    0    0  0.18746886865E+03  0.12257717422E+03 -0.28467166411E+03  0.37100923475E+03  0.80250579877E+02 0.  0.
         23    2    1    2    0    0 -0.20361558695E+03 -0.58207413912E+02 -0.31317647910E+03  0.38851491923E+03  0.89537283383E+02 0.  0.
        -13    1    3    3    0    0  0.15048122209E+03  0.10384616137E+03 -0.27184567693E+03  0.32761058515E+03  0.00000000000E+00 0.  1.
         14    1    3    3    0    0  0.36987646559E+02  0.18731012848E+02 -0.12825987176E+02  0.43398649602E+02  0.00000000000E+00 0. -1.
        -13    1    4    4    0    0 -0.17769729409E+03 -0.73814228635E+02 -0.29785569101E+03  0.35460242715E+03  0.00000000000E+00 0. -1.
         13    1    4    4    0    0 -0.25918292867E+02  0.15606814723E+02 -0.15320788085E+02  0.33912492071E+02  0.00000000000E+00 0.  1.
         21    1    1    2  502  501  0.16146718302E+02 -0.64369760306E+02 -0.36362363878E+02  0.75673007477E+02  0.00000000000E+00 0. -1.
<scales pt_clust_5="13000.00000" pt_clust_6="13000.00000" pt_clust_7="13000.00000" pt_clust_8="13000.00000" pt_clust_9="66.36402"></scales>
<clustering>
<clus scale="   66.364">  1  9  2 -1</clus>
<clus scale="   80.251">  5  6 -1 -1</clus>
<clus scale="   89.537">  7  8 -1 -1</clus>
<clus scale="  229.503">  1  5  2 -1</clus>
<clus scale="  232.913">  2  5  1 -1</clus>
</clustering>
</event>
<event>
 9    2  0.3402837E-005  0.9274290E+02  0.7546771E-02  0.1298853E+00
         -1   -1    0    0    0  501 -0.00000000000E+00  0.00000000000E+00  0.43602720000E+02  0.43602720000E+02  0.00000000000E+00 0.  1.
          2   -1    0    0  502    0  0.00000000000E+00 -0.00000000000E+00 -0.75971584476E+03  0.75971584476E+03  0.00000000000E+00 0. -1.
         23    2    1    2    0    0  0.96940562970E+01 -0.12118721643E+02 -0.27887862115E+02  0.89744752895E+02  0.83878183559E+02 0.  0.
         24    2    1    2    0    0 -0.30149823866E+02  0.10968143558E+01 -0.68352593199E+03  0.68986717617E+03  0.88310849722E+02 0.  0.
        -11    1    4    4    0    0 -0.48588070242E+02  0.95000375198E+01 -0.20430115607E+03  0.21021420897E+03  0.00000000000E+00 0.  1.
         12    1    4    4    0    0  0.18438246375E+02 -0.84032231639E+01 -0.47922477592E+03  0.47965296720E+03  0.00000000000E+00 0. -1.
        -11    1    3    3    0    0  0.23267321690E+02  0.24711276270E+02  0.98013685845E+01  0.35328207705E+02  0.00000000000E+00 0.  1.
         11    1    3    3    0    0 -0.13573265393E+02 -0.36829997913E+02 -0.37689230699E+02  0.54416545190E+02  0.00000000000E+00 0. -1.
         21    1    1    2  502  501  0.20455767570E+02  0.11021907287E+02 -0.46993306539E+01  0.23706635689E+02  0.00000000000E+00 0.  1.
<scales pt_clust_5="13000.00000" pt_clust_6="13000.00000" pt_clust_7="13000.00000" pt_clust_8="13000.00000" pt_clust_9="23.23620"></scales>
<clustering>
<clus scale="   23.236">  1  9  2 -1</clus>
<clus scale="   83.878">  7  8 -1 -1</clus>
<clus scale="   88.311">  5  6 -1 -1</clus>
<clus scale="   88.532">  1  7  2 -1</clus>
<clus scale="   92.743">  2  5  1 -1</clus>
</clustering>
</event>
<event>
 9    2  0.3402837E-005  0.1124240E+03  0.7546771E-02  0.1258706E+00
          4   -1    0    0  502    0  0.00000000000E+00  0.00000000000E+00  0.44723981376E+03  0.44723981376E+03  0.00000000000E+00 0. -1.
         -3   -1    0    0    0  501 -0.00000000000E+00 -0.00000000000E+00 -0.12234874342E+03  0.12234874342E+03  0.00000000000E+00 0.  1.
         23    2    1    2    0    0 -0.94684937451E+02 -0.13159941322E+02  0.10256345625E+02  0.13037870331E+03  0.88062433625E+02 0.  0.
         24    2    1    2    0    0  0.49237163629E+02 -0.51251204093E+02  0.33980955437E+03  0.35645680046E+03  0.80869853145E+02 0.  0.
        -13    1    4    4    0    0 -0.19009867442E+02 -0.23406207767E+02  0.60677924611E+02  0.67757185282E+02  0.00000000000E+00 0.  1.
         14    1    4    4    0    0  0.68247031071E+02 -0.27844996325E+02  0.27913162976E+03  0.28869961518E+03  0.00000000000E+00 0. -1.
        -11    1    3    3    0    0 -0.15535906910E+02 -0.42045395716E+02  0.10862631117E+02  0.46121323260E+02  0.00000000000E+00 0. -1.
         11    1    3    3    0    0 -0.79149030542E+02  0.28885454394E+02 -0.60628549207E+00  0.84257380053E+02  0.00000000000E+00 0.  1.
         21    1    1    2  502  501  0.45447773823E+02  0.64411145414E+02 -0.25174829655E+02  0.82753053401E+02  0.00000000000E+00 0.  1.
<scales pt_clust_5="13000.00000" pt_clust_6="13000.00000" pt_clust_7="13000.00000" pt_clust_8="13000.00000" pt_clust_9="78.83080"></scales>
<clustering>
<clus scale="   78.831">  2  9  1 -1</clus>
<clus scale="   80.870">  5  6 -1 -1</clus>
<clus scale="   88.062">  7  8 -1 -1</clus>
<clus scale="  106.884">  1  5  2 -1</clus>
<clus scale="  106.884">  1  5  2 -1</clus>
</clustering>
</event>
<event>
 9    2  0.3402837E-005  0.1309765E+03  0.7546771E-02  0.1233172E+00
          2   -1    0    0  502    0  0.00000000000E+00  0.00000000000E+00  0.45945545296E+03  0.45945545296E+03  0.00000000000E+00 0. -1.
         -1   -1    0    0    0  501 -0.00000000000E+00 -0.00000000000E+00 -0.88273899559E+02  0.88273899559E+02  0.00000000000E+00 0.  1.
         23    2    1    2    0    0  0.14117571515E+02 -0.58134107152E+02 -0.24047104307E+02  0.12067476444E+03  0.10200615328E+03 0.  0.
         24    2    1    2    0    0 -0.13021518757E+02  0.83792155436E+02  0.38045276465E+03  0.39742582184E+03  0.77538973903E+02 0.  0.
        -13    1    4    4    0    0 -0.20037601149E+02 -0.83090180458E+01  0.93036929415E+02  0.95532274523E+02  0.00000000000E+00 0.  1.
         14    1    4    4    0    0  0.70160823921E+01  0.92101173482E+02  0.28741583523E+03  0.30189354732E+03  0.00000000000E+00 0. -1.
        -13    1    3    3    0    0  0.55877570015E+02 -0.51265722319E+02 -0.17825668510E+02  0.77898854763E+02  0.00000000000E+00 0. -1.
         13    1    3    3    0    0 -0.41759998500E+02 -0.68683848339E+01 -0.62214357965E+01  0.42775909673E+02  0.00000000000E+00 0.  1.
         21    1    1    2  502  501 -0.10960527582E+01 -0.25658048283E+02  0.14775893059E+02  0.29628766243E+02  0.00000000000E+00 0.  1.
<scales pt_clust_5="13000.00000" pt_clust_6="13000.00000" pt_clust_7="13000.00000" pt_clust_8="13000.00000" pt_clust_9="25.68145"></scales>
<clustering>
<clus scale="   25.681">  2  9  1 -1</clus>
<clus scale="   77.539">  5  6 -1 -1</clus>
<clus scale="  102.006">  7  8 -1 -1</clus>
<clus scale="  112.969">  1  5  2 -1</clus>
<clus scale="  112.969">  1  5  2 -1</clus>
</clustering>
</event>
<event>
 9    2  0.3402837E-005  0.1538181E+03  0.7546771E-02  0.1197861E+00
          2   -1    0    0  502    0  0.00000000000E+00  0.00000000000E+00  0.35983629959E+03  0.35983629959E+03  0.00000000000E+00 0. -1.
         -1   -1    0    0    0  501 -0.00000000000E+00 -0.00000000000E+00 -0.11419842527E+03  0.11419842527E+03  0.00000000000E+00 0.  1.
         24    2    1    2    0    0  0.11953060286E+03 -0.64280224372E+02  0.10204023321E+03  0.18984596147E+03  0.84910350521E+02 0.  0.
         23    2    1    2    0    0 -0.95840207896E+02  0.56605425174E+02  0.18478103284E+03  0.23606175320E+03  0.95872840869E+02 0.  0.
        -11    1    3    3    0    0  0.13279548214E+03 -0.58897181542E+02  0.96958268418E+02  0.17465515705E+03  0.00000000000E+00 0.  1.
         12    1    3    3    0    0 -0.13264879283E+02 -0.53830428297E+01  0.50819647935E+01  0.15190804411E+02  0.00000000000E+00 0. -1.
        -11    1    4    4    0    0 -0.43567577869E+02 -0.22610585824E+02  0.86358260795E+02  0.99333386332E+02  0.00000000000E+00 0. -1.
         11    1    4    4    0    0 -0.52272630027E+02  0.79216010998E+02  0.98422772043E+02  0.13672836686E+03  0.00000000000E+00 0.  1.
         21    1    1    2  502  501 -0.23690394965E+02  0.76747991974E+01 -0.41183391731E+02  0.48127010200E+02  0.00000000000E+00 0.  1.
<scales pt_clust_5="13000.00000" pt_clust_6="13000.00000" pt_clust_7="13000.00000" pt_clust_8="13000.00000" pt_clust_9="24.90256"></scales>
<clustering>
<clus scale="   24.903">  2  9  1 -1</clus>
<clus scale="   84.910">  5  6 -1 -1</clus>
<clus scale="   95.873">  7  8 -1 -1</clus>
<clus scale="  147.235">  2  5  1 -1</clus>
<clus scale="  153.818">  1  5  2 -1</clus>
</clustering>
</event>
<event>
 9    2  0.3402837E-005  0.9789011E+02  0.7546771E-02  0.1290625E+00
          2   -1    0    0  502    0  0.00000000000E+00  0.00000000000E+00  0.58126376790E+03  0.58126376790E+03  0.00000000000E+00 0. -1.
         -1   -1    0    0    0  501 -0.00000000000E+00 -0.00000000000E+00 -0.50756437590E+02  0.50756437590E+02  0.00000000000E+00 0.  1.
         23    2    1    2    0    0  0.20475920701E+02 -0.45517983742E+01  0.23943937355E+02  0.97489561435E+02  0.92146189589E+02 0.  0.
         24    2    1    2    0    0 -0.31324728455E+02 -0.15027331227E+02  0.50435131050E+03  0.51203770618E+03  0.81273051190E+02 0.  0.
        -13    1    4    4    0    0  0.31686790418E+00 -0.38659033722E+02  0.13049552885E+03  0.13610181609E+03  0.00000000000E+00 0.  1.
         14    1    4    4    0    0 -0.31641596359E+02  0.23631702494E+02  0.37385578165E+03  0.37593589009E+03  0.00000000000E+00 0. -1.
        -11    1    3    3    0    0 -0.42325675044E+01 -0.38704044425E+02 -0.13397683855E+02  0.41175424894E+02  0.00000000000E+00 0.  1.
         11    1    3    3    0    0  0.24708488206E+02  0.34152246051E+02  0.37341621210E+02  0.56314136541E+02  0.00000000000E+00 0. -1.
         21    1    1    2  502  501  0.10848807754E+02  0.19579129602E+02  0.22120824585E+01  0.22492937879E+02  0.00000000000E+00 0. -1.
<scales pt_clust_5="13000.00000" pt_clust_6="13000.00000" pt_clust_7="13000.00000" pt_clust_8="13000.00000" pt_clust_9="22.38390"></scales>
<clustering>
<clus scale="   22.384">  2  9  1 -1</clus>
<clus scale="   81.273">  5  6 -1 -1</clus>
<clus scale="   87.732">  1  5  2 -1</clus>
<clus scale="   92.146">  7  8 -1 -1</clus>
<clus scale="   87.732">  1  5  2 -1</clus>
</clustering>
</event>
<event>
 9    2  0.3402837E-005  0.1841420E+03  0.7546771E-02  0.1164950E+00
         -1   -1    0    0    0  501 -0.00000000000E+00  0.00000000000E+00  0.21345472321E+03  0.21345472321E+03  0.00000000000E+00 0.  1.
          2   -1    0    0  502    0  0.00000000000E+00 -0.00000000000E+00 -0.20871303855E+03  0.20871303855E+03  0.00000000000E+00 0. -1.
         23    2    1    2    0    0  0.17321304149E+03  0.55867745196E+01 -0.13627108587E+02  0.19673722676E+03  0.92118773954E+02 0.  0.
         24    2    1    2    0    0 -0.14818137879E+03 -0.11154561777E+02 -0.28166611920E+02  0.17229741608E+03  0.82528154539E+02 0.  0.
        -11    1    4    4    0    0 -0.12616438666E+03  0.13467102293E+02  0.29548159300E+01  0.12691550828E+03  0.00000000000E+00 0.  1.
         12    1    4    4    0    0 -0.22016992136E+02 -0.24621664070E+02 -0.31121427850E+02  0.45381907801E+02  0.00000000000E+00 0. -1.
        -13    1    3    3    0    0  0.64651998233E+02  0.45516407651E+02  0.64756905001E+01  0.79331953263E+02  0.00000000000E+00 0.  1.
         13    1    3    3    0    0  0.10856104325E+03 -0.39929633131E+02 -0.20102799087E+02  0.11740527350E+03  0.00000000000E+00 0. -1.
         21    1    1    2  502  501 -0.25031662694E+02  0.55677872569E+01  0.46535405162E+02  0.53133118916E+02  0.00000000000E+00 0.  1.
<scales pt_clust_5="13000.00000" pt_clust_6="13000.00000" pt_clust_7="13000.00000" pt_clust_8="13000.00000" pt_clust_9="25.64341"></scales>
<clustering>
<clus scale="   25.643">  1  9  2 -1</clus>
<clus scale="   82.528">  5  6 -1 -1</clus>
<clus scale="   92.119">  7  8 -1 -1</clus>
<clus scale="  179.536">  2  5  1 -1</clus>
<clus scale="  179.536">  2  5  1 -1</clus>
</clustering>
</event>
<event>
 9    2  0.3402837E-005  0.1671242E+03  0.7546771E-02  0.1182339E+00
         -1   -1    0    0    0  501 -0.00000000000E+00  0.00000000000E+00  0.10385619507E+03  0.10385619507E+03  0.00000000000E+00 0.  1.
          2   -1    0    0  502    0  0.00000000000E+00 -0.00000000000E+00 -0.62458654436E+03  0.62458654436E+03  0.00000000000E+00 0. -1.
         24    2    1    2    0    0 -0.13316406283E+03  0.30185275071E+02  0.57450980546E+01  0.15894557767E+03  0.81159546864E+02 0.  0.
         23    2    1    2    0    0  0.14068622143E+03 -0.53086413175E+01 -0.51391227282E+03  0.54063086427E+03  0.91406305444E+02 0.  0.
        -11    1    3    3    0    0 -0.12921882761E+03  0.42313620215E+01  0.16964962449E+02  0.13039639483E+03  0.00000000000E+00 0.  1.
         12    1    3    3    0    0 -0.39452352186E+01  0.25953913049E+02 -0.11219864395E+02  0.28549182835E+02  0.00000000000E+00 0. -1.
        -13    1    4    4    0    0  0.62846962524E+02 -0.47524398887E+02 -0.26316523446E+03  0.27470757145E+03  0.00000000000E+00 0. -1.
         13    1    4    4    0    0  0.77839258909E+02  0.42215757570E+02 -0.25074703836E+03  0.26592329282E+03  0.00000000000E+00 0.  1.
         21    1    1    2  502  501 -0.75221586031E+01 -0.24876633753E+02 -0.12563174524E+02  0.28866297495E+02  0.00000000000E+00 0.  1.
<scales pt_clust_5="13000.00000" pt_clust_6="13000.00000" pt_clust_7="13000.00000" pt_clust_8="13000.00000" pt_clust_9="25.98903"></scales>
<clustering>
<clus scale="   25.989">  1  9  2 -1</clus>
<clus scale="   81.160">  5  6 -1 -1</clus>
<clus scale="   91.406">  7  8 -1 -1</clus>
<clus scale="  161.747">  1  5  2 -1</clus>
<clus scale="  167.124">  2  5  1 -1</clus>
</clustering>
</event>
<event>
 9    2  0.3402837E-005  0.8974477E+02  0.7546771E-02  0.1309025E+00
          2   -1    0    0  502    0  0.00000000000E+00  0.00000000000E+00  0.29022632917E+03  0.29022632917E+03  0.00000000000E+00 0. -1.
         -1   -1    0    0    0  501 -0.00000000000E+00 -0.00000000000E+00 -0.66377826726E+02  0.66377826726E+02  0.00000000000E+00 0.  1.
         23    2    1    2    0    0 -0.60319532550E+01 -0.23261975675E+02 -0.78999338012E+01  0.93120427500E+02  0.89618642544E+02 0.  0.
         24    2    1    2    0    0  0.34226687379E+00 -0.88882040428E+01  0.20721362099E+03  0.22264301652E+03  0.80952521654E+02 0.  0.
        -13    1    4    4    0    0 -0.82279448879E+01 -0.40943301447E+02  0.70324810235E+02  0.81790170222E+02  0.00000000000E+00 0.  1.
         14    1    4    4    0    0  0.85702117616E+01  0.32055097404E+02  0.13688881076E+03  0.14085284630E+03  0.00000000000E+00 0. -1.
        -11    1    3    3    0    0 -0.10485689652E+02  0.23442356770E+02 -0.31468319735E+02  0.40617101390E+02  0.00000000000E+00 0.  1.
         11    1    3    3    0    0  0.44537363973E+01 -0.46704332446E+02  0.23568385933E+02  0.52503326110E+02  0.00000000000E+00 0. -1.
         21    1    1    2  502  501  0.56896863812E+01  0.32150179718E+02  0.24534815250E+02  0.40840711874E+02  0.00000000000E+00 0. -1.
<scales pt_clust_5="13000.00000" pt_clust_6="13000.00000" pt_clust_7="13000.00000" pt_clust_8="13000.00000" pt_clust_9="32.64976"></scales>
<clustering>
<clus scale="   32.650">  2  9  1 -1</clus>
<clus scale="   80.953">  5  6 -1 -1</clus>
<clus scale="   81.092">  1  5  2 -1</clus>
<clus scale="   89.619">  7  8 -1 -1</clus>
<clus scale="   81.092">  1  5  2 -1</clus>
</clustering>
</event>
<event>
 9    2  0.3402837E-005  0.1249411E+03  0.7546771E-02  0.1239030E+00
          2   -1    0    0  502    0  0.00000000000E+00  0.00000000000E+00  0.39447299847E+03  0.39447299847E+03  0.00000000000E+00 0. -1.
         -1   -1    0    0    0  501 -0.00000000000E+00 -0.00000000000E+00 -0.99052035452E+02  0.99052035452E+02  0.00000000000E+00 0.  1.
         23    2    1    2    0    0  0.57402688207E+02  0.60691007237E+02 -0.38034754689E+02  0.13185991093E+03  0.94667452551E+02 0.  0.
         24    2    1    2    0    0 -0.59603598902E+02 -0.36795055777E+02  0.30979409650E+03  0.32796448766E+03  0.81742631512E+02 0.  0.
        -11    1    4    4    0    0 -0.65245076306E+02 -0.47946249570E+02  0.17765683816E+03  0.19523758597E+03  0.00000000000E+00 0.  1.
         12    1    4    4    0    0  0.56414774034E+01  0.11151193793E+02  0.13213725834E+03  0.13272690169E+03  0.00000000000E+00 0. -1.
        -11    1    3    3    0    0  0.26037016937E+02 -0.10122265771E+02  0.20607957498E+02  0.34714181937E+02  0.00000000000E+00 0. -1.
         11    1    3    3    0    0  0.31365671270E+02  0.70813273008E+02 -0.58642712186E+02  0.97145728990E+02  0.00000000000E+00 0.  1.
         21    1    1    2  502  501  0.22009106957E+01 -0.23895951460E+02  0.23661621204E+02  0.33700635336E+02  0.00000000000E+00 0.  1.
<scales pt_clust_5="13000.00000" pt_clust_6="13000.00000" pt_clust_7="13000.00000" pt_clust_8="13000.00000" pt_clust_9="23.99709"></scales>
<clustering>
<clus scale="   23.997">  1  9  2 -1</clus>
<clus scale="   81.743">  5  6 -1 -1</clus>
<clus scale="   94.667">  7  8 -1 -1</clus>
<clus scale="  115.457">  1  5  2 -1</clus>
<clus scale="   23.997">  1  5  2 -1</clus>
</clustering>
</event>
<event>
 9    2  0.3402837E-005  0.1448868E+03  0.7546771E-02  0.1211497E+00
          2   -1    0    0  502    0  0.00000000000E+00  0.00000000000E+00  0.91086612013E+02  0.91086612013E+02  0.00000000000E+00 0. -1.
         -1   -1    0    0    0  501 -0.00000000000E+00 -0.00000000000E+00 -0.61896023795E+03  0.61896023795E+03  0.00000000000E+00 0.  1.
         24    2    1    2    0    0  0.65054101162E+02  0.26068523646E+02 -0.30293580482E+03  0.32079537617E+03  0.78917472892E+02 0.  0.
         23    2    1    2    0    0 -0.11408835657E+03  0.17681658221E+02  0.23334538002E+01  0.15267026359E+03  0.99869766384E+02 0.  0.
        -11    1    3    3    0    0  0.68798968064E+02  0.33283159485E+02 -0.15680578152E+03  0.17443944460E+03  0.00000000000E+00 0.  1.
         12    1    3    3    0    0 -0.37448669022E+01 -0.72146358393E+01 -0.14613002329E+03  0.14635593157E+03  0.00000000000E+00 0. -1.
        -11    1    4    4    0    0 -0.77713281720E+02  0.58514935050E+02  0.84383880195E+01  0.97645062199E+02  0.00000000000E+00 0. -1.
         11    1    4    4    0    0 -0.36375074847E+02 -0.40833276829E+02 -0.61049342193E+01  0.55025201395E+02  0.00000000000E+00 0.  1.
         21    1    1    2  502  501  0.49034255405E+02 -0.43750181867E+02 -0.22727127492E+03  0.23658121020E+03  0.00000000000E+00 0.  1.
<scales pt_clust_5="13000.00000" pt_clust_6="13000.00000" pt_clust_7="13000.00000" pt_clust_8="13000.00000" pt_clust_9="65.71481"></scales>
<clustering>
<clus scale="   65.715">  2  9  1 -1</clus>
<clus scale="   78.917">  5  6 -1 -1</clus>
<clus scale="   99.870">  7  8 -1 -1</clus>
<clus scale="  131.325">  2  5  1 -1</clus>
<clus scale="  144.887">  1  5  2 -1</clus>
</clustering>
</event>
<event>
 9    2  0.3402837E-005  0.1070606E+03  0.7546771E-02  0.1270239E+00
         -1   -1    0    0    0  501 -0.00000000000E+00  0.00000000000E+00  0.33902753577E+03  0.33902753577E+03  0.00000000000E+00 0.  1.
          2   -1    0    0  502    0  0.00000000000E+00 -0.00000000000E+00 -0.18255287493E+03  0.18255287493E+03  0.00000000000E+00 0. -1.
         23    2    1    2    0    0  0.36400421373E+02 -0.61028516006E+02  0.17054722695E+03  0.20680595342E+03  0.92913267665E+02 0.  0.
         24    2    1    2    0    0 -0.53982919856E+02  0.32198818699E+01 -0.14200886871E+03  0.17328707285E+03  0.83290861137E+02 0.  0.
        -13    1    4    4    0    0 -0.24193134500E+02  0.31645889730E+02 -0.12033148761E+03  0.12675344967E+03  0.00000000000E+00 0.  1.
         14    1    4    4    0    0 -0.29789785356E+02 -0.28426007860E+02 -0.21677381097E+02  0.46533623173E+02  0.00000000000E+00 0. -1.
        -11    1    3    3    0    0 -0.23553645600E+02  0.48765099195E+00  0.73597317209E+02  0.77275980258E+02  0.00000000000E+00 0.  1.
         11    1    3    3    0    0  0.59954066973E+02 -0.61516166998E+02  0.96949909737E+02  0.12952997316E+03  0.00000000000E+00 0. -1.
         21    1    1    2  502  501  0.17582498483E+02  0.57808634136E+02  0.12793630259E+03  0.14148738444E+03  0.00000000000E+00 0.  1.
<scales pt_clust_5="13000.00000" pt_clust_6="13000.00000" pt_clust_7="13000.00000" pt_clust_8="13000.00000" pt_clust_9="60.42336"></scales>
<clustering>
<clus scale="   60.423">  1  9  2 -1</clus>
<clus scale="   83.291">  5  6 -1 -1</clus>
<clus scale="   92.913">  7  8 -1 -1</clus>
<clus scale="   98.825">  2  5  1 -1</clus>
<clus scale="   98.825">  2  5  1 -1</clus>
</clustering>
</event>
<event>
 9    2  0.3402837E-005  0.1537934E+03  0.7546771E-02  0.1224816E+00
         -1   -1    0    0    0  501 -0.00000000000E+00  0.00000000000E+00  0.26712413057E+03  0.26712413057E+03  0.00000000000E+00 0.  1.
          2   -1    0    0  502    0  0.00000000000E+00 -0.00000000000E+00 -0.17462395175E+03  0.17462395175E+03  0.00000000000E+00 0. -1.
         23    2    1    2    0    0 -0.10894016720E+03 -0.47057011591E+02  0.14369646862E+03  0.20711453599E+03  0.90362788561E+02 0.  0.
         24    2    1    2    0    0 -0.21902387715E+02 -0.10401478008E+02 -0.32136698180E+00  0.82944687240E+02  0.79320946365E+02 0.  0.
        -13    1    4    4    0    0 -0.43798063097E+02 -0.26010099523E+02  0.13518567776E+02  0.52702440958E+02  0.00000000000E+00 0.  1.
         14    1    4    4    0    0  0.21895675382E+02  0.15608621516E+02 -0.13839934757E+02  0.30242246282E+02  0.00000000000E+00 0. -1.
        -13    1    3    3    0    0 -0.51986862419E+02  0.20918534192E+02  0.81057289733E+02  0.98541885286E+02  0.00000000000E+00 0. -1.
         13    1    3    3    0    0 -0.56953304776E+02 -0.67975545783E+02  0.62639178883E+02  0.10857265070E+03  0.00000000000E+00 0.  1.
         21    1    1    2  502  501  0.13084255491E+03  0.57458489599E+02 -0.50874922810E+02  0.15168885909E+03  0.00000000000E+00 0. -1.
<scales pt_clust_5="13000.00000" pt_clust_6="13000.00000" pt_clust_7="13000.00000" pt_clust_8="13000.00000" pt_clust_9="124.44662"></scales>
<clustering>
<clus scale="   79.321">  5  6 -1 -1</clus>
<clus scale="   82.944">  2  5  1 -1</clus>
<clus scale="   90.363">  7  8 -1 -1</clus>
<clus scale="  124.447">  2  9  1 -1</clus>
<clus scale="   82.944">  2  5  1 -1</clus>
</clustering>
</event>
<event>
 9    2  0.3402837E-005  0.3457529E+03  0.7546771E-02  0.1080774E+00
         -1   -1    0    0    0  501 -0.00000000000E+00  0.00000000000E+00  0.14698627897E+04  0.14698627897E+04  0.00000000000E+00 0.  1.
          2   -1    0    0  502    0  0.00000000000E+00 -0.00000000000E+00 -0.39016160987E+03  0.39016160987E+03  0.00000000000E+00 0. -1.
         24    2    1    2    0    0  0.18053482699E+03 -0.98200854350E+02  0.10676559664E+04  0.10902633212E+04  0.80923515772E+02 0.  0.
         23    2    1    2    0    0  0.53009416496E+02 -0.28570146970E+03 -0.72377629464E+02  0.31253998911E+03  0.89484051739E+02 0.  0.
        -13    1    3    3    0    0  0.18636150351E+03 -0.85297192893E+02  0.10258931127E+04  0.10461658089E+04  0.00000000000E+00 0.  1.
         14    1    3    3    0    0 -0.58266765174E+01 -0.12903661457E+02  0.41762853706E+02  0.44097512264E+02  0.00000000000E+00 0. -1.
        -11    1    4    4    0    0  0.72396211759E+02 -0.26846624155E+03 -0.64652176092E+02  0.28547370843E+03  0.00000000000E+00 0.  1.
         11    1    4    4    0    0 -0.19386795263E+02 -0.17235228153E+02 -0.77254533717E+01  0.27066280680E+02  0.00000000000E+00 0. -1.
         21    1    1    2  502  501 -0.23354424349E+03  0.38390232405E+03  0.84422842906E+02  0.45722108928E+03  0.00000000000E+00 0. -1.
<scales pt_clust_5="13000.00000" pt_clust_6="13000.00000" pt_clust_7="13000.00000" pt_clust_8="13000.00000" pt_clust_9="333.97254"></scales>
<clustering>
<clus scale="   80.924">  5  6 -1 -1</clus>
<clus scale="   89.484">  7  8 -1 -1</clus>
<clus scale="  220.873">  1  5  2 -1</clus>
<clus scale="  333.973">  1  9  2 -1</clus>
<clus scale="  345.753">  2  5  1 -1</clus>
</clustering>
</event>
<event>
 9    2  0.3402837E-005  0.1682419E+03  0.7546771E-02  0.1193613E+00
          2   -1    0    0  502    0  0.00000000000E+00  0.00000000000E+00  0.14919637496E+03  0.14919637496E+03  0.00000000000E+00 0. -1.
         -1   -1    0    0    0  501 -0.00000000000E+00 -0.00000000000E+00 -0.40795842713E+03  0.40795842713E+03  0.00000000000E+00 0.  1.
         23    2    1    2    0    0  0.61292374024E+02 -0.13355488429E+03 -0.14399630863E+03  0.22536127632E+03  0.91973396895E+02 0.  0.
         24    2    1    2    0    0 -0.93289078314E+02 -0.12583966646E+02  0.26213344095E+02  0.12623220648E+03  0.79913842316E+02 0.  0.
        -13    1    4    4    0    0 -0.78578962025E+02 -0.22442686302E+02  0.50582216394E+02  0.96108730387E+02  0.00000000000E+00 0.  1.
         14    1    4    4    0    0 -0.14710116290E+02  0.98587196555E+01 -0.24368872299E+02  0.30123476088E+02  0.00000000000E+00 0. -1.
        -13    1    3    3    0    0  0.70075246137E+02 -0.42785348668E+02 -0.71172987341E+02  0.10865873324E+03  0.00000000000E+00 0.  1.
         13    1    3    3    0    0 -0.87828721136E+01 -0.90769535617E+02 -0.72823321290E+02  0.11670254308E+03  0.00000000000E+00 0. -1.
         21    1    1    2  502  501  0.31996704291E+02  0.14613885093E+03 -0.14097908763E+03  0.20556131929E+03  0.00000000000E+00 0. -1.
<scales pt_clust_5="13000.00000" pt_clust_6="13000.00000" pt_clust_7="13000.00000" pt_clust_8="13000.00000" pt_clust_9="140.87665"></scales>
<clustering>
<clus scale="   79.914">  5  6 -1 -1</clus>
<clus scale="   91.973">  7  8 -1 -1</clus>
<clus scale="  123.480">  1  5  2 -1</clus>
<clus scale="  140.877">  2  9  1 -1</clus>
<clus scale="  123.480">  1  5  2 -1</clus>
</clustering>
</event>
<event>
 9    2  0.3402837E-005  0.1060324E+03  0.7546771E-02  0.1274512E+00
         -1   -1    0    0    0  501 -0.00000000000E+00  0.00000000000E+00  0.68261532350E+02  0.68261532350E+02  0.00000000000E+00 0.  1.
          2   -1    0    0  502    0  0.00000000000E+00 -0.00000000000E+00 -0.58552225505E+03  0.58552225505E+03  0.00000000000E+00 0. -1.
         23    2    1    2    0    0  0.43118083374E+02 -0.36841555997E+02 -0.74351994073E+02  0.13260273126E+03  0.94014870916E+02 0.  0.
         24    2    1    2    0    0 -0.48818288346E+02 -0.17987553529E+02 -0.45489481403E+03  0.46476838175E+03  0.79834701021E+02 0.  0.
        -11    1    4    4    0    0 -0.47428753857E+02  0.18107031637E+02 -0.16504722006E+03  0.17267870783E+03  0.00000000000E+00 0.  1.
         12    1    4    4    0    0 -0.13895344886E+01 -0.36094585166E+02 -0.28984759396E+03  0.29208967392E+03  0.00000000000E+00 0. -1.
        -11    1    3    3    0    0 -0.28749184519E+01 -0.23836028354E+02  0.17057566035E+02  0.29451349083E+02  0.00000000000E+00 0.  1.
         11    1    3    3    0    0  0.45993001826E+02 -0.13005527643E+02 -0.91409560108E+02  0.10315138218E+03  0.00000000000E+00 0. -1.
         21    1    1    2  502  501  0.57002049716E+01  0.54829109527E+02  0.11986085401E+02  0.56412674387E+02  0.00000000000E+00 0.  1.
<scales pt_clust_5="13000.00000" pt_clust_6="13000.00000" pt_clust_7="13000.00000" pt_clust_8="13000.00000" pt_clust_9="55.12462"></scales>
<clustering>
<clus scale="   55.125">  1  9  2 -1</clus>
<clus scale="   79.835">  5  6 -1 -1</clus>
<clus scale="   93.689">  2  5  1 -1</clus>
<clus scale="   94.015">  7  8 -1 -1</clus>
<clus scale="   93.689">  2  5  1 -1</clus>
</clustering>
</event>
<event>
 9    2  0.3402837E-005  0.9538998E+02  0.7546771E-02  0.1296665E+00
          2   -1    0    0  502    0  0.00000000000E+00  0.00000000000E+00  0.29022063046E+03  0.29022063046E+03  0.00000000000E+00 0. -1.
         -1   -1    0    0    0  501 -0.00000000000E+00 -0.00000000000E+00 -0.80267346798E+02  0.80267346798E+02  0.00000000000E+00 0.  1.
         24    2    1    2    0    0 -0.95790633824E+01  0.18909851236E+02  0.43432162866E+02  0.94927606827E+02  0.81704080912E+02 0.  0.
         23    2    1    2    0    0  0.26970722226E+02  0.75681460941E+00  0.20636791037E+03  0.22784230066E+03  0.92716810311E+02 0.  0.
        -13    1    3    3    0    0  0.24702776779E+02  0.34543223894E+02  0.80155161066E+01  0.43217010494E+02  0.00000000000E+00 0.  1.
         14    1    3    3    0    0 -0.34281840161E+02 -0.15633372658E+02  0.35416646759E+02  0.51710596334E+02  0.00000000000E+00 0. -1.
        -11    1    4    4    0    0 -0.63549827778E+00  0.44016229851E+02  0.77451650969E+02  0.89087544506E+02  0.00000000000E+00 0.  1.
         11    1    4    4    0    0  0.27606220504E+02 -0.43259415241E+02  0.12891625940E+03  0.13875475615E+03  0.00000000000E+00 0. -1.
         21    1    1    2  502  501 -0.17391658844E+02 -0.19666665845E+02 -0.39846789577E+02  0.47718069768E+02  0.00000000000E+00 0. -1.
<scales pt_clust_5="13000.00000" pt_clust_6="13000.00000" pt_clust_7="13000.00000" pt_clust_8="13000.00000" pt_clust_9="26.25352"></scales>
<clustering>
<clus scale="   26.254">  2  9  1 -1</clus>
<clus scale="   81.704">  5  6 -1 -1</clus>
<clus scale="   84.725">  2  5  1 -1</clus>
<clus scale="   92.717">  7  8 -1 -1</clus>
<clus scale="   95.390">  1  5  2 -1</clus>
</clustering>
</event>
<event>
 9    2  0.3402837E-005  0.1025411E+03  0.7546771E-02  0.1280219E+00
         -1   -1    0    0    0  501 -0.00000000000E+00  0.00000000000E+00  0.45185081517E+02  0.45185081517E+02  0.00000000000E+00 0.  1.
          2   -1    0    0  502    0  0.00000000000E+00 -0.00000000000E+00 -0.37562224066E+03  0.37562224066E+03  0.00000000000E+00 0. -1.
         23    2    1    2    0    0  0.21077447927E+02 -0.61659259172E+02 -0.10743527778E+03  0.15574835450E+03  0.92027647839E+02 0.  0.
         24    2    1    2    0    0  0.25094541980E+01  0.38770955924E+02 -0.21217408264E+03  0.23045466732E+03  0.81129698402E+02 0.  0.
        -13    1    4    4    0    0  0.75808362457E+01  0.40571592207E+02 -0.37707443597E+02  0.55905048744E+02  0.00000000000E+00 0.  1.
         14    1    4    4    0    0 -0.50713820477E+01 -0.18006362833E+01 -0.17446663905E+03  0.17454961858E+03  0.00000000000E+00 0. -1.
        -13    1    3    3    0    0  0.47911516370E+02 -0.60119482783E+02 -0.48295573552E+02  0.90787268026E+02  0.00000000000E+00 0.  1.
         13    1    3    3    0    0 -0.26834068442E+02 -0.15397763900E+01 -0.59139704226E+02  0.64961086478E+02  0.00000000000E+00 0. -1.
         21    1    1    2  502  501 -0.23586902125E+02  0.22888303249E+02 -0.10827798725E+02  0.34604300350E+02  0.00000000000E+00 0. -1.
<scales pt_clust_5="13000.00000" pt_clust_6="13000.00000" pt_clust_7="13000.00000" pt_clust_8="13000.00000" pt_clust_9="32.86665"></scales>
<clustering>
<clus scale="   32.867">  1  9  2 -1</clus>
<clus scale="   81.130">  5  6 -1 -1</clus>
<clus scale="   92.028">  7  8 -1 -1</clus>
<clus scale="   92.885">  2  5  1 -1</clus>
<clus scale="   92.885">  2  5  1 -1</clus>
</clustering>
</event>
<event>
 9    2  0.3402837E-005  0.1110710E+03  0.7546771E-02  0.1262421E+00
          2   -1    0    0  502    0  0.00000000000E+00  0.00000000000E+00  0.29135375387E+03  0.29135375387E+03  0.00000000000E+00 0. -1.
         -1   -1    0    0    0  501 -0.00000000000E+00 -0.00000000000E+00 -0.71775287817E+02  0.71775287817E+02  0.00000000000E+00 0.  1.
         23    2    1    2    0    0 -0.30128627273E+02 -0.54990766103E+02  0.90025916671E+02  0.14258723860E+03  0.91075443459E+02 0.  0.
         24    2    1    2    0    0  0.55439528766E+02  0.37473547165E+02  0.15030034505E+03  0.18342084244E+03  0.81087629346E+02 0.  0.
        -11    1    4    4    0    0  0.71496087169E+02  0.85490094502E+01  0.10546857695E+03  0.12770433339E+03  0.00000000000E+00 0.  1.
         12    1    4    4    0    0 -0.16056558404E+02  0.28924537715E+02  0.44831768102E+02  0.55716509052E+02  0.00000000000E+00 0. -1.
        -11    1    3    3    0    0  0.10600861238E+02 -0.65118393957E+02  0.39470912021E+02  0.76881313635E+02  0.00000000000E+00 0.  1.
         11    1    3    3    0    0 -0.40729488511E+02  0.10127627854E+02  0.50555004650E+02  0.65705924965E+02  0.00000000000E+00 0. -1.
         21    1    1    2  502  501 -0.25310901493E+02  0.17517218938E+02 -0.20747795672E+02  0.37120960641E+02  0.00000000000E+00 0. -1.
<scales pt_clust_5="13000.00000" pt_clust_6="13000.00000" pt_clust_7="13000.00000" pt_clust_8="13000.00000" pt_clust_9="30.78140"></scales>
<clustering>
<clus scale="   30.781">  2  9  1 -1</clus>
<clus scale="   81.088">  5  6 -1 -1</clus>
<clus scale="   91.075">  7  8 -1 -1</clus>
<clus scale="  103.040">  1  5  2 -1</clus>
<clus scale="  103.040">  1  5  2 -1</clus>
</clustering>
</event>
<event>
 9    2  0.3402837E-005  0.1348071E+03  0.7546771E-02  0.1223029E+00
          2   -1    0    0  502    0  0.00000000000E+00  0.00000000000E+00  0.16595273747E+03  0.16595273747E+03  0.00000000000E+00 0. -1.
         -1   -1    0    0    0  501 -0.00000000000E+00 -0.00000000000E+00 -0.48391539145E+03  0.48391539145E+03  0.00000000000E+00 0.  1.
         23    2    1    2    0    0 -0.11549366259E+03  0.43839514822E+02 -0.28740084127E+03  0.32577900389E+03  0.90950682539E+02 0.  0.
         24    2    1    2    0    0  0.93631329135E+02 -0.26806734637E+02  0.11811559565E+03  0.17285074041E+03  0.80253708368E+02 0.  0.
        -13    1    4    4    0    0  0.51568009029E+02  0.26672557305E+02  0.57846909087E+02  0.81956999453E+02  0.00000000000E+00 0.  1.
         14    1    4    4    0    0  0.42063320105E+02 -0.53479291942E+02  0.60268686566E+02  0.90893740958E+02  0.00000000000E+00 0. -1.
        -11    1    3    3    0    0 -0.68096762962E+02  0.50038969267E+02 -0.93307782893E+02  0.12588649618E+03  0.00000000000E+00 0. -1.
         11    1    3    3    0    0 -0.47396899629E+02 -0.61994544452E+01 -0.19409305838E+03  0.19989250771E+03  0.00000000000E+00 0.  1.
         21    1    1    2  502  501  0.21862333456E+02 -0.17032780185E+02 -0.14867740836E+03  0.15123838462E+03  0.00000000000E+00 0.  1.
<scales pt_clust_5="13000.00000" pt_clust_6="13000.00000" pt_clust_7="13000.00000" pt_clust_8="13000.00000" pt_clust_9="27.71421"></scales>
<clustering>
<clus scale="   27.714">  2  9  1 -1</clus>
<clus scale="   80.254">  5  6 -1 -1</clus>
<clus scale="   90.951">  7  8 -1 -1</clus>
<clus scale="  127.834">  1  5  2 -1</clus>
<clus scale="  127.834">  1  5  2 -1</clus>
</clustering>
</event>
<event>
 9    2  0.3402837E-005  0.1074840E+03  0.7546771E-02  0.1272834E+00
          2   -1    0    0  502    0  0.00000000000E+00  0.00000000000E+00  0.35653666795E+03  0.35653666795E+03  0.00000000000E+00 0. -1.
         -1   -1    0    0    0  501 -0.00000000000E+00 -0.00000000000E+00 -0.47194882093E+03  0.47194882093E+03  0.00000000000E+00 0.  1.
         23    2    1    2    0    0 -0.11793674300E+02  0.20166497764E+02 -0.29128542943E+03  0.30785266386E+03  0.96851860412E+02 0.  0.
         24    2    1    2    0    0  0.33738731269E+02 -0.32882663527E+02  0.34103943165E+03  0.35353062508E+03  0.80351959417E+02 0.  0.
        -11    1    4    4    0    0 -0.68739838971E+01 -0.44707470808E+02  0.11516149980E+03  0.12372623261E+03  0.00000000000E+00 0.  1.
         12    1    4    4    0    0  0.40612715167E+02  0.11824807281E+02  0.22587793186E+03  0.22980439247E+03  0.00000000000E+00 0. -1.
        -11    1    3    3    0    0  0.20819472654E+02  0.47186583417E+02 -0.10724750212E+03  0.11900441507E+03  0.00000000000E+00 0. -1.
         11    1    3    3    0    0 -0.32613146954E+02 -0.27020085653E+02 -0.18403792731E+03  0.18884824879E+03  0.00000000000E+00 0.  1.
         21    1    1    2  502  501 -0.21945056969E+02  0.12716165763E+02 -0.16516615520E+03  0.16710219993E+03  0.00000000000E+00 0.  1.
<scales pt_clust_5="13000.00000" pt_clust_6="13000.00000" pt_clust_7="13000.00000" pt_clust_8="13000.00000" pt_clust_9="25.36309"></scales>
<clustering>
<clus scale="   25.363">  2  9  1 -1</clus>
<clus scale="   80.352">  5  6 -1 -1</clus>
<clus scale="   92.892">  1  5  2 -1</clus>
<clus scale="   96.852">  7  8 -1 -1</clus>
<clus scale="   92.892">  1  5  2 -1</clus>
</clustering>
</event>
<event>
 9    2  0.3402837E-005  0.1366882E+03  0.7546771E-02  0.1219599E+00
         -1   -1    0    0    0  501 -0.00000000000E+00  0.00000000000E+00  0.19621253770E+03  0.19621253770E+03  0.00000000000E+00 0.  1.
          2   -1    0    0  502    0  0.00000000000E+00 -0.00000000000E+00 -0.91566516631E+03  0.91566516631E+03  0.00000000000E+00 0. -1.
         23    2    1    2    0    0  0.64676927408E+02 -0.10693689576E+02 -0.13320100461E+03  0.17820892191E+03  0.98582210779E+02 0.  0.
         24    2    1    2    0    0 -0.10305839758E+03 -0.38593738767E+01 -0.75116231686E+03  0.76372624614E+03  0.91635280786E+02 0.  0.
        -13    1    4    4    0    0 -0.82456885890E+02  0.37684677607E+02 -0.45346189936E+03  0.46243590597E+03  0.00000000000E+00 0.  1.
         14    1    4    4    0    0 -0.20601511686E+02 -0.41544051483E+02 -0.29770041750E+03  0.30129034017E+03  0.00000000000E+00 0. -1.
        -11    1    3    3    0    0  0.71638482832E+02  0.23118850109E+02 -0.56577415820E+02  0.94167709082E+02  0.00000000000E+00 0.  1.
         11    1    3    3    0    0 -0.69615554236E+01 -0.33812539685E+02 -0.76623588794E+02  0.84041212827E+02  0.00000000000E+00 0. -1.
         21    1    1    2  502  501  0.38381470168E+02  0.14553063452E+02  0.16491069287E+03  0.16994253596E+03  0.00000000000E+00 0.  1.
<scales pt_clust_5="13000.00000" pt_clust_6="13000.00000" pt_clust_7="13000.00000" pt_clust_8="13000.00000" pt_clust_9="41.04789"></scales>
<clustering>
<clus scale="   41.048">  1  9  2 -1</clus>
<clus scale="   91.635">  5  6 -1 -1</clus>
<clus scale="   98.582">  7  8 -1 -1</clus>
<clus scale="  131.766">  2  5  1 -1</clus>
<clus scale="  131.766">  2  5  1 -1</clus>
</clustering>
</event>
<event>
 9    2  0.3402837E-005  0.1391593E+03  0.7546771E-02  0.1215972E+00
         -3   -1    0    0    0  501 -0.00000000000E+00  0.00000000000E+00  0.13387229705E+03  0.13387229705E+03  0.00000000000E+00 0.  1.
          4   -1    0    0  502    0  0.00000000000E+00 -0.00000000000E+00 -0.21664636214E+03  0.21664636214E+03  0.00000000000E+00 0. -1.
         23    2    1    2    0    0  0.11175272469E+03 -0.66955219291E+02  0.58758901230E+01  0.15764918981E+03  0.88583678493E+02 0.  0.
         24    2    1    2    0    0 -0.81220517292E+02  0.55544499018E+02 -0.95530639285E+02  0.15955634826E+03  0.81548521920E+02 0.  0.
        -11    1    4    4    0    0 -0.27997665932E+02 -0.18836047743E+02 -0.40893366639E+02  0.53018236743E+02  0.00000000000E+00 0.  1.
         12    1    4    4    0    0 -0.53222851360E+02  0.74380546761E+02 -0.54637272646E+02  0.10653811152E+03  0.00000000000E+00 0. -1.
        -11    1    3    3    0    0  0.76449094442E+02  0.11926989528E+01  0.21289887607E+02  0.79367158738E+02  0.00000000000E+00 0.  1.
         11    1    3    3    0    0  0.35303630251E+02 -0.68147918243E+02 -0.15413997484E+02  0.78282031068E+02  0.00000000000E+00 0. -1.
         21    1    1    2  502  501 -0.30532207401E+02  0.11410720273E+02  0.68806840637E+01  0.33313121125E+02  0.00000000000E+00 0. -1.
<scales pt_clust_5="13000.00000" pt_clust_6="13000.00000" pt_clust_7="13000.00000" pt_clust_8="13000.00000" pt_clust_9="32.59479"></scales>
<clustering>
<clus scale="   32.595">  1  9  2 -1</clus>
<clus scale="   81.549">  5  6 -1 -1</clus>
<clus scale="   88.584">  7  8 -1 -1</clus>
<clus scale="  134.790">  2  5  1 -1</clus>
<clus scale="  134.790">  2  5  1 -1</clus>
</clustering>
</event>
<event>
 9    2  0.3402837E-005  0.1504849E+03  0.7546771E-02  0.1221655E+00
          2   -1    0    0  502    0  0.00000000000E+00  0.00000000000E+00  0.42357119433E+03  0.42357119433E+03  0.00000000000E+00 0. -1.
         -1   -1    0    0    0  501 -0.00000000000E+00 -0.00000000000E+00 -0.14541966446E+03  0.14541966446E+03  0.00000000000E+00 0.  1.
         24    2    1    2    0    0  0.95556689739E+01  0.12599496186E+03 -0.35292791743E+02  0.15393707136E+03  0.80529495008E+02 0.  0.
         23    2    1    2    0    0 -0.22765008710E+02  0.30084603403E+01  0.25657996267E+03  0.27345602999E+03  0.91747624699E+02 0.  0.
        -11    1    3    3    0    0  0.39162088533E+02  0.95214604173E+02 -0.41063729797E+02  0.11084096684E+03  0.00000000000E+00 0.  1.
         12    1    3    3    0    0 -0.29606419559E+02  0.30780357688E+02  0.57709380538E+01  0.43096104517E+02  0.00000000000E+00 0. -1.
        -13    1    4    4    0    0  0.26387258596E+02  0.23693382538E+02  0.59296969453E+02  0.69092650684E+02  0.00000000000E+00 0.  1.
         13    1    4    4    0    0 -0.49152267306E+02 -0.20684922198E+02  0.19728299322E+03  0.20436337930E+03  0.00000000000E+00 0. -1.
         21    1    1    2  502  501  0.13209339736E+02 -0.12900342220E+03  0.56864358944E+02  0.14159775745E+03  0.00000000000E+00 0.  1.
<scales pt_clust_5="13000.00000" pt_clust_6="13000.00000" pt_clust_7="13000.00000" pt_clust_8="13000.00000" pt_clust_9="127.12481"></scales>
<clustering>
<clus scale="   80.529">  5  6 -1 -1</clus>
<clus scale="   91.748">  7  8 -1 -1</clus>
<clus scale="   94.578">  1  7  2 -1</clus>
<clus scale="  127.125">  1  9  2 -1</clus>
<clus scale="   94.578">  1  5  2 -1</clus>
</clustering>
</event>
<event>
 9    2  0.3402837E-005  0.1104144E+03  0.7546771E-02  0.1264686E+00
         -1   -1    0    0    0  501 -0.00000000000E+00  0.00000000000E+00  0.38099515557E+02  0.38099515557E+02  0.00000000000E+00 0.  1.
          2   -1    0    0  502    0  0.00000000000E+00 -0.00000000000E+00 -0.56197206984E+03  0.56197206984E+03  0.00000000000E+00 0. -1.
         23    2    1    2    0    0  0.20604816896E+02  0.75317035531E+02 -0.11244979015E+03  0.16473677893E+03  0.91629889820E+02 0.  0.
         24    2    1    2    0    0 -0.20569725876E+02 -0.54144043803E+02 -0.39877752603E+03  0.41067311843E+03  0.79209872063E+02 0.  0.
        -13    1    4    4    0    0  0.12799059745E+02 -0.38239540421E+02 -0.78327607984E+02  0.88098198361E+02  0.00000000000E+00 0.  1.
         14    1    4    4    0    0 -0.33368785621E+02 -0.15904503382E+02 -0.32044991804E+03  0.32257492007E+03  0.00000000000E+00 0. -1.
        -11    1    3    3    0    0 -0.24299597624E+02 -0.67453029935E+01 -0.13641154256E+02  0.28671425612E+02  0.00000000000E+00 0. -1.
         11    1    3    3    0    0  0.44904414520E+02  0.82062338525E+02 -0.98808635893E+02  0.13606535332E+03  0.00000000000E+00 0.  1.
         21    1    1    2  502  501 -0.35091019968E-01 -0.21172991728E+02 -0.12645238109E+02  0.24661688039E+02  0.00000000000E+00 0. -1.
<scales pt_clust_5="13000.00000" pt_clust_6="13000.00000" pt_clust_7="13000.00000" pt_clust_8="13000.00000" pt_clust_9="21.17302"></scales>
<clustering>
<clus scale="   21.173">  1  9  2 -1</clus>
<clus scale="   79.210">  5  6 -1 -1</clus>
<clus scale="   91.630">  7  8 -1 -1</clus>
<clus scale="  100.347">  2  5  1 -1</clus>
<clus scale="  100.347">  2  5  1 -1</clus>
</clustering>
</event>
<event>
 9    2  0.3402837E-005  0.1132105E+03  0.7546771E-02  0.1258210E+00
         -1   -1    0    0    0  501 -0.00000000000E+00  0.00000000000E+00  0.25598122673E+03  0.25598122673E+03  0.00000000000E+00 0.  1.
          2   -1    0    0  502    0  0.00000000000E+00 -0.00000000000E+00 -0.98911835156E+02  0.98911835156E+02  0.00000000000E+00 0. -1.
         23    2    1    2    0    0  0.64687387303E+02  0.77581274791E+02  0.37455339405E+02  0.14039231964E+03  0.90021045815E+02 0.  0.
         24    2    1    2    0    0 -0.35099674957E+02 -0.34574386949E+02  0.12178465567E+02  0.95054392816E+02  0.80371930144E+02 0.  0.
        -11    1    4    4    0    0 -0.17943581141E+02 -0.50188805422E+02  0.33987764329E+02  0.63214368762E+02  0.00000000000E+00 0.  1.
         12    1    4    4    0    0 -0.17156093816E+02  0.15614418473E+02 -0.21809298762E+02  0.31840024054E+02  0.00000000000E+00 0. -1.
        -11    1    3    3    0    0  0.35067757565E+02 -0.14545899438E+02  0.48391676317E+01  0.38272030968E+02  0.00000000000E+00 0.  1.
         11    1    3    3    0    0  0.29619629738E+02  0.92127174229E+02  0.32616171773E+02  0.10212028867E+03  0.00000000000E+00 0. -1.
         21    1    1    2  502  501 -0.29587712346E+02 -0.43006887842E+02  0.10743558660E+03  0.11944634943E+03  0.00000000000E+00 0.  1.
<scales pt_clust_5="13000.00000" pt_clust_6="13000.00000" pt_clust_7="13000.00000" pt_clust_8="13000.00000" pt_clust_9="52.20177"></scales>
<clustering>
<clus scale="   52.202">  1  9  2 -1</clus>
<clus scale="   80.372">  5  6 -1 -1</clus>
<clus scale="   90.021">  7  8 -1 -1</clus>
<clus scale="  105.700">  2  5  1 -1</clus>
<clus scale="  105.700">  2  5  1 -1</clus>
</clustering>
</event>
<event>
 9    2  0.3402837E-005  0.9111249E+02  0.7546771E-02  0.1301737E+00
         -1   -1    0    0    0  501 -0.00000000000E+00  0.00000000000E+00  0.29515717416E+03  0.29515717416E+03  0.00000000000E+00 0.  1.
          2   -1    0    0  502    0  0.00000000000E+00 -0.00000000000E+00 -0.13140773815E+03  0.13140773815E+03  0.00000000000E+00 0. -1.
         23    2    1    2    0    0  0.31406701168E+00  0.30960158390E+01  0.22680937885E+03  0.24441680520E+03  0.91035138137E+02 0.  0.
         24    2    1    2    0    0  0.45700645921E+02  0.35788351084E+02 -0.60436137310E+02  0.12184692841E+03  0.88457855268E+02 0.  0.
        -13    1    4    4    0    0  0.66403940178E+02  0.26471714959E+01 -0.33821961677E+02  0.74568196168E+02  0.00000000000E+00 0.  1.
         14    1    4    4    0    0 -0.20703294257E+02  0.33141179588E+02 -0.26614175633E+02  0.47278732240E+02  0.00000000000E+00 0. -1.
        -11    1    3    3    0    0  0.43223650722E+02 -0.12242213302E+02  0.12656250290E+03  0.13429900561E+03  0.00000000000E+00 0.  1.
         11    1    3    3    0    0 -0.42909583710E+02  0.15338229141E+02  0.10024687596E+03  0.11011779959E+03  0.00000000000E+00 0. -1.
         21    1    1    2  502  501 -0.46014712932E+02 -0.38884366923E+02 -0.26238055415E+01  0.60301178701E+02  0.00000000000E+00 0. -1.
<scales pt_clust_5="13000.00000" pt_clust_6="13000.00000" pt_clust_7="13000.00000" pt_clust_8="13000.00000" pt_clust_9="60.24407"></scales>
<clustering>
<clus scale="   60.244">  2  9  1 -1</clus>
<clus scale="   88.458">  5  6 -1 -1</clus>
<clus scale="   88.537">  2  5  1 -1</clus>
<clus scale="   91.035">  7  8 -1 -1</clus>
<clus scale="   60.244">  2  5  1 -1</clus>
</clustering>
</event>
<event>
 9    2  0.3402837E-005  0.2822056E+03  0.7546771E-02  0.1132700E+00
         -3   -1    0    0    0  501 -0.00000000000E+00  0.00000000000E+00  0.72314852428E+03  0.72314852428E+03  0.00000000000E+00 0.  1.
          4   -1    0    0  502    0  0.00000000000E+00 -0.00000000000E+00 -0.28167057512E+03  0.28167057512E+03  0.00000000000E+00 0. -1.
         24    2    1    2    0    0 -0.42104528453E+02 -0.27749981683E+03  0.10858364108E+03  0.31079877389E+03  0.77630735418E+02 0.  0.
         23    2    1    2    0    0  0.55851165424E+02  0.84336207043E+01 -0.12377608680E+03  0.16380014722E+03  0.91211237948E+02 0.  0.
        -13    1    3    3    0    0  0.15294897452E+02 -0.17744070990E+02 -0.11367804460E+00  0.23426456540E+02  0.00000000000E+00 0.  1.
         14    1    3    3    0    0 -0.57399425904E+02 -0.25975574584E+03  0.10869731913E+03  0.28737231735E+03  0.00000000000E+00 0. -1.
        -11    1    4    4    0    0  0.12146437075E+02  0.42013853373E+02 -0.24187404638E+02  0.49977298366E+02  0.00000000000E+00 0.  1.
         11    1    4    4    0    0  0.43704728350E+02 -0.33580232669E+02 -0.99588682159E+02  0.11382284885E+03  0.00000000000E+00 0. -1.
         21    1    1    2  502  501 -0.13746636972E+02  0.26906619613E+03  0.45667039487E+03  0.53022017830E+03  0.00000000000E+00 0.  1.
<scales pt_clust_5="13000.00000" pt_clust_6="13000.00000" pt_clust_7="13000.00000" pt_clust_8="13000.00000" pt_clust_9="271.31798"></scales>
<clustering>
<clus scale="   77.631">  5  6 -1 -1</clus>
<clus scale="   91.211">  7  8 -1 -1</clus>
<clus scale="  107.285">  2  7  1 -1</clus>
<clus scale="  271.318">  1  9  2 -1</clus>
<clus scale="  107.285">  2  5  1 -1</clus>
</clustering>
</event>
<event>
 9    2  0.3402837E-005  0.1440849E+03  0.7546771E-02  0.1232547E+00
         -1   -1    0    0    0  501 -0.00000000000E+00  0.00000000000E+00  0.10447171192E+03  0.10447171192E+03  0.00000000000E+00 0.  1.
          2   -1    0    0  502    0  0.00000000000E+00 -0.00000000000E+00 -0.51732450674E+03  0.51732450674E+03  0.00000000000E+00 0. -1.
         24    2    1    2    0    0  0.24787719383E+02 -0.13207327763E+02  0.17750180072E+02  0.87766113099E+02  0.81233965661E+02 0.  0.
         23    2    1    2    0    0  0.28695462215E+02  0.10539717588E+03 -0.39636592082E+03  0.42208550015E+03  0.95489434050E+02 0.  0.
        -13    1    3    3    0    0 -0.25085949454E+02 -0.11507014654E+02  0.25123534265E+02  0.37321685656E+02  0.00000000000E+00 0.  1.
         14    1    3    3    0    0  0.49873668837E+02 -0.17003131095E+01 -0.73733541928E+01  0.50444427443E+02  0.00000000000E+00 0. -1.
        -13    1    4    4    0    0  0.48250059155E+02  0.91799761211E+02 -0.37811504307E+03  0.39207939268E+03  0.00000000000E+00 0. -1.
         13    1    4    4    0    0 -0.19554596940E+02  0.13597414667E+02 -0.18250877753E+02  0.30006107476E+02  0.00000000000E+00 0.  1.
         21    1    1    2  502  501 -0.53483181598E+02 -0.92189848115E+02 -0.34237054075E+02  0.11194460541E+03  0.00000000000E+00 0.  1.
<scales pt_clust_5="13000.00000" pt_clust_6="13000.00000" pt_clust_7="13000.00000" pt_clust_8="13000.00000" pt_clust_9="107.89913"></scales>
<clustering>
<clus scale="   81.234">  5  6 -1 -1</clus>
<clus scale="   85.952">  1  5  2 -1</clus>
<clus scale="   95.489">  7  8 -1 -1</clus>
<clus scale="  107.899">  1  9  2 -1</clus>
<clus scale="  144.085">  2  5  1 -1</clus>
</clustering>
</event>
<event>
 9    2  0.3402837E-005  0.1169410E+03  0.7546771E-02  0.1251233E+00
          2   -1    0    0  502    0  0.00000000000E+00  0.00000000000E+00  0.29272269678E+03  0.29272269678E+03  0.00000000000E+00 0. -1.
         -1   -1    0    0    0  501 -0.00000000000E+00 -0.00000000000E+00 -0.68151167425E+02  0.68151167425E+02  0.00000000000E+00 0.  1.
         23    2    1    2    0    0 -0.49346259015E+02 -0.57225952923E+01  0.34107967327E+02  0.10845775937E+03  0.90177218607E+02 0.  0.
         24    2    1    2    0    0  0.86937116051E+02 -0.35677067701E+01  0.17293564039E+03  0.20991186644E+03  0.81150879695E+02 0.  0.
        -11    1    4    4    0    0  0.32981267711E+02  0.61578204956E+01  0.58449997941E+01  0.34056523540E+02  0.00000000000E+00 0.  1.
         12    1    4    4    0    0  0.53955848340E+02 -0.97255272657E+01  0.16709064060E+03  0.17585534290E+03  0.00000000000E+00 0. -1.
        -11    1    3    3    0    0 -0.74558308244E+02  0.44215767169E+01  0.17860982257E+02  0.76795223524E+02  0.00000000000E+00 0.  1.
         11    1    3    3    0    0  0.25212049229E+02 -0.10144172009E+02  0.16246985070E+02  0.31662535842E+02  0.00000000000E+00 0. -1.
         21    1    1    2  502  501 -0.37590857036E+02  0.92903020624E+01  0.17527921637E+02  0.42504238401E+02  0.00000000000E+00 0.  1.
<scales pt_clust_5="13000.00000" pt_clust_6="13000.00000" pt_clust_7="13000.00000" pt_clust_8="13000.00000" pt_clust_9="38.72186"></scales>
<clustering>
<clus scale="   38.722">  2  9  1 -1</clus>
<clus scale="   81.151">  5  6 -1 -1</clus>
<clus scale="   90.177">  7  8 -1 -1</clus>
<clus scale="  110.131">  1  5  2 -1</clus>
<clus scale="  110.131">  1  5  2 -1</clus>
</clustering>
</event>
<event>
 9    2  0.3402837E-005  0.3806231E+03  0.7546771E-02  0.1082755E+00
         -1   -1    0    0    0  501 -0.00000000000E+00  0.00000000000E+00  0.63964324751E+03  0.63964324751E+03  0.00000000000E+00 0.  1.
          2   -1    0    0  502    0  0.00000000000E+00 -0.00000000000E+00 -0.68106426971E+03  0.68106426971E+03  0.00000000000E+00 0. -1.
         24    2    1    2    0    0 -0.12593454292E+03 -0.47110489214E+02  0.21038911488E+03  0.26250445174E+03  0.81031476791E+02 0.  0.
         23    2    1    2    0    0 -0.33016881594E+03 -0.10686356881E+03 -0.41603603554E+03  0.54956917925E+03  0.92244406646E+02 0.  0.
        -11    1    3    3    0    0 -0.13769239859E+03 -0.43785822341E+02  0.18943210541E+03  0.23824549823E+03  0.00000000000E+00 0.  1.
         12    1    3    3    0    0  0.11757855667E+02 -0.33246668726E+01  0.20957009464E+02  0.24258953510E+02  0.00000000000E+00 0. -1.
        -11    1    4    4    0    0 -0.23551856453E+03 -0.45758627916E+02 -0.32907178540E+03  0.40724818749E+03  0.00000000000E+00 0.  1.
         11    1    4    4    0    0 -0.94650251411E+02 -0.61104940890E+02 -0.86964250132E+02  0.14232099176E+03  0.00000000000E+00 0. -1.
         21    1    1    2  502  501  0.45610335886E+03  0.15397405802E+03  0.16422589846E+03  0.50863388624E+03  0.00000000000E+00 0. -1.
<scales pt_clust_5="13000.00000" pt_clust_6="13000.00000" pt_clust_7="13000.00000" pt_clust_8="13000.00000" pt_clust_9="369.27625"></scales>
<clustering>
<clus scale="   81.031">  5  6 -1 -1</clus>
<clus scale="   92.244">  7  8 -1 -1</clus>
<clus scale="  156.987">  1  5  2 -1</clus>
<clus scale="  369.276">  1  9  2 -1</clus>
<clus scale="  380.623">  2  5  1 -1</clus>
</clustering>
</event>
<event>
 9    2  0.3402837E-005  0.1256991E+03  0.7546771E-02  0.1237375E+00
          4   -1    0    0  502    0  0.00000000000E+00  0.00000000000E+00  0.44256370179E+03  0.44256370179E+03  0.00000000000E+00 0. -1.
         -3   -1    0    0    0  501 -0.00000000000E+00 -0.00000000000E+00 -0.92531794879E+02  0.92531794879E+02  0.00000000000E+00 0.  1.
         23    2    1    2    0    0 -0.94645303805E+02 -0.37399433796E+02  0.65554911295E+02  0.15163464500E+03  0.91319045042E+02 0.  0.
         24    2    1    2    0    0  0.83840075914E+02  0.21321767556E+01  0.31506348846E+03  0.33554356968E+03  0.79314443098E+02 0.  0.
        -11    1    4    4    0    0  0.19127751591E+02 -0.29134143817E+02  0.50268516729E+02  0.61168562113E+02  0.00000000000E+00 0.  1.
         12    1    4    4    0    0  0.64712324323E+02  0.31266320573E+02  0.26479497173E+03  0.27437500757E+03  0.00000000000E+00 0. -1.
        -13    1    3    3    0    0 -0.17302308464E+02 -0.46121967075E+02 -0.93281333639E+00  0.49269421204E+02  0.00000000000E+00 0.  1.
         13    1    3    3    0    0 -0.77342995342E+02  0.87225332790E+01  0.66487724632E+02  0.10236522379E+03  0.00000000000E+00 0. -1.
         21    1    1    2  502  501  0.10805227892E+02  0.35267257041E+02 -0.30586492848E+02  0.47917281994E+02  0.00000000000E+00 0.  1.
<scales pt_clust_5="13000.00000" pt_clust_6="13000.00000" pt_clust_7="13000.00000" pt_clust_8="13000.00000" pt_clust_9="36.88540"></scales>
<clustering>
<clus scale="   36.885">  2  9  1 -1</clus>
<clus scale="   79.314">  5  6 -1 -1</clus>
<clus scale="   91.319">  7  8 -1 -1</clus>
<clus scale="  117.268">  1  5  2 -1</clus>
<clus scale="  117.268">  1  5  2 -1</clus>
</clustering>
</event>
<event>
 9    2  0.3402837E-005  0.9256351E+02  0.7546771E-02  0.1303770E+00
         -1   -1    0    0    0  501 -0.00000000000E+00  0.00000000000E+00  0.20500970055E+03  0.20500970055E+03  0.00000000000E+00 0.  1.
          2   -1    0    0  502    0  0.00000000000E+00 -0.00000000000E+00 -0.25776171154E+03  0.25776171154E+03  0.00000000000E+00 0. -1.
         23    2    1    2    0    0 -0.44460448288E+02 -0.23924867780E+02  0.15709256114E+03  0.18885592809E+03  0.91865978725E+02 0.  0.
         24    2    1    2    0    0 -0.47471852189E+01  0.10454273040E+02 -0.20745622218E+03  0.22284149519E+03  0.80550731003E+02 0.  0.
        -13    1    4    4    0    0  0.10426167607E+02 -0.19385796961E+02 -0.13082251303E+02  0.25605846871E+02  0.00000000000E+00 0.  1.
         14    1    4    4    0    0 -0.15173352826E+02  0.29840070002E+02 -0.19437397088E+03  0.19723564832E+03  0.00000000000E+00 0. -1.
        -13    1    3    3    0    0  0.18024853403E+02 -0.10899089428E+02  0.10317266353E+03  0.10530092113E+03  0.00000000000E+00 0.  1.
         13    1    3    3    0    0 -0.62485301691E+02 -0.13025778352E+02  0.53919897608E+02  0.83555006954E+02  0.00000000000E+00 0. -1.
         21    1    1    2  502  501  0.49207633507E+02  0.13470594740E+02 -0.23883499508E+01  0.51073988815E+02  0.00000000000E+00 0. -1.
<scales pt_clust_5="13000.00000" pt_clust_6="13000.00000" pt_clust_7="13000.00000" pt_clust_8="13000.00000" pt_clust_9="51.01812"></scales>
<clustering>
<clus scale="   51.018">  1  9  2 -1</clus>
<clus scale="   80.551">  5  6 -1 -1</clus>
<clus scale="   81.345">  2  5  1 -1</clus>
<clus scale="   91.866">  7  8 -1 -1</clus>
<clus scale="   81.345">  2  5  1 -1</clus>
</clustering>
</event>
<event>
 9    2  0.3402837E-005  0.1157027E+03  0.7546771E-02  0.1253972E+00
         -1   -1    0    0    0  501 -0.00000000000E+00  0.00000000000E+00  0.16834599121E+03  0.16834599121E+03  0.00000000000E+00 0.  1.
          2   -1    0    0  502    0  0.00000000000E+00 -0.00000000000E+00 -0.49683411458E+03  0.49683411458E+03  0.00000000000E+00 0. -1.
         24    2    1    2    0    0  0.37352022776E+02  0.26559527005E+02 -0.31120571810E+02  0.97797113097E+02  0.80592823875E+02 0.  0.
         23    2    1    2    0    0 -0.75936104113E+02 -0.19940206774E+02 -0.42093324358E+03  0.43776421714E+03  0.91042904707E+02 0.  0.
        -11    1    3    3    0    0  0.60060552280E+02  0.22318758014E+02 -0.70915523880E+01  0.64464618317E+02  0.00000000000E+00 0.  1.
         12    1    3    3    0    0 -0.22708529504E+02  0.42407689912E+01 -0.24029019422E+02  0.33332494780E+02  0.00000000000E+00 0. -1.
        -11    1    4    4    0    0  0.91581555725E+01  0.21733621710E+02 -0.11893874713E+03  0.12125447495E+03  0.00000000000E+00 0.  1.
         11    1    4    4    0    0 -0.85094259685E+02 -0.41673828484E+02 -0.30199449645E+03  0.31650974219E+03  0.00000000000E+00 0. -1.
         21    1    1    2  502  501  0.38584081336E+02 -0.66193202313E+01  0.12356569202E+03  0.12961877556E+03  0.00000000000E+00 0.  1.
<scales pt_clust_5="13000.00000" pt_clust_6="13000.00000" pt_clust_7="13000.00000" pt_clust_8="13000.00000" pt_clust_9="39.14776"></scales>
<clustering>
<clus scale="   39.148">  1  9  2 -1</clus>
<clus scale="   80.593">  5  6 -1 -1</clus>
<clus scale="   91.043">  7  8 -1 -1</clus>
<clus scale="  107.673">  1  5  2 -1</clus>
<clus scale="  115.703">  2  5  1 -1</clus>
</clustering>
</event>
<event>
 9    2  0.3402837E-005  0.9601766E+02  0.7546771E-02  0.1296998E+00
         -1   -1    0    0    0  501 -0.00000000000E+00  0.00000000000E+00  0.23345294748E+02  0.23345294748E+02  0.00000000000E+00 0.  1.
          2   -1    0    0  502    0  0.00000000000E+00 -0.00000000000E+00 -0.68779245785E+03  0.68779245785E+03  0.00000000000E+00 0. -1.
         23    2    1    2    0    0 -0.11115134350E+01  0.37358428388E+01 -0.19652212334E+03  0.21790392766E+03  0.94053095327E+02 0.  0.
         24    2    1    2    0    0  0.19278646216E+02 -0.15925374292E+02 -0.46330741723E+03  0.47087422235E+03  0.80271331503E+02 0.  0.
        -13    1    4    4    0    0 -0.20156386352E+02 -0.31536660405E+02 -0.14495589098E+03  0.14970989009E+03  0.00000000000E+00 0.  1.
         14    1    4    4    0    0  0.39435032568E+02  0.15611286113E+02 -0.31835152625E+03  0.32116433226E+03  0.00000000000E+00 0. -1.
        -11    1    3    3    0    0 -0.28835877774E+02 -0.35186277138E+02 -0.81246173613E+02  0.93115641396E+02  0.00000000000E+00 0.  1.
         11    1    3    3    0    0  0.27724364339E+02  0.38922119976E+02 -0.11527594973E+03  0.12478828626E+03  0.00000000000E+00 0. -1.
         21    1    1    2  502  501 -0.18167132781E+02  0.12189531453E+02 -0.46176225279E+01  0.22359602598E+02  0.00000000000E+00 0.  1.
<scales pt_clust_5="13000.00000" pt_clust_6="13000.00000" pt_clust_7="13000.00000" pt_clust_8="13000.00000" pt_clust_9="21.87760"></scales>
<clustering>
<clus scale="   21.878">  1  9  2 -1</clus>
<clus scale="   80.271">  5  6 -1 -1</clus>
<clus scale="   82.564">  2  5  1 -1</clus>
<clus scale="   94.053">  7  8 -1 -1</clus>
<clus scale="   82.564">  2  5  1 -1</clus>
</clustering>
</event>
<event>
 9    2  0.3402837E-005  0.2619229E+03  0.7546771E-02  0.1106538E+00
          2   -1    0    0  502    0  0.00000000000E+00  0.00000000000E+00  0.12124561240E+03  0.12124561240E+03  0.00000000000E+00 0. -1.
         -1   -1    0    0    0  501 -0.00000000000E+00 -0.00000000000E+00 -0.10369928564E+04  0.10369928564E+04  0.00000000000E+00 0.  1.
         24    2    1    2    0    0  0.71558217483E+02 -0.24127793988E+03 -0.82923983029E+03  0.87016949838E+03  0.78871015032E+02 0.  0.
         23    2    1    2    0    0 -0.61464978473E+02  0.21095055251E+03 -0.56210028714E+02  0.24402858629E+03  0.90068331913E+02 0.  0.
        -13    1    3    3    0    0  0.77389418265E+02 -0.22860129079E+03 -0.81596843390E+03  0.85091254388E+03  0.00000000000E+00 0.  1.
         14    1    3    3    0    0 -0.58312007820E+01 -0.12676649082E+02 -0.13271396394E+02  0.19256954503E+02  0.00000000000E+00 0. -1.
        -13    1    4    4    0    0 -0.14189280859E+02  0.67874224379E+02 -0.62304744306E+02  0.93220851688E+02  0.00000000000E+00 0.  1.
         13    1    4    4    0    0 -0.47275697614E+02  0.14307632813E+03  0.60947155923E+01  0.15080773460E+03  0.00000000000E+00 0. -1.
         21    1    1    2  502  501 -0.10093239011E+02  0.30327387365E+02 -0.30297385022E+02  0.44040384164E+02  0.00000000000E+00 0. -1.
<scales pt_clust_5="13000.00000" pt_clust_6="13000.00000" pt_clust_7="13000.00000" pt_clust_8="13000.00000" pt_clust_9="31.96285"></scales>
<clustering>
<clus scale="   31.963">  1  9  2 -1</clus>
<clus scale="   78.871">  5  6 -1 -1</clus>
<clus scale="   90.068">  7  8 -1 -1</clus>
<clus scale="  258.287">  2  5  1 -1</clus>
<clus scale="   31.963">  1  5  2 -1</clus>
</clustering>
</event>
<event>
 9    2  0.3402837E-005  0.1066710E+03  0.7546771E-02  0.1280555E+00
         -3   -1    0    0    0  501 -0.00000000000E+00  0.00000000000E+00  0.26722073773E+03  0.26722073773E+03  0.00000000000E+00 0.  1.
          4   -1    0    0  502    0  0.00000000000E+00 -0.00000000000E+00 -0.69534222089E+02  0.69534222089E+02  0.00000000000E+00 0. -1.
         23    2    1    2    0    0  0.17408690833E+02  0.87473039098E+01  0.18858012222E+03  0.21746825748E+03  0.10653826857E+03 0.  0.
         24    2    1    2    0    0  0.62918221664E+01 -0.37262547074E+01 -0.16780358569E+02  0.83831812978E+02  0.81809048602E+02 0.  0.
        -11    1    4    4    0    0 -0.21530621237E+02  0.29436534554E+02  0.22623731134E+01  0.36540327714E+02  0.00000000000E+00 0.  1.
         12    1    4    4    0    0  0.27822443403E+02 -0.33162789261E+02 -0.19042731683E+02  0.47291485264E+02  0.00000000000E+00 0. -1.
        -11    1    3    3    0    0  0.23696852969E+02 -0.35648960359E+02  0.28991519367E+02  0.51700071668E+02  0.00000000000E+00 0. -1.
         11    1    3    3    0    0 -0.62881621358E+01  0.44396264268E+02  0.15958860286E+03  0.16576818581E+03  0.00000000000E+00 0.  1.
         21    1    1    2  502  501 -0.23700512999E+02 -0.50210492024E+01  0.25886751985E+02  0.35454889365E+02  0.00000000000E+00 0. -1.
<scales pt_clust_5="13000.00000" pt_clust_6="13000.00000" pt_clust_7="13000.00000" pt_clust_8="13000.00000" pt_clust_9="24.22654"></scales>
<clustering>
<clus scale="   24.227">  1  9  2 -1</clus>
<clus scale="   81.809">  5  6 -1 -1</clus>
<clus scale="   81.982">  2  5  1 -1</clus>
<clus scale="  106.538">  7  8 -1 -1</clus>
<clus scale="   81.982">  2  5  1 -1</clus>
</clustering>
</event>
<event>
 9    2  0.3402837E-005  0.1404455E+03  0.7546771E-02  0.1229585E+00
          2   -1    0    0  502    0  0.00000000000E+00  0.00000000000E+00  0.13726685392E+03  0.13726685392E+03  0.00000000000E+00 0. -1.
         -1   -1    0    0    0  501 -0.00000000000E+00 -0.00000000000E+00 -0.40721839004E+03  0.40721839004E+03  0.00000000000E+00 0.  1.
         23    2    1    2    0    0 -0.32223725567E+02  0.21114860179E+02 -0.18194962317E+03  0.20697340270E+03  0.90819151319E+02 0.  0.
         24    2    1    2    0    0  0.47102222590E+02  0.10182074031E+03  0.53842983472E+02  0.14921817120E+03  0.82346300562E+02 0.  0.
        -11    1    4    4    0    0  0.39645311240E+02  0.96936527608E+02  0.10827240808E+02  0.10528850949E+03  0.00000000000E+00 0.  1.
         12    1    4    4    0    0  0.74569113492E+01  0.48842127058E+01  0.43015742664E+02  0.43929661706E+02  0.00000000000E+00 0. -1.
        -13    1    3    3    0    0  0.32022952212E+02  0.87272329629E+01 -0.63731038758E+02  0.71855962625E+02  0.00000000000E+00 0. -1.
         13    1    3    3    0    0 -0.64246677780E+02  0.12387627216E+02 -0.11821858441E+03  0.13511744008E+03  0.00000000000E+00 0.  1.
         21    1    1    2  502  501 -0.14878497022E+02 -0.12293560049E+03 -0.14184489642E+03  0.18829367006E+03  0.00000000000E+00 0.  1.
<scales pt_clust_5="13000.00000" pt_clust_6="13000.00000" pt_clust_7="13000.00000" pt_clust_8="13000.00000" pt_clust_9="113.77178"></scales>
<clustering>
<clus scale="   82.346">  5  6 -1 -1</clus>
<clus scale="   90.819">  7  8 -1 -1</clus>
<clus scale="   98.653">  2  7  1 -1</clus>
<clus scale="  113.772">  2  9  1 -1</clus>
<clus scale="  140.445">  1  5  2 -1</clus>
</clustering>
</event>
<event>
 9    2  0.3402837E-005  0.1224617E+03  0.7546771E-02  0.1254443E+00
         -3   -1    0    0    0  501 -0.00000000000E+00  0.00000000000E+00  0.57750147766E+02  0.57750147766E+02  0.00000000000E+00 0.  1.
          4   -1    0    0  502    0  0.00000000000E+00 -0.00000000000E+00 -0.11258892206E+04  0.11258892206E+04  0.00000000000E+00 0. -1.
         23    2    1    2    0    0  0.27895511908E+02 -0.71517248396E+02 -0.26907082546E+02  0.12254361653E+03  0.91651898275E+02 0.  0.
         24    2    1    2    0    0  0.17155837596E+02 -0.32880420176E+02 -0.50340411105E+03  0.51138007534E+03  0.81966076187E+02 0.  0.
        -13    1    4    4    0    0  0.36247322816E+02 -0.49259496579E+02 -0.28225017957E+03  0.28880015631E+03  0.00000000000E+00 0.  1.
         14    1    4    4    0    0 -0.19091485220E+02  0.16379076403E+02 -0.22115393148E+03  0.22257991904E+03  0.00000000000E+00 0. -1.
        -13    1    3    3    0    0 -0.16630430961E+02 -0.54388883908E+02 -0.43957178460E+02  0.71881537719E+02  0.00000000000E+00 0. -1.
         13    1    3    3    0    0  0.44525942869E+02 -0.17128364489E+02  0.17050095914E+02  0.50662078808E+02  0.00000000000E+00 0.  1.
         21    1    1    2  502  501 -0.45051349505E+02  0.10439766857E+03 -0.53782787926E+03  0.54971567651E+03  0.00000000000E+00 0. -1.
<scales pt_clust_5="13000.00000" pt_clust_6="13000.00000" pt_clust_7="13000.00000" pt_clust_8="13000.00000" pt_clust_9="81.22070"></scales>
<clustering>
<clus scale="   81.966">  5  6 -1 -1</clus>
<clus scale="   89.966">  2  5  1 -1</clus>
<clus scale="   81.221">  2  9  1 -1</clus>
<clus scale="   91.652">  7  8 -1 -1</clus>
<clus scale="   89.966">  2  5  1 -1</clus>
</clustering>
</event>
<event>
 9    2  0.3402837E-005  0.1359308E+03  0.7546771E-02  0.1220275E+00
          2   -1    0    0  502    0  0.00000000000E+00  0.00000000000E+00  0.38339154838E+03  0.38339154838E+03  0.00000000000E+00 0. -1.
         -1   -1    0    0    0  501 -0.00000000000E+00 -0.00000000000E+00 -0.16929421991E+03  0.16929421991E+03  0.00000000000E+00 0.  1.
         23    2    1    2    0    0  0.60910473990E+01 -0.92518482794E+02 -0.72233720727E+02  0.14690954003E+03  0.88135872521E+02 0.  0.
         24    2    1    2    0    0  0.40943997628E+02  0.97655052086E+02  0.32052277554E+03  0.34740025756E+03  0.82092442849E+02 0.  0.
        -11    1    4    4    0    0  0.61911868041E+02  0.46668640695E+02  0.16276636162E+03  0.18028846304E+03  0.00000000000E+00 0.  1.
         12    1    4    4    0    0 -0.20967870413E+02  0.50986411391E+02  0.15775641392E+03  0.16711179452E+03  0.00000000000E+00 0. -1.
        -11    1    3    3    0    0 -0.29550437322E+02 -0.49007636201E+02 -0.70277311269E+02  0.90630443180E+02  0.00000000000E+00 0. -1.
         11    1    3    3    0    0  0.35641484721E+02 -0.43510846593E+02 -0.19564094585E+01  0.56279096850E+02  0.00000000000E+00 0.  1.
         21    1    1    2  502  501 -0.47035045027E+02 -0.51365692923E+01 -0.34191726338E+02  0.58375970697E+02  0.00000000000E+00 0.  1.
<scales pt_clust_5="13000.00000" pt_clust_6="13000.00000" pt_clust_7="13000.00000" pt_clust_8="13000.00000" pt_clust_9="47.31469"></scales>
<clustering>
<clus scale="   47.315">  2  9  1 -1</clus>
<clus scale="   82.092">  5  6 -1 -1</clus>
<clus scale="   88.136">  7  8 -1 -1</clus>
<clus scale="  132.092">  1  5  2 -1</clus>
<clus scale="  132.092">  1  5  2 -1</clus>
</clustering>
</event>
<event>
 9    2  0.3402837E-005  0.1699302E+03  0.7546771E-02  0.1184614E+00
         -1   -1    0    0    0  501 -0.00000000000E+00  0.00000000000E+00  0.26231617150E+03  0.26231617150E+03  0.00000000000E+00 0.  1.
          2   -1    0    0  502    0  0.00000000000E+00 -0.00000000000E+00 -0.38496997066E+03  0.38496997066E+03  0.00000000000E+00 0. -1.
         24    2    1    2    0    0 -0.11260825988E+03  0.44871056104E+02  0.15426213784E+03  0.21256435459E+03  0.81809325897E+02 0.  0.
         23    2    1    2    0    0  0.50689765462E+02  0.11840978964E+03 -0.11024898234E+03  0.19332500151E+03  0.92894496594E+02 0.  0.
        -13    1    3    3    0    0 -0.49528515010E+02  0.58936735432E+02  0.10987492870E+03  0.13416077124E+03  0.00000000000E+00 0.  1.
         14    1    3    3    0    0 -0.63079744867E+02 -0.14065679328E+02  0.44387209139E+02  0.78403583353E+02  0.00000000000E+00 0. -1.
        -11    1    4    4    0    0 -0.21975383238E+02  0.16952003881E+02 -0.14996104637E+01  0.27794545069E+02  0.00000000000E+00 0.  1.
         11    1    4    4    0    0  0.72665148700E+02  0.10145778576E+03 -0.10874937187E+03  0.16553045644E+03  0.00000000000E+00 0. -1.
         21    1    1    2  502  501  0.61918494415E+02 -0.16328084575E+03 -0.16666695467E+03  0.24139678606E+03  0.00000000000E+00 0. -1.
<scales pt_clust_5="13000.00000" pt_clust_6="13000.00000" pt_clust_7="13000.00000" pt_clust_8="13000.00000" pt_clust_9="142.29157"></scales>
<clustering>
<clus scale="   81.809">  5  6 -1 -1</clus>
<clus scale="   92.894">  7  8 -1 -1</clus>
<clus scale="  146.242">  1  5  2 -1</clus>
<clus scale="  142.292">  1  9  2 -1</clus>
<clus scale="  169.930">  2  5  1 -1</clus>
</clustering>
</event>
<event>
 9    2  0.3402837E-005  0.9654477E+02  0.7546771E-02  0.1296426E+00
          2   -1    0    0  502    0  0.00000000000E+00  0.00000000000E+00  0.54595288470E+03  0.54595288470E+03  0.00000000000E+00 0. -1.
         -1   -1    0    0    0  501 -0.00000000000E+00 -0.00000000000E+00 -0.35185138609E+02  0.35185138609E+02  0.00000000000E+00 0.  1.
         24    2    1    2    0    0 -0.33308980758E+01  0.18011037371E+02  0.39166035001E+02  0.92142806879E+02  0.81368459569E+02 0.  0.
         23    2    1    2    0    0  0.11829555521E+02  0.13824171568E+00  0.44665857582E+03  0.45699859932E+03  0.95936848635E+02 0.  0.
        -11    1    3    3    0    0 -0.28389556707E+01  0.43266541843E+02 -0.24847181109E+01  0.43430716508E+02  0.00000000000E+00 0.  1.
         12    1    3    3    0    0 -0.49194240508E+00 -0.25255504472E+02  0.41650753112E+02  0.48712090371E+02  0.00000000000E+00 0. -1.
        -13    1    4    4    0    0  0.40162812322E+02  0.33892982166E+02  0.24954248361E+03  0.25501615020E+03  0.00000000000E+00 0.  1.
         13    1    4    4    0    0 -0.28333256801E+02 -0.33754740450E+02  0.19711609221E+03  0.20198244912E+03  0.00000000000E+00 0. -1.
         21    1    1    2  502  501 -0.84986574457E+01 -0.18149279087E+02  0.24943135263E+02  0.31996617110E+02  0.00000000000E+00 0. -1.
<scales pt_clust_5="13000.00000" pt_clust_6="13000.00000" pt_clust_7="13000.00000" pt_clust_8="13000.00000" pt_clust_9="20.04055"></scales>
<clustering>
<clus scale="   20.041">  2  9  1 -1</clus>
<clus scale="   81.368">  5  6 -1 -1</clus>
<clus scale="   82.084">  2  5  1 -1</clus>
<clus scale="   95.937">  7  8 -1 -1</clus>
<clus scale="   96.545">  1  5  2 -1</clus>
</clustering>
</event>
<event>
 9    2  0.3402837E-005  0.1400024E+03  0.7546771E-02  0.1215866E+00
          2   -1    0    0  502    0  0.00000000000E+00  0.00000000000E+00  0.21683975882E+03  0.21683975882E+03  0.00000000000E+00 0. -1.
         -1   -1    0    0    0  501 -0.00000000000E+00 -0.00000000000E+00 -0.31209997888E+03  0.31209997888E+03  0.00000000000E+00 0.  1.
         24    2    1    2    0    0  0.29510164951E+02 -0.15347135749E+03 -0.14097200790E+03  0.22547738887E+03  0.80886577868E+02 0.  0.
         23    2    1    2    0    0 -0.36298462572E+02  0.90847670892E+02  0.13732686052E+03  0.19228173608E+03  0.92426845228E+02 0.  0.
        -13    1    3    3    0    0  0.85611253112E+01 -0.12304466848E+03 -0.14254814318E+03  0.18850266956E+03  0.00000000000E+00 0.  1.
         14    1    3    3    0    0  0.20949039639E+02 -0.30426689009E+02  0.15761352847E+01  0.36974719314E+02  0.00000000000E+00 0. -1.
        -13    1    4    4    0    0  0.21317136059E+02  0.89517560819E+01  0.10126999984E+01  0.23142596830E+02  0.00000000000E+00 0.  1.
         13    1    4    4    0    0 -0.57615598632E+02  0.81895914811E+02  0.13631416052E+03  0.16913913925E+03  0.00000000000E+00 0. -1.
         21    1    1    2  502  501  0.67882976217E+01  0.62623686594E+02 -0.91615072687E+02  0.11118061275E+03  0.00000000000E+00 0.  1.
<scales pt_clust_5="13000.00000" pt_clust_6="13000.00000" pt_clust_7="13000.00000" pt_clust_8="13000.00000" pt_clust_9="62.99053"></scales>
<clustering>
<clus scale="   62.991">  2  9  1 -1</clus>
<clus scale="   80.887">  5  6 -1 -1</clus>
<clus scale="   92.427">  7  8 -1 -1</clus>
<clus scale="  132.667">  2  5  1 -1</clus>
<clus scale="  140.002">  1  5  2 -1</clus>
</clustering>
</event>
<event>
 9    2  0.3402837E-005  0.1024871E+03  0.7546771E-02  0.1283107E+00
         -1   -1    0    0    0  501 -0.00000000000E+00  0.00000000000E+00  0.12210435215E+03  0.12210435215E+03  0.00000000000E+00 0.  1.
          2   -1    0    0  502    0  0.00000000000E+00 -0.00000000000E+00 -0.13419665804E+03  0.13419665804E+03  0.00000000000E+00 0. -1.
         23    2    1    2    0    0 -0.90320773199E+01 -0.10845572638E+02  0.58758211445E+02  0.11467676207E+03  0.97462954400E+02 0.  0.
         24    2    1    2    0    0  0.30717271801E+02  0.18887377125E+02 -0.76387141625E+02  0.11784248015E+03  0.82167943391E+02 0.  0.
        -13    1    4    4    0    0  0.31185453814E+02  0.48360915335E+01  0.77850266476E+01  0.32504260503E+02  0.00000000000E+00 0.  1.
         14    1    4    4    0    0 -0.46818201313E+00  0.14051285592E+02 -0.84172168272E+02  0.85338219649E+02  0.00000000000E+00 0. -1.
        -13    1    3    3    0    0 -0.34329560845E+02 -0.18014266635E+02  0.74533738657E+02  0.84013753328E+02  0.00000000000E+00 0.  1.
         13    1    3    3    0    0  0.25297483525E+02  0.71686939969E+01 -0.15775527212E+02  0.30663008743E+02  0.00000000000E+00 0. -1.
         21    1    1    2  502  501 -0.21685194481E+02 -0.80418044874E+01  0.55366242855E+01  0.23781767966E+02  0.00000000000E+00 0.  1.
<scales pt_clust_5="13000.00000" pt_clust_6="13000.00000" pt_clust_7="13000.00000" pt_clust_8="13000.00000" pt_clust_9="23.12830"></scales>
<clustering>
<clus scale="   23.128">  1  9  2 -1</clus>
<clus scale="   82.168">  5  6 -1 -1</clus>
<clus scale="   88.069">  2  5  1 -1</clus>
<clus scale="   97.463">  7  8 -1 -1</clus>
<clus scale="   88.069">  2  5  1 -1</clus>
</clustering>
</event>
<event>
 9    2  0.3402837E-005  0.3582945E+03  0.7546771E-02  0.1059490E+00
         -1   -1    0    0    0  501 -0.00000000000E+00  0.00000000000E+00  0.29519179986E+03  0.29519179986E+03  0.00000000000E+00 0.  1.
          2   -1    0    0  502    0  0.00000000000E+00 -0.00000000000E+00 -0.49852467006E+03  0.49852467006E+03  0.00000000000E+00 0. -1.
         23    2    1    2    0    0 -0.16124620102E+03  0.30610943549E+03  0.26278831881E+01  0.35757192984E+03  0.90263256084E+02 0.  0.
         24    2    1    2    0    0  0.18494559102E+03 -0.29554054983E+03 -0.19809463331E+03  0.40902926256E+03  0.80711620266E+02 0.  0.
        -11    1    4    4    0    0  0.81278763182E+02 -0.65479119487E+02 -0.73123472623E+02  0.12743937650E+03  0.00000000000E+00 0.  1.
         12    1    4    4    0    0  0.10366682784E+03 -0.23006143035E+03 -0.12497116069E+03  0.28158988606E+03  0.00000000000E+00 0. -1.
        -13    1    3    3    0    0 -0.21353441720E+02  0.13410598899E+03  0.41034832706E+01  0.13585736760E+03  0.00000000000E+00 0.  1.
         13    1    3    3    0    0 -0.13989275930E+03  0.17200344649E+03 -0.14756000825E+01  0.22171456223E+03  0.00000000000E+00 0. -1.
         21    1    1    2  502  501 -0.23699390001E+02 -0.10568885653E+02 -0.78661200749E+01  0.27115277527E+02  0.00000000000E+00 0. -1.
<scales pt_clust_5="13000.00000" pt_clust_6="13000.00000" pt_clust_7="13000.00000" pt_clust_8="13000.00000" pt_clust_9="25.94923"></scales>
<clustering>
<clus scale="   25.949">  2  9  1 -1</clus>
<clus scale="   80.712">  5  6 -1 -1</clus>
<clus scale="   90.263">  7  8 -1 -1</clus>
<clus scale="  356.008">  2  5  1 -1</clus>
<clus scale="   25.949">  2  5  1 -1</clus>
</clustering>
</event>
<event>
 9    2  0.3402837E-005  0.1952607E+03  0.7546771E-02  0.1154364E+00
         -1   -1    0    0    0  501 -0.00000000000E+00  0.00000000000E+00  0.45990589003E+02  0.45990589003E+02  0.00000000000E+00 0.  1.
          2   -1    0    0  502    0  0.00000000000E+00 -0.00000000000E+00 -0.10334085596E+04  0.10334085596E+04  0.00000000000E+00 0. -1.
         23    2    1    2    0    0 -0.16536512979E+03  0.62900898690E+01 -0.29817290879E+03  0.35262892569E+03  0.89749007318E+02 0.  0.
         24    2    1    2    0    0  0.17748427862E+03  0.10481858782E+02 -0.67087488115E+03  0.69910010243E+03  0.84007788500E+02 0.  0.
        -13    1    4    4    0    0  0.14749346565E+03 -0.11305633928E+02 -0.41546052483E+03  0.44100973624E+03  0.00000000000E+00 0.  1.
         14    1    4    4    0    0  0.29990812972E+02  0.21787492709E+02 -0.25541435633E+03  0.25809036619E+03  0.00000000000E+00 0. -1.
        -13    1    3    3    0    0 -0.88013296821E+02  0.42993543401E+02 -0.19761506659E+03  0.22055951518E+03  0.00000000000E+00 0. -1.
         13    1    3    3    0    0 -0.77351832972E+02 -0.36703453532E+02 -0.10055784220E+03  0.13206941051E+03  0.00000000000E+00 0.  1.
         21    1    1    2  502  501 -0.12119148829E+02 -0.16771948651E+02 -0.18370180617E+02  0.27670120451E+02  0.00000000000E+00 0.  1.
<scales pt_clust_5="13000.00000" pt_clust_6="13000.00000" pt_clust_7="13000.00000" pt_clust_8="13000.00000" pt_clust_9="20.69232"></scales>
<clustering>
<clus scale="   20.692">  1  9  2 -1</clus>
<clus scale="   84.008">  5  6 -1 -1</clus>
<clus scale="   89.749">  7  8 -1 -1</clus>
<clus scale="  192.689">  2  5  1 -1</clus>
<clus scale="  192.689">  2  5  1 -1</clus>
</clustering>
</event>
<event>
 9    2  0.3402837E-005  0.1623448E+03  0.7546771E-02  0.1187324E+00
          2   -1    0    0  502    0  0.00000000000E+00  0.00000000000E+00  0.67541594603E+03  0.67541594603E+03  0.00000000000E+00 0. -1.
         -1   -1    0    0    0  501 -0.00000000000E+00 -0.00000000000E+00 -0.26899799089E+03  0.26899799089E+03  0.00000000000E+00 0.  1.
         23    2    1    2    0    0 -0.80450698980E+02  0.41197528102E+02 -0.81617188492E+02  0.15235640534E+03  0.91550846542E+02 0.  0.
         24    2    1    2    0    0  0.13423558366E+03 -0.32457186519E+02  0.62455865481E+03  0.64506135307E+03  0.83414477485E+02 0.  0.
        -13    1    4    4    0    0  0.24479149770E+02 -0.37848130651E+02  0.10956948958E+03  0.11847861754E+03  0.00000000000E+00 0.  1.
         14    1    4    4    0    0  0.10975643389E+03  0.53909441316E+01  0.51498916522E+03  0.52658273553E+03  0.00000000000E+00 0. -1.
        -13    1    3    3    0    0 -0.49172236168E+02  0.70207448723E+02 -0.59135951992E+02  0.10413479478E+03  0.00000000000E+00 0.  1.
         13    1    3    3    0    0 -0.31278462812E+02 -0.29009920621E+02 -0.22481236500E+02  0.48221610559E+02  0.00000000000E+00 0. -1.
         21    1    1    2  502  501 -0.53784884681E+02 -0.87403415827E+01 -0.13652351118E+03  0.14699617851E+03  0.00000000000E+00 0.  1.
<scales pt_clust_5="13000.00000" pt_clust_6="13000.00000" pt_clust_7="13000.00000" pt_clust_8="13000.00000" pt_clust_9="54.49043"></scales>
<clustering>
<clus scale="   54.490">  2  9  1 -1</clus>
<clus scale="   83.414">  5  6 -1 -1</clus>
<clus scale="   91.551">  7  8 -1 -1</clus>
<clus scale="  157.899">  1  5  2 -1</clus>
<clus scale="  157.899">  1  5  2 -1</clus>
</clustering>
</event>
<event>
 9    2  0.3402837E-005  0.1619423E+03  0.7546771E-02  0.1190685E+00
         -1   -1    0    0    0  501 -0.00000000000E+00  0.00000000000E+00  0.33268670920E+03  0.33268670920E+03  0.00000000000E+00 0.  1.
          2   -1    0    0  502    0  0.00000000000E+00 -0.00000000000E+00 -0.13047174481E+03  0.13047174481E+03  0.00000000000E+00 0. -1.
         24    2    1    2    0    0  0.55404735425E+02  0.11291932988E+03  0.19187945006E+03  0.24337116315E+03  0.81187067488E+02 0.  0.
         23    2    1    2    0    0 -0.71043006228E+02 -0.10041759625E+03 -0.39197574107E+02  0.16636093306E+03  0.10492238971E+03 0.  0.
        -13    1    3    3    0    0  0.52441419622E+02  0.10280645012E+03  0.19942388324E+03  0.23041083716E+03  0.00000000000E+00 0.  1.
         14    1    3    3    0    0  0.29633158031E+01  0.10112879764E+02 -0.75444331744E+01  0.12960325983E+02  0.00000000000E+00 0. -1.
        -13    1    4    4    0    0  0.33059591318E+01 -0.76615288137E+02  0.46430937974E+01  0.76827013882E+02  0.00000000000E+00 0. -1.
         13    1    4    4    0    0 -0.74348965360E+02 -0.23802308115E+02 -0.43840667904E+02  0.89533919181E+02  0.00000000000E+00 0.  1.
         21    1    1    2  502  501  0.15638270803E+02 -0.12501733629E+02  0.49533088434E+02  0.53426357795E+02  0.00000000000E+00 0. -1.
<scales pt_clust_5="13000.00000" pt_clust_6="13000.00000" pt_clust_7="13000.00000" pt_clust_8="13000.00000" pt_clust_9="20.02121"></scales>
<clustering>
<clus scale="   20.021">  1  9  2 -1</clus>
<clus scale="   81.187">  5  6 -1 -1</clus>
<clus scale="  104.922">  7  8 -1 -1</clus>
<clus scale="  147.675">  1  5  2 -1</clus>
<clus scale="  161.942">  2  5  1 -1</clus>
</clustering>
</event>
<event>
 9    2  0.3402837E-005  0.9185760E+02  0.7546771E-02  0.1305948E+00
          2   -1    0    0  502    0  0.00000000000E+00  0.00000000000E+00  0.16313395981E+03  0.16313395981E+03  0.00000000000E+00 0. -1.
         -1   -1    0    0    0  501 -0.00000000000E+00 -0.00000000000E+00 -0.15783104472E+03  0.15783104472E+03  0.00000000000E+00 0.  1.
         23    2    1    2    0    0 -0.47974574781E+01  0.12518436689E+02 -0.12112555687E+03  0.15215219309E+03  0.91099739190E+02 0.  0.
         24    2    1    2    0    0  0.11629390710E+02  0.79326686582E+01  0.12308476868E+03  0.14699301829E+03  0.79113318634E+02 0.  0.
        -11    1    4    4    0    0  0.38003674458E+02  0.19310008272E+02  0.37703434257E+02  0.56909618225E+02  0.00000000000E+00 0.  1.
         12    1    4    4    0    0 -0.26374283748E+02 -0.11377339614E+02  0.85381334420E+02  0.90083400065E+02  0.00000000000E+00 0. -1.
        -13    1    3    3    0    0  0.39065811715E+02 -0.10707163160E+02 -0.70150308135E+02  0.81005226494E+02  0.00000000000E+00 0.  1.
         13    1    3    3    0    0 -0.43863269193E+02  0.23225599849E+02 -0.50975248733E+02  0.71146966598E+02  0.00000000000E+00 0. -1.
         21    1    1    2  502  501 -0.68319332321E+01 -0.20451105347E+02  0.33437032814E+01  0.21819793153E+02  0.00000000000E+00 0. -1.
<scales pt_clust_5="13000.00000" pt_clust_6="13000.00000" pt_clust_7="13000.00000" pt_clust_8="13000.00000" pt_clust_9="21.56207"></scales>
<clustering>
<clus scale="   21.562">  1  9  2 -1</clus>
<clus scale="   79.113">  5  6 -1 -1</clus>
<clus scale="   79.985">  1  5  2 -1</clus>
<clus scale="   91.100">  7  8 -1 -1</clus>
<clus scale="   21.562">  1  5  2 -1</clus>
</clustering>
</event>
<event>
 9    2  0.3402837E-005  0.1189249E+03  0.7546771E-02  0.1244953E+00
          2   -1    0    0  502    0  0.00000000000E+00  0.00000000000E+00  0.91723421929E+03  0.91723421929E+03  0.00000000000E+00 0. -1.
         -1   -1    0    0    0  501 -0.00000000000E+00 -0.00000000000E+00 -0.28666089931E+02  0.28666089931E+02  0.00000000000E+00 0.  1.
         24    2    1    2    0    0  0.10738265613E+03  0.59770705597E+00  0.27017419071E+03  0.30294716100E+03  0.85155721714E+02 0.  0.
         23    2    1    2    0    0 -0.74604004980E+02 -0.41266681430E+00  0.58599144491E+03  0.59686197975E+03  0.85395090643E+02 0.  0.
        -11    1    3    3    0    0  0.36505813471E+02  0.81888938153E+01  0.19211086118E+02  0.42057082982E+02  0.00000000000E+00 0.  1.
         12    1    3    3    0    0  0.70876842657E+02 -0.75911867593E+01  0.25096310460E+03  0.26089007802E+03  0.00000000000E+00 0. -1.
        -11    1    4    4    0    0 -0.59076723298E+02 -0.39305831152E+02  0.33917441210E+03  0.34651737247E+03  0.00000000000E+00 0.  1.
         11    1    4    4    0    0 -0.15527281683E+02  0.38893164337E+02  0.24681703281E+03  0.25034460728E+03  0.00000000000E+00 0. -1.
         21    1    1    2  502  501 -0.32778651147E+02 -0.18504024167E+00  0.32402493735E+02  0.46091168473E+02  0.00000000000E+00 0. -1.
<scales pt_clust_5="13000.00000" pt_clust_6="13000.00000" pt_clust_7="13000.00000" pt_clust_8="13000.00000" pt_clust_9="32.77917"></scales>
<clustering>
<clus scale="   32.779">  2  9  1 -1</clus>
<clus scale="   85.156">  5  6 -1 -1</clus>
<clus scale="   85.395">  7  8 -1 -1</clus>
<clus scale="  118.753">  2  5  1 -1</clus>
<clus scale="  118.925">  1  5  2 -1</clus>
</clustering>
</event>
<event>
 9    2  0.3402837E-005  0.2953203E+03  0.7546771E-02  0.1112953E+00
         -1   -1    0    0    0  501 -0.00000000000E+00  0.00000000000E+00  0.36224153810E+03  0.36224153810E+03  0.00000000000E+00 0.  1.
          2   -1    0    0  502    0  0.00000000000E+00 -0.00000000000E+00 -0.52790644219E+03  0.52790644219E+03  0.00000000000E+00 0. -1.
         24    2    1    2    0    0  0.78648739683E+02  0.23657735897E+03  0.91319655981E+02  0.27731126602E+03  0.80048658111E+02 0.  0.
         23    2    1    2    0    0  0.19564636700E+02  0.12179995013E+03 -0.17470661667E+03  0.23224530219E+03  0.90539911759E+02 0.  0.
        -13    1    3    3    0    0  0.76175476201E+02  0.20797841679E+03  0.10545612428E+03  0.24531351201E+03  0.00000000000E+00 0.  1.
         14    1    3    3    0    0  0.24732634823E+01  0.28598942178E+02 -0.14136468303E+02  0.31997754016E+02  0.00000000000E+00 0. -1.
        -13    1    4    4    0    0 -0.12841359230E+02  0.40371899995E+02 -0.68886352099E+01  0.42921371263E+02  0.00000000000E+00 0. -1.
         13    1    4    4    0    0  0.32405995930E+02  0.81428050133E+02 -0.16781798146E+03  0.18932393093E+03  0.00000000000E+00 0.  1.
         21    1    1    2  502  501 -0.98213376384E+02 -0.35837730910E+03 -0.82277943392E+02  0.38059141207E+03  0.00000000000E+00 0. -1.
<scales pt_clust_5="13000.00000" pt_clust_6="13000.00000" pt_clust_7="13000.00000" pt_clust_8="13000.00000" pt_clust_9="284.26448"></scales>
<clustering>
<clus scale="   80.049">  5  6 -1 -1</clus>
<clus scale="   90.540">  7  8 -1 -1</clus>
<clus scale="  153.021">  2  7  1 -1</clus>
<clus scale="  284.264">  2  9  1 -1</clus>
<clus scale="  153.021">  2  5  1 -1</clus>
</clustering>
</event>
<event>
 9    2  0.3402837E-005  0.1139756E+03  0.7546771E-02  0.1256254E+00
          2   -1    0    0  502    0  0.00000000000E+00  0.00000000000E+00  0.91647957920E+03  0.91647957920E+03  0.00000000000E+00 0. -1.
         -1   -1    0    0    0  501 -0.00000000000E+00 -0.00000000000E+00 -0.26511444733E+02  0.26511444733E+02  0.00000000000E+00 0.  1.
         24    2    1    2    0    0 -0.57436839245E+02  0.84446749441E+01  0.30004375920E+03  0.31659325397E+03  0.82672413712E+02 0.  0.
         23    2    1    2    0    0  0.73506357076E+02 -0.23393387545E+02  0.59245283509E+03  0.60430508972E+03  0.90740534165E+02 0.  0.
        -11    1    3    3    0    0 -0.21364886735E+02 -0.37164375374E+02  0.12620880924E+03  0.13329033240E+03  0.00000000000E+00 0.  1.
         12    1    3    3    0    0 -0.36071952510E+02  0.45609050318E+02  0.17383494996E+03  0.18330292157E+03  0.00000000000E+00 0. -1.
        -13    1    4    4    0    0 -0.80127972379E+01 -0.35749504511E+02  0.18608120200E+03  0.18965348858E+03  0.00000000000E+00 0.  1.
         13    1    4    4    0    0  0.81519154313E+02  0.12356116965E+02  0.40637163308E+03  0.41465160113E+03  0.00000000000E+00 0. -1.
         21    1    1    2  502  501 -0.16069517830E+02  0.14948712601E+02 -0.25284598119E+01  0.22092680253E+02  0.00000000000E+00 0. -1.
<scales pt_clust_5="13000.00000" pt_clust_6="13000.00000" pt_clust_7="13000.00000" pt_clust_8="13000.00000" pt_clust_9="21.94751"></scales>
<clustering>
<clus scale="   21.948">  2  9  1 -1</clus>
<clus scale="   82.672">  5  6 -1 -1</clus>
<clus scale="   90.741">  7  8 -1 -1</clus>
<clus scale="  107.663">  2  5  1 -1</clus>
<clus scale="  113.976">  1  5  2 -1</clus>
</clustering>
</event>
<event>
 9    2  0.3402837E-005  0.8980738E+02  0.7546771E-02  0.1308313E+00
         -1   -1    0    0    0  501 -0.00000000000E+00  0.00000000000E+00  0.65002935133E+02  0.65002935133E+02  0.00000000000E+00 0.  1.
          2   -1    0    0  502    0  0.00000000000E+00 -0.00000000000E+00 -0.29054814394E+03  0.29054814394E+03  0.00000000000E+00 0. -1.
         24    2    1    2    0    0 -0.25637433755E+01 -0.84259817127E+01  0.13371366453E+02  0.81681553751E+02  0.80096896534E+02 0.  0.
         23    2    1    2    0    0 -0.19597523668E+02  0.59872161412E+01 -0.23423158485E+03  0.25108754847E+03  0.88094335582E+02 0.  0.
        -11    1    3    3    0    0  0.34528134784E+02 -0.20578350545E+02  0.14231184866E+02  0.42640206677E+02  0.00000000000E+00 0.  1.
         12    1    3    3    0    0 -0.37091878159E+02  0.12152368832E+02 -0.85981841319E+00  0.39041347074E+02  0.00000000000E+00 0. -1.
        -11    1    4    4    0    0  0.10980004099E+01 -0.26469803951E+02 -0.19404205195E+02  0.32838686109E+02  0.00000000000E+00 0.  1.
         11    1    4    4    0    0 -0.20695524078E+02  0.32457020092E+02 -0.21482737966E+03  0.21824886236E+03  0.00000000000E+00 0. -1.
         21    1    1    2  502  501  0.22161267043E+02  0.24387655715E+01 -0.46849904120E+01  0.22781976859E+02  0.00000000000E+00 0. -1.
<scales pt_clust_5="13000.00000" pt_clust_6="13000.00000" pt_clust_7="13000.00000" pt_clust_8="13000.00000" pt_clust_9="22.29505"></scales>
<clustering>
<clus scale="   22.295">  1  9  2 -1</clus>
<clus scale="   80.097">  5  6 -1 -1</clus>
<clus scale="   81.977">  1  5  2 -1</clus>
<clus scale="   88.094">  7  8 -1 -1</clus>
<clus scale="   89.807">  2  5  1 -1</clus>
</clustering>
</event>
<event>
 9    2  0.3402837E-005  0.1102556E+03  0.7546771E-02  0.1265134E+00
          2   -1    0    0  502    0  0.00000000000E+00  0.00000000000E+00  0.61777298927E+03  0.61777298927E+03  0.00000000000E+00 0. -1.
         -1   -1    0    0    0  501 -0.00000000000E+00 -0.00000000000E+00 -0.54460035429E+02  0.54460035429E+02  0.00000000000E+00 0.  1.
         24    2    1    2    0    0 -0.54833073218E+02 -0.42197957338E+01  0.13007799326E+03  0.16184282931E+03  0.79046470331E+02 0.  0.
         23    2    1    2    0    0  0.57960560967E+02  0.29484068127E+02  0.45994048416E+03  0.47349507879E+03  0.91780192693E+02 0.  0.
        -11    1    3    3    0    0 -0.19215878892E+02 -0.34003844040E+02  0.23479333996E+02  0.45571817344E+02  0.00000000000E+00 0.  1.
         12    1    3    3    0    0 -0.35617194327E+02  0.29784048307E+02  0.10659865927E+03  0.11627101196E+03  0.00000000000E+00 0. -1.
        -11    1    4    4    0    0  0.70646089572E+02 -0.62878672352E+01  0.23839282147E+03  0.24871981138E+03  0.00000000000E+00 0. -1.
         11    1    4    4    0    0 -0.12685528605E+02  0.35771935362E+02  0.22154766269E+03  0.22477526741E+03  0.00000000000E+00 0.  1.
         21    1    1    2  502  501 -0.31274877490E+01 -0.25264272393E+02 -0.26705523582E+02  0.36895116601E+02  0.00000000000E+00 0.  1.
<scales pt_clust_5="13000.00000" pt_clust_6="13000.00000" pt_clust_7="13000.00000" pt_clust_8="13000.00000" pt_clust_9="25.45711"></scales>
<clustering>
<clus scale="   25.457">  2  9  1 -1</clus>
<clus scale="   79.046">  5  6 -1 -1</clus>
<clus scale="   91.780">  7  8 -1 -1</clus>
<clus scale="   99.905">  2  5  1 -1</clus>
<clus scale="  110.256">  1  5  2 -1</clus>
</clustering>
</event>
<event>
 9    2  0.3402837E-005  0.9113844E+02  0.7546771E-02  0.1306440E+00
          2   -1    0    0  502    0  0.00000000000E+00  0.00000000000E+00  0.97301151545E+02  0.97301151545E+02  0.00000000000E+00 0. -1.
         -1   -1    0    0    0  501 -0.00000000000E+00 -0.00000000000E+00 -0.36726691403E+03  0.36726691403E+03  0.00000000000E+00 0.  1.
         23    2    1    2    0    0  0.23548994006E+02  0.44340007976E+01 -0.79979404544E+02  0.12285154762E+03  0.90119820898E+02 0.  0.
         24    2    1    2    0    0  0.17025394427E+02  0.12997384681E+02  0.50630682691E+02  0.97080677496E+02  0.80014972658E+02 0.  0.
        -11    1    4    4    0    0 -0.14627427758E+02  0.38887344547E+02  0.20795113205E+02  0.46460993768E+02  0.00000000000E+00 0.  1.
         12    1    4    4    0    0  0.31652822185E+02 -0.25889959866E+02  0.29835569486E+02  0.50619683728E+02  0.00000000000E+00 0. -1.
        -11    1    3    3    0    0  0.53595785817E+02 -0.12008495414E+02 -0.30954332180E+02  0.63046672396E+02  0.00000000000E+00 0. -1.
         11    1    3    3    0    0 -0.30046791811E+02  0.16442496212E+02 -0.49025072364E+02  0.59804875220E+02  0.00000000000E+00 0.  1.
         21    1    1    2  502  501 -0.40574388433E+02 -0.17431385478E+02 -0.24061704063E+03  0.24463584046E+03  0.00000000000E+00 0.  1.
<scales pt_clust_5="13000.00000" pt_clust_6="13000.00000" pt_clust_7="13000.00000" pt_clust_8="13000.00000" pt_clust_9="44.16032"></scales>
<clustering>
<clus scale="   44.160">  2  9  1 -1</clus>
<clus scale="   80.015">  5  6 -1 -1</clus>
<clus scale="   81.161">  1  5  2 -1</clus>
<clus scale="   90.120">  7  8 -1 -1</clus>
<clus scale="   81.161">  1  5  2 -1</clus>
</clustering>
</event>
<event>
 9    2  0.3402837E-005  0.1107575E+03  0.7546771E-02  0.1263811E+00
          2   -1    0    0  502    0  0.00000000000E+00  0.00000000000E+00  0.39847815193E+03  0.39847815193E+03  0.00000000000E+00 0. -1.
         -1   -1    0    0    0  501 -0.00000000000E+00 -0.00000000000E+00 -0.25964614335E+03  0.25964614335E+03  0.00000000000E+00 0.  1.
         24    2    1    2    0    0 -0.45837565635E+02 -0.52136861498E+02 -0.10802836068E+03  0.15089807075E+03  0.79251285758E+02 0.  0.
         23    2    1    2    0    0  0.25299026763E+02  0.57255067064E+02  0.36799074625E+03  0.38426039254E+03  0.91217742185E+02 0.  0.
        -11    1    3    3    0    0  0.36913246834E+01 -0.30029042870E+02 -0.88039427478E+02  0.93093018450E+02  0.00000000000E+00 0.  1.
         12    1    3    3    0    0 -0.49528890319E+02 -0.22107818628E+02 -0.19988933203E+02  0.57805052299E+02  0.00000000000E+00 0. -1.
        -11    1    4    4    0    0 -0.14578218608E+02 -0.17454919854E+02  0.12196880089E+03  0.12407089536E+03  0.00000000000E+00 0.  1.
         11    1    4    4    0    0  0.39877245371E+02  0.74709986918E+02  0.24602194536E+03  0.26018949718E+03  0.00000000000E+00 0. -1.
         21    1    1    2  502  501  0.20538538872E+02 -0.51182055659E+01 -0.12113037699E+03  0.12296583199E+03  0.00000000000E+00 0.  1.
<scales pt_clust_5="13000.00000" pt_clust_6="13000.00000" pt_clust_7="13000.00000" pt_clust_8="13000.00000" pt_clust_9="21.16666"></scales>
<clustering>
<clus scale="   21.167">  2  9  1 -1</clus>
<clus scale="   79.251">  5  6 -1 -1</clus>
<clus scale="   91.218">  7  8 -1 -1</clus>
<clus scale="  101.130">  2  5  1 -1</clus>
<clus scale="  110.757">  1  5  2 -1</clus>
</clustering>
</event>
<event>
 9    2  0.3402837E-005  0.1102367E+03  0.7546771E-02  0.1268203E+00
          2   -1    0    0  502    0  0.00000000000E+00  0.00000000000E+00  0.17853229470E+04  0.17853229470E+04  0.00000000000E+00 0. -1.
         -1   -1    0    0    0  501 -0.00000000000E+00 -0.00000000000E+00 -0.15662318918E+02  0.15662318918E+02  0.00000000000E+00 0.  1.
         23    2    1    2    0    0 -0.31234312274E+02  0.18868885666E+01  0.21733986864E+03  0.23883220438E+03  0.93941794430E+02 0.  0.
         24    2    1    2    0    0  0.21590393869E+02 -0.62342842745E+02  0.12337754472E+04  0.12377782113E+04  0.74432996197E+02 0.  0.
        -13    1    4    4    0    0 -0.11873171372E+02 -0.34476865977E+02  0.21482785976E+03  0.21790051816E+03  0.00000000000E+00 0.  1.
         14    1    4    4    0    0  0.33463565241E+02 -0.27865976768E+02  0.10189475875E+04  0.10198776931E+04  0.00000000000E+00 0. -1.
        -11    1    3    3    0    0 -0.39204580593E+02  0.28781115373E+02  0.20005946547E+03  0.20588623428E+03  0.00000000000E+00 0.  1.
         11    1    3    3    0    0  0.79702683191E+01 -0.26894226806E+02  0.17280403166E+02  0.32945970105E+02  0.00000000000E+00 0. -1.
         21    1    1    2  502  501  0.96439184051E+01  0.60455954178E+02  0.31854531218E+03  0.32437485024E+03  0.00000000000E+00 0.  1.
<scales pt_clust_5="13000.00000" pt_clust_6="13000.00000" pt_clust_7="13000.00000" pt_clust_8="13000.00000" pt_clust_9="61.22032"></scales>
<clustering>
<clus scale="   61.220">  2  9  1 -1</clus>
<clus scale="   74.433">  5  6 -1 -1</clus>
<clus scale="   93.942">  7  8 -1 -1</clus>
<clus scale="   94.167">  1  5  2 -1</clus>
<clus scale="   94.167">  1  5  2 -1</clus>
</clustering>
</event>
<event>
 9    2  0.3402837E-005  0.2598974E+03  0.7546771E-02  0.1107685E+00
          2   -1    0    0  502    0  0.00000000000E+00  0.00000000000E+00  0.17257733787E+04  0.17257733787E+04  0.00000000000E+00 0. -1.
         -1   -1    0    0    0  501 -0.00000000000E+00 -0.00000000000E+00 -0.49046015717E+02  0.49046015717E+02  0.00000000000E+00 0.  1.
         23    2    1    2    0    0  0.17505801177E+03 -0.16578177092E+03  0.52925115440E+03  0.58851320409E+03  0.90067218845E+02 0.  0.
         24    2    1    2    0    0 -0.15448550713E+03  0.19725621477E+03  0.10202548412E+04  0.10536444216E+04  0.80441531469E+02 0.  0.
        -11    1    4    4    0    0 -0.19150155856E+02  0.77696401949E+01  0.30327430389E+02  0.36699438852E+02  0.00000000000E+00 0.  1.
         12    1    4    4    0    0 -0.13533535128E+03  0.18948657457E+03  0.98992741082E+03  0.10169449827E+04  0.00000000000E+00 0. -1.
        -11    1    3    3    0    0  0.33396049102E+02 -0.31368337856E+02  0.36836475025E+02  0.58789408976E+02  0.00000000000E+00 0.  1.
         11    1    3    3    0    0  0.14166196266E+03 -0.13441343306E+03  0.49241467937E+03  0.52972379512E+03  0.00000000000E+00 0. -1.
         21    1    1    2  502  501 -0.20572504633E+02 -0.31474443850E+02  0.12722136735E+03  0.13266176870E+03  0.00000000000E+00 0.  1.
<scales pt_clust_5="13000.00000" pt_clust_6="13000.00000" pt_clust_7="13000.00000" pt_clust_8="13000.00000" pt_clust_9="37.60144"></scales>
<clustering>
<clus scale="   37.601">  1  9  2 -1</clus>
<clus scale="   80.442">  5  6 -1 -1</clus>
<clus scale="   90.067">  7  8 -1 -1</clus>
<clus scale="  256.720">  1  5  2 -1</clus>
<clus scale="   37.601">  1  5  2 -1</clus>
</clustering>
</event>
<event>
 9    2  0.3402837E-005  0.9912625E+02  0.7546771E-02  0.1287748E+00
          2   -1    0    0  502    0  0.00000000000E+00  0.00000000000E+00  0.29773873470E+03  0.29773873470E+03  0.00000000000E+00 0. -1.
         -1   -1    0    0    0  501 -0.00000000000E+00 -0.00000000000E+00 -0.20095177968E+03  0.20095177968E+03  0.00000000000E+00 0.  1.
         23    2    1    2    0    0  0.85768752175E+02 -0.25121760164E+02 -0.11879012180E+02  0.12780538730E+03  0.90585453632E+02 0.  0.
         24    2    1    2    0    0 -0.33965403925E+02  0.66922343876E+01  0.22557572001E+03  0.24169099172E+03  0.79571950823E+02 0.  0.
        -11    1    4    4    0    0 -0.32636716952E+02  0.24837982607E+02  0.47786609623E+02  0.62973333504E+02  0.00000000000E+00 0.  1.
         12    1    4    4    0    0 -0.13286869730E+01 -0.18145748219E+02  0.17778911039E+03  0.17871765822E+03  0.00000000000E+00 0. -1.
        -13    1    3    3    0    0  0.23563725505E+02 -0.50163334570E+02 -0.22683054385E+02  0.59884307219E+02  0.00000000000E+00 0.  1.
         13    1    3    3    0    0  0.62205026670E+02  0.25041574406E+02  0.10804042205E+02  0.67921080084E+02  0.00000000000E+00 0. -1.
         21    1    1    2  502  501 -0.51803348250E+02  0.18429525777E+02 -0.11690975281E+03  0.12919413536E+03  0.00000000000E+00 0.  1.
<scales pt_clust_5="13000.00000" pt_clust_6="13000.00000" pt_clust_7="13000.00000" pt_clust_8="13000.00000" pt_clust_9="54.98395"></scales>
<clustering>
<clus scale="   54.984">  2  9  1 -1</clus>
<clus scale="   79.572">  5  6 -1 -1</clus>
<clus scale="   89.174">  1  5  2 -1</clus>
<clus scale="   90.585">  7  8 -1 -1</clus>
<clus scale="   89.174">  1  5  2 -1</clus>
</clustering>
</event>
<event>
 9    2  0.3402837E-005  0.9721540E+02  0.7546771E-02  0.1292719E+00
         -3   -1    0    0    0  501 -0.00000000000E+00  0.00000000000E+00  0.25405582268E+03  0.25405582268E+03  0.00000000000E+00 0.  1.
          4   -1    0    0  502    0  0.00000000000E+00 -0.00000000000E+00 -0.81485040246E+02  0.81485040246E+02  0.00000000000E+00 0. -1.
         24    2    1    2    0    0  0.53804814415E+01  0.11159668001E+02  0.17702905321E+03  0.19502830943E+03  0.80890469332E+02 0.  0.
         23    2    1    2    0    0 -0.33656319678E+02 -0.50684017772E+01 -0.28727220445E+02  0.10275532279E+03  0.92601115635E+02 0.  0.
        -11    1    3    3    0    0  0.32943393480E+02  0.25194703416E+02  0.14366994654E+03  0.14953626247E+03  0.00000000000E+00 0.  1.
         12    1    3    3    0    0 -0.27562912038E+02 -0.14035035415E+02  0.33359106673E+02  0.45492046966E+02  0.00000000000E+00 0. -1.
        -11    1    4    4    0    0 -0.58831418442E+02 -0.17960891389E+02 -0.38804921285E+02  0.72729301738E+02  0.00000000000E+00 0. -1.
         11    1    4    4    0    0  0.25175098763E+02  0.12892489611E+02  0.10077700840E+02  0.30026021054E+02  0.00000000000E+00 0.  1.
         21    1    1    2  502  501  0.28275838237E+02 -0.60912662234E+01  0.24268949666E+02  0.37757230699E+02  0.00000000000E+00 0. -1.
<scales pt_clust_5="13000.00000" pt_clust_6="13000.00000" pt_clust_7="13000.00000" pt_clust_8="13000.00000" pt_clust_9="28.92450"></scales>
<clustering>
<clus scale="   28.924">  1  9  2 -1</clus>
<clus scale="   80.890">  5  6 -1 -1</clus>
<clus scale="   86.134">  1  5  2 -1</clus>
<clus scale="   92.601">  7  8 -1 -1</clus>
<clus scale="   97.215">  2  5  1 -1</clus>
</clustering>
</event>
<event>
 9    2  0.3402837E-005  0.1510966E+03  0.7546771E-02  0.1222866E+00
         -1   -1    0    0    0  501 -0.00000000000E+00  0.00000000000E+00  0.18224053190E+03  0.18224053190E+03  0.00000000000E+00 0.  1.
          2   -1    0    0  502    0  0.00000000000E+00 -0.00000000000E+00 -0.81260563556E+03  0.81260563556E+03  0.00000000000E+00 0. -1.
         23    2    1    2    0    0 -0.97606101104E+02 -0.74035951994E+02 -0.46275573224E+03  0.48744594391E+03  0.91936974920E+02 0.  0.
         24    2    1    2    0    0 -0.17227205948E+02  0.38796485638E+02 -0.30884081927E+03  0.32199571914E+03  0.80601783934E+02 0.  0.
        -11    1    4    4    0    0 -0.29633145973E+02  0.44880930782E+02 -0.30167316255E+03  0.30642963025E+03  0.00000000000E+00 0.  1.
         12    1    4    4    0    0  0.12405940025E+02 -0.60844451440E+01 -0.71676567192E+01  0.15566088894E+02  0.00000000000E+00 0. -1.
        -11    1    3    3    0    0 -0.11142407366E+03 -0.47646542904E+02 -0.40046581246E+03  0.41839978991E+03  0.00000000000E+00 0. -1.
         11    1    3    3    0    0  0.13817972553E+02 -0.26389409091E+02 -0.62289919772E+02  0.69046154004E+02  0.00000000000E+00 0.  1.
         21    1    1    2  502  501  0.11483330705E+03  0.35239466356E+02  0.14123144785E+03  0.18540450442E+03  0.00000000000E+00 0.  1.
<scales pt_clust_5="13000.00000" pt_clust_6="13000.00000" pt_clust_7="13000.00000" pt_clust_8="13000.00000" pt_clust_9="119.90735"></scales>
<clustering>
<clus scale="   80.602">  5  6 -1 -1</clus>
<clus scale="   91.097">  2  5  1 -1</clus>
<clus scale="   91.937">  7  8 -1 -1</clus>
<clus scale="  119.907">  1  9  2 -1</clus>
<clus scale="   91.097">  2  5  1 -1</clus>
</clustering>
</event>
<event>
 9    2  0.3402837E-005  0.9884054E+02  0.7546771E-02  0.1288781E+00
          2   -1    0    0  502    0  0.00000000000E+00  0.00000000000E+00  0.38172760818E+03  0.38172760818E+03  0.00000000000E+00 0. -1.
         -1   -1    0    0    0  501 -0.00000000000E+00 -0.00000000000E+00 -0.92249933142E+02  0.92249933142E+02  0.00000000000E+00 0.  1.
         23    2    1    2    0    0 -0.22718417961E+02  0.19991160540E+01 -0.23935987119E+01  0.92691569917E+02  0.89810215673E+02 0.  0.
         24    2    1    2    0    0  0.42269036381E+02 -0.10828773738E+02  0.32762516342E+03  0.33959028623E+03  0.77970385510E+02 0.  0.
        -11    1    4    4    0    0 -0.21101154302E+02  0.50240721239E+01  0.52252902610E+02  0.56576195036E+02  0.00000000000E+00 0.  1.
         12    1    4    4    0    0  0.63370190683E+02 -0.15852845862E+02  0.27537226081E+03  0.28301409119E+03  0.00000000000E+00 0. -1.
        -11    1    3    3    0    0 -0.42909678056E+02 -0.10042512759E+02  0.29528068061E+02  0.53047142588E+02  0.00000000000E+00 0.  1.
         11    1    3    3    0    0  0.20191260095E+02  0.12041628813E+02 -0.31921666773E+02  0.39644427329E+02  0.00000000000E+00 0. -1.
         21    1    1    2  502  501 -0.19550618421E+02  0.88296576838E+01 -0.35753889673E+02  0.41695685175E+02  0.00000000000E+00 0.  1.
<scales pt_clust_5="13000.00000" pt_clust_6="13000.00000" pt_clust_7="13000.00000" pt_clust_8="13000.00000" pt_clust_9="21.45203"></scales>
<clustering>
<clus scale="   21.452">  2  9  1 -1</clus>
<clus scale="   77.970">  5  6 -1 -1</clus>
<clus scale="   88.221">  1  5  2 -1</clus>
<clus scale="   89.810">  7  8 -1 -1</clus>
<clus scale="   88.221">  1  5  2 -1</clus>
</clustering>
</event>
<event>
 9    2  0.3402837E-005  0.1345955E+03  0.7546771E-02  0.1223582E+00
         -1   -1    0    0    0  501 -0.00000000000E+00  0.00000000000E+00  0.36007834234E+03  0.36007834234E+03  0.00000000000E+00 0.  1.
          2   -1    0    0  502    0  0.00000000000E+00 -0.00000000000E+00 -0.21704869958E+03  0.21704869958E+03  0.00000000000E+00 0. -1.
         24    2    1    2    0    0  0.71791253805E+02 -0.23249625115E+02  0.23920709780E+03  0.26327409144E+03  0.79991764533E+02 0.  0.
         23    2    1    2    0    0 -0.96907550583E+02  0.27373426262E+02 -0.18032051065E+03  0.22594454413E+03  0.91624628987E+02 0.  0.
        -11    1    3    3    0    0  0.30410591057E+02  0.29295092161E+02  0.10901491592E+03  0.11690705012E+03  0.00000000000E+00 0.  1.
         12    1    3    3    0    0  0.41380662749E+02 -0.52544717276E+02  0.13019218188E+03  0.14636704132E+03  0.00000000000E+00 0. -1.
        -11    1    4    4    0    0 -0.11383032988E+03  0.15137657766E+02 -0.14569037055E+03  0.18550519334E+03  0.00000000000E+00 0. -1.
         11    1    4    4    0    0  0.16922779295E+02  0.12235768496E+02 -0.34630140093E+02  0.40439350794E+02  0.00000000000E+00 0.  1.
         21    1    1    2  502  501  0.25116296778E+02 -0.41238011470E+01  0.84143055607E+02  0.87908406348E+02  0.00000000000E+00 0.  1.
<scales pt_clust_5="13000.00000" pt_clust_6="13000.00000" pt_clust_7="13000.00000" pt_clust_8="13000.00000" pt_clust_9="25.45259"></scales>
<clustering>
<clus scale="   25.453">  1  9  2 -1</clus>
<clus scale="   79.992">  5  6 -1 -1</clus>
<clus scale="   91.625">  7  8 -1 -1</clus>
<clus scale="  126.963">  1  5  2 -1</clus>
<clus scale="  134.595">  2  5  1 -1</clus>
</clustering>
</event>
<event>
 9    2  0.3402837E-005  0.1037643E+03  0.7546771E-02  0.1280335E+00
          2   -1    0    0  502    0  0.00000000000E+00  0.00000000000E+00  0.27169496336E+03  0.27169496336E+03  0.00000000000E+00 0. -1.
         -1   -1    0    0    0  501 -0.00000000000E+00 -0.00000000000E+00 -0.82233570628E+02  0.82233570628E+02  0.00000000000E+00 0.  1.
         23    2    1    2    0    0  0.52160837052E+02  0.23755690805E+02 -0.15407786109E+02  0.11245251216E+03  0.95514825293E+02 0.  0.
         24    2    1    2    0    0 -0.38707160771E+02  0.17394874777E+01  0.18856037980E+03  0.20835529648E+03  0.79722284405E+02 0.  0.
        -11    1    4    4    0    0 -0.50341505754E+02 -0.24786281285E+02  0.94166018090E+02  0.10961690519E+03  0.00000000000E+00 0.  1.
         12    1    4    4    0    0  0.11634344983E+02  0.26525768763E+02  0.94394361707E+02  0.98738391286E+02  0.00000000000E+00 0. -1.
        -13    1    3    3    0    0  0.17897970783E+02 -0.24877658224E+02 -0.37998243902E+02  0.48817023429E+02  0.00000000000E+00 0.  1.
         13    1    3    3    0    0  0.34262866269E+02  0.48633349029E+02  0.22590457793E+02  0.63635488731E+02  0.00000000000E+00 0. -1.
         21    1    1    2  502  501 -0.13453676281E+02 -0.25495178283E+02  0.16308799042E+02  0.33120725345E+02  0.00000000000E+00 0. -1.
<scales pt_clust_5="13000.00000" pt_clust_6="13000.00000" pt_clust_7="13000.00000" pt_clust_8="13000.00000" pt_clust_9="28.82717"></scales>
<clustering>
<clus scale="   28.827">  2  9  1 -1</clus>
<clus scale="   79.722">  5  6 -1 -1</clus>
<clus scale="   89.440">  1  5  2 -1</clus>
<clus scale="   95.515">  7  8 -1 -1</clus>
<clus scale="   89.440">  1  5  2 -1</clus>
</clustering>
</event>
<event>
 9    2  0.3402837E-005  0.1224747E+03  0.7546771E-02  0.1268759E+00
         -1   -1    0    0    0  501 -0.00000000000E+00  0.00000000000E+00  0.10494224681E+04  0.10494224681E+04  0.00000000000E+00 0.  1.
          2   -1    0    0  502    0  0.00000000000E+00 -0.00000000000E+00 -0.33378620634E+02  0.33378620634E+02  0.00000000000E+00 0. -1.
         23    2    1    2    0    0  0.93030525669E+02 -0.85803632170E+00  0.57301635654E+03  0.58719677165E+03  0.88299993460E+02 0.  0.
         24    2    1    2    0    0 -0.14754032381E+02 -0.21719878729E+02  0.29379011905E+02  0.74009682571E+02  0.62648800231E+02 0.  0.
        -13    1    4    4    0    0 -0.76231184082E+01 -0.26704276584E+02  0.46867013338E+02  0.54477034256E+02  0.00000000000E+00 0.  1.
         14    1    4    4    0    0 -0.71309139726E+01  0.49843978544E+01 -0.17488001434E+02  0.19532648315E+02  0.00000000000E+00 0. -1.
        -13    1    3    3    0    0  0.24816390372E+02 -0.41020398443E+02  0.25569679126E+03  0.26015260018E+03  0.00000000000E+00 0. -1.
         13    1    3    3    0    0  0.68214135298E+02  0.40162362121E+02  0.31731956528E+03  0.32704417147E+03  0.00000000000E+00 0.  1.
         21    1    1    2  502  501 -0.78276493289E+02  0.22577915051E+02  0.41364847902E+03  0.42159463451E+03  0.00000000000E+00 0. -1.
<scales pt_clust_5="13000.00000" pt_clust_6="13000.00000" pt_clust_7="13000.00000" pt_clust_8="13000.00000" pt_clust_9="84.87146"></scales>
<clustering>
<clus scale="   62.649">  5  6 -1 -1</clus>
<clus scale="   67.929">  2  5  1 -1</clus>
<clus scale="   84.871">  1  9  2 -1</clus>
<clus scale="   88.300">  7  8 -1 -1</clus>
<clus scale="   67.929">  2  5  1 -1</clus>
</clustering>
</event>
<event>
 9    2  0.3402837E-005  0.1025673E+03  0.7546771E-02  0.1275970E+00
          2   -1    0    0  502    0  0.00000000000E+00  0.00000000000E+00  0.15599463811E+04  0.15599463811E+04  0.00000000000E+00 0. -1.
         -1   -1    0    0    0  501 -0.00000000000E+00 -0.00000000000E+00 -0.44495712601E+02  0.44495712601E+02  0.00000000000E+00 0.  1.
         23    2    1    2    0    0 -0.11350499829E+02 -0.44644240158E+02  0.28013738746E+02  0.10576161537E+03  0.90987953601E+02 0.  0.
         24    2    1    2    0    0 -0.11342031855E+02  0.78027947601E+02  0.13558236316E+04  0.13610160924E+04  0.88826129860E+02 0.  0.
        -11    1    4    4    0    0  0.25504653360E+02  0.27666523740E+02  0.19998936206E+03  0.20349857203E+03  0.00000000000E+00 0.  1.
         12    1    4    4    0    0 -0.36846685216E+02  0.50361423861E+02  0.11558342695E+04  0.11575175203E+04  0.00000000000E+00 0. -1.
        -11    1    3    3    0    0 -0.28398340387E+01  0.20398729369E+02 -0.16581648136E+02  0.26440950666E+02  0.00000000000E+00 0.  1.
         11    1    3    3    0    0 -0.85106657901E+01 -0.65042969527E+02  0.44595386882E+02  0.79320664699E+02  0.00000000000E+00 0. -1.
         21    1    1    2  502  501  0.22692531684E+02 -0.33383707443E+02  0.13161329812E+03  0.13766438595E+03  0.00000000000E+00 0. -1.
<scales pt_clust_5="13000.00000" pt_clust_6="13000.00000" pt_clust_7="13000.00000" pt_clust_8="13000.00000" pt_clust_9="40.36611"></scales>
<clustering>
<clus scale="   40.366">  1  9  2 -1</clus>
<clus scale="   88.826">  5  6 -1 -1</clus>
<clus scale="   90.988">  7  8 -1 -1</clus>
<clus scale="  100.654">  1  5  2 -1</clus>
<clus scale="   40.366">  1  5  2 -1</clus>
</clustering>
</event>
<event>
 9    2  0.3402837E-005  0.9518424E+02  0.7546771E-02  0.1297758E+00
         -1   -1    0    0    0  501 -0.00000000000E+00  0.00000000000E+00  0.67367534567E+03  0.67367534567E+03  0.00000000000E+00 0.  1.
          2   -1    0    0  502    0  0.00000000000E+00 -0.00000000000E+00 -0.32413920727E+02  0.32413920727E+02  0.00000000000E+00 0. -1.
         23    2    1    2    0    0 -0.48185092981E+02 -0.16020664030E+02  0.32307717340E+03  0.34010755619E+03  0.93358582581E+02 0.  0.
         24    2    1    2    0    0  0.29107949828E+01 -0.21715237481E+02  0.66340251935E+02  0.10733299001E+03  0.81482006919E+02 0.  0.
        -11    1    4    4    0    0 -0.22469711550E+02  0.22807177205E+02  0.17256870130E+02  0.36371071415E+02  0.00000000000E+00 0.  1.
         12    1    4    4    0    0  0.25380506532E+02 -0.44522414686E+02  0.49083381805E+02  0.70961918596E+02  0.00000000000E+00 0. -1.
        -11    1    3    3    0    0 -0.52588380962E+02  0.28239387641E+02  0.21753639217E+03  0.22557722125E+03  0.00000000000E+00 0.  1.
         11    1    3    3    0    0  0.44032879817E+01 -0.44260051672E+02  0.10554078123E+03  0.11453033494E+03  0.00000000000E+00 0. -1.
         21    1    1    2  502  501  0.45274297998E+02  0.37735901511E+02  0.25184399960E+03  0.25864872019E+03  0.00000000000E+00 0. -1.
<scales pt_clust_5="13000.00000" pt_clust_6="13000.00000" pt_clust_7="13000.00000" pt_clust_8="13000.00000" pt_clust_9="58.93861"></scales>
<clustering>
<clus scale="   58.939">  1  9  2 -1</clus>
<clus scale="   81.482">  5  6 -1 -1</clus>
<clus scale="   83.568">  2  5  1 -1</clus>
<clus scale="   93.359">  7  8 -1 -1</clus>
<clus scale="   83.568">  2  5  1 -1</clus>
</clustering>
</event>
<event>
 9    2  0.3402837E-005  0.1399577E+03  0.7546771E-02  0.1215455E+00
         -1   -1    0    0    0  501 -0.00000000000E+00  0.00000000000E+00  0.57329506057E+02  0.57329506057E+02  0.00000000000E+00 0.  1.
          2   -1    0    0  502    0  0.00000000000E+00 -0.00000000000E+00 -0.70525839342E+03  0.70525839342E+03  0.00000000000E+00 0. -1.
         23    2    1    2    0    0  0.60890048632E+02 -0.66831033850E+02 -0.20410852566E+03  0.24126212318E+03  0.91504845368E+02 0.  0.
         24    2    1    2    0    0 -0.10775367941E+03  0.48994442830E+02 -0.44841432572E+03  0.47097254031E+03  0.82026918559E+02 0.  0.
        -11    1    4    4    0    0 -0.87172085507E+02 -0.25242390761E+01 -0.30425828846E+03  0.31650979506E+03  0.00000000000E+00 0.  1.
         12    1    4    4    0    0 -0.20581593898E+02  0.51518681906E+02 -0.14415603725E+03  0.15446274525E+03  0.00000000000E+00 0. -1.
        -11    1    3    3    0    0  0.33044334729E+02 -0.84513450886E+02 -0.11664541851E+03  0.14778567284E+03  0.00000000000E+00 0.  1.
         11    1    3    3    0    0  0.27845713903E+02  0.17682417036E+02 -0.87463107153E+02  0.93476450339E+02  0.00000000000E+00 0. -1.
         21    1    1    2  502  501  0.46863630774E+02  0.17836591020E+02  0.45939640150E+01  0.50353235982E+02  0.00000000000E+00 0. -1.
<scales pt_clust_5="13000.00000" pt_clust_6="13000.00000" pt_clust_7="13000.00000" pt_clust_8="13000.00000" pt_clust_9="50.14323"></scales>
<clustering>
<clus scale="   50.143">  1  9  2 -1</clus>
<clus scale="   82.027">  5  6 -1 -1</clus>
<clus scale="   91.505">  7  8 -1 -1</clus>
<clus scale="  133.953">  2  5  1 -1</clus>
<clus scale="  133.953">  2  5  1 -1</clus>
</clustering>
</event>
<event>
 9    2  0.3402837E-005  0.1254268E+03  0.7546771E-02  0.1238358E+00
          2   -1    0    0  502    0  0.00000000000E+00  0.00000000000E+00  0.83912954644E+02  0.83912954644E+02  0.00000000000E+00 0. -1.
         -1   -1    0    0    0  501 -0.00000000000E+00 -0.00000000000E+00 -0.62983687962E+03  0.62983687962E+03  0.00000000000E+00 0.  1.
         23    2    1    2    0    0  0.79353724163E+02 -0.21705117525E+02 -0.40526279587E+03  0.42406090880E+03  0.93923346382E+02 0.  0.
         24    2    1    2    0    0 -0.68450433680E+02  0.48192209064E+02  0.27319946757E+02  0.11928326355E+03  0.80462205958E+02 0.  0.
        -13    1    4    4    0    0 -0.22192798379E+02 -0.15975924348E+02 -0.13246679167E+02  0.30384617286E+02  0.00000000000E+00 0.  1.
         14    1    4    4    0    0 -0.46257635301E+02  0.64168133412E+02  0.40566625923E+02  0.88898646267E+02  0.00000000000E+00 0. -1.
        -11    1    3    3    0    0 -0.89954977369E+01 -0.27346692614E+02 -0.47808403209E+02  0.55806845404E+02  0.00000000000E+00 0. -1.
         11    1    3    3    0    0  0.88349221900E+02  0.56415750896E+01 -0.35745439266E+03  0.36825406340E+03  0.00000000000E+00 0.  1.
         21    1    1    2  502  501 -0.10903290483E+02 -0.26487091539E+02 -0.16798107586E+03  0.17040566190E+03  0.00000000000E+00 0.  1.
<scales pt_clust_5="13000.00000" pt_clust_6="13000.00000" pt_clust_7="13000.00000" pt_clust_8="13000.00000" pt_clust_9="28.64346"></scales>
<clustering>
<clus scale="   28.643">  2  9  1 -1</clus>
<clus scale="   80.462">  5  6 -1 -1</clus>
<clus scale="   93.923">  7  8 -1 -1</clus>
<clus scale="  115.691">  1  5  2 -1</clus>
<clus scale="  115.691">  1  5  2 -1</clus>
</clustering>
</event>
<event>
 9    2  0.3402837E-005  0.1266389E+03  0.7546771E-02  0.1235045E+00
          4   -1    0    0  502    0  0.00000000000E+00  0.00000000000E+00  0.41087624722E+03  0.41087624722E+03  0.00000000000E+00 0. -1.
         -3   -1    0    0    0  501 -0.00000000000E+00 -0.00000000000E+00 -0.53851794403E+02  0.53851794403E+02  0.00000000000E+00 0.  1.
         24    2    1    2    0    0 -0.92464841802E+02  0.52388008320E+02  0.20421294625E+03  0.24425440706E+03  0.81627431468E+02 0.  0.
         23    2    1    2    0    0  0.62663002291E+02 -0.31653132727E+02  0.14206600092E+03  0.18261137637E+03  0.90750170765E+02 0.  0.
        -13    1    3    3    0    0 -0.22230858113E+02  0.58669096030E+02  0.10910372912E+03  0.12585665493E+03  0.00000000000E+00 0.  1.
         14    1    3    3    0    0 -0.70233983690E+02 -0.62810877101E+01  0.95109217129E+02  0.11839775214E+03  0.00000000000E+00 0. -1.
        -13    1    4    4    0    0  0.47654065302E+02 -0.14120826173E+02  0.15014606475E+03  0.15815861795E+03  0.00000000000E+00 0.  1.
         13    1    4    4    0    0  0.15008936988E+02 -0.17532306554E+02 -0.80800638324E+01  0.24452758416E+02  0.00000000000E+00 0. -1.
         21    1    1    2  502  501  0.29801839512E+02 -0.20734875593E+02  0.10745505652E+02  0.37862258198E+02  0.00000000000E+00 0.  1.
<scales pt_clust_5="13000.00000" pt_clust_6="13000.00000" pt_clust_7="13000.00000" pt_clust_8="13000.00000" pt_clust_9="36.30544"></scales>
<clustering>
<clus scale="   36.305">  2  9  1 -1</clus>
<clus scale="   81.627">  5  6 -1 -1</clus>
<clus scale="   90.750">  7  8 -1 -1</clus>
<clus scale="  120.270">  2  5  1 -1</clus>
<clus scale="  126.639">  1  5  2 -1</clus>
</clustering>
</event>
<event>
 9    2  0.3402837E-005  0.2021821E+03  0.7546771E-02  0.1149892E+00
          2   -1    0    0  502    0  0.00000000000E+00  0.00000000000E+00  0.23877266406E+03  0.23877266406E+03  0.00000000000E+00 0. -1.
         -1   -1    0    0    0  501 -0.00000000000E+00 -0.00000000000E+00 -0.21478126111E+03  0.21478126111E+03  0.00000000000E+00 0.  1.
         24    2    1    2    0    0  0.59954802509E+02 -0.17902152808E+03 -0.64948493292E+02  0.21473466481E+03  0.79053043153E+02 0.  0.
         23    2    1    2    0    0 -0.40526150974E+02  0.14609490896E+03  0.85188627597E+02  0.20040433144E+03  0.99592682728E+02 0.  0.
        -13    1    3    3    0    0  0.75239931210E+02 -0.16892310710E+03 -0.66095816725E+02  0.19637902217E+03  0.00000000000E+00 0.  1.
         14    1    3    3    0    0 -0.15285128701E+02 -0.10098420979E+02  0.11473234332E+01  0.18355642640E+02  0.00000000000E+00 0. -1.
        -13    1    4    4    0    0 -0.24255143754E+02  0.79774764588E+02 -0.92189233143E+01  0.83888697753E+02  0.00000000000E+00 0.  1.
         13    1    4    4    0    0 -0.16271007220E+02  0.66320144373E+02  0.94407550911E+02  0.11651563369E+03  0.00000000000E+00 0. -1.
         21    1    1    2  502  501 -0.19428651535E+02  0.32926619118E+02  0.37512686478E+01  0.38414928914E+02  0.00000000000E+00 0. -1.
<scales pt_clust_5="13000.00000" pt_clust_6="13000.00000" pt_clust_7="13000.00000" pt_clust_8="13000.00000" pt_clust_9="38.23133"></scales>
<clustering>
<clus scale="   38.231">  1  9  2 -1</clus>
<clus scale="   79.053">  5  6 -1 -1</clus>
<clus scale="   99.593">  7  8 -1 -1</clus>
<clus scale="  192.894">  2  5  1 -1</clus>
<clus scale="   38.231">  1  5  2 -1</clus>
</clustering>
</event>
<event>
 9    2  0.3402837E-005  0.1090967E+03  0.7546771E-02  0.1265439E+00
          2   -1    0    0  502    0  0.00000000000E+00  0.00000000000E+00  0.59409294031E+03  0.59409294031E+03  0.00000000000E+00 0. -1.
         -1   -1    0    0    0  501 -0.00000000000E+00 -0.00000000000E+00 -0.13439788729E+03  0.13439788729E+03  0.00000000000E+00 0.  1.
         24    2    1    2    0    0  0.35586274542E+02  0.62473859168E+02  0.16335005251E+03  0.19674687500E+03  0.82805357013E+02 0.  0.
         23    2    1    2    0    0 -0.15302045979E+02 -0.54136126773E+02  0.40604869647E+03  0.41986960962E+03  0.90829908863E+02 0.  0.
        -11    1    3    3    0    0  0.22232990865E+02  0.22965833650E+02  0.42189094196E+01  0.32241814383E+02  0.00000000000E+00 0.  1.
         12    1    3    3    0    0  0.13353283677E+02  0.39508025518E+02  0.15913114309E+03  0.16450506061E+03  0.00000000000E+00 0. -1.
        -11    1    4    4    0    0 -0.49741132456E+01  0.20795600762E+02  0.33665535711E+02  0.39881914552E+02  0.00000000000E+00 0.  1.
         11    1    4    4    0    0 -0.10327932733E+02 -0.74931727535E+02  0.37238316076E+03  0.37998769507E+03  0.00000000000E+00 0. -1.
         21    1    1    2  502  501 -0.20284228563E+02 -0.83377323950E+01 -0.10970369597E+03  0.11187434299E+03  0.00000000000E+00 0.  1.
<scales pt_clust_5="13000.00000" pt_clust_6="13000.00000" pt_clust_7="13000.00000" pt_clust_8="13000.00000" pt_clust_9="21.93098"></scales>
<clustering>
<clus scale="   21.931">  2  9  1 -1</clus>
<clus scale="   82.805">  5  6 -1 -1</clus>
<clus scale="   90.830">  7  8 -1 -1</clus>
<clus scale="  102.512">  2  5  1 -1</clus>
<clus scale="  109.097">  1  5  2 -1</clus>
</clustering>
</event>
<event>
 9    2  0.3402837E-005  0.1146645E+03  0.7546771E-02  0.1255913E+00
         -1   -1    0    0    0  501 -0.00000000000E+00  0.00000000000E+00  0.28408880910E+03  0.28408880910E+03  0.00000000000E+00 0.  1.
          2   -1    0    0  502    0  0.00000000000E+00 -0.00000000000E+00 -0.27324387702E+03  0.27324387702E+03  0.00000000000E+00 0. -1.
         24    2    1    2    0    0 -0.62457458893E+02 -0.28994463516E+01  0.31903887338E+02  0.10645789154E+03  0.80038013989E+02 0.  0.
         23    2    1    2    0    0  0.37212967595E+02  0.68345652100E+02 -0.21426329451E+03  0.24533062197E+03  0.90677569350E+02 0.  0.
        -13    1    3    3    0    0 -0.81558614945E+02 -0.74832971306E+01  0.24889452122E+02  0.85599604173E+02  0.00000000000E+00 0.  1.
         14    1    3    3    0    0  0.19101156052E+02  0.45838507790E+01  0.70144352165E+01  0.20858287367E+02  0.00000000000E+00 0. -1.
        -11    1    4    4    0    0  0.67068817314E+02  0.48621953787E+02 -0.16259711283E+03  0.18248326429E+03  0.00000000000E+00 0.  1.
         11    1    4    4    0    0 -0.29855849719E+02  0.19723698313E+02 -0.51666181681E+02  0.62847357678E+02  0.00000000000E+00 0. -1.
         21    1    1    2  502  501  0.25244491298E+02 -0.65446205748E+02  0.19320433925E+03  0.20554417261E+03  0.00000000000E+00 0.  1.
<scales pt_clust_5="13000.00000" pt_clust_6="13000.00000" pt_clust_7="13000.00000" pt_clust_8="13000.00000" pt_clust_9="70.14621"></scales>
<clustering>
<clus scale="   70.146">  1  9  2 -1</clus>
<clus scale="   80.038">  5  6 -1 -1</clus>
<clus scale="   90.678">  7  8 -1 -1</clus>
<clus scale="  106.450">  1  5  2 -1</clus>
<clus scale="  114.664">  2  5  1 -1</clus>
</clustering>
</event>
<event>
 9    2  0.3402837E-005  0.1215821E+03  0.7546771E-02  0.1243332E+00
         -1   -1    0    0    0  501 -0.00000000000E+00  0.00000000000E+00  0.17368623131E+03  0.17368623131E+03  0.00000000000E+00 0.  1.
          2   -1    0    0  502    0  0.00000000000E+00 -0.00000000000E+00 -0.39911941951E+03  0.39911941951E+03  0.00000000000E+00 0. -1.
         23    2    1    2    0    0 -0.22606906364E+02 -0.43899620362E+02 -0.74343344778E+02  0.12680247577E+03  0.90076001603E+02 0.  0.
         24    2    1    2    0    0  0.40046509478E+02  0.90229503730E+02 -0.28013150752E+03  0.30779192760E+03  0.80728699540E+02 0.  0.
        -13    1    4    4    0    0 -0.20004505306E+02  0.28981738490E+01 -0.63208858005E+02  0.66362183316E+02  0.00000000000E+00 0.  1.
         14    1    4    4    0    0  0.60051014784E+02  0.87331329881E+02 -0.21692264951E+03  0.24142974429E+03  0.00000000000E+00 0. -1.
        -13    1    3    3    0    0 -0.32694677770E+02  0.64912700973E+01  0.35100324781E+01  0.33517142926E+02  0.00000000000E+00 0.  1.
         13    1    3    3    0    0  0.10087771405E+02 -0.50390890460E+02 -0.77853377256E+02  0.93285332842E+02  0.00000000000E+00 0. -1.
         21    1    1    2  502  501 -0.17439603114E+02 -0.46329883368E+02  0.12904166410E+03  0.13821124745E+03  0.00000000000E+00 0.  1.
<scales pt_clust_5="13000.00000" pt_clust_6="13000.00000" pt_clust_7="13000.00000" pt_clust_8="13000.00000" pt_clust_9="49.50351"></scales>
<clustering>
<clus scale="   49.504">  1  9  2 -1</clus>
<clus scale="   80.729">  5  6 -1 -1</clus>
<clus scale="   90.076">  7  8 -1 -1</clus>
<clus scale="  114.829">  2  5  1 -1</clus>
<clus scale="  114.829">  2  5  1 -1</clus>
</clustering>
</event>
<event>
 9    2  0.3402837E-005  0.9690274E+02  0.7546771E-02  0.1293820E+00
         -1   -1    0    0    0  501 -0.00000000000E+00  0.00000000000E+00  0.20956992720E+03  0.20956992720E+03  0.00000000000E+00 0.  1.
          2   -1    0    0  502    0  0.00000000000E+00 -0.00000000000E+00 -0.28377165542E+03  0.28377165542E+03  0.00000000000E+00 0. -1.
         23    2    1    2    0    0  0.11171503647E+02 -0.47622293839E+02  0.16025680883E+03  0.19071700455E+03  0.91093609454E+02 0.  0.
         24    2    1    2    0    0 -0.29107907567E+02  0.15636600816E+02 -0.24900104475E+03  0.26317481667E+03  0.78534643797E+02 0.  0.
        -11    1    4    4    0    0  0.11948107912E+02 -0.24639815074E+02 -0.70222797593E+02  0.75373198628E+02  0.00000000000E+00 0.  1.
         12    1    4    4    0    0 -0.41056015479E+02  0.40276415890E+02 -0.17877824716E+03  0.18780161805E+03  0.00000000000E+00 0. -1.
        -13    1    3    3    0    0 -0.34012485932E+02 -0.96806566204E+00  0.83516601919E+02  0.90182088834E+02  0.00000000000E+00 0.  1.
         13    1    3    3    0    0  0.45183989578E+02 -0.46654228176E+02  0.76740206913E+02  0.10053491572E+03  0.00000000000E+00 0. -1.
         21    1    1    2  502  501  0.17936403921E+02  0.31985693022E+02  0.14542507698E+02  0.39449761392E+02  0.00000000000E+00 0. -1.
<scales pt_clust_5="13000.00000" pt_clust_6="13000.00000" pt_clust_7="13000.00000" pt_clust_8="13000.00000" pt_clust_9="36.67150"></scales>
<clustering>
<clus scale="   36.672">  1  9  2 -1</clus>
<clus scale="   78.535">  5  6 -1 -1</clus>
<clus scale="   85.204">  2  5  1 -1</clus>
<clus scale="   91.094">  7  8 -1 -1</clus>
<clus scale="   85.204">  2  5  1 -1</clus>
</clustering>
</event>
<event>
 9    2  0.3402837E-005  0.3478362E+03  0.7546771E-02  0.1109998E+00
         -1   -1    0    0    0  501 -0.00000000000E+00  0.00000000000E+00  0.32112545657E+03  0.32112545657E+03  0.00000000000E+00 0.  1.
          2   -1    0    0  502    0  0.00000000000E+00 -0.00000000000E+00 -0.60629874210E+03  0.60629874210E+03  0.00000000000E+00 0. -1.
         24    2    1    2    0    0  0.66212171144E+02 -0.44211421386E+02  0.36400184331E+02  0.10731254912E+03  0.62066966987E+02 0.  0.
         23    2    1    2    0    0  0.16577473262E+03 -0.26226726857E+03 -0.28533960698E+03  0.43402875206E+03  0.10342574229E+03 0.  0.
        -11    1    3    3    0    0  0.71880915797E+02 -0.52084242093E+02  0.24752267303E+02  0.92153725192E+02  0.00000000000E+00 0.  1.
         12    1    3    3    0    0 -0.56687446526E+01  0.78728207071E+01  0.11647917027E+02  0.15158823929E+02  0.00000000000E+00 0. -1.
        -11    1    4    4    0    0  0.39396353257E+02 -0.58555658986E+02 -0.13133058176E+03  0.14909245304E+03  0.00000000000E+00 0.  1.
         11    1    4    4    0    0  0.12637837936E+03 -0.20371160958E+03 -0.15400902522E+03  0.28493629902E+03  0.00000000000E+00 0. -1.
         21    1    1    2  502  501 -0.23198690376E+03  0.30647868996E+03 -0.36233862873E+02  0.38608289749E+03  0.00000000000E+00 0. -1.
<scales pt_clust_5="13000.00000" pt_clust_6="13000.00000" pt_clust_7="13000.00000" pt_clust_8="13000.00000" pt_clust_9="332.10413"></scales>
<clustering>
<clus scale="   62.067">  5  6 -1 -1</clus>
<clus scale="  100.951">  1  5  2 -1</clus>
<clus scale="  103.426">  7  8 -1 -1</clus>
<clus scale="  332.104">  1  9  2 -1</clus>
<clus scale="  347.836">  2  5  1 -1</clus>
</clustering>
</event>
<event>
 9    2  0.3402837E-005  0.1141686E+03  0.7546771E-02  0.1255447E+00
         -1   -1    0    0    0  501 -0.00000000000E+00  0.00000000000E+00  0.59629935471E+03  0.59629935471E+03  0.00000000000E+00 0.  1.
          2   -1    0    0  502    0  0.00000000000E+00 -0.00000000000E+00 -0.42706212318E+02  0.42706212318E+02  0.00000000000E+00 0. -1.
         24    2    1    2    0    0  0.44579100040E+02 -0.86845835544E+02  0.34504903344E+03  0.36846394129E+03  0.84719214137E+02 0.  0.
         23    2    1    2    0    0 -0.24932990377E+02  0.54247635959E+02  0.77085115006E+02  0.13368374569E+03  0.91459110480E+02 0.  0.
        -11    1    3    3    0    0  0.38632648179E+02 -0.30919097219E+02  0.27098599638E+03  0.27546666279E+03  0.00000000000E+00 0.  1.
         12    1    3    3    0    0  0.59464518607E+01 -0.55926738325E+02  0.74063037063E+02  0.92997278500E+02  0.00000000000E+00 0. -1.
        -13    1    4    4    0    0  0.32660788954E+02  0.87773432837E+01  0.12909108167E+02  0.36199640383E+02  0.00000000000E+00 0.  1.
         13    1    4    4    0    0 -0.57593779330E+02  0.45470292676E+02  0.64176006839E+02  0.97484105306E+02  0.00000000000E+00 0. -1.
         21    1    1    2  502  501 -0.19646109663E+02  0.32598199585E+02  0.13145899395E+03  0.13685788005E+03  0.00000000000E+00 0.  1.
<scales pt_clust_5="13000.00000" pt_clust_6="13000.00000" pt_clust_7="13000.00000" pt_clust_8="13000.00000" pt_clust_9="38.06064"></scales>
<clustering>
<clus scale="   38.061">  1  9  2 -1</clus>
<clus scale="   84.719">  5  6 -1 -1</clus>
<clus scale="   91.459">  7  8 -1 -1</clus>
<clus scale="  108.844">  1  5  2 -1</clus>
<clus scale="  114.169">  2  5  1 -1</clus>
</clustering>
</event>
<event>
 9    2  0.3402837E-005  0.1058728E+03  0.7546771E-02  0.1274062E+00
         -1   -1    0    0    0  501 -0.00000000000E+00  0.00000000000E+00  0.53577769650E+02  0.53577769650E+02  0.00000000000E+00 0.  1.
          2   -1    0    0  502    0  0.00000000000E+00 -0.00000000000E+00 -0.36218226949E+03  0.36218226949E+03  0.00000000000E+00 0. -1.
         24    2    1    2    0    0  0.23264966994E+02 -0.51498002948E+02 -0.35133969068E+02  0.10465636956E+03  0.80779062330E+02 0.  0.
         23    2    1    2    0    0 -0.41552279099E+02  0.27511332972E+02 -0.25406820382E+03  0.27523953134E+03  0.93395300081E+02 0.  0.
        -13    1    3    3    0    0 -0.17169362911E+02 -0.52216925803E+02 -0.70429617014E+01  0.55416583011E+02  0.00000000000E+00 0.  1.
         14    1    3    3    0    0  0.40434329905E+02  0.71892285425E+00 -0.28091007367E+02  0.49239786553E+02  0.00000000000E+00 0. -1.
        -13    1    4    4    0    0 -0.35045388154E+02 -0.30071421605E+02 -0.13777322573E+03  0.14530633626E+03  0.00000000000E+00 0.  1.
         13    1    4    4    0    0 -0.65068909446E+01  0.57582754577E+02 -0.11629497809E+03  0.12993319508E+03  0.00000000000E+00 0. -1.
         21    1    1    2  502  501  0.18287312105E+02  0.23986669976E+02 -0.19402326949E+02  0.35864138239E+02  0.00000000000E+00 0. -1.
<scales pt_clust_5="13000.00000" pt_clust_6="13000.00000" pt_clust_7="13000.00000" pt_clust_8="13000.00000" pt_clust_9="30.16266"></scales>
<clustering>
<clus scale="   30.163">  1  9  2 -1</clus>
<clus scale="   80.779">  5  6 -1 -1</clus>
<clus scale="   93.395">  7  8 -1 -1</clus>
<clus scale="   94.930">  1  5  2 -1</clus>
<clus scale="  105.873">  2  5  1 -1</clus>
</clustering>
</event>
<event>
 9    2  0.3402837E-005  0.1020064E+03  0.7546771E-02  0.1281981E+00
         -1   -1    0    0    0  501 -0.00000000000E+00  0.00000000000E+00  0.27204396080E+02  0.27204396080E+02  0.00000000000E+00 0.  1.
          2   -1    0    0  502    0  0.00000000000E+00 -0.00000000000E+00 -0.59295525789E+03  0.59295525789E+03  0.00000000000E+00 0. -1.
         23    2    1    2    0    0 -0.19495009045E+02  0.36491566139E+02 -0.11654856496E+03  0.15515136355E+03  0.93683978570E+02 0.  0.
         24    2    1    2    0    0 -0.51203185551E+01 -0.42944382497E+02 -0.38443317348E+03  0.39541955186E+03  0.81837152154E+02 0.  0.
        -11    1    4    4    0    0 -0.34111112973E+02 -0.31588952471E+02 -0.11276254861E+03  0.12197057971E+03  0.00000000000E+00 0.  1.
         12    1    4    4    0    0  0.28990794418E+02 -0.11355430026E+02 -0.27167062487E+03  0.27344897215E+03  0.00000000000E+00 0. -1.
        -13    1    3    3    0    0  0.36633368805E+01  0.46686251565E+02 -0.12074001373E+03  0.12950357925E+03  0.00000000000E+00 0. -1.
         13    1    3    3    0    0 -0.23158345926E+02 -0.10194685426E+02  0.41914487697E+01  0.25647784305E+02  0.00000000000E+00 0.  1.
         21    1    1    2  502  501  0.24615327600E+02  0.64528163572E+01 -0.64769123373E+02  0.69588738559E+02  0.00000000000E+00 0. -1.
<scales pt_clust_5="13000.00000" pt_clust_6="13000.00000" pt_clust_7="13000.00000" pt_clust_8="13000.00000" pt_clust_9="25.44707"></scales>
<clustering>
<clus scale="   25.447">  2  9  1 -1</clus>
<clus scale="   81.837">  5  6 -1 -1</clus>
<clus scale="   91.247">  2  5  1 -1</clus>
<clus scale="   93.684">  7  8 -1 -1</clus>
<clus scale="   25.447">  2  5  1 -1</clus>
</clustering>
</event>
<event>
 9    2  0.3402837E-005  0.1327009E+03  0.7546771E-02  0.1226047E+00
         -1   -1    0    0    0  501 -0.00000000000E+00  0.00000000000E+00  0.11998651572E+03  0.11998651572E+03  0.00000000000E+00 0.  1.
          2   -1    0    0  502    0  0.00000000000E+00 -0.00000000000E+00 -0.38468401236E+03  0.38468401236E+03  0.00000000000E+00 0. -1.
         23    2    1    2    0    0 -0.42523251688E+02 -0.96485148733E+02  0.29543742687E+02  0.14230250566E+03  0.90882118841E+02 0.  0.
         24    2    1    2    0    0  0.22161802250E+02  0.93073451433E+02 -0.31136528684E+03  0.33554524656E+03  0.80550964001E+02 0.  0.
        -13    1    4    4    0    0  0.12128282172E+02  0.28898241108E+02 -0.20346214095E+02  0.37365384991E+02  0.00000000000E+00 0.  1.
         14    1    4    4    0    0  0.10033520078E+02  0.64175210325E+02 -0.29101907274E+03  0.29817986157E+03  0.00000000000E+00 0. -1.
        -13    1    3    3    0    0 -0.44933474301E+02 -0.32720447680E+01  0.20910553196E+01  0.45100952341E+02  0.00000000000E+00 0. -1.
         13    1    3    3    0    0  0.24102226135E+01 -0.93213103965E+02  0.27452687367E+02  0.97201553318E+02  0.00000000000E+00 0.  1.
         21    1    1    2  502  501  0.20361449437E+02  0.34116972997E+01  0.17124047505E+02  0.26822775856E+02  0.00000000000E+00 0.  1.
<scales pt_clust_5="13000.00000" pt_clust_6="13000.00000" pt_clust_7="13000.00000" pt_clust_8="13000.00000" pt_clust_9="20.64530"></scales>
<clustering>
<clus scale="   20.645">  1  9  2 -1</clus>
<clus scale="   80.551">  5  6 -1 -1</clus>
<clus scale="   90.882">  7  8 -1 -1</clus>
<clus scale="  125.851">  2  5  1 -1</clus>
<clus scale="  125.851">  2  5  1 -1</clus>
</clustering>
</event>
<event>
 9    2  0.3402837E-005  0.1112470E+03  0.7546771E-02  0.1262737E+00
         -1   -1    0    0    0  501 -0.00000000000E+00  0.00000000000E+00  0.19246196476E+02  0.19246196476E+02  0.00000000000E+00 0.  1.
          2   -1    0    0  502    0  0.00000000000E+00 -0.00000000000E+00 -0.11338186801E+04  0.11338186801E+04  0.00000000000E+00 0. -1.
         23    2    1    2    0    0  0.13315022033E+02 -0.65183854325E+02 -0.26644422146E+03  0.28983939324E+03  0.92672142793E+02 0.  0.
         24    2    1    2    0    0 -0.43678612048E+02  0.44682017930E+02 -0.77162811796E+03  0.77840481983E+03  0.81239197635E+02 0.  0.
        -13    1    4    4    0    0 -0.54525989360E+02  0.50685756634E+02 -0.41922401744E+03  0.42578269838E+03  0.00000000000E+00 0.  1.
         14    1    4    4    0    0  0.10847377312E+02 -0.60037387043E+01 -0.35240410053E+03  0.35262212146E+03  0.00000000000E+00 0. -1.
        -11    1    3    3    0    0 -0.34734062731E+02 -0.20924002447E+02 -0.15904159847E+03  0.16412951909E+03  0.00000000000E+00 0.  1.
         11    1    3    3    0    0  0.48049084763E+02 -0.44259851877E+02 -0.10740262298E+03  0.12570987415E+03  0.00000000000E+00 0. -1.
         21    1    1    2  502  501  0.30363590016E+02  0.20501836395E+02 -0.76500144234E+02  0.84820663532E+02  0.00000000000E+00 0.  1.
<scales pt_clust_5="13000.00000" pt_clust_6="13000.00000" pt_clust_7="13000.00000" pt_clust_8="13000.00000" pt_clust_9="36.63704"></scales>
<clustering>
<clus scale="   36.637">  1  9  2 -1</clus>
<clus scale="   81.239">  5  6 -1 -1</clus>
<clus scale="   92.672">  7  8 -1 -1</clus>
<clus scale="  101.919">  2  5  1 -1</clus>
<clus scale="  101.919">  2  5  1 -1</clus>
</clustering>
</event>
<event>
 9    2  0.3402837E-005  0.8735538E+02  0.7546771E-02  0.1313657E+00
          2   -1    0    0  502    0  0.00000000000E+00  0.00000000000E+00  0.59662945836E+03  0.59662945836E+03  0.00000000000E+00 0. -1.
         -1   -1    0    0    0  501 -0.00000000000E+00 -0.00000000000E+00 -0.29712098160E+02  0.29712098160E+02  0.00000000000E+00 0.  1.
         23    2    1    2    0    0 -0.56922091131E+01 -0.13352100425E+02  0.76881376748E+02  0.11681607978E+03  0.86744282653E+02 0.  0.
         24    2    1    2    0    0  0.58006704007E+00 -0.14417117763E+02  0.46405847148E+03  0.47115759169E+03  0.80193649957E+02 0.  0.
        -13    1    4    4    0    0  0.16496373648E+01 -0.44719868734E+02  0.17974818963E+03  0.18523498492E+03  0.00000000000E+00 0.  1.
         14    1    4    4    0    0 -0.10695703248E+01  0.30302750971E+02  0.28431028185E+03  0.28592260677E+03  0.00000000000E+00 0. -1.
        -11    1    3    3    0    0 -0.34413019046E+02  0.23067668354E+02  0.32999773665E+02  0.52965632868E+02  0.00000000000E+00 0. -1.
         11    1    3    3    0    0  0.28720809933E+02 -0.36419768779E+02  0.43881603083E+02  0.63850446908E+02  0.00000000000E+00 0.  1.
         21    1    1    2  502  501  0.51121420730E+01  0.27769218187E+02  0.25977511978E+02  0.38367885059E+02  0.00000000000E+00 0. -1.
<scales pt_clust_5="13000.00000" pt_clust_6="13000.00000" pt_clust_7="13000.00000" pt_clust_8="13000.00000" pt_clust_9="28.23585"></scales>
<clustering>
<clus scale="   28.236">  2  9  1 -1</clus>
<clus scale="   80.194">  5  6 -1 -1</clus>
<clus scale="   80.854">  1  5  2 -1</clus>
<clus scale="   86.744">  7  8 -1 -1</clus>
<clus scale="   80.854">  1  5  2 -1</clus>
</clustering>
</event>
<event>
 9    2  0.3402837E-005  0.1963072E+03  0.7546771E-02  0.1172563E+00
          2   -1    0    0  502    0  0.00000000000E+00  0.00000000000E+00  0.86647128992E+03  0.86647128992E+03  0.00000000000E+00 0. -1.
         -1   -1    0    0    0  501 -0.00000000000E+00 -0.00000000000E+00 -0.22069999876E+03  0.22069999876E+03  0.00000000000E+00 0.  1.
         23    2    1    2    0    0  0.68887057783E+02 -0.46120926592E+02 -0.10911639265E+03  0.16551500845E+03  0.92823834632E+02 0.  0.
         24    2    1    2    0    0 -0.79018882588E+02  0.17334022953E+03  0.76611829350E+03  0.79354097471E+03  0.80493601779E+02 0.  0.
        -11    1    4    4    0    0 -0.21384865385E+02  0.13474815022E+03  0.46958074048E+03  0.48899943587E+03  0.00000000000E+00 0.  1.
         12    1    4    4    0    0 -0.57634017203E+02  0.38592079305E+02  0.29653755302E+03  0.30454153884E+03  0.00000000000E+00 0. -1.
        -13    1    3    3    0    0  0.52947247520E+02 -0.74403566549E+02 -0.72668389336E+02  0.11670474088E+03  0.00000000000E+00 0.  1.
         13    1    3    3    0    0  0.15939810263E+02  0.28282639956E+02 -0.36448003319E+02  0.48810267568E+02  0.00000000000E+00 0. -1.
         21    1    1    2  502  501  0.10131824805E+02 -0.12721930293E+03 -0.11230609693E+02  0.12811530551E+03  0.00000000000E+00 0.  1.
<scales pt_clust_5="13000.00000" pt_clust_6="13000.00000" pt_clust_7="13000.00000" pt_clust_8="13000.00000" pt_clust_9="179.04547"></scales>
<clustering>
<clus scale="   80.494">  5  6 -1 -1</clus>
<clus scale="   92.824">  7  8 -1 -1</clus>
<clus scale="  124.454">  2  7  1 -1</clus>
<clus scale="  179.045">  2  9  1 -1</clus>
<clus scale="  196.307">  1  5  2 -1</clus>
</clustering>
</event>
<event>
 9    2  0.3402837E-005  0.1870878E+03  0.7546771E-02  0.1161871E+00
         -1   -1    0    0    0  501 -0.00000000000E+00  0.00000000000E+00  0.27690447950E+03  0.27690447950E+03  0.00000000000E+00 0.  1.
          2   -1    0    0  502    0  0.00000000000E+00 -0.00000000000E+00 -0.36478860636E+03  0.36478860636E+03  0.00000000000E+00 0. -1.
         23    2    1    2    0    0  0.12150606739E+03 -0.13454312149E+03  0.52925845439E+02  0.20923734211E+03  0.90075214476E+02 0.  0.
         24    2    1    2    0    0 -0.81704372131E+02  0.13850292942E+03 -0.25429004782E+03  0.31213291730E+03  0.83095509872E+02 0.  0.
        -11    1    4    4    0    0 -0.14658437475E+02  0.26805118524E+02 -0.51418156198E+01  0.30981001213E+02  0.00000000000E+00 0.  1.
         12    1    4    4    0    0 -0.67045934656E+02  0.11169781090E+03 -0.24914823220E+03  0.28115191609E+03  0.00000000000E+00 0. -1.
        -11    1    3    3    0    0  0.86897954183E+02 -0.40047275593E+02  0.51351629948E+02  0.10859110747E+03  0.00000000000E+00 0. -1.
         11    1    3    3    0    0  0.34608113209E+02 -0.94495845899E+02  0.15742154914E+01  0.10064623464E+03  0.00000000000E+00 0.  1.
         21    1    1    2  502  501 -0.39801695262E+02 -0.39598079293E+01  0.11348007552E+03  0.12032282645E+03  0.00000000000E+00 0. -1.
<scales pt_clust_5="13000.00000" pt_clust_6="13000.00000" pt_clust_7="13000.00000" pt_clust_8="13000.00000" pt_clust_9="39.99819"></scales>
<clustering>
<clus scale="   39.998">  1  9  2 -1</clus>
<clus scale="   83.096">  5  6 -1 -1</clus>
<clus scale="   90.075">  7  8 -1 -1</clus>
<clus scale="  183.829">  2  5  1 -1</clus>
<clus scale="  183.829">  2  5  1 -1</clus>
</clustering>
</event>
<event>
 9    2  0.3402837E-005  0.3679570E+03  0.7546771E-02  0.1055722E+00
          2   -1    0    0  502    0  0.00000000000E+00  0.00000000000E+00  0.17530359852E+04  0.17530359852E+04  0.00000000000E+00 0. -1.
         -1   -1    0    0    0  501 -0.00000000000E+00 -0.00000000000E+00 -0.18410503005E+03  0.18410503005E+03  0.00000000000E+00 0.  1.
         23    2    1    2    0    0  0.57443997774E+02  0.31703214819E+03  0.68853074837E+02  0.34178127783E+03  0.90909295963E+02 0.  0.
         24    2    1    2    0    0 -0.12587359839E+03 -0.34057991180E+03  0.14711801127E+04  0.15174354897E+04  0.80004388317E+02 0.  0.
        -13    1    4    4    0    0 -0.44962710751E+02 -0.14797859525E+03  0.47348849135E+03  0.49810707830E+03  0.00000000000E+00 0.  1.
         14    1    4    4    0    0 -0.80910887637E+02 -0.19260131656E+03  0.99769162139E+03  0.10193284114E+04  0.00000000000E+00 0. -1.
        -13    1    3    3    0    0  0.46672818357E+02  0.25897738006E+03  0.17844064822E+02  0.26375376017E+03  0.00000000000E+00 0.  1.
         13    1    3    3    0    0  0.10771179417E+02  0.58054768134E+02  0.51009010015E+02  0.78027517658E+02  0.00000000000E+00 0. -1.
         21    1    1    2  502  501  0.68429600614E+02  0.23547763613E+02  0.28897767544E+02  0.77924247705E+02  0.00000000000E+00 0.  1.
<scales pt_clust_5="13000.00000" pt_clust_6="13000.00000" pt_clust_7="13000.00000" pt_clust_8="13000.00000" pt_clust_9="72.36786"></scales>
<clustering>
<clus scale="   72.368">  2  9  1 -1</clus>
<clus scale="   80.004">  5  6 -1 -1</clus>
<clus scale="   90.909">  7  8 -1 -1</clus>
<clus scale="  365.416">  1  5  2 -1</clus>
<clus scale="  365.416">  1  5  2 -1</clus>
</clustering>
</event>
<event>
 9    2  0.3402837E-005  0.1072046E+03  0.7546771E-02  0.1272117E+00
         -1   -1    0    0    0  501 -0.00000000000E+00  0.00000000000E+00  0.11658333777E+03  0.11658333777E+03  0.00000000000E+00 0.  1.
          2   -1    0    0  502    0  0.00000000000E+00 -0.00000000000E+00 -0.15182781285E+03  0.15182781285E+03  0.00000000000E+00 0. -1.
         24    2    1    2    0    0 -0.42909793886E+02 -0.45500984510E+02 -0.86006764322E+01  0.10154078734E+03  0.79529679084E+02 0.  0.
         23    2    1    2    0    0  0.45184817676E+02  0.14721604887E+02 -0.60262815463E+02  0.12123283228E+03  0.93847745296E+02 0.  0.
        -11    1    3    3    0    0 -0.14886230221E+02  0.21677379505E+02  0.67534563377E+01  0.27149913534E+02  0.00000000000E+00 0.  1.
         12    1    3    3    0    0 -0.28023563664E+02 -0.67178364015E+02 -0.15354132770E+02  0.74390873803E+02  0.00000000000E+00 0. -1.
        -13    1    4    4    0    0  0.99245522384E+01  0.44771967986E+02 -0.81667106316E+00  0.45866031070E+02  0.00000000000E+00 0.  1.
         13    1    4    4    0    0  0.35260265438E+02 -0.30050363100E+02 -0.59446144400E+02  0.75366801214E+02  0.00000000000E+00 0. -1.
         21    1    1    2  502  501 -0.22750237909E+01  0.30779379623E+02  0.33619016816E+02  0.45637530991E+02  0.00000000000E+00 0.  1.
<scales pt_clust_5="13000.00000" pt_clust_6="13000.00000" pt_clust_7="13000.00000" pt_clust_8="13000.00000" pt_clust_9="30.86334"></scales>
<clustering>
<clus scale="   30.863">  1  9  2 -1</clus>
<clus scale="   79.530">  5  6 -1 -1</clus>
<clus scale="   93.848">  7  8 -1 -1</clus>
<clus scale="   94.923">  1  5  2 -1</clus>
<clus scale="  107.205">  2  5  1 -1</clus>
</clustering>
</event>
<event>
 9    2  0.3402837E-005  0.1111153E+03  0.7546771E-02  0.1258771E+00
          2   -1    0    0  502    0  0.00000000000E+00  0.00000000000E+00  0.10250735855E+03  0.10250735855E+03  0.00000000000E+00 0. -1.
         -1   -1    0    0    0  501 -0.00000000000E+00 -0.00000000000E+00 -0.36064299166E+03  0.36064299166E+03  0.00000000000E+00 0.  1.
         24    2    1    2    0    0 -0.22079681874E+02  0.58323744443E+02 -0.19893153708E+03  0.22758460682E+03  0.91278832712E+02 0.  0.
         23    2    1    2    0    0 -0.45565636370E+02 -0.52194284956E+02  0.35106940149E+02  0.11934168866E+03  0.90606130064E+02 0.  0.
        -11    1    3    3    0    0 -0.51278915909E+02  0.73485427304E+01 -0.93103997293E+02  0.10654521392E+03  0.00000000000E+00 0.  1.
         12    1    3    3    0    0  0.29199234035E+02  0.50975201712E+02 -0.10582753978E+03  0.12103939290E+03  0.00000000000E+00 0. -1.
        -11    1    4    4    0    0  0.16862694391E+02  0.11046286212E+02 -0.65541348875E+01  0.21197348544E+02  0.00000000000E+00 0. -1.
         11    1    4    4    0    0 -0.62428330761E+02 -0.63240571167E+02  0.41661075036E+02  0.98144340114E+02  0.00000000000E+00 0.  1.
         21    1    1    2  502  501  0.67645318245E+02 -0.61294594869E+01 -0.94311036175E+02  0.11622405473E+03  0.00000000000E+00 0. -1.
<scales pt_clust_5="13000.00000" pt_clust_6="13000.00000" pt_clust_7="13000.00000" pt_clust_8="13000.00000" pt_clust_9="67.92245"></scales>
<clustering>
<clus scale="   67.922">  2  9  1 -1</clus>
<clus scale="   90.606">  7  8 -1 -1</clus>
<clus scale="   91.279">  5  6 -1 -1</clus>
<clus scale="  110.563">  1  7  2 -1</clus>
<clus scale="  110.563">  1  5  2 -1</clus>
</clustering>
</event>
<event>
 9    2  0.3402837E-005  0.1209661E+03  0.7546771E-02  0.1244568E+00
         -1   -1    0    0    0  501 -0.00000000000E+00  0.00000000000E+00  0.63578285448E+02  0.63578285448E+02  0.00000000000E+00 0.  1.
          2   -1    0    0  502    0  0.00000000000E+00 -0.00000000000E+00 -0.43718254053E+03  0.43718254053E+03  0.00000000000E+00 0. -1.
         24    2    1    2    0    0 -0.10430547131E+03 -0.30820284903E+02 -0.86968484374E+02  0.15997726171E+03  0.78738082787E+02 0.  0.
         23    2    1    2    0    0  0.69233414878E+02  0.25537971344E+02 -0.28233674516E+03  0.30505635336E+03  0.88881310415E+02 0.  0.
        -13    1    3    3    0    0 -0.20462645854E+02 -0.28501833908E+02  0.50731491265E+01  0.35451533867E+02  0.00000000000E+00 0.  1.
         14    1    3    3    0    0 -0.83842825460E+02 -0.23184509941E+01 -0.92041633501E+02  0.12452572784E+03  0.00000000000E+00 0. -1.
        -11    1    4    4    0    0 -0.10637473553E+02 -0.17994136555E+02 -0.27997761152E+02  0.34940226437E+02  0.00000000000E+00 0.  1.
         11    1    4    4    0    0  0.79870888432E+02  0.43532107900E+02 -0.25433898401E+03  0.27011612692E+03  0.00000000000E+00 0. -1.
         21    1    1    2  502  501  0.35072056436E+02  0.52823135581E+01 -0.42990255514E+01  0.35727210916E+02  0.00000000000E+00 0. -1.
<scales pt_clust_5="13000.00000" pt_clust_6="13000.00000" pt_clust_7="13000.00000" pt_clust_8="13000.00000" pt_clust_9="35.46762"></scales>
<clustering>
<clus scale="   35.468">  1  9  2 -1</clus>
<clus scale="   78.738">  5  6 -1 -1</clus>
<clus scale="   88.881">  7  8 -1 -1</clus>
<clus scale="  113.722">  1  5  2 -1</clus>
<clus scale="  120.966">  2  5  1 -1</clus>
</clustering>
</event>
<event>
 9    2  0.3402837E-005  0.1804847E+03  0.7546771E-02  0.1202039E+00
          2   -1    0    0  502    0  0.00000000000E+00  0.00000000000E+00  0.10722020290E+04  0.10722020290E+04  0.00000000000E+00 0. -1.
         -1   -1    0    0    0  501 -0.00000000000E+00 -0.00000000000E+00 -0.85563441491E+02  0.85563441491E+02  0.00000000000E+00 0.  1.
         23    2    1    2    0    0  0.14858792764E+03 -0.60308890290E+02  0.56180743576E+02  0.19040475185E+03  0.85919491912E+02 0.  0.
         24    2    1    2    0    0 -0.24971643475E+00  0.17980405797E+02  0.55874158621E+03  0.56490711665E+03  0.81268277488E+02 0.  0.
        -11    1    4    4    0    0 -0.20782818981E+02 -0.84744649463E+01  0.47136791600E+02  0.52207463482E+02  0.00000000000E+00 0.  1.
         12    1    4    4    0    0  0.20533102546E+02  0.26454870744E+02  0.51160479461E+03  0.51269965317E+03  0.00000000000E+00 0. -1.
        -11    1    3    3    0    0  0.14351692529E+03 -0.29902560505E+02  0.61760701282E+02  0.15907751316E+03  0.00000000000E+00 0.  1.
         11    1    3    3    0    0  0.50710023410E+01 -0.30406329784E+02 -0.55799577066E+01  0.31327238686E+02  0.00000000000E+00 0. -1.
         21    1    1    2  502  501 -0.14833821120E+03  0.42328484492E+02  0.37171625768E+03  0.40245360195E+03  0.00000000000E+00 0.  1.
<scales pt_clust_5="13000.00000" pt_clust_6="13000.00000" pt_clust_7="13000.00000" pt_clust_8="13000.00000" pt_clust_9="158.72167"></scales>
<clustering>
<clus scale="   81.268">  5  6 -1 -1</clus>
<clus scale="   83.234">  1  5  2 -1</clus>
<clus scale="   85.919">  7  8 -1 -1</clus>
<clus scale="  158.722">  1  9  2 -1</clus>
<clus scale="   83.234">  1  5  2 -1</clus>
</clustering>
</event>
<event>
 9    2  0.3402837E-005  0.9807630E+02  0.7546771E-02  0.1288519E+00
         -1   -1    0    0    0  501 -0.00000000000E+00  0.00000000000E+00  0.84250675081E+02  0.84250675081E+02  0.00000000000E+00 0.  1.
          2   -1    0    0  502    0  0.00000000000E+00 -0.00000000000E+00 -0.28180891544E+03  0.28180891544E+03  0.00000000000E+00 0. -1.
         23    2    1    2    0    0  0.29070995019E+02  0.49556266490E+02  0.16386394342E+02  0.10852594446E+03  0.90600333341E+02 0.  0.
         24    2    1    2    0    0 -0.27333005924E+02 -0.22008668505E+02 -0.21158047010E+03  0.22983021604E+03  0.82608463102E+02 0.  0.
        -11    1    4    4    0    0 -0.29010587819E+02 -0.86093281008E+01 -0.16857806043E+02  0.34639866635E+02  0.00000000000E+00 0.  1.
         12    1    4    4    0    0  0.16775818947E+01 -0.13399340404E+02 -0.19472266405E+03  0.19519034941E+03  0.00000000000E+00 0. -1.
        -11    1    3    3    0    0  0.42789127907E+02  0.69688580711E+01  0.39071410458E+02  0.58361370486E+02  0.00000000000E+00 0.  1.
         11    1    3    3    0    0 -0.13718132888E+02  0.42587408419E+02 -0.22685016115E+02  0.50164573973E+02  0.00000000000E+00 0. -1.
         21    1    1    2  502  501 -0.17379890950E+01 -0.27547597985E+02 -0.23641646067E+01  0.27703430024E+02  0.00000000000E+00 0.  1.
<scales pt_clust_5="13000.00000" pt_clust_6="13000.00000" pt_clust_7="13000.00000" pt_clust_8="13000.00000" pt_clust_9="27.60237"></scales>
<clustering>
<clus scale="   27.602">  1  9  2 -1</clus>
<clus scale="   82.608">  5  6 -1 -1</clus>
<clus scale="   90.600">  7  8 -1 -1</clus>
<clus scale="   90.745">  2  5  1 -1</clus>
<clus scale="   90.745">  2  5  1 -1</clus>
</clustering>
</event>
<event>
 9    2  0.3402837E-005  0.1033887E+03  0.7546771E-02  0.1275735E+00
          2   -1    0    0  502    0  0.00000000000E+00  0.00000000000E+00  0.73837794304E+03  0.73837794304E+03  0.00000000000E+00 0. -1.
         -1   -1    0    0    0  501 -0.00000000000E+00 -0.00000000000E+00 -0.30561784744E+02  0.30561784744E+02  0.00000000000E+00 0.  1.
         23    2    1    2    0    0  0.32518921436E+02  0.48703563555E+02  0.32793072958E+03  0.34478207406E+03  0.88919052182E+02 0.  0.
         24    2    1    2    0    0 -0.51318876026E+02 -0.16227086244E+02  0.37301963416E+03  0.38600927229E+03  0.83441988589E+02 0.  0.
        -11    1    4    4    0    0 -0.33684967432E+02 -0.21837574867E+02  0.58520668522E+02  0.70966367747E+02  0.00000000000E+00 0.  1.
         12    1    4    4    0    0 -0.17633908594E+02  0.56104886225E+01  0.31449896564E+03  0.31504290454E+03  0.00000000000E+00 0. -1.
        -13    1    3    3    0    0  0.43432100785E+00  0.58907392008E+02  0.28048501151E+03  0.28660445068E+03  0.00000000000E+00 0. -1.
         13    1    3    3    0    0  0.32084600428E+02 -0.10203828453E+02  0.47445718067E+02  0.58177623384E+02  0.00000000000E+00 0.  1.
         21    1    1    2  502  501  0.18799954589E+02 -0.32476477311E+02  0.68657945632E+01  0.38148381434E+02  0.00000000000E+00 0.  1.
<scales pt_clust_5="13000.00000" pt_clust_6="13000.00000" pt_clust_7="13000.00000" pt_clust_8="13000.00000" pt_clust_9="37.52546"></scales>
<clustering>
<clus scale="   37.525">  2  9  1 -1</clus>
<clus scale="   83.442">  5  6 -1 -1</clus>
<clus scale="   88.919">  7  8 -1 -1</clus>
<clus scale="   98.718">  1  5  2 -1</clus>
<clus scale="   98.718">  1  5  2 -1</clus>
</clustering>
</event>
<event>
 9    2  0.3402837E-005  0.1910944E+03  0.7546771E-02  0.1158167E+00
         -1   -1    0    0    0  501 -0.00000000000E+00  0.00000000000E+00  0.45286586333E+02  0.45286586333E+02  0.00000000000E+00 0.  1.
          2   -1    0    0  502    0  0.00000000000E+00 -0.00000000000E+00 -0.11935317842E+04  0.11935317842E+04  0.00000000000E+00 0. -1.
         24    2    1    2    0    0  0.12247020096E+03  0.14963370431E+03 -0.63401662460E+03  0.66776979717E+03  0.80933467453E+02 0.  0.
         23    2    1    2    0    0 -0.74905106152E+02 -0.12926797072E+03 -0.47644741682E+03  0.50698128739E+03  0.87788960487E+02 0.  0.
        -11    1    3    3    0    0  0.24280496126E+02  0.18116404500E+02 -0.33224834596E+02  0.44962609333E+02  0.00000000000E+00 0.  1.
         12    1    3    3    0    0  0.98189704833E+02  0.13151729981E+03 -0.60079179001E+03  0.62280718784E+03  0.00000000000E+00 0. -1.
        -11    1    4    4    0    0 -0.52675932605E+02 -0.13088187979E+03 -0.45372080769E+03  0.47514986233E+03  0.00000000000E+00 0.  1.
         11    1    4    4    0    0 -0.22229173547E+02  0.16139090681E+01 -0.22726609126E+02  0.31831425062E+02  0.00000000000E+00 0. -1.
         21    1    1    2  502  501 -0.47565094807E+02 -0.20365733590E+02 -0.37781156424E+02  0.64067285953E+02  0.00000000000E+00 0. -1.
<scales pt_clust_5="13000.00000" pt_clust_6="13000.00000" pt_clust_7="13000.00000" pt_clust_8="13000.00000" pt_clust_9="51.74168"></scales>
<clustering>
<clus scale="   51.742">  1  9  2 -1</clus>
<clus scale="   80.933">  5  6 -1 -1</clus>
<clus scale="   87.789">  7  8 -1 -1</clus>
<clus scale="  188.044">  1  5  2 -1</clus>
<clus scale="  191.094">  2  5  1 -1</clus>
</clustering>
</event>
<event>
 9    2  0.3402837E-005  0.1231353E+03  0.7546771E-02  0.1238879E+00
          2   -1    0    0  502    0  0.00000000000E+00  0.00000000000E+00  0.79946631431E+03  0.79946631431E+03  0.00000000000E+00 0. -1.
         -1   -1    0    0    0  501 -0.00000000000E+00 -0.00000000000E+00 -0.68600660469E+02  0.68600660469E+02  0.00000000000E+00 0.  1.
         23    2    1    2    0    0 -0.83262452504E+02  0.66355888863E+02  0.20159093570E+03  0.24310643162E+03  0.84416181831E+02 0.  0.
         24    2    1    2    0    0  0.56284045992E+02 -0.63823545127E+02  0.56668428227E+03  0.57876830712E+03  0.81242469220E+02 0.  0.
        -11    1    4    4    0    0  0.13153928072E+02 -0.55585142418E+02  0.16331231590E+03  0.17301342840E+03  0.00000000000E+00 0.  1.
         12    1    4    4    0    0  0.43130117921E+02 -0.82384027084E+01  0.40337196637E+03  0.40575487872E+03  0.00000000000E+00 0. -1.
        -11    1    3    3    0    0 -0.42850776983E+02 -0.11516740244E+02  0.96464223974E+02  0.10617989876E+03  0.00000000000E+00 0.  1.
         11    1    3    3    0    0 -0.40411675521E+02  0.77872629108E+02  0.10512671172E+03  0.13692653286E+03  0.00000000000E+00 0. -1.
         21    1    1    2  502  501  0.26978406512E+02 -0.25323437367E+01 -0.37409564126E+02  0.46192236045E+02  0.00000000000E+00 0.  1.
<scales pt_clust_5="13000.00000" pt_clust_6="13000.00000" pt_clust_7="13000.00000" pt_clust_8="13000.00000" pt_clust_9="27.09700"></scales>
<clustering>
<clus scale="   27.097">  2  9  1 -1</clus>
<clus scale="   81.242">  5  6 -1 -1</clus>
<clus scale="   84.416">  7  8 -1 -1</clus>
<clus scale="  120.982">  1  5  2 -1</clus>
<clus scale="  120.982">  1  5  2 -1</clus>
</clustering>
</event>
<event>
 9    2  0.3402837E-005  0.2345392E+03  0.7546771E-02  0.1124119E+00
          2   -1    0    0  502    0  0.00000000000E+00  0.00000000000E+00  0.17442782516E+04  0.17442782516E+04  0.00000000000E+00 0. -1.
         -1   -1    0    0    0  501 -0.00000000000E+00 -0.00000000000E+00 -0.47574841588E+02  0.47574841588E+02  0.00000000000E+00 0.  1.
         23    2    1    2    0    0 -0.23623474678E+02  0.22709369066E+03  0.40545400844E+03  0.47421082762E+03  0.91396625650E+02 0.  0.
         24    2    1    2    0    0  0.33804324244E+02 -0.20972199325E+03  0.12605976303E+04  0.12809686149E+04  0.81536250602E+02 0.  0.
        -13    1    4    4    0    0  0.53427568492E+02 -0.15198339512E+03  0.77578148076E+03  0.79233223042E+03  0.00000000000E+00 0.  1.
         14    1    4    4    0    0 -0.19623244248E+02 -0.57738598133E+02  0.48481614953E+03  0.48863638452E+03  0.00000000000E+00 0. -1.
        -11    1    3    3    0    0  0.18115464711E+02  0.11548101509E+03  0.13441179413E+03  0.17813075341E+03  0.00000000000E+00 0.  1.
         11    1    3    3    0    0 -0.41738939388E+02  0.11161267557E+03  0.27104221431E+03  0.29608007421E+03  0.00000000000E+00 0. -1.
         21    1    1    2  502  501 -0.10180849567E+02 -0.17371697406E+02  0.30651771333E+02  0.36673650684E+02  0.00000000000E+00 0. -1.
<scales pt_clust_5="13000.00000" pt_clust_6="13000.00000" pt_clust_7="13000.00000" pt_clust_8="13000.00000" pt_clust_9="20.13518"></scales>
<clustering>
<clus scale="   20.135">  2  9  1 -1</clus>
<clus scale="   81.536">  5  6 -1 -1</clus>
<clus scale="   91.397">  7  8 -1 -1</clus>
<clus scale="  230.875">  1  5  2 -1</clus>
<clus scale="  230.875">  1  5  2 -1</clus>
</clustering>
</event>
<event>
 9    2  0.3402837E-005  0.1037448E+03  0.7546771E-02  0.1277650E+00
         -1   -1    0    0    0  501 -0.00000000000E+00  0.00000000000E+00  0.13855575128E+02  0.13855575128E+02  0.00000000000E+00 0.  1.
          2   -1    0    0  502    0  0.00000000000E+00 -0.00000000000E+00 -0.17320302178E+04  0.17320302178E+04  0.00000000000E+00 0. -1.
         23    2    1    2    0    0 -0.89887353037E+00  0.59511919262E+01 -0.29882657063E+03  0.31266196862E+03  0.91782147749E+02 0.  0.
         24    2    1    2    0    0 -0.64178894329E+02  0.59570874003E+01 -0.11911886574E+04  0.11956661650E+04  0.80825388004E+02 0.  0.
        -11    1    4    4    0    0 -0.39875376172E+02  0.20274788695E+01 -0.18881933757E+03  0.19299455572E+03  0.00000000000E+00 0.  1.
         12    1    4    4    0    0 -0.24303518157E+02  0.39296085308E+01 -0.10023693198E+04  0.10026716093E+04  0.00000000000E+00 0. -1.
        -13    1    3    3    0    0  0.35952979952E+02  0.21316324066E+02 -0.22383353942E+03  0.22770255995E+03  0.00000000000E+00 0.  1.
         13    1    3    3    0    0 -0.36851853482E+02 -0.15365132140E+02 -0.74993031217E+02  0.84959408672E+02  0.00000000000E+00 0. -1.
         21    1    1    2  502  501  0.65077767859E+02 -0.11908279327E+02 -0.22815941462E+03  0.23755765925E+03  0.00000000000E+00 0. -1.
<scales pt_clust_5="13000.00000" pt_clust_6="13000.00000" pt_clust_7="13000.00000" pt_clust_8="13000.00000" pt_clust_9="66.15832"></scales>
<clustering>
<clus scale="   66.158">  1  9  2 -1</clus>
<clus scale="   80.825">  5  6 -1 -1</clus>
<clus scale="   91.782">  7  8 -1 -1</clus>
<clus scale="   94.190">  2  5  1 -1</clus>
<clus scale="   94.190">  2  5  1 -1</clus>
</clustering>
</event>
<event>
 9    2  0.3402837E-005  0.1004342E+03  0.7546771E-02  0.1286410E+00
          2   -1    0    0  502    0  0.00000000000E+00  0.00000000000E+00  0.56875454858E+03  0.56875454858E+03  0.00000000000E+00 0. -1.
         -1   -1    0    0    0  501 -0.00000000000E+00 -0.00000000000E+00 -0.49474841373E+02  0.49474841373E+02  0.00000000000E+00 0.  1.
         23    2    1    2    0    0 -0.58005095154E+02  0.36879647968E+02  0.55338933910E+02  0.12858078234E+03  0.93519626185E+02 0.  0.
         24    2    1    2    0    0  0.25290725752E+02 -0.21100294356E+02  0.43414739226E+03  0.44267134164E+03  0.79931941458E+02 0.  0.
        -11    1    4    4    0    0 -0.18433223387E+02 -0.34375316210E+02  0.15642266794E+03  0.16121258367E+03  0.00000000000E+00 0.  1.
         12    1    4    4    0    0  0.43723949139E+02  0.13275021853E+02  0.27772472432E+03  0.28145875796E+03  0.00000000000E+00 0. -1.
        -13    1    3    3    0    0 -0.41407772517E+02  0.67271992568E+02  0.25907449806E+02  0.83134352492E+02  0.00000000000E+00 0.  1.
         13    1    3    3    0    0 -0.16597322637E+02 -0.30392344600E+02  0.29431484104E+02  0.45446429844E+02  0.00000000000E+00 0. -1.
         21    1    1    2  502  501  0.32714369402E+02 -0.15779353612E+02  0.29793381037E+02  0.46977265985E+02  0.00000000000E+00 0.  1.
<scales pt_clust_5="13000.00000" pt_clust_6="13000.00000" pt_clust_7="13000.00000" pt_clust_8="13000.00000" pt_clust_9="36.32104"></scales>
<clustering>
<clus scale="   36.321">  2  9  1 -1</clus>
<clus scale="   79.932">  5  6 -1 -1</clus>
<clus scale="   87.922">  1  5  2 -1</clus>
<clus scale="   93.520">  7  8 -1 -1</clus>
<clus scale="   87.922">  1  5  2 -1</clus>
</clustering>
</event>
<event>
 9    2  0.3402837E-005  0.9622819E+02  0.7546771E-02  0.1290304E+00
          2   -1    0    0  502    0  0.00000000000E+00  0.00000000000E+00  0.10371034302E+04  0.10371034302E+04  0.00000000000E+00 0. -1.
         -1   -1    0    0    0  501 -0.00000000000E+00 -0.00000000000E+00 -0.35620196748E+02  0.35620196748E+02  0.00000000000E+00 0.  1.
         23    2    1    2    0    0 -0.10251600057E+02 -0.13294715583E+02  0.91702985838E+02  0.12830396634E+03  0.88151150877E+02 0.  0.
         24    2    1    2    0    0  0.29997190070E+02  0.96242755608E+01  0.91772113344E+03  0.92282294505E+03  0.91638698518E+02 0.  0.
        -11    1    4    4    0    0 -0.17812496998E+01 -0.35335725033E+02  0.20964416418E+03  0.21260870606E+03  0.00000000000E+00 0.  1.
         12    1    4    4    0    0  0.31778439770E+02  0.44960000594E+02  0.70807696925E+03  0.71021423900E+03  0.00000000000E+00 0. -1.
        -13    1    3    3    0    0  0.25243578322E+02  0.10654186816E+02  0.33684321504E+00  0.27401886916E+02  0.00000000000E+00 0. -1.
         13    1    3    3    0    0 -0.35495178379E+02 -0.23948902399E+02  0.91366142623E+02  0.10090207942E+03  0.00000000000E+00 0.  1.
         21    1    1    2  502  501 -0.19745590013E+02  0.36704400221E+01 -0.79408858268E+01  0.21596715552E+02  0.00000000000E+00 0.  1.
<scales pt_clust_5="13000.00000" pt_clust_6="13000.00000" pt_clust_7="13000.00000" pt_clust_8="13000.00000" pt_clust_9="20.08384"></scales>
<clustering>
<clus scale="   20.084">  2  9  1 -1</clus>
<clus scale="   88.151">  7  8 -1 -1</clus>
<clus scale="   91.639">  5  6 -1 -1</clus>
<clus scale="   92.913">  2  7  1 -1</clus>
<clus scale="   96.228">  1  5  2 -1</clus>
</clustering>
</event>
<event>
 9    2  0.3402837E-005  0.1417864E+03  0.7546771E-02  0.1213565E+00
         -1   -1    0    0    0  501 -0.00000000000E+00  0.00000000000E+00  0.22770293441E+03  0.22770293441E+03  0.00000000000E+00 0.  1.
          2   -1    0    0  502    0  0.00000000000E+00 -0.00000000000E+00 -0.51324314683E+03  0.51324314683E+03  0.00000000000E+00 0. -1.
         24    2    1    2    0    0 -0.12861636231E+03 -0.70205739112E+01  0.11901185647E+03  0.20224052370E+03  0.10072710823E+03 0.  0.
         23    2    1    2    0    0  0.98070581577E+02  0.17701472510E+01 -0.45802488556E+03  0.47689978254E+03  0.89585905153E+02 0.  0.
        -11    1    3    3    0    0 -0.13248732702E+03 -0.60889791755E+01  0.13292202964E+03  0.18777175893E+03  0.00000000000E+00 0.  1.
         12    1    3    3    0    0  0.38709647043E+01 -0.93159473566E+00 -0.13910173165E+02  0.14468764770E+02  0.00000000000E+00 0. -1.
        -13    1    4    4    0    0  0.17760983772E+02 -0.38773042248E+02 -0.16068571935E+03  0.16624891504E+03  0.00000000000E+00 0.  1.
         13    1    4    4    0    0  0.80309597805E+02  0.40543189499E+02 -0.29733916621E+03  0.31065086749E+03  0.00000000000E+00 0. -1.
         21    1    1    2  502  501  0.30545780737E+02  0.52504266602E+01  0.53472816669E+02  0.61805775001E+02  0.00000000000E+00 0.  1.
<scales pt_clust_5="13000.00000" pt_clust_6="13000.00000" pt_clust_7="13000.00000" pt_clust_8="13000.00000" pt_clust_9="30.99374"></scales>
<clustering>
<clus scale="   30.994">  1  9  2 -1</clus>
<clus scale="   89.586">  7  8 -1 -1</clus>
<clus scale="  100.727">  5  6 -1 -1</clus>
<clus scale="  134.101">  2  7  1 -1</clus>
<clus scale="  134.101">  2  5  1 -1</clus>
</clustering>
</event>
<event>
 9    2  0.6344520E-005  0.1342026E+03  0.7546771E-02  0.1224712E+00
         -1   -1    0    0    0  501 -0.00000000000E+00  0.00000000000E+00  0.31556183733E+03  0.31556183733E+03  0.00000000000E+00 0.  1.
          2   -1    0    0  502    0  0.00000000000E+00 -0.00000000000E+00 -0.30527804651E+03  0.30527804651E+03  0.00000000000E+00 0. -1.
         23    2    1    2    0    0  0.88580704902E+02 -0.39491139433E+02  0.27984407472E+03  0.31068250300E+03  0.93834003138E+02 0.  0.
         24    2    1    2    0    0 -0.68230559619E+02  0.36487067082E+02 -0.26710395691E+03  0.28944056627E+03  0.80278280232E+02 0.  0.
        -11    1    4    4    0    0 -0.26957700830E+02 -0.19376124484E+02 -0.14697470984E+03  0.15067752708E+03  0.00000000000E+00 0.  1.
         12    1    4    4    0    0 -0.41272858789E+02  0.55863191567E+02 -0.12012924707E+03  0.13876303919E+03  0.00000000000E+00 0. -1.
        -11    1    3    3    0    0  0.59723352475E+02 -0.21539242670E+02  0.26684827246E+03  0.27429695281E+03  0.00000000000E+00 0.  1.
         11    1    3    3    0    0  0.28857352427E+02 -0.17951896763E+02  0.12995802250E+02  0.36385550190E+02  0.00000000000E+00 0. -1.
         21    1    1    2  502  501 -0.20350145284E+02  0.30040723503E+01 -0.24563269850E+01  0.20716814572E+02  0.00000000000E+00 0.  1.
<scales pt_clust_5="13000.00000" pt_clust_6="13000.00000" pt_clust_7="13000.00000" pt_clust_8="13000.00000" pt_clust_9="20.57068"></scales>
<clustering>
<clus scale="   20.571">  2  9  1 -1</clus>
<clus scale="   80.278">  5  6 -1 -1</clus>
<clus scale="   93.834">  7  8 -1 -1</clus>
<clus scale="  125.100">  2  5  1 -1</clus>
<clus scale="   20.571">  2  5  1 -1</clus>
</clustering>
</event>
<event>
 9    2  0.3402837E-005  0.2202790E+03  0.7546771E-02  0.1141098E+00
          2   -1    0    0  502    0  0.00000000000E+00  0.00000000000E+00  0.35769008927E+03  0.35769008927E+03  0.00000000000E+00 0. -1.
         -1   -1    0    0    0  501 -0.00000000000E+00 -0.00000000000E+00 -0.37495642652E+03  0.37495642652E+03  0.00000000000E+00 0.  1.
         24    2    1    2    0    0  0.69884297601E+02  0.18444525323E+03 -0.15114087364E+03  0.26170328600E+03  0.82104687618E+02 0.  0.
         23    2    1    2    0    0 -0.14292828574E+03  0.72319915008E+02  0.43270585147E+02  0.18903393266E+03  0.90569416390E+02 0.  0.
        -13    1    3    3    0    0  0.75287711330E+02  0.10339414123E+03 -0.11784285895E+03  0.17391241279E+03  0.00000000000E+00 0.  1.
         14    1    3    3    0    0 -0.54034137290E+01  0.81051112001E+02 -0.33298014689E+02  0.87790873209E+02  0.00000000000E+00 0. -1.
        -13    1    4    4    0    0 -0.27297881287E+02 -0.11051779547E+02 -0.17290169120E+02  0.34150638385E+02  0.00000000000E+00 0. -1.
         13    1    4    4    0    0 -0.11563040446E+03  0.83371694554E+02  0.60560754267E+02  0.15488329427E+03  0.00000000000E+00 0.  1.
         21    1    1    2  502  501  0.73043988143E+02 -0.25676516824E+03  0.90603951245E+02  0.28190929713E+03  0.00000000000E+00 0. -1.
<scales pt_clust_5="13000.00000" pt_clust_6="13000.00000" pt_clust_7="13000.00000" pt_clust_8="13000.00000" pt_clust_9="204.40561"></scales>
<clustering>
<clus scale="   82.105">  5  6 -1 -1</clus>
<clus scale="   90.569">  7  8 -1 -1</clus>
<clus scale="  184.015">  1  7  2 -1</clus>
<clus scale="  204.406">  1  9  2 -1</clus>
<clus scale="  184.015">  1  5  2 -1</clus>
</clustering>
</event>
<event>
 9    2  0.3402837E-005  0.1709545E+03  0.7546771E-02  0.1178715E+00
         -1   -1    0    0    0  501 -0.00000000000E+00  0.00000000000E+00  0.28349193478E+03  0.28349193478E+03  0.00000000000E+00 0.  1.
          2   -1    0    0  502    0  0.00000000000E+00 -0.00000000000E+00 -0.22881585546E+03  0.22881585546E+03  0.00000000000E+00 0. -1.
         23    2    1    2    0    0  0.10844119744E+03  0.72640086888E+02  0.16444275631E+03  0.22926116125E+03  0.92104204187E+02 0.  0.
         24    2    1    2    0    0 -0.11326735271E+03 -0.92998144934E+02 -0.15873415083E+03  0.22979669194E+03  0.78306071516E+02 0.  0.
        -11    1    4    4    0    0 -0.34940330765E+02 -0.13395871715E+02 -0.92914938973E+02  0.10016717016E+03  0.00000000000E+00 0.  1.
         12    1    4    4    0    0 -0.78327021946E+02 -0.79602273219E+02 -0.65819211858E+02  0.12962952178E+03  0.00000000000E+00 0. -1.
        -13    1    3    3    0    0  0.56166670837E+02 -0.12940148012E+02  0.77182456933E+02  0.96328988376E+02  0.00000000000E+00 0. -1.
         13    1    3    3    0    0  0.52274526602E+02  0.85580234900E+02  0.87260299376E+02  0.13293217287E+03  0.00000000000E+00 0.  1.
         21    1    1    2  502  501  0.48261552726E+01  0.20358058046E+02  0.48967473837E+02  0.53249937053E+02  0.00000000000E+00 0.  1.
<scales pt_clust_5="13000.00000" pt_clust_6="13000.00000" pt_clust_7="13000.00000" pt_clust_8="13000.00000" pt_clust_9="20.92229"></scales>
<clustering>
<clus scale="   20.922">  1  9  2 -1</clus>
<clus scale="   78.306">  5  6 -1 -1</clus>
<clus scale="   92.104">  7  8 -1 -1</clus>
<clus scale="  163.933">  2  5  1 -1</clus>
<clus scale="  163.933">  2  5  1 -1</clus>
</clustering>
</event>
<event>
 9    2  0.7413484E-005  0.1899838E+03  0.7546771E-02  0.1159430E+00
         -1   -1    0    0    0  501 -0.00000000000E+00  0.00000000000E+00  0.10258939858E+04  0.10258939858E+04  0.00000000000E+00 0.  1.
          2   -1    0    0  502    0  0.00000000000E+00 -0.00000000000E+00 -0.32375396854E+03  0.32375396854E+03  0.00000000000E+00 0. -1.
         24    2    1    2    0    0 -0.66595657080E+02 -0.18612940366E+03  0.93044545890E+03  0.95463009575E+03  0.80689102579E+02 0.  0.
         23    2    1    2    0    0  0.61922702655E+02  0.15448469594E+03 -0.27779894551E+03  0.33608712844E+03  0.89901954343E+02 0.  0.
        -11    1    3    3    0    0 -0.13512300604E+02 -0.12288029175E+03  0.67322215419E+03  0.68447806193E+03  0.00000000000E+00 0.  1.
         12    1    3    3    0    0 -0.53083356476E+02 -0.63249111914E+02  0.25722330471E+03  0.27015203382E+03  0.00000000000E+00 0. -1.
        -13    1    4    4    0    0  0.42987244061E+02  0.64037867137E+02 -0.54550662780E+02  0.94469711491E+02  0.00000000000E+00 0.  1.
         13    1    4    4    0    0  0.18935458594E+02  0.90446828804E+02 -0.22324828273E+03  0.24161741695E+03  0.00000000000E+00 0. -1.
         21    1    1    2  502  501  0.46729544253E+01  0.31644707722E+02  0.49493503908E+02  0.58930730175E+02  0.00000000000E+00 0. -1.
<scales pt_clust_5="13000.00000" pt_clust_6="13000.00000" pt_clust_7="13000.00000" pt_clust_8="13000.00000" pt_clust_9="31.98787"></scales>
<clustering>
<clus scale="   31.988">  1  9  2 -1</clus>
<clus scale="   80.689">  5  6 -1 -1</clus>
<clus scale="   89.902">  7  8 -1 -1</clus>
<clus scale="  185.802">  1  5  2 -1</clus>
<clus scale="  189.984">  2  5  1 -1</clus>
</clustering>
</event>
<event>
 9    2  0.3402837E-005  0.1247898E+03  0.7546771E-02  0.1238285E+00
          2   -1    0    0  502    0  0.00000000000E+00  0.00000000000E+00  0.25466856978E+03  0.25466856978E+03  0.00000000000E+00 0. -1.
         -1   -1    0    0    0  501 -0.00000000000E+00 -0.00000000000E+00 -0.22578674072E+03  0.22578674072E+03  0.00000000000E+00 0.  1.
         24    2    1    2    0    0  0.44852511516E+02 -0.43329425346E+02 -0.15316325370E+03  0.18408713270E+03  0.80869668309E+02 0.  0.
         23    2    1    2    0    0 -0.44999041677E+02  0.75636405172E+02  0.21546520488E+03  0.24988520263E+03  0.90948229459E+02 0.  0.
        -11    1    3    3    0    0  0.38065600469E+02 -0.66180847323E+02 -0.13051658590E+03  0.15120672500E+03  0.00000000000E+00 0.  1.
         12    1    3    3    0    0  0.67869110470E+01  0.22851421977E+02 -0.22646667797E+02  0.32880407696E+02  0.00000000000E+00 0. -1.
        -13    1    4    4    0    0 -0.67557425504E+02  0.58741323387E+02  0.19644926416E+03  0.21588622514E+03  0.00000000000E+00 0. -1.
         13    1    4    4    0    0  0.22558383827E+02  0.16895081785E+02  0.19015940719E+02  0.33998977497E+02  0.00000000000E+00 0.  1.
         21    1    1    2  502  501  0.14653016091E+00 -0.32306979826E+02 -0.33420122131E+02  0.46482975161E+02  0.00000000000E+00 0.  1.
<scales pt_clust_5="13000.00000" pt_clust_6="13000.00000" pt_clust_7="13000.00000" pt_clust_8="13000.00000" pt_clust_9="32.30731"></scales>
<clustering>
<clus scale="   32.307">  2  9  1 -1</clus>
<clus scale="   80.870">  5  6 -1 -1</clus>
<clus scale="   90.948">  7  8 -1 -1</clus>
<clus scale="  117.647">  2  5  1 -1</clus>
<clus scale="  124.790">  1  5  2 -1</clus>
</clustering>
</event>
<event>
 9    2  0.3402837E-005  0.2800207E+03  0.7546771E-02  0.1133693E+00
          2   -1    0    0  502    0  0.00000000000E+00  0.00000000000E+00  0.16931592496E+03  0.16931592496E+03  0.00000000000E+00 0. -1.
         -1   -1    0    0    0  501 -0.00000000000E+00 -0.00000000000E+00 -0.82535138422E+03  0.82535138422E+03  0.00000000000E+00 0.  1.
         23    2    1    2    0    0  0.16098630419E+02  0.59079392093E+02 -0.23078623187E+03  0.25446151122E+03  0.87970650792E+02 0.  0.
         24    2    1    2    0    0 -0.21656355715E+03  0.14670176328E+03 -0.68593904425E+02  0.28223736001E+03  0.80818451028E+02 0.  0.
        -11    1    4    4    0    0 -0.42271024568E+02 -0.35790023593E+01 -0.12082002476E+01  0.42439468939E+02  0.00000000000E+00 0.  1.
         12    1    4    4    0    0 -0.17429253258E+03  0.15028076564E+03 -0.67385704177E+02  0.23979789107E+03  0.00000000000E+00 0. -1.
        -13    1    3    3    0    0  0.32188691409E+02  0.76464539324E+02 -0.18944106699E+03  0.20681115901E+03  0.00000000000E+00 0.  1.
         13    1    3    3    0    0 -0.16090060990E+02 -0.17385147231E+02 -0.41345164878E+02  0.47650352210E+02  0.00000000000E+00 0. -1.
         21    1    1    2  502  501  0.20046492673E+03 -0.20578115538E+03 -0.35665532297E+03  0.45796843795E+03  0.00000000000E+00 0.  1.
<scales pt_clust_5="13000.00000" pt_clust_6="13000.00000" pt_clust_7="13000.00000" pt_clust_8="13000.00000" pt_clust_9="268.10441"></scales>
<clustering>
<clus scale="   80.818">  5  6 -1 -1</clus>
<clus scale="   87.971">  7  8 -1 -1</clus>
<clus scale="  107.184">  2  7  1 -1</clus>
<clus scale="  268.104">  2  9  1 -1</clus>
<clus scale="  280.021">  1  5  2 -1</clus>
</clustering>
</event>
<event>
 9    2  0.3402837E-005  0.3902041E+03  0.7546771E-02  0.1086959E+00
         -1   -1    0    0    0  501 -0.00000000000E+00  0.00000000000E+00  0.69227295095E+03  0.69227295095E+03  0.00000000000E+00 0.  1.
          2   -1    0    0  502    0  0.00000000000E+00 -0.00000000000E+00 -0.24099092442E+04  0.24099092442E+04  0.00000000000E+00 0. -1.
         23    2    1    2    0    0  0.18174455837E+03  0.42222017444E+03 -0.19076808400E+04  0.19644519826E+04  0.92327916928E+02 0.  0.
         24    2    1    2    0    0  0.16639243654E+02 -0.10164011292E+03 -0.40938553399E+03  0.42960301334E+03  0.79716100306E+02 0.  0.
        -11    1    4    4    0    0 -0.15703467013E+02 -0.20668755515E+02 -0.27202749922E+02  0.37600344866E+02  0.00000000000E+00 0.  1.
         12    1    4    4    0    0  0.32342710667E+02 -0.80971357405E+02 -0.38218278407E+03  0.39200266848E+03  0.00000000000E+00 0. -1.
        -11    1    3    3    0    0  0.78271829929E+02  0.24992376026E+03 -0.92110351905E+03  0.95761164263E+03  0.00000000000E+00 0.  1.
         11    1    3    3    0    0  0.10347272844E+03  0.17229641418E+03 -0.98657732095E+03  0.10068403399E+04  0.00000000000E+00 0. -1.
         21    1    1    2  502  501 -0.19838380202E+03 -0.32058006152E+03  0.59943008069E+03  0.70812719930E+03  0.00000000000E+00 0.  1.
<scales pt_clust_5="13000.00000" pt_clust_6="13000.00000" pt_clust_7="13000.00000" pt_clust_8="13000.00000" pt_clust_9="379.12368"></scales>
<clustering>
<clus scale="   79.716">  5  6 -1 -1</clus>
<clus scale="   92.328">  7  8 -1 -1</clus>
<clus scale="  130.239">  2  5  1 -1</clus>
<clus scale="  379.124">  1  9  2 -1</clus>
<clus scale="  130.239">  2  5  1 -1</clus>
</clustering>
</event>
<event>
 9    2  0.3402837E-005  0.2462355E+03  0.7546771E-02  0.1116983E+00
         -1   -1    0    0    0  501 -0.00000000000E+00  0.00000000000E+00  0.11588692134E+03  0.11588692134E+03  0.00000000000E+00 0.  1.
          2   -1    0    0  502    0  0.00000000000E+00 -0.00000000000E+00 -0.64565079266E+03  0.64565079266E+03  0.00000000000E+00 0. -1.
         23    2    1    2    0    0 -0.20514371027E+01  0.20738222090E+03 -0.11546408252E+03  0.25799714104E+03  0.10108895338E+03 0.  0.
         24    2    1    2    0    0 -0.14978225921E+02 -0.23264378483E+03 -0.39999431078E+03  0.46988343796E+03  0.80296442916E+02 0.  0.
        -11    1    4    4    0    0 -0.32050961195E+02 -0.12181573027E+03 -0.14987464859E+03  0.19577728812E+03  0.00000000000E+00 0.  1.
         12    1    4    4    0    0  0.17072735275E+02 -0.11082805456E+03 -0.25011966218E+03  0.27410614983E+03  0.00000000000E+00 0. -1.
        -13    1    3    3    0    0  0.40368065676E+02  0.69470242015E+02 -0.70424991703E+02  0.10684275693E+03  0.00000000000E+00 0.  1.
         13    1    3    3    0    0 -0.42419502778E+02  0.13791197888E+03 -0.45039090821E+02  0.15115438411E+03  0.00000000000E+00 0. -1.
         21    1    1    2  502  501  0.17029663023E+02  0.25261563929E+02 -0.14305478020E+02  0.33657134997E+02  0.00000000000E+00 0. -1.
<scales pt_clust_5="13000.00000" pt_clust_6="13000.00000" pt_clust_7="13000.00000" pt_clust_8="13000.00000" pt_clust_9="30.46565"></scales>
<clustering>
<clus scale="   30.466">  1  9  2 -1</clus>
<clus scale="   80.296">  5  6 -1 -1</clus>
<clus scale="  101.089">  7  8 -1 -1</clus>
<clus scale="  238.454">  2  5  1 -1</clus>
<clus scale="  238.454">  2  5  1 -1</clus>
</clustering>
</event>
<event>
 9    2  0.3402837E-005  0.1000793E+03  0.7546771E-02  0.1286078E+00
          2   -1    0    0  502    0  0.00000000000E+00  0.00000000000E+00  0.26437693143E+03  0.26437693143E+03  0.00000000000E+00 0. -1.
         -1   -1    0    0    0  501 -0.00000000000E+00 -0.00000000000E+00 -0.56768069193E+02  0.56768069193E+02  0.00000000000E+00 0.  1.
         23    2    1    2    0    0  0.14863554706E+02  0.37640609485E+02  0.20521140779E+02  0.10126888880E+03  0.90534688821E+02 0.  0.
         24    2    1    2    0    0  0.13875296337E+01 -0.51560688025E+02  0.15609042631E+03  0.18221049573E+03  0.78587618494E+02 0.  0.
        -13    1    4    4    0    0  0.35275993410E+02 -0.46521032776E+02  0.82870037317E+02  0.10137083055E+03  0.00000000000E+00 0.  1.
         14    1    4    4    0    0 -0.33888463776E+02 -0.50396552492E+01  0.73220388995E+02  0.80839665181E+02  0.00000000000E+00 0. -1.
        -11    1    3    3    0    0  0.65628317231E+01 -0.28390255985E+02 -0.57852820873E+01  0.29707690654E+02  0.00000000000E+00 0.  1.
         11    1    3    3    0    0  0.83007229825E+01  0.66030865470E+02  0.26306422866E+02  0.71561198151E+02  0.00000000000E+00 0. -1.
         21    1    1    2  502  501 -0.16251084339E+02  0.13920078540E+02  0.30997295143E+02  0.37665616084E+02  0.00000000000E+00 0.  1.
<scales pt_clust_5="13000.00000" pt_clust_6="13000.00000" pt_clust_7="13000.00000" pt_clust_8="13000.00000" pt_clust_9="21.39781"></scales>
<clustering>
<clus scale="   21.398">  1  9  2 -1</clus>
<clus scale="   78.588">  5  6 -1 -1</clus>
<clus scale="   89.417">  1  5  2 -1</clus>
<clus scale="   90.535">  7  8 -1 -1</clus>
<clus scale="   21.398">  1  5  2 -1</clus>
</clustering>
</event>
<event>
 9    2  0.3402837E-005  0.1426887E+03  0.7546771E-02  0.1209976E+00
         -1   -1    0    0    0  501 -0.00000000000E+00  0.00000000000E+00  0.64386802999E+02  0.64386802999E+02  0.00000000000E+00 0.  1.
          2   -1    0    0  502    0  0.00000000000E+00 -0.00000000000E+00 -0.13552414059E+04  0.13552414059E+04  0.00000000000E+00 0. -1.
         23    2    1    2    0    0 -0.10754993853E+03  0.19683301192E+02 -0.14971092410E+03  0.20160828984E+03  0.79234589117E+02 0.  0.
         24    2    1    2    0    0  0.11959306906E+03  0.66071405438E+00 -0.11710569791E+04  0.11798922193E+04  0.80425507827E+02 0.  0.
        -13    1    4    4    0    0  0.24504578288E+02  0.19640957906E+01 -0.60971222031E+02  0.65740565447E+02  0.00000000000E+00 0.  1.
         14    1    4    4    0    0  0.95088490768E+02 -0.13033817363E+01 -0.11100857570E+04  0.11141516539E+04  0.00000000000E+00 0. -1.
        -13    1    3    3    0    0 -0.70821358207E+02 -0.23329421962E+02 -0.60702933426E+02  0.96149741725E+02  0.00000000000E+00 0.  1.
         13    1    3    3    0    0 -0.36728580319E+02  0.43012723154E+02 -0.89007990678E+02  0.10545854811E+03  0.00000000000E+00 0. -1.
         21    1    1    2  502  501 -0.12043130531E+02 -0.20344015246E+02  0.29913300301E+02  0.38127699697E+02  0.00000000000E+00 0.  1.
<scales pt_clust_5="13000.00000" pt_clust_6="13000.00000" pt_clust_7="13000.00000" pt_clust_8="13000.00000" pt_clust_9="23.64140"></scales>
<clustering>
<clus scale="   23.641">  1  9  2 -1</clus>
<clus scale="   79.235">  7  8 -1 -1</clus>
<clus scale="   80.426">  5  6 -1 -1</clus>
<clus scale="  142.021">  1  7  2 -1</clus>
<clus scale="  142.689">  2  5  1 -1</clus>
</clustering>
</event>
<event>
 9    2  0.3402837E-005  0.2036264E+03  0.7546771E-02  0.1178587E+00
          2   -1    0    0  502    0  0.00000000000E+00  0.00000000000E+00  0.19189833603E+03  0.19189833603E+03  0.00000000000E+00 0. -1.
         -1   -1    0    0    0  501 -0.00000000000E+00 -0.00000000000E+00 -0.64746199817E+03  0.64746199817E+03  0.00000000000E+00 0.  1.
         24    2    1    2    0    0 -0.55831432239E+02 -0.70097435346E+01 -0.16092535332E+03  0.18804753212E+03  0.79363843565E+02 0.  0.
         23    2    1    2    0    0  0.35615815345E+02 -0.17487662633E+03 -0.39461406041E+03  0.44277869549E+03  0.92099922710E+02 0.  0.
        -13    1    3    3    0    0 -0.47787147119E+02  0.33807949285E+01 -0.16688040703E+03  0.17362059629E+03  0.00000000000E+00 0.  1.
         14    1    3    3    0    0 -0.80442851197E+01 -0.10390538463E+02  0.59550537170E+01  0.14426935829E+02  0.00000000000E+00 0. -1.
        -11    1    4    4    0    0 -0.30983007666E+02 -0.55203997445E+02 -0.14065715861E+03  0.15424611621E+03  0.00000000000E+00 0. -1.
         11    1    4    4    0    0  0.66598823012E+02 -0.11967262889E+03 -0.25395690180E+03  0.28853257928E+03  0.00000000000E+00 0.  1.
         21    1    1    2  502  501  0.20215616894E+02  0.18188636987E+03  0.99975751588E+02  0.20853410660E+03  0.00000000000E+00 0. -1.
<scales pt_clust_5="13000.00000" pt_clust_6="13000.00000" pt_clust_7="13000.00000" pt_clust_8="13000.00000" pt_clust_9="181.60764"></scales>
<clustering>
<clus scale="   79.364">  5  6 -1 -1</clus>
<clus scale="   92.100">  7  8 -1 -1</clus>
<clus scale="   97.288">  2  5  1 -1</clus>
<clus scale="  181.608">  1  9  2 -1</clus>
<clus scale="  181.608">  1  5  2 -1</clus>
</clustering>
</event>
<event>
 9    2  0.3402837E-005  0.1025356E+03  0.7546771E-02  0.1278675E+00
          2   -1    0    0  502    0  0.00000000000E+00  0.00000000000E+00  0.27001500874E+03  0.27001500874E+03  0.00000000000E+00 0. -1.
         -1   -1    0    0    0  501 -0.00000000000E+00 -0.00000000000E+00 -0.23842744764E+03  0.23842744764E+03  0.00000000000E+00 0.  1.
         23    2    1    2    0    0 -0.30288454354E+02 -0.27317135001E+01 -0.44577298752E+02  0.10551790656E+03  0.90675466999E+02 0.  0.
         24    2    1    2    0    0  0.25795437250E+02 -0.45785058139E+02  0.22546133264E+03  0.24587837469E+03  0.82835297364E+02 0.  0.
        -11    1    4    4    0    0  0.11822764510E+02 -0.27242520738E+02  0.13452795226E+02  0.32602306609E+02  0.00000000000E+00 0.  1.
         12    1    4    4    0    0  0.13972672740E+02 -0.18542537402E+02  0.21200853742E+03  0.21327606808E+03  0.00000000000E+00 0. -1.
        -13    1    3    3    0    0 -0.10672570423E+02 -0.46347394633E+02 -0.18374927101E+02  0.50986495218E+02  0.00000000000E+00 0. -1.
         13    1    3    3    0    0 -0.19615883932E+02  0.43615681133E+02 -0.26202371651E+02  0.54531411345E+02  0.00000000000E+00 0.  1.
         21    1    1    2  502  501  0.44930171041E+01  0.48516771639E+02 -0.14929647280E+03  0.15704617513E+03  0.00000000000E+00 0.  1.
<scales pt_clust_5="13000.00000" pt_clust_6="13000.00000" pt_clust_7="13000.00000" pt_clust_8="13000.00000" pt_clust_9="48.72437"></scales>
<clustering>
<clus scale="   48.724">  2  9  1 -1</clus>
<clus scale="   82.835">  5  6 -1 -1</clus>
<clus scale="   90.675">  7  8 -1 -1</clus>
<clus scale="   95.672">  1  5  2 -1</clus>
<clus scale="   95.672">  1  5  2 -1</clus>
</clustering>
</event>
<event>
 9    2  0.3402837E-005  0.1108162E+03  0.7546771E-02  0.1265557E+00
          2   -1    0    0  502    0  0.00000000000E+00  0.00000000000E+00  0.12840835167E+03  0.12840835167E+03  0.00000000000E+00 0. -1.
         -1   -1    0    0    0  501 -0.00000000000E+00 -0.00000000000E+00 -0.23531847460E+03  0.23531847460E+03  0.00000000000E+00 0.  1.
         23    2    1    2    0    0  0.35126013270E+02 -0.45679462023E+02 -0.10080269302E+03  0.14658248736E+03  0.89469506661E+02 0.  0.
         24    2    1    2    0    0 -0.35192754449E+02  0.98194305067E+01  0.71824408991E+02  0.13135787243E+03  0.10373617373E+03 0.  0.
        -13    1    4    4    0    0 -0.50407576280E+02 -0.34771988358E+02  0.29284427220E+02  0.67879250132E+02  0.00000000000E+00 0.  1.
         14    1    4    4    0    0  0.15214821831E+02  0.44591418865E+02  0.42539981771E+02  0.63478622298E+02  0.00000000000E+00 0. -1.
        -13    1    3    3    0    0  0.27154769060E+01  0.25009226576E+02 -0.10101795524E+02  0.27108697895E+02  0.00000000000E+00 0.  1.
         13    1    3    3    0    0  0.32410536364E+02 -0.70688688599E+02 -0.90700897491E+02  0.11947378946E+03  0.00000000000E+00 0. -1.
         21    1    1    2  502  501  0.66741179666E-01  0.35860031517E+02 -0.77931838911E+02  0.85786466478E+02  0.00000000000E+00 0.  1.
<scales pt_clust_5="13000.00000" pt_clust_6="13000.00000" pt_clust_7="13000.00000" pt_clust_8="13000.00000" pt_clust_9="35.86009"></scales>
<clustering>
<clus scale="   35.860">  2  9  1 -1</clus>
<clus scale="   89.470">  7  8 -1 -1</clus>
<clus scale="   97.590">  2  7  1 -1</clus>
<clus scale="  103.736">  5  6 -1 -1</clus>
<clus scale="  110.816">  1  5  2 -1</clus>
</clustering>
</event>
<event>
 9    2  0.3402837E-005  0.1165345E+03  0.7546771E-02  0.1253498E+00
          2   -1    0    0  502    0  0.00000000000E+00  0.00000000000E+00  0.85262812115E+02  0.85262812115E+02  0.00000000000E+00 0. -1.
         -1   -1    0    0    0  501 -0.00000000000E+00 -0.00000000000E+00 -0.22557086685E+03  0.22557086685E+03  0.00000000000E+00 0.  1.
         24    2    1    2    0    0  0.95469014993E+01 -0.55287810336E+02 -0.12852305470E+03  0.16192018591E+03  0.80944954854E+02 0.  0.
         23    2    1    2    0    0 -0.25258593627E+02  0.69859556985E+02  0.76730544048E+01  0.11996856340E+03  0.93889435970E+02 0.  0.
        -13    1    3    3    0    0 -0.26296856788E+02 -0.13935354793E+02 -0.90539070761E+02  0.95304995275E+02  0.00000000000E+00 0.  1.
         14    1    3    3    0    0  0.35843758287E+02 -0.41352455543E+02 -0.37983983934E+02  0.66615190633E+02  0.00000000000E+00 0. -1.
        -11    1    4    4    0    0 -0.20071501278E+02  0.45151486725E+02 -0.41608084344E+02  0.64596862152E+02  0.00000000000E+00 0.  1.
         11    1    4    4    0    0 -0.51870923492E+01  0.24708070260E+02  0.49281138749E+02  0.55371701251E+02  0.00000000000E+00 0. -1.
         21    1    1    2  502  501  0.15711692127E+02 -0.14571746649E+02 -0.19458054443E+02  0.28944929653E+02  0.00000000000E+00 0.  1.
<scales pt_clust_5="13000.00000" pt_clust_6="13000.00000" pt_clust_7="13000.00000" pt_clust_8="13000.00000" pt_clust_9="21.42879"></scales>
<clustering>
<clus scale="   21.429">  2  9  1 -1</clus>
<clus scale="   80.945">  5  6 -1 -1</clus>
<clus scale="   93.889">  7  8 -1 -1</clus>
<clus scale="  106.382">  2  5  1 -1</clus>
<clus scale="  116.534">  1  5  2 -1</clus>
</clustering>
</event>
<event>
 9    2  0.3402837E-005  0.1115762E+03  0.7546771E-02  0.1260943E+00
         -1   -1    0    0    0  501 -0.00000000000E+00  0.00000000000E+00  0.37791168492E+03  0.37791168492E+03  0.00000000000E+00 0.  1.
          2   -1    0    0  502    0  0.00000000000E+00 -0.00000000000E+00 -0.13337199592E+03  0.13337199592E+03  0.00000000000E+00 0. -1.
         23    2    1    2    0    0 -0.53217329610E+02 -0.41622629076E+02  0.33298541256E+03  0.35153592362E+03  0.90186990172E+02 0.  0.
         24    2    1    2    0    0  0.32699221563E+02  0.27214314705E+02 -0.96660817999E+02  0.13336442806E+03  0.81442611201E+02 0.  0.
        -13    1    4    4    0    0 -0.16735297599E+02  0.35437709934E+02 -0.27166531455E+02  0.47685657198E+02  0.00000000000E+00 0.  1.
         14    1    4    4    0    0  0.49434519162E+02 -0.82233952280E+01 -0.69494286543E+02  0.85678770860E+02  0.00000000000E+00 0. -1.
        -13    1    3    3    0    0 -0.44403115983E+02  0.19854516001E+02  0.17918722292E+03  0.18567148239E+03  0.00000000000E+00 0.  1.
         13    1    3    3    0    0 -0.88142136269E+01 -0.61477145077E+02  0.15379818964E+03  0.16586444123E+03  0.00000000000E+00 0. -1.
         21    1    1    2  502  501  0.20518108047E+02  0.14408314370E+02  0.82150944361E+01  0.26383329157E+02  0.00000000000E+00 0. -1.
<scales pt_clust_5="13000.00000" pt_clust_6="13000.00000" pt_clust_7="13000.00000" pt_clust_8="13000.00000" pt_clust_9="25.07174"></scales>
<clustering>
<clus scale="   25.072">  2  9  1 -1</clus>
<clus scale="   81.443">  5  6 -1 -1</clus>
<clus scale="   90.187">  7  8 -1 -1</clus>
<clus scale="  104.635">  2  5  1 -1</clus>
<clus scale="   25.072">  2  5  1 -1</clus>
</clustering>
</event>
<event>
 9    2  0.3402837E-005  0.5007001E+03  0.7546771E-02  0.1033728E+00
          2   -1    0    0  502    0  0.00000000000E+00  0.00000000000E+00  0.20464242712E+04  0.20464242712E+04  0.00000000000E+00 0. -1.
         -1   -1    0    0    0  501 -0.00000000000E+00 -0.00000000000E+00 -0.31674775127E+03  0.31674775127E+03  0.00000000000E+00 0.  1.
         23    2    1    2    0    0 -0.11166626127E+03  0.23251030378E+03  0.20133474091E+03  0.33955069717E+03  0.90711646348E+02 0.  0.
         24    2    1    2    0    0 -0.77293417143E+02 -0.52615140094E+03  0.15814229451E+04  0.16704238392E+04  0.81287772342E+02 0.  0.
        -13    1    4    4    0    0 -0.80266217862E+01 -0.96973754645E+02  0.39662667734E+03  0.40838836531E+03  0.00000000000E+00 0.  1.
         14    1    4    4    0    0 -0.69266795356E+02 -0.42917764629E+03  0.11847962678E+04  0.12620354738E+04  0.00000000000E+00 0. -1.
        -13    1    3    3    0    0 -0.62542381884E+02  0.55145193490E+02  0.31540824854E+02  0.89147997899E+02  0.00000000000E+00 0.  1.
         13    1    3    3    0    0 -0.49123879385E+02  0.17736511029E+03  0.16979391606E+03  0.25040269927E+03  0.00000000000E+00 0. -1.
         21    1    1    2  502  501  0.18895967841E+03  0.29364109716E+03 -0.53081166142E+02  0.35319748612E+03  0.00000000000E+00 0.  1.
<scales pt_clust_5="13000.00000" pt_clust_6="13000.00000" pt_clust_7="13000.00000" pt_clust_8="13000.00000" pt_clust_9="494.05759"></scales>
<clustering>
<clus scale="   81.288">  5  6 -1 -1</clus>
<clus scale="   90.712">  7  8 -1 -1</clus>
<clus scale="  273.421">  2  7  1 -1</clus>
<clus scale="  494.058">  2  9  1 -1</clus>
<clus scale="  500.700">  1  5  2 -1</clus>
</clustering>
</event>
<event>
 9    2  0.3402837E-005  0.1622283E+03  0.7546771E-02  0.1187840E+00
          2   -1    0    0  502    0  0.00000000000E+00  0.00000000000E+00  0.75238042423E+03  0.75238042423E+03  0.00000000000E+00 0. -1.
         -1   -1    0    0    0  501 -0.00000000000E+00 -0.00000000000E+00 -0.43313971315E+02  0.43313971315E+02  0.00000000000E+00 0.  1.
         23    2    1    2    0    0 -0.72700796434E+02  0.97247563012E+02  0.20738751998E+03  0.25717589928E+03  0.91582560635E+02 0.  0.
         24    2    1    2    0    0  0.77821641783E+02 -0.11705706802E+03  0.48711918672E+03  0.51340623322E+03  0.80884443068E+02 0.  0.
        -13    1    4    4    0    0  0.27643418576E+02 -0.68148048744E+02  0.12894561469E+03  0.14844287348E+03  0.00000000000E+00 0.  1.
         14    1    4    4    0    0  0.50178223208E+02 -0.48909019274E+02  0.35817357204E+03  0.36496335974E+03  0.00000000000E+00 0. -1.
        -11    1    3    3    0    0 -0.28917995300E+02 -0.14289626704E+02  0.44958996315E+02  0.55333129617E+02  0.00000000000E+00 0.  1.
         11    1    3    3    0    0 -0.43782801134E+02  0.11153718972E+03  0.16242852367E+03  0.20184276967E+03  0.00000000000E+00 0. -1.
         21    1    1    2  502  501 -0.51208453489E+01  0.19809505006E+02  0.14559746210E+02  0.25112263048E+02  0.00000000000E+00 0.  1.
<scales pt_clust_5="13000.00000" pt_clust_6="13000.00000" pt_clust_7="13000.00000" pt_clust_8="13000.00000" pt_clust_9="20.46068"></scales>
<clustering>
<clus scale="   20.461">  2  9  1 -1</clus>
<clus scale="   80.884">  5  6 -1 -1</clus>
<clus scale="   91.583">  7  8 -1 -1</clus>
<clus scale="  156.438">  1  5  2 -1</clus>
<clus scale="  156.438">  1  5  2 -1</clus>
</clustering>
</event>
<event>
 9    2  0.3402837E-005  0.1239780E+03  0.7546771E-02  0.1237741E+00
         -1   -1    0    0    0  501 -0.00000000000E+00  0.00000000000E+00  0.13536594161E+03  0.13536594161E+03  0.00000000000E+00 0.  1.
          2   -1    0    0  502    0  0.00000000000E+00 -0.00000000000E+00 -0.28554528650E+03  0.28554528650E+03  0.00000000000E+00 0. -1.
         23    2    1    2    0    0 -0.14159744110E+02 -0.79371236858E+02  0.58125627228E+02  0.13449540033E+03  0.90609781898E+02 0.  0.
         24    2    1    2    0    0 -0.13805459026E+02  0.80182791797E+02 -0.22258389779E+03  0.25500565544E+03  0.94151059224E+02 0.  0.
        -13    1    4    4    0    0 -0.25482617771E+02  0.42644434526E+02 -0.29111176846E+02  0.57579269029E+02  0.00000000000E+00 0.  1.
         14    1    4    4    0    0  0.11677158745E+02  0.37538357271E+02 -0.19347272094E+03  0.19742638641E+03  0.00000000000E+00 0. -1.
        -11    1    3    3    0    0 -0.45541358661E+02 -0.13620866135E+02  0.31021381197E+02  0.56761513672E+02  0.00000000000E+00 0.  1.
         11    1    3    3    0    0  0.31381614551E+02 -0.65750370723E+02  0.27104246031E+02  0.77733886658E+02  0.00000000000E+00 0. -1.
         21    1    1    2  502  501  0.27965203136E+02 -0.81155493977E+00  0.14278925670E+02  0.31410172336E+02  0.00000000000E+00 0.  1.
<scales pt_clust_5="13000.00000" pt_clust_6="13000.00000" pt_clust_7="13000.00000" pt_clust_8="13000.00000" pt_clust_9="27.97698"></scales>
<clustering>
<clus scale="   27.977">  1  9  2 -1</clus>
<clus scale="   90.610">  7  8 -1 -1</clus>
<clus scale="   94.151">  5  6 -1 -1</clus>
<clus scale="  121.311">  1  7  2 -1</clus>
<clus scale="  123.978">  2  5  1 -1</clus>
</clustering>
</event>
<event>
 9    2  0.3402837E-005  0.1513695E+03  0.7546771E-02  0.1200397E+00
          2   -1    0    0  502    0  0.00000000000E+00  0.00000000000E+00  0.35058929565E+03  0.35058929565E+03  0.00000000000E+00 0. -1.
         -1   -1    0    0    0  501 -0.00000000000E+00 -0.00000000000E+00 -0.29934903812E+03  0.29934903812E+03  0.00000000000E+00 0.  1.
         24    2    1    2    0    0  0.12242774028E+02 -0.51759578056E+02 -0.76184507822E+02  0.12287695703E+03  0.80409750031E+02 0.  0.
         23    2    1    2    0    0  0.27992668712E+02  0.13507962610E+03  0.29380728557E+03  0.33668211239E+03  0.89454060061E+02 0.  0.
        -13    1    3    3    0    0  0.44355982849E+02 -0.43547350410E+02 -0.58260189067E+02  0.85194334157E+02  0.00000000000E+00 0.  1.
         14    1    3    3    0    0 -0.32113208821E+02 -0.82122276454E+01 -0.17924318754E+02  0.37682622871E+02  0.00000000000E+00 0. -1.
        -11    1    4    4    0    0 -0.19777219166E+02  0.74475992970E+02  0.88468340987E+02  0.11732203239E+03  0.00000000000E+00 0.  1.
         11    1    4    4    0    0  0.47769887878E+02  0.60603633132E+02  0.20533894458E+03  0.21936008000E+03  0.00000000000E+00 0. -1.
         21    1    1    2  502  501 -0.40235442741E+02 -0.83320048046E+02 -0.16638252022E+03  0.19037926435E+03  0.00000000000E+00 0.  1.
<scales pt_clust_5="13000.00000" pt_clust_6="13000.00000" pt_clust_7="13000.00000" pt_clust_8="13000.00000" pt_clust_9="92.52633"></scales>
<clustering>
<clus scale="   80.410">  5  6 -1 -1</clus>
<clus scale="   89.454">  7  8 -1 -1</clus>
<clus scale="   92.526">  2  9  1 -1</clus>
<clus scale="  146.207">  2  5  1 -1</clus>
<clus scale="  151.370">  1  5  2 -1</clus>
</clustering>
</event>
<event>
 9    2  0.3402837E-005  0.1068478E+03  0.7546771E-02  0.1271553E+00
         -1   -1    0    0    0  501 -0.00000000000E+00  0.00000000000E+00  0.17963161974E+02  0.17963161974E+02  0.00000000000E+00 0.  1.
          2   -1    0    0  502    0  0.00000000000E+00 -0.00000000000E+00 -0.10522180733E+04  0.10522180733E+04  0.00000000000E+00 0. -1.
         23    2    1    2    0    0  0.40717322353E+02  0.43617351100E+02 -0.22294373266E+03  0.24823958500E+03  0.91425433942E+02 0.  0.
         24    2    1    2    0    0 -0.50719957186E+02 -0.90156521886E+01 -0.62901019900E+03  0.63611652426E+03  0.79602801135E+02 0.  0.
        -11    1    4    4    0    0 -0.40959532896E+02 -0.41808537453E+02 -0.32943994176E+03  0.33459873336E+03  0.00000000000E+00 0.  1.
         12    1    4    4    0    0 -0.97604242898E+01  0.32792885264E+02 -0.29957025724E+03  0.30151779090E+03  0.00000000000E+00 0. -1.
        -11    1    3    3    0    0  0.82233103553E+01 -0.24437907402E+02 -0.23021252902E+02  0.34566056132E+02  0.00000000000E+00 0.  1.
         11    1    3    3    0    0  0.32494011998E+02  0.68055258502E+02 -0.19992247976E+03  0.21367352887E+03  0.00000000000E+00 0. -1.
         21    1    1    2  502  501  0.10002634833E+02 -0.34601698912E+02 -0.18230097964E+03  0.18582512599E+03  0.00000000000E+00 0.  1.
<scales pt_clust_5="13000.00000" pt_clust_6="13000.00000" pt_clust_7="13000.00000" pt_clust_8="13000.00000" pt_clust_9="36.01847"></scales>
<clustering>
<clus scale="   36.018">  2  9  1 -1</clus>
<clus scale="   79.603">  5  6 -1 -1</clus>
<clus scale="   91.425">  7  8 -1 -1</clus>
<clus scale="   96.925">  2  5  1 -1</clus>
<clus scale="   36.018">  2  5  1 -1</clus>
</clustering>
</event>
<event>
 9    2  0.3402837E-005  0.2317040E+03  0.7546771E-02  0.1126814E+00
          2   -1    0    0  502    0  0.00000000000E+00  0.00000000000E+00  0.20360226823E+04  0.20360226823E+04  0.00000000000E+00 0. -1.
         -1   -1    0    0    0  501 -0.00000000000E+00 -0.00000000000E+00 -0.39557493398E+02  0.39557493398E+02  0.00000000000E+00 0.  1.
         23    2    1    2    0    0  0.33154448750E+02 -0.19121874387E+03  0.78455850759E+03  0.81432618869E+03  0.99655728735E+02 0.  0.
         24    2    1    2    0    0 -0.71458477917E+02  0.21022457280E+03  0.11900434008E+04  0.12132287518E+04  0.80125048299E+02 0.  0.
        -11    1    4    4    0    0 -0.76381177917E+02  0.11838743942E+03  0.61936481515E+03  0.63518693657E+03  0.00000000000E+00 0.  1.
         12    1    4    4    0    0  0.49227000005E+01  0.91837133378E+02  0.57067858562E+03  0.57804181521E+03  0.00000000000E+00 0. -1.
        -13    1    3    3    0    0  0.63244297848E+02 -0.76451095823E+02  0.37852813445E+03  0.39131593353E+03  0.00000000000E+00 0.  1.
         13    1    3    3    0    0 -0.30089849098E+02 -0.11476764804E+03  0.40603037314E+03  0.42301025516E+03  0.00000000000E+00 0. -1.
         21    1    1    2  502  501  0.38304029167E+02 -0.19005828932E+02  0.21863280564E+02  0.48025235250E+02  0.00000000000E+00 0. -1.
<scales pt_clust_5="13000.00000" pt_clust_6="13000.00000" pt_clust_7="13000.00000" pt_clust_8="13000.00000" pt_clust_9="42.76003"></scales>
<clustering>
<clus scale="   42.760">  2  9  1 -1</clus>
<clus scale="   80.125">  5  6 -1 -1</clus>
<clus scale="   99.656">  7  8 -1 -1</clus>
<clus scale="  223.999">  1  5  2 -1</clus>
<clus scale="  223.999">  1  5  2 -1</clus>
</clustering>
</event>
<event>
 9    2  0.3402837E-005  0.9287068E+02  0.7546771E-02  0.1303959E+00
          2   -1    0    0  502    0  0.00000000000E+00  0.00000000000E+00  0.41388676849E+03  0.41388676849E+03  0.00000000000E+00 0. -1.
         -1   -1    0    0    0  501 -0.00000000000E+00 -0.00000000000E+00 -0.30308695050E+02  0.30308695050E+02  0.00000000000E+00 0.  1.
         23    2    1    2    0    0  0.18322686642E+01 -0.28809490544E+01  0.79121106713E+02  0.12183425878E+03  0.92583907943E+02 0.  0.
         24    2    1    2    0    0 -0.21376036866E+02 -0.78237360603E+01  0.25254302923E+03  0.26586690358E+03  0.79931739685E+02 0.  0.
        -13    1    4    4    0    0 -0.51231888617E+02 -0.99017670706E+01  0.17949745930E+03  0.18692803240E+03  0.00000000000E+00 0.  1.
         14    1    4    4    0    0  0.29855851751E+02  0.20780310103E+01  0.73045569928E+02  0.78938871177E+02  0.00000000000E+00 0. -1.
        -13    1    3    3    0    0 -0.27593877683E+02  0.16632324316E+02 -0.30850903302E+01  0.32366249089E+02  0.00000000000E+00 0.  1.
         13    1    3    3    0    0  0.29426146347E+02 -0.19513273370E+02  0.82206197043E+02  0.89468009695E+02  0.00000000000E+00 0. -1.
         21    1    1    2  502  501  0.19543768201E+02  0.10704685115E+02  0.51913937500E+02  0.56494301179E+02  0.00000000000E+00 0. -1.
<scales pt_clust_5="13000.00000" pt_clust_6="13000.00000" pt_clust_7="13000.00000" pt_clust_8="13000.00000" pt_clust_9="22.28338"></scales>
<clustering>
<clus scale="   22.283">  1  9  2 -1</clus>
<clus scale="   79.932">  5  6 -1 -1</clus>
<clus scale="   80.264">  1  5  2 -1</clus>
<clus scale="   92.584">  7  8 -1 -1</clus>
<clus scale="   22.283">  1  5  2 -1</clus>
</clustering>
</event>
<event>
 9    2  0.3402837E-005  0.8966062E+02  0.7546771E-02  0.1308734E+00
         -1   -1    0    0    0  501 -0.00000000000E+00  0.00000000000E+00  0.40196472205E+02  0.40196472205E+02  0.00000000000E+00 0.  1.
          2   -1    0    0  502    0  0.00000000000E+00 -0.00000000000E+00 -0.27969891344E+03  0.27969891344E+03  0.00000000000E+00 0. -1.
         24    2    1    2    0    0  0.28225829818E+01 -0.16732235948E+02 -0.41470013689E+02  0.91628082040E+02  0.79925019165E+02 0.  0.
         23    2    1    2    0    0  0.17102671453E+02  0.11571422817E+02 -0.17752821912E+03  0.19921438087E+03  0.87998305456E+02 0.  0.
        -11    1    3    3    0    0  0.22835067134E+02 -0.22065971151E+02  0.12264278413E+02  0.34040562552E+02  0.00000000000E+00 0.  1.
         12    1    3    3    0    0 -0.20012484152E+02  0.53337352035E+01 -0.53734292102E+02  0.57587519489E+02  0.00000000000E+00 0. -1.
        -11    1    4    4    0    0  0.15856162440E+02 -0.37753978399E+02 -0.75892022359E+02  0.86234446888E+02  0.00000000000E+00 0.  1.
         11    1    4    4    0    0  0.12465090126E+01  0.49325401216E+02 -0.10163619676E+03  0.11297993398E+03  0.00000000000E+00 0. -1.
         21    1    1    2  502  501 -0.19925254434E+02  0.51608131305E+01 -0.20504208423E+02  0.29052922736E+02  0.00000000000E+00 0. -1.
<scales pt_clust_5="13000.00000" pt_clust_6="13000.00000" pt_clust_7="13000.00000" pt_clust_8="13000.00000" pt_clust_9="20.58275"></scales>
<clustering>
<clus scale="   20.583">  1  9  2 -1</clus>
<clus scale="   79.925">  5  6 -1 -1</clus>
<clus scale="   81.752">  1  5  2 -1</clus>
<clus scale="   87.998">  7  8 -1 -1</clus>
<clus scale="   89.661">  2  5  1 -1</clus>
</clustering>
</event>
<event>
 9    2  0.3402837E-005  0.9560225E+02  0.7546771E-02  0.1296684E+00
          2   -1    0    0  502    0  0.00000000000E+00  0.00000000000E+00  0.12531459642E+04  0.12531459642E+04  0.00000000000E+00 0. -1.
         -1   -1    0    0    0  501 -0.00000000000E+00 -0.00000000000E+00 -0.45955242099E+02  0.45955242099E+02  0.00000000000E+00 0.  1.
         23    2    1    2    0    0 -0.12845008900E+02 -0.40488882737E+02  0.46457530427E+02  0.11133428102E+03  0.91829603714E+02 0.  0.
         24    2    1    2    0    0 -0.66484995729E+01  0.25276304146E+02  0.11599922249E+04  0.11630289291E+04  0.79820010042E+02 0.  0.
        -11    1    4    4    0    0 -0.13761239559E+02  0.15264013726E+02  0.69679983188E+02  0.72647518102E+02  0.00000000000E+00 0.  1.
         12    1    4    4    0    0  0.71127399861E+01  0.10012290421E+02  0.10903122417E+04  0.10903814110E+04  0.00000000000E+00 0. -1.
        -13    1    3    3    0    0 -0.40110686064E+02 -0.17227968093E+02  0.58972915399E+02  0.73372166193E+02  0.00000000000E+00 0. -1.
         13    1    3    3    0    0  0.27265677164E+02 -0.23260914643E+02 -0.12515384972E+02  0.37962114829E+02  0.00000000000E+00 0.  1.
         21    1    1    2  502  501  0.19493508473E+02  0.15212578590E+02  0.74096671115E+00  0.24737996112E+02  0.00000000000E+00 0.  1.
<scales pt_clust_5="13000.00000" pt_clust_6="13000.00000" pt_clust_7="13000.00000" pt_clust_8="13000.00000" pt_clust_9="24.72690"></scales>
<clustering>
<clus scale="   24.727">  2  9  1 -1</clus>
<clus scale="   79.820">  5  6 -1 -1</clus>
<clus scale="   84.133">  1  5  2 -1</clus>
<clus scale="   91.830">  7  8 -1 -1</clus>
<clus scale="   84.133">  1  5  2 -1</clus>
</clustering>
</event>
<event>
 9    2  0.3402837E-005  0.1396148E+03  0.7546771E-02  0.1216190E+00
          2   -1    0    0  502    0  0.00000000000E+00  0.00000000000E+00  0.82643270649E+03  0.82643270649E+03  0.00000000000E+00 0. -1.
         -1   -1    0    0    0  501 -0.00000000000E+00 -0.00000000000E+00 -0.48121781384E+02  0.48121781384E+02  0.00000000000E+00 0.  1.
         23    2    1    2    0    0  0.66350228318E+02 -0.79339202850E+02  0.28697518120E+03  0.31881431477E+03  0.92686303045E+02 0.  0.
         24    2    1    2    0    0 -0.11194593412E+03  0.23982812262E+02  0.45301770051E+03  0.47442860679E+03  0.82160808861E+02 0.  0.
        -11    1    4    4    0    0 -0.91635680572E+02 -0.23049256291E+01  0.20977341757E+03  0.22892640161E+03  0.00000000000E+00 0.  1.
         12    1    4    4    0    0 -0.20310253547E+02  0.26287737891E+02  0.24324428295E+03  0.24550220518E+03  0.00000000000E+00 0. -1.
        -11    1    3    3    0    0 -0.13187275782E+02 -0.53177354224E+02  0.10240202744E+03  0.11613746367E+03  0.00000000000E+00 0. -1.
         11    1    3    3    0    0  0.79537504100E+02 -0.26161848625E+02  0.18457315376E+03  0.20267685110E+03  0.00000000000E+00 0.  1.
         21    1    1    2  502  501  0.45595705801E+02  0.55356390588E+02  0.38318043390E+02  0.81311566309E+02  0.00000000000E+00 0.  1.
<scales pt_clust_5="13000.00000" pt_clust_6="13000.00000" pt_clust_7="13000.00000" pt_clust_8="13000.00000" pt_clust_9="71.71679"></scales>
<clustering>
<clus scale="   71.717">  2  9  1 -1</clus>
<clus scale="   82.161">  5  6 -1 -1</clus>
<clus scale="   92.686">  7  8 -1 -1</clus>
<clus scale="  132.861">  1  5  2 -1</clus>
<clus scale="  132.861">  1  5  2 -1</clus>
</clustering>
</event>
<event>
 9    2  0.3402837E-005  0.9233304E+02  0.7546771E-02  0.1304461E+00
         -1   -1    0    0    0  501 -0.00000000000E+00  0.00000000000E+00  0.40872851511E+03  0.40872851511E+03  0.00000000000E+00 0.  1.
          2   -1    0    0  502    0  0.00000000000E+00 -0.00000000000E+00 -0.48532598040E+02  0.48532598040E+02  0.00000000000E+00 0. -1.
         23    2    1    2    0    0  0.20014923634E+02  0.71756346061E+01  0.23814442292E+03  0.25616135076E+03  0.91944464531E+02 0.  0.
         24    2    1    2    0    0  0.29205494518E+02  0.31193030944E+02  0.44070926437E+02  0.10122097084E+03  0.80482745304E+02 0.  0.
        -11    1    4    4    0    0 -0.11220483549E+02  0.36189930879E+02  0.47013587051E+02  0.60381186768E+02  0.00000000000E+00 0.  1.
         12    1    4    4    0    0  0.40425978068E+02 -0.49968999353E+01 -0.29426606143E+01  0.40839784074E+02  0.00000000000E+00 0. -1.
        -13    1    3    3    0    0  0.39724748682E+02  0.39730093867E+02  0.14855077251E+03  0.15882023810E+03  0.00000000000E+00 0. -1.
         13    1    3    3    0    0 -0.19709825049E+02 -0.32554459261E+02  0.89593650404E+02  0.97341112661E+02  0.00000000000E+00 0.  1.
         21    1    1    2  502  501 -0.49220418152E+02 -0.38368665550E+02  0.77980567711E+02  0.99878791541E+02  0.00000000000E+00 0.  1.
<scales pt_clust_5="13000.00000" pt_clust_6="13000.00000" pt_clust_7="13000.00000" pt_clust_8="13000.00000" pt_clust_9="62.40837"></scales>
<clustering>
<clus scale="   62.408">  2  9  1 -1</clus>
<clus scale="   80.483">  5  6 -1 -1</clus>
<clus scale="   80.926">  2  5  1 -1</clus>
<clus scale="   91.944">  7  8 -1 -1</clus>
<clus scale="   62.408">  2  5  1 -1</clus>
</clustering>
</event>
<event>
 9    2  0.3402837E-005  0.1294446E+03  0.7546771E-02  0.1231547E+00
         -1   -1    0    0    0  501 -0.00000000000E+00  0.00000000000E+00  0.19454967711E+03  0.19454967711E+03  0.00000000000E+00 0.  1.
          2   -1    0    0  502    0  0.00000000000E+00 -0.00000000000E+00 -0.70148265894E+03  0.70148265894E+03  0.00000000000E+00 0. -1.
         23    2    1    2    0    0 -0.88175554641E+02  0.31105408410E+02 -0.25230576166E+02  0.13359967371E+03  0.92031603117E+02 0.  0.
         24    2    1    2    0    0  0.91122517595E+02 -0.32151933199E+01 -0.61469572352E+03  0.62651441014E+03  0.79723415089E+02 0.  0.
        -13    1    4    4    0    0  0.67435261792E+02 -0.35353578063E+01 -0.19901915936E+03  0.21016336284E+03  0.00000000000E+00 0.  1.
         14    1    4    4    0    0  0.23687255803E+02  0.32016448635E+00 -0.41567656416E+03  0.41635104730E+03  0.00000000000E+00 0. -1.
        -11    1    3    3    0    0 -0.52701172688E+02  0.63801148154E+02 -0.12376667768E+02  0.83673066237E+02  0.00000000000E+00 0. -1.
         11    1    3    3    0    0 -0.35474381953E+02 -0.32695739744E+02 -0.12853908399E+02  0.49926607470E+02  0.00000000000E+00 0.  1.
         21    1    1    2  502  501 -0.29469629540E+01 -0.27890215090E+02  0.13299331786E+03  0.13591825221E+03  0.00000000000E+00 0.  1.
<scales pt_clust_5="13000.00000" pt_clust_6="13000.00000" pt_clust_7="13000.00000" pt_clust_8="13000.00000" pt_clust_9="28.04548"></scales>
<clustering>
<clus scale="   28.045">  1  9  2 -1</clus>
<clus scale="   79.723">  5  6 -1 -1</clus>
<clus scale="   92.032">  7  8 -1 -1</clus>
<clus scale="  121.004">  2  5  1 -1</clus>
<clus scale="  121.004">  2  5  1 -1</clus>
</clustering>
</event>
<event>
 9    2  0.5017527E-005  0.2163039E+03  0.7546771E-02  0.1170538E+00
         -1   -1    0    0    0  501 -0.00000000000E+00  0.00000000000E+00  0.10125891685E+04  0.10125891685E+04  0.00000000000E+00 0.  1.
          2   -1    0    0  502    0  0.00000000000E+00 -0.00000000000E+00 -0.47647891865E+03  0.47647891865E+03  0.00000000000E+00 0. -1.
         24    2    1    2    0    0  0.37780822018E+02 -0.40598261976E+02  0.81602369428E+03  0.82181933691E+03  0.80104578579E+02 0.  0.
         23    2    1    2    0    0  0.81246290480E+02  0.18031896960E+03 -0.39425296205E+03  0.45100154230E+03  0.94080298435E+02 0.  0.
        -11    1    3    3    0    0  0.29873321401E+02 -0.54037124470E+02  0.34133586487E+03  0.34687548025E+03  0.00000000000E+00 0.  1.
         12    1    3    3    0    0  0.79075006169E+01  0.13438862494E+02  0.47468782941E+03  0.47494385666E+03  0.00000000000E+00 0. -1.
        -13    1    4    4    0    0  0.71575332616E+02  0.76463093173E+02 -0.13022567519E+03  0.16711780078E+03  0.00000000000E+00 0.  1.
         13    1    4    4    0    0  0.96709578645E+01  0.10385587643E+03 -0.26402728686E+03  0.28388374152E+03  0.00000000000E+00 0. -1.
         21    1    1    2  502  501 -0.11902711250E+03 -0.13972070762E+03  0.11433951758E+03  0.21624720791E+03  0.00000000000E+00 0.  1.
<scales pt_clust_5="13000.00000" pt_clust_6="13000.00000" pt_clust_7="13000.00000" pt_clust_8="13000.00000" pt_clust_9="194.77231"></scales>
<clustering>
<clus scale="   80.105">  5  6 -1 -1</clus>
<clus scale="   94.080">  7  8 -1 -1</clus>
<clus scale="   97.429">  1  5  2 -1</clus>
<clus scale="  194.772">  1  9  2 -1</clus>
<clus scale="  216.304">  2  5  1 -1</clus>
</clustering>
</event>
<event>
 9    2  0.3402837E-005  0.3737550E+03  0.7546771E-02  0.1104584E+00
         -1   -1    0    0    0  501 -0.00000000000E+00  0.00000000000E+00  0.11478441712E+03  0.11478441712E+03  0.00000000000E+00 0.  1.
          2   -1    0    0  502    0  0.00000000000E+00 -0.00000000000E+00 -0.17472862562E+04  0.17472862562E+04  0.00000000000E+00 0. -1.
         24    2    1    2    0    0 -0.11244820270E+03 -0.34408151971E+03 -0.40775806003E+03  0.55125056430E+03  0.81079335364E+02 0.  0.
         23    2    1    2    0    0  0.19658835451E+02 -0.15170733182E+02 -0.30683520538E+03  0.32075536493E+03  0.90108489662E+02 0.  0.
        -11    1    3    3    0    0 -0.68963167638E+02 -0.30017059908E+03 -0.35511610329E+03  0.47006994571E+03  0.00000000000E+00 0.  1.
         12    1    3    3    0    0 -0.43485035067E+02 -0.43910920629E+02 -0.52641956744E+02  0.81180618593E+02  0.00000000000E+00 0. -1.
        -13    1    4    4    0    0 -0.31854127686E+02 -0.13419031567E+02 -0.18908500991E+03  0.19221835717E+03  0.00000000000E+00 0. -1.
         13    1    4    4    0    0  0.51512963137E+02 -0.17517016151E+01 -0.11775019547E+03  0.12853700776E+03  0.00000000000E+00 0.  1.
         21    1    1    2  502  501  0.92789367254E+02  0.35925225289E+03 -0.91790857371E+03  0.99006474413E+03  0.00000000000E+00 0. -1.
<scales pt_clust_5="13000.00000" pt_clust_6="13000.00000" pt_clust_7="13000.00000" pt_clust_8="13000.00000" pt_clust_9="364.85471"></scales>
<clustering>
<clus scale="   81.079">  5  6 -1 -1</clus>
<clus scale="   90.108">  7  8 -1 -1</clus>
<clus scale="   93.467">  2  7  1 -1</clus>
<clus scale="  364.855">  2  9  1 -1</clus>
<clus scale="   93.467">  2  5  1 -1</clus>
</clustering>
</event>
<event>
 9    2  0.3402837E-005  0.9987141E+02  0.7546771E-02  0.1285427E+00
          2   -1    0    0  502    0  0.00000000000E+00  0.00000000000E+00  0.35636664324E+03  0.35636664324E+03  0.00000000000E+00 0. -1.
         -1   -1    0    0    0  501 -0.00000000000E+00 -0.00000000000E+00 -0.67552743591E+02  0.67552743591E+02  0.00000000000E+00 0.  1.
         23    2    1    2    0    0 -0.20970648129E+02 -0.20189103908E+02  0.89254908495E+01  0.97577392378E+02  0.92705529052E+02 0.  0.
         24    2    1    2    0    0 -0.13288874601E+02  0.39032712008E+02  0.27070369401E+03  0.28617788797E+03  0.83169386274E+02 0.  0.
        -11    1    4    4    0    0  0.28481955542E+02  0.25178296345E+02  0.60769548993E+02  0.71680586515E+02  0.00000000000E+00 0.  1.
         12    1    4    4    0    0 -0.41770830143E+02  0.13854415662E+02  0.20993414502E+03  0.21449730145E+03  0.00000000000E+00 0. -1.
        -13    1    3    3    0    0  0.11733774394E+02 -0.46294719864E+02 -0.14124017125E+02  0.49803317244E+02  0.00000000000E+00 0.  1.
         13    1    3    3    0    0 -0.32704422523E+02  0.26105615955E+02  0.23049507974E+02  0.47774075133E+02  0.00000000000E+00 0. -1.
         21    1    1    2  502  501  0.34259522731E+02 -0.18843608099E+02  0.91847147799E+01  0.40164106482E+02  0.00000000000E+00 0.  1.
<scales pt_clust_5="13000.00000" pt_clust_6="13000.00000" pt_clust_7="13000.00000" pt_clust_8="13000.00000" pt_clust_9="39.09983"></scales>
<clustering>
<clus scale="   39.100">  2  9  1 -1</clus>
<clus scale="   83.169">  5  6 -1 -1</clus>
<clus scale="   91.089">  1  5  2 -1</clus>
<clus scale="   92.706">  7  8 -1 -1</clus>
<clus scale="   91.089">  1  5  2 -1</clus>
</clustering>
</event>
<event>
 9    2  0.3402837E-005  0.1160700E+03  0.7546771E-02  0.1252490E+00
         -1   -1    0    0    0  501 -0.00000000000E+00  0.00000000000E+00  0.11074235507E+03  0.11074235507E+03  0.00000000000E+00 0.  1.
          2   -1    0    0  502    0  0.00000000000E+00 -0.00000000000E+00 -0.28079836174E+03  0.28079836174E+03  0.00000000000E+00 0. -1.
         23    2    1    2    0    0  0.42482276668E+01  0.58864157481E+02  0.27423769054E+02  0.10938881583E+03  0.87925044466E+02 0.  0.
         24    2    1    2    0    0 -0.15150910300E+02 -0.77649365708E+02 -0.22240440373E+03  0.24909150749E+03  0.79522866064E+02 0.  0.
        -13    1    4    4    0    0  0.28469529802E+02 -0.12166917759E+02 -0.41149845385E+02  0.51496191996E+02  0.00000000000E+00 0.  1.
         14    1    4    4    0    0 -0.43620440102E+02 -0.65482447950E+02 -0.18125455835E+03  0.19759531550E+03  0.00000000000E+00 0. -1.
        -13    1    3    3    0    0  0.44957371684E+02  0.39933766340E+02  0.87528664076E+01  0.60765809738E+02  0.00000000000E+00 0.  1.
         13    1    3    3    0    0 -0.40709144017E+02  0.18930391141E+02  0.18670902646E+02  0.48623006087E+02  0.00000000000E+00 0. -1.
         21    1    1    2  502  501  0.10902682633E+02  0.18785208228E+02  0.24924628002E+02  0.33060393492E+02  0.00000000000E+00 0.  1.
<scales pt_clust_5="13000.00000" pt_clust_6="13000.00000" pt_clust_7="13000.00000" pt_clust_8="13000.00000" pt_clust_9="21.71987"></scales>
<clustering>
<clus scale="   21.720">  1  9  2 -1</clus>
<clus scale="   79.523">  5  6 -1 -1</clus>
<clus scale="   87.925">  7  8 -1 -1</clus>
<clus scale="  109.842">  2  5  1 -1</clus>
<clus scale="  109.842">  2  5  1 -1</clus>
</clustering>
</event>
<event>
 9    2  0.3402837E-005  0.1056078E+03  0.7546771E-02  0.1274303E+00
         -1   -1    0    0    0  501 -0.00000000000E+00  0.00000000000E+00  0.11312704209E+03  0.11312704209E+03  0.00000000000E+00 0.  1.
          2   -1    0    0  502    0  0.00000000000E+00 -0.00000000000E+00 -0.30521878745E+03  0.30521878745E+03  0.00000000000E+00 0. -1.
         23    2    1    2    0    0 -0.91019279788E+01  0.16905476871E+02 -0.17512481779E+01  0.96562488257E+02  0.94618217205E+02 0.  0.
         24    2    1    2    0    0 -0.43472130098E+02  0.46567406576E+02 -0.21217946871E+03  0.23652034114E+03  0.82845611707E+02 0.  0.
        -13    1    4    4    0    0 -0.39392262722E+02 -0.14895496256E+02 -0.10076118830E+03  0.10920825628E+03  0.00000000000E+00 0.  1.
         14    1    4    4    0    0 -0.40798673760E+01  0.61462902832E+02 -0.11141828041E+03  0.12731208486E+03  0.00000000000E+00 0. -1.
        -13    1    3    3    0    0 -0.56669468722E+01  0.38843755940E+02 -0.37623527756E+02  0.54373536791E+02  0.00000000000E+00 0. -1.
         13    1    3    3    0    0 -0.34349811066E+01 -0.21938279069E+02  0.35872279578E+02  0.42188951466E+02  0.00000000000E+00 0.  1.
         21    1    1    2  502  501  0.52574058076E+02 -0.63472883447E+02  0.21838971525E+02  0.85263000140E+02  0.00000000000E+00 0. -1.
<scales pt_clust_5="13000.00000" pt_clust_6="13000.00000" pt_clust_7="13000.00000" pt_clust_8="13000.00000" pt_clust_9="82.41868"></scales>
<clustering>
<clus scale="   82.419">  1  9  2 -1</clus>
<clus scale="   82.846">  5  6 -1 -1</clus>
<clus scale="   94.618">  7  8 -1 -1</clus>
<clus scale="   95.204">  2  5  1 -1</clus>
<clus scale="   95.204">  2  5  1 -1</clus>
</clustering>
</event>
<event>
 9    2  0.3402837E-005  0.9835951E+02  0.7546771E-02  0.1292769E+00
         -1   -1    0    0    0  501 -0.00000000000E+00  0.00000000000E+00  0.43285522932E+02  0.43285522932E+02  0.00000000000E+00 0.  1.
          2   -1    0    0  502    0  0.00000000000E+00 -0.00000000000E+00 -0.11087210500E+04  0.11087210500E+04  0.00000000000E+00 0. -1.
         23    2    1    2    0    0  0.31291342096E+02 -0.26043928977E+02 -0.47225557946E+02  0.11272406211E+03  0.93909672177E+02 0.  0.
         24    2    1    2    0    0 -0.52880986617E+01  0.28629220935E+02 -0.10077019456E+04  0.10111174445E+04  0.77766825085E+02 0.  0.
        -11    1    4    4    0    0 -0.25099183776E+02  0.28279963055E+02 -0.22428468451E+03  0.22744965386E+03  0.00000000000E+00 0.  1.
         12    1    4    4    0    0  0.19811085114E+02  0.34925788045E+00 -0.78341726108E+03  0.78366779061E+03  0.00000000000E+00 0. -1.
        -13    1    3    3    0    0  0.20376874503E+02 -0.57710311258E+02 -0.89345388775E+01  0.61850812646E+02  0.00000000000E+00 0.  1.
         13    1    3    3    0    0  0.10914467593E+02  0.31666382281E+02 -0.38291019069E+02  0.50873249463E+02  0.00000000000E+00 0. -1.
         21    1    1    2  502  501 -0.26003243435E+02 -0.25852919579E+01 -0.10508023518E+02  0.28165066339E+02  0.00000000000E+00 0. -1.
<scales pt_clust_5="13000.00000" pt_clust_6="13000.00000" pt_clust_7="13000.00000" pt_clust_8="13000.00000" pt_clust_9="26.13144"></scales>
<clustering>
<clus scale="   26.131">  1  9  2 -1</clus>
<clus scale="   77.767">  5  6 -1 -1</clus>
<clus scale="   83.086">  2  5  1 -1</clus>
<clus scale="   93.910">  7  8 -1 -1</clus>
<clus scale="   83.086">  2  5  1 -1</clus>
</clustering>
</event>
<event>
 9    2  0.3402837E-005  0.9507814E+02  0.7546771E-02  0.1298379E+00
         -1   -1    0    0    0  501 -0.00000000000E+00  0.00000000000E+00  0.26070923889E+03  0.26070923889E+03  0.00000000000E+00 0.  1.
          2   -1    0    0  502    0  0.00000000000E+00 -0.00000000000E+00 -0.99288264287E+02  0.99288264287E+02  0.00000000000E+00 0. -1.
         23    2    1    2    0    0 -0.64229821849E+00 -0.52246976363E+02  0.14618644709E+03  0.18119687119E+03  0.93443403897E+02 0.  0.
         24    2    1    2    0    0 -0.18509496840E+02 -0.18913646131E+02 -0.32264155426E+02  0.91126517624E+02  0.81010733891E+02 0.  0.
        -13    1    4    4    0    0 -0.50223792600E+02 -0.17395353158E+02 -0.16337337948E+02  0.55605182005E+02  0.00000000000E+00 0.  1.
         14    1    4    4    0    0  0.31714295760E+02 -0.15182929730E+01 -0.15926817478E+02  0.35521335618E+02  0.00000000000E+00 0. -1.
        -11    1    3    3    0    0 -0.43344607950E+02 -0.10804776146E+02  0.83920071507E+02  0.95068799444E+02  0.00000000000E+00 0.  1.
         11    1    3    3    0    0  0.42702309732E+02 -0.41442200217E+02  0.62266375579E+02  0.86128071748E+02  0.00000000000E+00 0. -1.
         21    1    1    2  502  501  0.19151795058E+02  0.71160622494E+02  0.47498682942E+02  0.87674114360E+02  0.00000000000E+00 0. -1.
<scales pt_clust_5="13000.00000" pt_clust_6="13000.00000" pt_clust_7="13000.00000" pt_clust_8="13000.00000" pt_clust_9="73.69278"></scales>
<clustering>
<clus scale="   73.693">  1  9  2 -1</clus>
<clus scale="   81.011">  5  6 -1 -1</clus>
<clus scale="   82.891">  2  5  1 -1</clus>
<clus scale="   93.443">  7  8 -1 -1</clus>
<clus scale="   82.891">  2  5  1 -1</clus>
</clustering>
</event>
<event>
 9    2  0.3402837E-005  0.1689973E+03  0.7546771E-02  0.1180435E+00
          2   -1    0    0  502    0  0.00000000000E+00  0.00000000000E+00  0.20212794062E+04  0.20212794062E+04  0.00000000000E+00 0. -1.
         -1   -1    0    0    0  501 -0.00000000000E+00 -0.00000000000E+00 -0.67733106999E+02  0.67733106999E+02  0.00000000000E+00 0.  1.
         23    2    1    2    0    0  0.10459678002E+03 -0.27762159883E+02  0.21925887901E+03  0.26052078111E+03  0.89918838150E+02 0.  0.
         24    2    1    2    0    0 -0.86138972160E+02  0.12974013551E+03  0.17140449292E+04  0.17228983771E+04  0.78589904582E+02 0.  0.
        -13    1    4    4    0    0 -0.29953589481E+02  0.19166428745E+02  0.15962784708E+03  0.16354087892E+03  0.00000000000E+00 0.  1.
         14    1    4    4    0    0 -0.56185382680E+02  0.11057370676E+03  0.15544170821E+04  0.15593574982E+04  0.00000000000E+00 0. -1.
        -11    1    3    3    0    0  0.84346993825E+02 -0.85698623700E+01  0.73775393017E+02  0.11238623814E+03  0.00000000000E+00 0.  1.
         11    1    3    3    0    0  0.20249786192E+02 -0.19192297513E+02  0.14548348599E+03  0.14813454297E+03  0.00000000000E+00 0. -1.
         21    1    1    2  502  501 -0.18457807857E+02 -0.10197797562E+03  0.20242490993E+02  0.10559335502E+03  0.00000000000E+00 0.  1.
<scales pt_clust_5="13000.00000" pt_clust_6="13000.00000" pt_clust_7="13000.00000" pt_clust_8="13000.00000" pt_clust_9="103.63493"></scales>
<clustering>
<clus scale="   78.590">  5  6 -1 -1</clus>
<clus scale="   89.919">  7  8 -1 -1</clus>
<clus scale="  103.635">  2  9  1 -1</clus>
<clus scale="  163.252">  1  5  2 -1</clus>
<clus scale="  163.252">  1  5  2 -1</clus>
</clustering>
</event>
<event>
 9    2  0.3402837E-005  0.9507215E+02  0.7546771E-02  0.1293264E+00
         -1   -1    0    0    0  501 -0.00000000000E+00  0.00000000000E+00  0.48415065823E+02  0.48415065823E+02  0.00000000000E+00 0.  1.
          2   -1    0    0  502    0  0.00000000000E+00 -0.00000000000E+00 -0.48327387287E+03  0.48327387287E+03  0.00000000000E+00 0. -1.
         24    2    1    2    0    0  0.24332725737E+02 -0.25225947597E+02 -0.25257936537E+02  0.91522842175E+02  0.80684802210E+02 0.  0.
         23    2    1    2    0    0 -0.43957882012E+02  0.80810931605E+01 -0.40155189498E+03  0.41289195493E+03  0.85077862125E+02 0.  0.
        -11    1    3    3    0    0  0.36467165216E+02  0.18550439618E+02 -0.20742796893E+02  0.45871958448E+02  0.00000000000E+00 0.  1.
         12    1    3    3    0    0 -0.12134439479E+02 -0.43776387215E+02 -0.45151396440E+01  0.45650883727E+02  0.00000000000E+00 0. -1.
        -11    1    4    4    0    0 -0.62985149987E+02  0.27003074567E+02 -0.31024426989E+03  0.31772283858E+03  0.00000000000E+00 0. -1.
         11    1    4    4    0    0  0.19027267975E+02 -0.18921981406E+02 -0.91307625084E+02  0.95169116342E+02  0.00000000000E+00 0.  1.
         21    1    1    2  502  501  0.19625156275E+02  0.17144854436E+02 -0.80489755293E+01  0.27274141591E+02  0.00000000000E+00 0.  1.
<scales pt_clust_5="13000.00000" pt_clust_6="13000.00000" pt_clust_7="13000.00000" pt_clust_8="13000.00000" pt_clust_9="26.05941"></scales>
<clustering>
<clus scale="   26.059">  1  9  2 -1</clus>
<clus scale="   80.685">  5  6 -1 -1</clus>
<clus scale="   85.078">  7  8 -1 -1</clus>
<clus scale="   91.162">  1  5  2 -1</clus>
<clus scale="   95.072">  2  5  1 -1</clus>
</clustering>
</event>
<event>
 9    2  0.3402837E-005  0.1162598E+03  0.7546771E-02  0.1252211E+00
          2   -1    0    0  502    0  0.00000000000E+00  0.00000000000E+00  0.64118358268E+03  0.64118358268E+03  0.00000000000E+00 0. -1.
         -1   -1    0    0    0  501 -0.00000000000E+00 -0.00000000000E+00 -0.40786152400E+02  0.40786152400E+02  0.00000000000E+00 0.  1.
         24    2    1    2    0    0  0.54875707514E+02  0.89245794776E+01  0.83171554237E+02  0.12943983200E+03  0.82135079479E+02 0.  0.
         23    2    1    2    0    0 -0.66914335713E+02 -0.43277093560E+02  0.49590053068E+03  0.51034229651E+03  0.90451578943E+02 0.  0.
        -13    1    3    3    0    0  0.13895813877E+02 -0.34919765279E+02  0.21103966518E+02  0.43102912352E+02  0.00000000000E+00 0.  1.
         14    1    3    3    0    0  0.40979893637E+02  0.43844344757E+02  0.62067587719E+02  0.86336919651E+02  0.00000000000E+00 0. -1.
        -13    1    4    4    0    0  0.20943135581E+02 -0.17609586084E+02  0.82100347713E+02  0.86540045901E+02  0.00000000000E+00 0.  1.
         13    1    4    4    0    0 -0.87857471294E+02 -0.25667507476E+02  0.41380018297E+03  0.42380225061E+03  0.00000000000E+00 0. -1.
         21    1    1    2  502  501  0.12038628199E+02  0.34352514082E+02  0.21325345368E+02  0.42187606566E+02  0.00000000000E+00 0.  1.
<scales pt_clust_5="13000.00000" pt_clust_6="13000.00000" pt_clust_7="13000.00000" pt_clust_8="13000.00000" pt_clust_9="36.40088"></scales>
<clustering>
<clus scale="   36.401">  2  9  1 -1</clus>
<clus scale="   82.135">  5  6 -1 -1</clus>
<clus scale="   90.452">  7  8 -1 -1</clus>
<clus scale="  109.914">  2  5  1 -1</clus>
<clus scale="  116.260">  1  5  2 -1</clus>
</clustering>
</event>
<event>
 9    2  0.3402837E-005  0.1177810E+03  0.7546771E-02  0.1248972E+00
          2   -1    0    0  502    0  0.00000000000E+00  0.00000000000E+00  0.62403780878E+03  0.62403780878E+03  0.00000000000E+00 0. -1.
         -1   -1    0    0    0  501 -0.00000000000E+00 -0.00000000000E+00 -0.42678828519E+02  0.42678828519E+02  0.00000000000E+00 0.  1.
         23    2    1    2    0    0  0.76543404809E+02 -0.93500920620E+01  0.95397077493E+02  0.15290680624E+03  0.91288399922E+02 0.  0.
         24    2    1    2    0    0 -0.56338762672E+02  0.53684943710E+02  0.38295707232E+03  0.39986334480E+03  0.84725709872E+02 0.  0.
        -13    1    4    4    0    0 -0.24228358755E+02 -0.42747175548E+01  0.22412380017E+02  0.33280645368E+02  0.00000000000E+00 0.  1.
         14    1    4    4    0    0 -0.32110403917E+02  0.57959661265E+02  0.36054469230E+03  0.36658269943E+03  0.00000000000E+00 0. -1.
        -13    1    3    3    0    0  0.68557883530E+02 -0.40022803051E+02  0.39548068627E+02  0.88690799355E+02  0.00000000000E+00 0.  1.
         13    1    3    3    0    0  0.79855212795E+01  0.30672710989E+02  0.55849008865E+02  0.64216006889E+02  0.00000000000E+00 0. -1.
         21    1    1    2  502  501 -0.20204642137E+02 -0.44334851648E+02  0.10300483044E+03  0.11394648625E+03  0.00000000000E+00 0.  1.
<scales pt_clust_5="13000.00000" pt_clust_6="13000.00000" pt_clust_7="13000.00000" pt_clust_8="13000.00000" pt_clust_9="48.72173"></scales>
<clustering>
<clus scale="   48.722">  1  9  2 -1</clus>
<clus scale="   84.726">  5  6 -1 -1</clus>
<clus scale="   91.288">  7  8 -1 -1</clus>
<clus scale="  112.771">  1  5  2 -1</clus>
<clus scale="   48.722">  1  5  2 -1</clus>
</clustering>
</event>
<event>
 9    2  0.3402837E-005  0.1196093E+03  0.7546771E-02  0.1246912E+00
         -1   -1    0    0    0  501 -0.00000000000E+00  0.00000000000E+00  0.41285811438E+02  0.41285811438E+02  0.00000000000E+00 0.  1.
          2   -1    0    0  502    0  0.00000000000E+00 -0.00000000000E+00 -0.12833582393E+04  0.12833582393E+04  0.00000000000E+00 0. -1.
         23    2    1    2    0    0 -0.64967032892E+02 -0.59664012787E+02 -0.91684040566E+02  0.15606638143E+03  0.90389392822E+02 0.  0.
         24    2    1    2    0    0  0.70746969428E+02  0.32418146463E+02 -0.11260422796E+04  0.11315847260E+04  0.80353635186E+02 0.  0.
        -13    1    4    4    0    0  0.13602564252E+02  0.32635384456E+02 -0.16028626257E+03  0.16413952614E+03  0.00000000000E+00 0.  1.
         14    1    4    4    0    0  0.57144405176E+02 -0.21723799248E+00 -0.96575601701E+03  0.96744519981E+03  0.00000000000E+00 0. -1.
        -11    1    3    3    0    0 -0.29565075159E+02 -0.77903229239E+01  0.13608992305E+02  0.33466213887E+02  0.00000000000E+00 0.  1.
         11    1    3    3    0    0 -0.35401957733E+02 -0.51873689863E+02 -0.10529303287E+03  0.12260016755E+03  0.00000000000E+00 0. -1.
         21    1    1    2  502  501 -0.57799365362E+01  0.27245866324E+02 -0.24346107744E+02  0.36992943386E+02  0.00000000000E+00 0. -1.
<scales pt_clust_5="13000.00000" pt_clust_6="13000.00000" pt_clust_7="13000.00000" pt_clust_8="13000.00000" pt_clust_9="27.85220"></scales>
<clustering>
<clus scale="   27.852">  1  9  2 -1</clus>
<clus scale="   80.354">  5  6 -1 -1</clus>
<clus scale="   90.389">  7  8 -1 -1</clus>
<clus scale="  112.218">  2  5  1 -1</clus>
<clus scale="  112.218">  2  5  1 -1</clus>
</clustering>
</event>
<event>
 9    2  0.3402837E-005  0.1491354E+03  0.7546771E-02  0.1203609E+00
          2   -1    0    0  502    0  0.00000000000E+00  0.00000000000E+00  0.38067269287E+03  0.38067269287E+03  0.00000000000E+00 0. -1.
         -1   -1    0    0    0  501 -0.00000000000E+00 -0.00000000000E+00 -0.92384768776E+02  0.92384768776E+02  0.00000000000E+00 0.  1.
         24    2    1    2    0    0 -0.55130084204E+02  0.13177252743E+03  0.12955568963E+03  0.20892494827E+03  0.80384277834E+02 0.  0.
         23    2    1    2    0    0  0.76387031005E+01 -0.10354242117E+03  0.15642144852E+03  0.20883595010E+03  0.91462570108E+02 0.  0.
        -13    1    3    3    0    0 -0.67374430660E+02  0.57916231402E+02  0.65221630805E+02  0.11021553834E+03  0.00000000000E+00 0.  1.
         14    1    3    3    0    0  0.12244346456E+02  0.73856296031E+02  0.64334058824E+02  0.98709409928E+02  0.00000000000E+00 0. -1.
        -11    1    4    4    0    0  0.20668008235E+01 -0.80645203556E+02  0.16507443110E+03  0.18373211022E+03  0.00000000000E+00 0. -1.
         11    1    4    4    0    0  0.55719022770E+01 -0.22897217612E+02 -0.86529825786E+01  0.25103839883E+02  0.00000000000E+00 0.  1.
         21    1    1    2  502  501  0.47491381104E+02 -0.28230106265E+02  0.23107859454E+01  0.55296563280E+02  0.00000000000E+00 0.  1.
<scales pt_clust_5="13000.00000" pt_clust_6="13000.00000" pt_clust_7="13000.00000" pt_clust_8="13000.00000" pt_clust_9="55.24826"></scales>
<clustering>
<clus scale="   55.248">  2  9  1 -1</clus>
<clus scale="   80.384">  5  6 -1 -1</clus>
<clus scale="   91.463">  7  8 -1 -1</clus>
<clus scale="  142.610">  2  5  1 -1</clus>
<clus scale="  149.135">  1  5  2 -1</clus>
</clustering>
</event>
<event>
 9    2  0.3402837E-005  0.1060050E+03  0.7546771E-02  0.1271200E+00
         -1   -1    0    0    0  501 -0.00000000000E+00  0.00000000000E+00  0.42734191260E+02  0.42734191260E+02  0.00000000000E+00 0.  1.
          2   -1    0    0  502    0  0.00000000000E+00 -0.00000000000E+00 -0.75884223199E+03  0.75884223199E+03  0.00000000000E+00 0. -1.
         23    2    1    2    0    0  0.37261403940E+02  0.42064081917E+02 -0.43959205645E+02  0.11344682176E+03  0.88204140467E+02 0.  0.
         24    2    1    2    0    0 -0.39478533168E+02 -0.69966401740E+02 -0.60034857673E+03  0.61106643121E+03  0.80807906902E+02 0.  0.
        -11    1    4    4    0    0 -0.37966026273E+02  0.55885563171E+01 -0.20346763007E+03  0.20705489031E+03  0.00000000000E+00 0.  1.
         12    1    4    4    0    0 -0.15125068948E+01 -0.75554958057E+02 -0.39688094666E+03  0.40401154090E+03  0.00000000000E+00 0. -1.
        -11    1    3    3    0    0  0.16121065121E+02  0.55151034761E+02  0.58710543201E+01  0.57758070039E+02  0.00000000000E+00 0.  1.
         11    1    3    3    0    0  0.21140338819E+02 -0.13086952843E+02 -0.49830259965E+02  0.55688751722E+02  0.00000000000E+00 0. -1.
         21    1    1    2  502  501  0.22171292279E+01  0.27902319823E+02 -0.71800258354E+02  0.77063170277E+02  0.00000000000E+00 0. -1.
<scales pt_clust_5="13000.00000" pt_clust_6="13000.00000" pt_clust_7="13000.00000" pt_clust_8="13000.00000" pt_clust_9="27.99027"></scales>
<clustering>
<clus scale="   27.990">  2  9  1 -1</clus>
<clus scale="   80.808">  5  6 -1 -1</clus>
<clus scale="   88.204">  7  8 -1 -1</clus>
<clus scale="   99.935">  2  5  1 -1</clus>
<clus scale="   27.990">  2  5  1 -1</clus>
</clustering>
</event>
<event>
 9    2  0.3402837E-005  0.1531015E+03  0.7546771E-02  0.1198806E+00
         -1   -1    0    0    0  501 -0.00000000000E+00  0.00000000000E+00  0.27602088630E+02  0.27602088630E+02  0.00000000000E+00 0.  1.
          2   -1    0    0  502    0  0.00000000000E+00 -0.00000000000E+00 -0.10820211530E+04  0.10820211530E+04  0.00000000000E+00 0. -1.
         24    2    1    2    0    0 -0.39875128833E+02  0.99732285054E+02 -0.38834783309E+03  0.41089890685E+03  0.80543886170E+02 0.  0.
         23    2    1    2    0    0  0.62793097117E+02 -0.12081192281E+03 -0.62972527756E+03  0.65086398845E+03  0.92366187174E+02 0.  0.
        -11    1    3    3    0    0 -0.25574926117E+02  0.77297070334E+02 -0.14660098050E+03  0.16769246081E+03  0.00000000000E+00 0.  1.
         12    1    3    3    0    0 -0.14300202715E+02  0.22435214721E+02 -0.24174685259E+03  0.24320644604E+03  0.00000000000E+00 0. -1.
        -11    1    4    4    0    0  0.22063930810E+02 -0.30450194647E+02 -0.49130136856E+02  0.61869230998E+02  0.00000000000E+00 0.  1.
         11    1    4    4    0    0  0.40729166307E+02 -0.90361728165E+02 -0.58059514070E+03  0.58899475746E+03  0.00000000000E+00 0. -1.
         21    1    1    2  502  501 -0.22917968285E+02  0.21079637757E+02 -0.36345953700E+02  0.47860346307E+02  0.00000000000E+00 0.  1.
<scales pt_clust_5="13000.00000" pt_clust_6="13000.00000" pt_clust_7="13000.00000" pt_clust_8="13000.00000" pt_clust_9="31.13815"></scales>
<clustering>
<clus scale="   31.138">  1  9  2 -1</clus>
<clus scale="   80.544">  5  6 -1 -1</clus>
<clus scale="   92.366">  7  8 -1 -1</clus>
<clus scale="  146.273">  1  5  2 -1</clus>
<clus scale="  153.102">  2  5  1 -1</clus>
</clustering>
</event>
<event>
 9    2  0.3402837E-005  0.1143402E+03  0.7546771E-02  0.1256816E+00
          2   -1    0    0  502    0  0.00000000000E+00  0.00000000000E+00  0.58201393406E+03  0.58201393406E+03  0.00000000000E+00 0. -1.
         -1   -1    0    0    0  501 -0.00000000000E+00 -0.00000000000E+00 -0.35029564755E+02  0.35029564755E+02  0.00000000000E+00 0.  1.
         23    2    1    2    0    0  0.39467493451E+02  0.50816906994E+02  0.11379919494E+03  0.15871069084E+03  0.89993252767E+02 0.  0.
         24    2    1    2    0    0 -0.26856401906E+02 -0.67878269181E+02  0.41978834268E+03  0.43324088081E+03  0.78400780635E+02 0.  0.
        -11    1    4    4    0    0 -0.27365791003E+02 -0.76267331419E+02  0.24103595722E+03  0.25429102428E+03  0.00000000000E+00 0.  1.
         12    1    4    4    0    0  0.50938909698E+00  0.83890622379E+01  0.17875238546E+03  0.17894985652E+03  0.00000000000E+00 0. -1.
        -11    1    3    3    0    0  0.12581604546E+02 -0.24128452523E+02  0.49017030369E+02  0.56063787423E+02  0.00000000000E+00 0.  1.
         11    1    3    3    0    0  0.26885888905E+02  0.74945359517E+02  0.64782164567E+02  0.10264690342E+03  0.00000000000E+00 0. -1.
         21    1    1    2  502  501 -0.12611091545E+02  0.17061362187E+02  0.13396831697E+02  0.25091927171E+02  0.00000000000E+00 0.  1.
<scales pt_clust_5="13000.00000" pt_clust_6="13000.00000" pt_clust_7="13000.00000" pt_clust_8="13000.00000" pt_clust_9="21.21626"></scales>
<clustering>
<clus scale="   21.216">  2  9  1 -1</clus>
<clus scale="   78.401">  5  6 -1 -1</clus>
<clus scale="   89.993">  7  8 -1 -1</clus>
<clus scale="  105.459">  1  5  2 -1</clus>
<clus scale="  105.459">  1  5  2 -1</clus>
</clustering>
</event>
<event>
 9    2  0.3402837E-005  0.1378978E+03  0.7546771E-02  0.1221760E+00
         -1   -1    0    0    0  501 -0.00000000000E+00  0.00000000000E+00  0.98629456085E+02  0.98629456085E+02  0.00000000000E+00 0.  1.
          2   -1    0    0  502    0  0.00000000000E+00 -0.00000000000E+00 -0.24891417759E+03  0.24891417759E+03  0.00000000000E+00 0. -1.
         24    2    1    2    0    0 -0.71035179796E+02  0.45958294396E+02  0.90844318180E+01  0.10871189428E+03  0.67657870669E+02 0.  0.
         23    2    1    2    0    0  0.85481542636E+02 -0.71292015873E+02 -0.14943870339E+03  0.20802413191E+03  0.92479553021E+02 0.  0.
        -13    1    3    3    0    0 -0.45086596932E+02 -0.55417532980E+01  0.20644169241E+02  0.49896833329E+02  0.00000000000E+00 0.  1.
         14    1    3    3    0    0 -0.25948582863E+02  0.51500047694E+02 -0.11559737423E+02  0.58815060949E+02  0.00000000000E+00 0. -1.
        -11    1    4    4    0    0 -0.82188686746E+01 -0.32547346169E+02 -0.89040137442E+01  0.34729828759E+02  0.00000000000E+00 0.  1.
         11    1    4    4    0    0  0.93700411311E+02 -0.38744669704E+02 -0.14053468965E+03  0.17329430315E+03  0.00000000000E+00 0. -1.
         21    1    1    2  502  501 -0.14446362841E+02  0.25333721477E+02 -0.99304499297E+01  0.30807607486E+02  0.00000000000E+00 0.  1.
<scales pt_clust_5="13000.00000" pt_clust_6="13000.00000" pt_clust_7="13000.00000" pt_clust_8="13000.00000" pt_clust_9="29.16324"></scales>
<clustering>
<clus scale="   29.163">  1  9  2 -1</clus>
<clus scale="   67.658">  5  6 -1 -1</clus>
<clus scale="   92.480">  7  8 -1 -1</clus>
<clus scale="  122.641">  1  5  2 -1</clus>
<clus scale="  137.898">  2  5  1 -1</clus>
</clustering>
</event>
<event>
 9    2  0.3402837E-005  0.1066935E+03  0.7546771E-02  0.1269991E+00
          2   -1    0    0  502    0  0.00000000000E+00  0.00000000000E+00  0.38771040606E+03  0.38771040606E+03  0.00000000000E+00 0. -1.
         -1   -1    0    0    0  501 -0.00000000000E+00 -0.00000000000E+00 -0.13601239708E+03  0.13601239708E+03  0.00000000000E+00 0.  1.
         23    2    1    2    0    0  0.23330042884E+02  0.27900317713E+02  0.55430920517E+02  0.11269021968E+03  0.91125079060E+02 0.  0.
         24    2    1    2    0    0 -0.39367907182E+02 -0.47177881484E+02  0.29314624046E+03  0.31096057115E+03  0.83583335076E+02 0.  0.
        -11    1    4    4    0    0 -0.34661409219E+02  0.12631834774E+02  0.17026400078E+03  0.17421482859E+03  0.00000000000E+00 0.  1.
         12    1    4    4    0    0 -0.47064979628E+01 -0.59809716258E+02  0.12288223967E+03  0.13674574256E+03  0.00000000000E+00 0. -1.
        -11    1    3    3    0    0  0.44262158894E+02  0.39411926230E+02  0.64078973974E+02  0.87284325882E+02  0.00000000000E+00 0. -1.
         11    1    3    3    0    0 -0.20932116010E+02 -0.11511608517E+02 -0.86480534569E+01  0.25405893802E+02  0.00000000000E+00 0.  1.
         21    1    1    2  502  501  0.16037864298E+02  0.19277563771E+02 -0.96879151990E+02  0.10007201230E+03  0.00000000000E+00 0.  1.
<scales pt_clust_5="13000.00000" pt_clust_6="13000.00000" pt_clust_7="13000.00000" pt_clust_8="13000.00000" pt_clust_9="25.07663"></scales>
<clustering>
<clus scale="   25.077">  2  9  1 -1</clus>
<clus scale="   83.583">  5  6 -1 -1</clus>
<clus scale="   91.125">  7  8 -1 -1</clus>
<clus scale="  100.329">  1  5  2 -1</clus>
<clus scale="  100.329">  1  5  2 -1</clus>
</clustering>
</event>
<event>
 9    2  0.3402837E-005  0.9662006E+02  0.7546771E-02  0.1289504E+00
         -1   -1    0    0    0  501 -0.00000000000E+00  0.00000000000E+00  0.53038934682E+03  0.53038934682E+03  0.00000000000E+00 0.  1.
          2   -1    0    0  502    0  0.00000000000E+00 -0.00000000000E+00 -0.79745807441E+02  0.79745807441E+02  0.00000000000E+00 0. -1.
         23    2    1    2    0    0  0.55005482778E+02 -0.33927076948E+02  0.23967317090E+03  0.26356040628E+03  0.88567540465E+02 0.  0.
         24    2    1    2    0    0 -0.14891299120E+02  0.33293814715E+02 -0.33979833832E+02  0.98360827411E+02  0.84793834528E+02 0.  0.
        -11    1    4    4    0    0  0.64853478410E+01  0.46582370959E+02  0.96309276198E+01  0.48007622182E+02  0.00000000000E+00 0.  1.
         12    1    4    4    0    0 -0.21376646961E+02 -0.13288556244E+02 -0.43610761452E+02  0.50353205229E+02  0.00000000000E+00 0. -1.
        -13    1    3    3    0    0 -0.14041815171E+02 -0.18582030154E+02  0.14258210014E+02  0.27308624475E+02  0.00000000000E+00 0. -1.
         13    1    3    3    0    0  0.69047297949E+02 -0.15345046794E+02  0.22541496089E+03  0.23625178181E+03  0.00000000000E+00 0.  1.
         21    1    1    2  502  501 -0.40114183657E+02  0.63326223369E+00  0.24495020232E+03  0.24821392057E+03  0.00000000000E+00 0.  1.
<scales pt_clust_5="13000.00000" pt_clust_6="13000.00000" pt_clust_7="13000.00000" pt_clust_8="13000.00000" pt_clust_9="40.11918"></scales>
<clustering>
<clus scale="   40.119">  1  9  2 -1</clus>
<clus scale="   84.794">  5  6 -1 -1</clus>
<clus scale="   88.568">  7  8 -1 -1</clus>
<clus scale="   93.173">  2  5  1 -1</clus>
<clus scale="   93.173">  2  5  1 -1</clus>
</clustering>
</event>
<event>
 9    2  0.3402837E-005  0.1423863E+03  0.7546771E-02  0.1212384E+00
          2   -1    0    0  502    0  0.00000000000E+00  0.00000000000E+00  0.55822353112E+03  0.55822353112E+03  0.00000000000E+00 0. -1.
         -1   -1    0    0    0  501 -0.00000000000E+00 -0.00000000000E+00 -0.93201706715E+02  0.93201706715E+02  0.00000000000E+00 0.  1.
         23    2    1    2    0    0 -0.17220093311E+02  0.10816998151E+03  0.18180226853E+02  0.14306412695E+03  0.90219439482E+02 0.  0.
         24    2    1    2    0    0  0.37934378345E+02 -0.10381529009E+03  0.46245385007E+03  0.48205925980E+03  0.79378429006E+02 0.  0.
        -11    1    4    4    0    0  0.17886345131E+02 -0.71301712259E+02  0.14755803897E+03  0.16485518001E+03  0.00000000000E+00 0.  1.
         12    1    4    4    0    0  0.20048033214E+02 -0.32513577826E+02  0.31489581111E+03  0.31720407978E+03  0.00000000000E+00 0. -1.
        -13    1    3    3    0    0  0.30943365326E+01  0.75259632459E+02 -0.30176983892E+02  0.81143314902E+02  0.00000000000E+00 0.  1.
         13    1    3    3    0    0 -0.20314429843E+02  0.32910349046E+02  0.48357210746E+02  0.61920812053E+02  0.00000000000E+00 0. -1.
         21    1    1    2  502  501 -0.20714285034E+02 -0.43546914197E+01 -0.15612252519E+02  0.26301851086E+02  0.00000000000E+00 0. -1.
<scales pt_clust_5="13000.00000" pt_clust_6="13000.00000" pt_clust_7="13000.00000" pt_clust_8="13000.00000" pt_clust_9="21.16707"></scales>
<clustering>
<clus scale="   21.167">  2  9  1 -1</clus>
<clus scale="   79.378">  5  6 -1 -1</clus>
<clus scale="   90.219">  7  8 -1 -1</clus>
<clus scale="  135.776">  1  5  2 -1</clus>
<clus scale="  135.776">  1  5  2 -1</clus>
</clustering>
</event>
<event>
 9    2  0.3402837E-005  0.1124865E+03  0.7546771E-02  0.1259820E+00
         -1   -1    0    0    0  501 -0.00000000000E+00  0.00000000000E+00  0.16360132376E+03  0.16360132376E+03  0.00000000000E+00 0.  1.
          2   -1    0    0  502    0  0.00000000000E+00 -0.00000000000E+00 -0.13204415694E+03  0.13204415694E+03  0.00000000000E+00 0. -1.
         24    2    1    2    0    0 -0.80554040519E+02 -0.23478337669E+02  0.83863724525E+02  0.14407544870E+03  0.81758331958E+02 0.  0.
         23    2    1    2    0    0  0.59009712536E+02  0.85870216304E+01 -0.59181908365E+02  0.12449273877E+03  0.91869802516E+02 0.  0.
        -11    1    3    3    0    0 -0.62050572365E+02 -0.29045916955E+02  0.98395260716E+02  0.11989814908E+03  0.00000000000E+00 0.  1.
         12    1    3    3    0    0 -0.18503468154E+02  0.55675792855E+01 -0.14531536191E+02  0.24177299620E+02  0.00000000000E+00 0. -1.
        -13    1    4    4    0    0  0.33492186387E+02  0.49886880103E+02 -0.40567422328E+02  0.72499262822E+02  0.00000000000E+00 0.  1.
         13    1    4    4    0    0  0.25517526149E+02 -0.41299858473E+02 -0.18614486037E+02  0.51993475947E+02  0.00000000000E+00 0. -1.
         21    1    1    2  502  501  0.21544327983E+02  0.14891316039E+02  0.68753506686E+01  0.27077293225E+02  0.00000000000E+00 0. -1.
<scales pt_clust_5="13000.00000" pt_clust_6="13000.00000" pt_clust_7="13000.00000" pt_clust_8="13000.00000" pt_clust_9="26.18987"></scales>
<clustering>
<clus scale="   26.190">  1  9  2 -1</clus>
<clus scale="   81.758">  5  6 -1 -1</clus>
<clus scale="   91.870">  7  8 -1 -1</clus>
<clus scale="  104.391">  1  5  2 -1</clus>
<clus scale="  112.486">  2  5  1 -1</clus>
</clustering>
</event>
<event>
 9    2  0.3402837E-005  0.9497347E+02  0.7546771E-02  0.1297407E+00
          2   -1    0    0  502    0  0.00000000000E+00  0.00000000000E+00  0.15886934925E+03  0.15886934925E+03  0.00000000000E+00 0. -1.
         -1   -1    0    0    0  501 -0.00000000000E+00 -0.00000000000E+00 -0.27644703516E+03  0.27644703516E+03  0.00000000000E+00 0.  1.
         23    2    1    2    0    0 -0.17670240434E+02  0.25735799745E+02 -0.18800795467E+03  0.21150044300E+03  0.91710836805E+02 0.  0.
         24    2    1    2    0    0 -0.96442513685E+01  0.26792453303E+02  0.11934441469E+03  0.14701820380E+03  0.80996393700E+02 0.  0.
        -13    1    4    4    0    0  0.30519660220E+02  0.17538486980E+02  0.22523123666E+02  0.41789224511E+02  0.00000000000E+00 0.  1.
         14    1    4    4    0    0 -0.40163911589E+02  0.92539663235E+01  0.96821291021E+02  0.10522897929E+03  0.00000000000E+00 0. -1.
        -11    1    3    3    0    0 -0.46997011059E+02  0.23263715286E+02 -0.57951525245E+02  0.78155606168E+02  0.00000000000E+00 0. -1.
         11    1    3    3    0    0  0.29326770625E+02  0.24720844594E+01 -0.13005642942E+03  0.13334483684E+03  0.00000000000E+00 0.  1.
         21    1    1    2  502  501  0.27314491802E+02 -0.52528253048E+02 -0.48914145927E+02  0.76797737613E+02  0.00000000000E+00 0. -1.
<scales pt_clust_5="13000.00000" pt_clust_6="13000.00000" pt_clust_7="13000.00000" pt_clust_8="13000.00000" pt_clust_9="59.20556"></scales>
<clustering>
<clus scale="   59.206">  2  9  1 -1</clus>
<clus scale="   80.996">  5  6 -1 -1</clus>
<clus scale="   84.673">  1  5  2 -1</clus>
<clus scale="   91.711">  7  8 -1 -1</clus>
<clus scale="   84.673">  1  5  2 -1</clus>
</clustering>
</event>
<event>
 9    2  0.3402837E-005  0.1038946E+03  0.7546771E-02  0.1277255E+00
          2   -1    0    0  502    0  0.00000000000E+00  0.00000000000E+00  0.55333952786E+03  0.55333952786E+03  0.00000000000E+00 0. -1.
         -1   -1    0    0    0  501 -0.00000000000E+00 -0.00000000000E+00 -0.64309708684E+02  0.64309708684E+02  0.00000000000E+00 0.  1.
         23    2    1    2    0    0 -0.85020844014E+01  0.17001824438E+02  0.31526984971E+02  0.98298892783E+02  0.91144797261E+02 0.  0.
         24    2    1    2    0    0  0.23046297770E+02 -0.49310352333E+02  0.47141394308E+03  0.48128600261E+03  0.80264985426E+02 0.  0.
        -13    1    4    4    0    0  0.19312879246E+01  0.21952983470E+02  0.13224652104E+03  0.13407015210E+03  0.00000000000E+00 0.  1.
         14    1    4    4    0    0  0.21115009845E+02 -0.71263335803E+02  0.33916742204E+03  0.34721585051E+03  0.00000000000E+00 0. -1.
        -11    1    3    3    0    0  0.54176690121E+01 -0.33547406841E+02  0.30800064576E+02  0.45863096506E+02  0.00000000000E+00 0. -1.
         11    1    3    3    0    0 -0.13919753414E+02  0.50549231279E+02  0.72692039511E+00  0.52435796277E+02  0.00000000000E+00 0.  1.
         21    1    1    2  502  501 -0.14544213368E+02  0.32308527895E+02 -0.13911108876E+02  0.38064341153E+02  0.00000000000E+00 0.  1.
<scales pt_clust_5="13000.00000" pt_clust_6="13000.00000" pt_clust_7="13000.00000" pt_clust_8="13000.00000" pt_clust_9="35.43127"></scales>
<clustering>
<clus scale="   35.431">  2  9  1 -1</clus>
<clus scale="   80.265">  5  6 -1 -1</clus>
<clus scale="   91.145">  7  8 -1 -1</clus>
<clus scale="   94.494">  1  5  2 -1</clus>
<clus scale="   94.494">  1  5  2 -1</clus>
</clustering>
</event>
<event>
 9    2  0.3402837E-005  0.1015974E+03  0.7546771E-02  0.1281992E+00
          2   -1    0    0  502    0  0.00000000000E+00  0.00000000000E+00  0.29017135417E+03  0.29017135417E+03  0.00000000000E+00 0. -1.
         -1   -1    0    0    0  501 -0.00000000000E+00 -0.00000000000E+00 -0.60941590674E+02  0.60941590674E+02  0.00000000000E+00 0.  1.
         24    2    1    2    0    0  0.40259010123E+02 -0.25244931961E+02  0.84918022089E+01  0.94800828288E+02  0.81590390694E+02 0.  0.
         23    2    1    2    0    0 -0.34324213440E+02 -0.55657494117E+01  0.17730915055E+03  0.20273430865E+03  0.91943111970E+02 0.  0.
        -11    1    3    3    0    0  0.20749743748E+02 -0.64946460301E+01 -0.36391498783E+02  0.42391903429E+02  0.00000000000E+00 0.  1.
         12    1    3    3    0    0  0.19509266375E+02 -0.18750285930E+02  0.44883300992E+02  0.52408924859E+02  0.00000000000E+00 0. -1.
        -11    1    4    4    0    0 -0.44878520291E+02 -0.38341540911E+02  0.14015662657E+03  0.15207904298E+03  0.00000000000E+00 0. -1.
         11    1    4    4    0    0  0.10554306851E+02  0.32775791499E+02  0.37152523984E+02  0.50655265667E+02  0.00000000000E+00 0.  1.
         21    1    1    2  502  501 -0.59347966831E+01  0.30810681372E+02  0.43428810731E+02  0.53577807904E+02  0.00000000000E+00 0.  1.
<scales pt_clust_5="13000.00000" pt_clust_6="13000.00000" pt_clust_7="13000.00000" pt_clust_8="13000.00000" pt_clust_9="31.37706"></scales>
<clustering>
<clus scale="   31.377">  1  9  2 -1</clus>
<clus scale="   81.590">  5  6 -1 -1</clus>
<clus scale="   91.943">  7  8 -1 -1</clus>
<clus scale="   92.334">  2  5  1 -1</clus>
<clus scale="   31.377">  1  5  2 -1</clus>
</clustering>
</event>
<event>
 9    2  0.3402837E-005  0.1104325E+03  0.7546771E-02  0.1260997E+00
         -1   -1    0    0    0  501 -0.00000000000E+00  0.00000000000E+00  0.11738169422E+03  0.11738169422E+03  0.00000000000E+00 0.  1.
          2   -1    0    0  502    0  0.00000000000E+00 -0.00000000000E+00 -0.21863798566E+03  0.21863798566E+03  0.00000000000E+00 0. -1.
         24    2    1    2    0    0 -0.56810384234E+02 -0.34803337072E+02  0.53780426286E+02  0.12302078197E+03  0.88335080893E+02 0.  0.
         23    2    1    2    0    0  0.19328993365E+02  0.44301446219E+02 -0.13288198616E+03  0.16843545022E+03  0.91524043422E+02 0.  0.
        -11    1    3    3    0    0 -0.69549773700E+02 -0.25581305831E+02  0.68913003266E+02  0.10119573236E+03  0.00000000000E+00 0.  1.
         12    1    3    3    0    0  0.12739389465E+02 -0.92220312416E+01 -0.15132576979E+02  0.21825049604E+02  0.00000000000E+00 0. -1.
        -13    1    4    4    0    0  0.50376813038E+02  0.26181769637E+02 -0.41758850849E+02  0.70477726818E+02  0.00000000000E+00 0.  1.
         13    1    4    4    0    0 -0.31047819672E+02  0.18119676582E+02 -0.91123135309E+02  0.97957723403E+02  0.00000000000E+00 0. -1.
         21    1    1    2  502  501  0.37481390869E+02 -0.94981091469E+01 -0.22154731573E+02  0.44563447689E+02  0.00000000000E+00 0.  1.
<scales pt_clust_5="13000.00000" pt_clust_6="13000.00000" pt_clust_7="13000.00000" pt_clust_8="13000.00000" pt_clust_9="38.66612"></scales>
<clustering>
<clus scale="   38.666">  2  9  1 -1</clus>
<clus scale="   88.335">  5  6 -1 -1</clus>
<clus scale="   91.524">  7  8 -1 -1</clus>
<clus scale="  107.804">  1  5  2 -1</clus>
<clus scale="   38.666">  2  5  1 -1</clus>
</clustering>
</event>
<event>
 9    2  0.3773484E-005  0.1055664E+03  0.7546771E-02  0.1275062E+00
         -1   -1    0    0    0  501 -0.00000000000E+00  0.00000000000E+00  0.10435792808E+03  0.10435792808E+03  0.00000000000E+00 0.  1.
          2   -1    0    0  502    0  0.00000000000E+00 -0.00000000000E+00 -0.66010392838E+03  0.66010392838E+03  0.00000000000E+00 0. -1.
         23    2    1    2    0    0 -0.28434694208E+02 -0.32598489287E+02  0.61743623626E+02  0.12228946694E+03  0.96287306163E+02 0.  0.
         24    2    1    2    0    0  0.42611025255E+02  0.92601312383E+01 -0.60477605893E+03  0.61205126648E+03  0.83373987775E+02 0.  0.
        -13    1    4    4    0    0  0.23962910486E+02  0.94418555720E+01 -0.44138249179E+02  0.51103373237E+02  0.00000000000E+00 0.  1.
         14    1    4    4    0    0  0.18648114769E+02 -0.18172433365E+00 -0.56063780975E+03  0.56094789324E+03  0.00000000000E+00 0. -1.
        -13    1    3    3    0    0 -0.37875153541E+02  0.34448111881E+01  0.73887815537E+02  0.83101162836E+02  0.00000000000E+00 0.  1.
         13    1    3    3    0    0  0.94404593331E+01 -0.36043300475E+02 -0.12144191911E+02  0.39188304106E+02  0.00000000000E+00 0. -1.
         21    1    1    2  502  501 -0.14176331047E+02  0.23338358049E+02 -0.12713565004E+02  0.30121123045E+02  0.00000000000E+00 0.  1.
<scales pt_clust_5="13000.00000" pt_clust_6="13000.00000" pt_clust_7="13000.00000" pt_clust_8="13000.00000" pt_clust_9="27.30654"></scales>
<clustering>
<clus scale="   27.307">  1  9  2 -1</clus>
<clus scale="   83.374">  5  6 -1 -1</clus>
<clus scale="   93.937">  2  5  1 -1</clus>
<clus scale="   96.287">  7  8 -1 -1</clus>
<clus scale="   93.937">  2  5  1 -1</clus>
</clustering>
</event>
<event>
 9    2  0.3402837E-005  0.9745282E+02  0.7546771E-02  0.1291959E+00
          2   -1    0    0  502    0  0.00000000000E+00  0.00000000000E+00  0.10556437432E+03  0.10556437432E+03  0.00000000000E+00 0. -1.
         -1   -1    0    0    0  501 -0.00000000000E+00 -0.00000000000E+00 -0.15058506606E+03  0.15058506606E+03  0.00000000000E+00 0.  1.
         23    2    1    2    0    0 -0.68618613104E+00  0.34519883990E+02 -0.45274561383E+02  0.10800654672E+03  0.91779817957E+02 0.  0.
         24    2    1    2    0    0 -0.27690293559E+02 -0.22718078189E+02  0.41073706740E+02  0.97047235124E+02  0.80301015098E+02 0.  0.
        -11    1    4    4    0    0  0.17490057530E+02  0.18368901314E+02  0.20479070018E+02  0.32599247794E+02  0.00000000000E+00 0.  1.
         12    1    4    4    0    0 -0.45180351090E+02 -0.41086979502E+02  0.20594636722E+02  0.64447987330E+02  0.00000000000E+00 0. -1.
        -13    1    3    3    0    0  0.28421326362E+02  0.19248829901E+02 -0.62193606842E+02  0.71037553285E+02  0.00000000000E+00 0.  1.
         13    1    3    3    0    0 -0.29107512493E+02  0.15271054090E+02  0.16919045459E+02  0.36968993437E+02  0.00000000000E+00 0. -1.
         21    1    1    2  502  501  0.28376479690E+02 -0.11801805802E+02 -0.40819837104E+02  0.51095658534E+02  0.00000000000E+00 0.  1.
<scales pt_clust_5="13000.00000" pt_clust_6="13000.00000" pt_clust_7="13000.00000" pt_clust_8="13000.00000" pt_clust_9="30.73284"></scales>
<clustering>
<clus scale="   30.733">  2  9  1 -1</clus>
<clus scale="   80.301">  5  6 -1 -1</clus>
<clus scale="   86.728">  1  5  2 -1</clus>
<clus scale="   91.780">  7  8 -1 -1</clus>
<clus scale="   86.728">  1  5  2 -1</clus>
</clustering>
</event>
<event>
 9    2  0.3402837E-005  0.1216025E+03  0.7546771E-02  0.1244216E+00
         -1   -1    0    0    0  501 -0.00000000000E+00  0.00000000000E+00  0.76399980328E+02  0.76399980328E+02  0.00000000000E+00 0.  1.
          2   -1    0    0  502    0  0.00000000000E+00 -0.00000000000E+00 -0.66776254941E+03  0.66776254941E+03  0.00000000000E+00 0. -1.
         24    2    1    2    0    0  0.52438691082E+02 -0.52904554959E+02 -0.20006501397E+03  0.22795765659E+03  0.79937319986E+02 0.  0.
         23    2    1    2    0    0 -0.87075142416E+02  0.16229928532E+02 -0.43256793687E+03  0.45102852472E+03  0.92012059501E+02 0.  0.
        -11    1    3    3    0    0  0.61529575167E+02 -0.38438923279E+02 -0.85529840308E+02  0.11215521845E+03  0.00000000000E+00 0.  1.
         12    1    3    3    0    0 -0.90908840843E+01 -0.14465631680E+02 -0.11453517366E+03  0.11580243814E+03  0.00000000000E+00 0. -1.
        -11    1    4    4    0    0 -0.19857917283E+02  0.46607894056E+02 -0.22820745820E+03  0.23376329191E+03  0.00000000000E+00 0. -1.
         11    1    4    4    0    0 -0.67217225133E+02 -0.30377965523E+02 -0.20436047867E+03  0.21726523281E+03  0.00000000000E+00 0.  1.
         21    1    1    2  502  501  0.34636451334E+02  0.36674626426E+02  0.41270381756E+02  0.65176348430E+02  0.00000000000E+00 0.  1.
<scales pt_clust_5="13000.00000" pt_clust_6="13000.00000" pt_clust_7="13000.00000" pt_clust_8="13000.00000" pt_clust_9="50.44514"></scales>
<clustering>
<clus scale="   50.445">  1  9  2 -1</clus>
<clus scale="   79.937">  5  6 -1 -1</clus>
<clus scale="   92.012">  7  8 -1 -1</clus>
<clus scale="  112.743">  1  5  2 -1</clus>
<clus scale="  121.602">  2  5  1 -1</clus>
</clustering>
</event>
<event>
 9    2  0.3402837E-005  0.1154057E+03  0.7546771E-02  0.1254372E+00
         -3   -1    0    0    0  501 -0.00000000000E+00  0.00000000000E+00  0.58242057517E+03  0.58242057517E+03  0.00000000000E+00 0.  1.
          4   -1    0    0  502    0  0.00000000000E+00 -0.00000000000E+00 -0.47663610137E+02  0.47663610137E+02  0.00000000000E+00 0. -1.
         24    2    1    2    0    0 -0.82819732952E+02  0.23659638577E+02  0.32799679472E+03  0.34899058750E+03  0.82423577653E+02 0.  0.
         23    2    1    2    0    0  0.57870130863E+02 -0.29962227755E+02  0.52328939378E+02  0.12453303329E+03  0.92322648061E+02 0.  0.
        -11    1    3    3    0    0 -0.76823559650E+02  0.17585595674E+02  0.33075983604E+03  0.34001938420E+03  0.00000000000E+00 0.  1.
         12    1    3    3    0    0 -0.59961733023E+01  0.60740429028E+01 -0.27630413161E+01  0.89712033067E+01  0.00000000000E+00 0. -1.
        -11    1    4    4    0    0  0.18036878986E+02 -0.18530435195E+02  0.73557777332E+02  0.77970844795E+02  0.00000000000E+00 0.  1.
         11    1    4    4    0    0  0.39833251877E+02 -0.11431792560E+02 -0.21228837954E+02  0.46562188491E+02  0.00000000000E+00 0. -1.
         21    1    1    2  502  501  0.24949602090E+02  0.63025891777E+01  0.15443123094E+03  0.15656056452E+03  0.00000000000E+00 0.  1.
<scales pt_clust_5="13000.00000" pt_clust_6="13000.00000" pt_clust_7="13000.00000" pt_clust_8="13000.00000" pt_clust_9="25.73335"></scales>
<clustering>
<clus scale="   25.733">  1  9  2 -1</clus>
<clus scale="   82.424">  5  6 -1 -1</clus>
<clus scale="   92.323">  7  8 -1 -1</clus>
<clus scale="  107.651">  1  5  2 -1</clus>
<clus scale="  115.406">  2  5  1 -1</clus>
</clustering>
</event>
<event>
 9    2  0.3402837E-005  0.1065846E+03  0.7546771E-02  0.1270550E+00
          2   -1    0    0  502    0  0.00000000000E+00  0.00000000000E+00  0.21559364495E+03  0.21559364495E+03  0.00000000000E+00 0. -1.
         -1   -1    0    0    0  501 -0.00000000000E+00 -0.00000000000E+00 -0.35332442030E+03  0.35332442030E+03  0.00000000000E+00 0.  1.
         23    2    1    2    0    0  0.77465425967E+02  0.30055213296E+02 -0.68779696830E+02  0.14001910059E+03  0.89277621867E+02 0.  0.
         24    2    1    2    0    0 -0.50125210536E+02  0.30446293212E+02  0.16107187794E+03  0.18948618271E+03  0.80754876479E+02 0.  0.
        -11    1    4    4    0    0 -0.71319910448E+02  0.13609752316E+02  0.11294822366E+03  0.13427232109E+03  0.00000000000E+00 0.  1.
         12    1    4    4    0    0  0.21194699911E+02  0.16836540897E+02  0.48123654277E+02  0.55213861617E+02  0.00000000000E+00 0. -1.
        -13    1    3    3    0    0  0.90229252264E+02  0.90927102381E+01 -0.32737807653E+02  0.96414518582E+02  0.00000000000E+00 0.  1.
         13    1    3    3    0    0 -0.12763826297E+02  0.20962503058E+02 -0.36041889177E+02  0.43604582003E+02  0.00000000000E+00 0. -1.
         21    1    1    2  502  501 -0.27340215431E+02 -0.60501506508E+02 -0.23002295646E+03  0.23941278196E+03  0.00000000000E+00 0.  1.
<scales pt_clust_5="13000.00000" pt_clust_6="13000.00000" pt_clust_7="13000.00000" pt_clust_8="13000.00000" pt_clust_9="66.39217"></scales>
<clustering>
<clus scale="   66.392">  2  9  1 -1</clus>
<clus scale="   80.755">  5  6 -1 -1</clus>
<clus scale="   89.278">  7  8 -1 -1</clus>
<clus scale="   99.555">  1  5  2 -1</clus>
<clus scale="   99.555">  1  5  2 -1</clus>
</clustering>
</event>
<event>
 9    2  0.3402837E-005  0.1034756E+03  0.7546771E-02  0.1279128E+00
          2   -1    0    0  502    0  0.00000000000E+00  0.00000000000E+00  0.82499835421E+03  0.82499835421E+03  0.00000000000E+00 0. -1.
         -1   -1    0    0    0  501 -0.00000000000E+00 -0.00000000000E+00 -0.60144286450E+03  0.60144286450E+03  0.00000000000E+00 0.  1.
         23    2    1    2    0    0  0.64261608706E+02  0.27261064633E+02 -0.30395880212E+03  0.32517321108E+03  0.92054026652E+02 0.  0.
         24    2    1    2    0    0 -0.46324106573E+02  0.88766718233E+01  0.81034306958E+03  0.81557620252E+03  0.79271265540E+02 0.  0.
        -13    1    4    4    0    0 -0.39465145538E+02  0.11804427645E+02  0.16086711922E+03  0.16605743667E+03  0.00000000000E+00 0.  1.
         14    1    4    4    0    0 -0.68589610348E+01 -0.29277558220E+01  0.64947595036E+03  0.64951876585E+03  0.00000000000E+00 0. -1.
        -11    1    3    3    0    0  0.76262017895E+02  0.47694863337E+02 -0.21376767646E+03  0.23192092373E+03  0.00000000000E+00 0.  1.
         11    1    3    3    0    0 -0.12000409189E+02 -0.20433798704E+02 -0.90191125656E+02  0.93252287357E+02  0.00000000000E+00 0. -1.
         21    1    1    2  502  501 -0.17937502133E+02 -0.36137736457E+02 -0.28282877775E+03  0.28569180511E+03  0.00000000000E+00 0.  1.
<scales pt_clust_5="13000.00000" pt_clust_6="13000.00000" pt_clust_7="13000.00000" pt_clust_8="13000.00000" pt_clust_9="40.34464"></scales>
<clustering>
<clus scale="   40.345">  2  9  1 -1</clus>
<clus scale="   79.271">  5  6 -1 -1</clus>
<clus scale="   92.054">  7  8 -1 -1</clus>
<clus scale="   92.289">  1  5  2 -1</clus>
<clus scale="   92.289">  1  5  2 -1</clus>
</clustering>
</event>
<event>
 9    2  0.3402837E-005  0.1165966E+03  0.7546771E-02  0.1252431E+00
          2   -1    0    0  502    0  0.00000000000E+00  0.00000000000E+00  0.25837726733E+03  0.25837726733E+03  0.00000000000E+00 0. -1.
         -1   -1    0    0    0  501 -0.00000000000E+00 -0.00000000000E+00 -0.18297195255E+03  0.18297195255E+03  0.00000000000E+00 0.  1.
         24    2    1    2    0    0  0.54269900786E+02 -0.80618858463E+02 -0.12102734908E+03  0.17447535425E+03  0.79683169782E+02 0.  0.
         23    2    1    2    0    0 -0.32199560073E+02  0.63624775967E+02  0.20717027175E+03  0.23702097628E+03  0.90412930012E+02 0.  0.
        -13    1    3    3    0    0  0.32035244412E+02 -0.77002866193E+02 -0.12628858970E+03  0.15134234760E+03  0.00000000000E+00 0.  1.
         14    1    3    3    0    0  0.22234656374E+02 -0.36159922700E+01  0.52612406261E+01  0.23133006659E+02  0.00000000000E+00 0. -1.
        -13    1    4    4    0    0 -0.60306544862E+02  0.38051334499E+02  0.96352702996E+02  0.11986920699E+03  0.00000000000E+00 0.  1.
         13    1    4    4    0    0  0.28106984789E+02  0.25573441468E+02  0.11081756875E+03  0.11715176928E+03  0.00000000000E+00 0. -1.
         21    1    1    2  502  501 -0.22070340713E+02  0.16994082496E+02 -0.10737607888E+02  0.29852889345E+02  0.00000000000E+00 0. -1.
<scales pt_clust_5="13000.00000" pt_clust_6="13000.00000" pt_clust_7="13000.00000" pt_clust_8="13000.00000" pt_clust_9="27.85496"></scales>
<clustering>
<clus scale="   27.855">  2  9  1 -1</clus>
<clus scale="   79.683">  5  6 -1 -1</clus>
<clus scale="   90.413">  7  8 -1 -1</clus>
<clus scale="  108.488">  2  5  1 -1</clus>
<clus scale="  116.597">  1  5  2 -1</clus>
</clustering>
</event>
<event>
 9    2  0.3402837E-005  0.1045132E+03  0.7546771E-02  0.1275521E+00
          2   -1    0    0  502    0  0.00000000000E+00  0.00000000000E+00  0.43578608672E+02  0.43578608672E+02  0.00000000000E+00 0. -1.
         -1   -1    0    0    0  501 -0.00000000000E+00 -0.00000000000E+00 -0.41929206884E+03  0.41929206884E+03  0.00000000000E+00 0.  1.
         24    2    1    2    0    0  0.32765998691E+02  0.51994252768E+02 -0.25359921023E+03  0.27302329066E+03  0.80325243984E+02 0.  0.
         23    2    1    2    0    0 -0.48504629612E+02 -0.19490366546E+02 -0.67323530864E+02  0.12422551535E+03  0.90371164507E+02 0.  0.
        -11    1    3    3    0    0  0.26063917607E+02  0.73567190878E+02 -0.18462898932E+03  0.20044780635E+03  0.00000000000E+00 0.  1.
         12    1    3    3    0    0  0.67020810838E+01 -0.21572938110E+02 -0.68970220910E+02  0.72575484304E+02  0.00000000000E+00 0. -1.
        -13    1    4    4    0    0  0.25748576709E+01  0.31652877737E+02 -0.15884770835E+02  0.35508597629E+02  0.00000000000E+00 0.  1.
         13    1    4    4    0    0 -0.51079487283E+02 -0.51143244283E+02 -0.51438760029E+02  0.88716917723E+02  0.00000000000E+00 0. -1.
         21    1    1    2  502  501  0.15738630921E+02 -0.32503886222E+02 -0.54790719073E+02  0.65621871501E+02  0.00000000000E+00 0. -1.
<scales pt_clust_5="13000.00000" pt_clust_6="13000.00000" pt_clust_7="13000.00000" pt_clust_8="13000.00000" pt_clust_9="36.11381"></scales>
<clustering>
<clus scale="   36.114">  2  9  1 -1</clus>
<clus scale="   80.325">  5  6 -1 -1</clus>
<clus scale="   90.371">  7  8 -1 -1</clus>
<clus scale="   95.959">  2  5  1 -1</clus>
<clus scale="  104.513">  1  5  2 -1</clus>
</clustering>
</event>
<event>
 9    2  0.5258951E-005  0.9652934E+02  0.7546771E-02  0.1295127E+00
         -1   -1    0    0    0  501 -0.00000000000E+00  0.00000000000E+00  0.83391536792E+02  0.83391536792E+02  0.00000000000E+00 0.  1.
          2   -1    0    0  502    0  0.00000000000E+00 -0.00000000000E+00 -0.92916331495E+03  0.92916331495E+03  0.00000000000E+00 0. -1.
         23    2    1    2    0    0  0.48135973996E+01 -0.35649881919E+02  0.35403598677E+02  0.10626403157E+03  0.93512270879E+02 0.  0.
         24    2    1    2    0    0 -0.15934088301E+02  0.17646945726E+02 -0.88112761293E+03  0.88513016540E+03  0.80648803804E+02 0.  0.
        -13    1    4    4    0    0  0.54073650309E+01  0.29732415233E+02 -0.12486385954E+03  0.12846882708E+03  0.00000000000E+00 0.  1.
         14    1    4    4    0    0 -0.21341453332E+02 -0.12085469507E+02 -0.75626375339E+03  0.75666133831E+03  0.00000000000E+00 0. -1.
        -11    1    3    3    0    0 -0.28431567647E+02 -0.28703094888E+02 -0.16987955487E+02  0.43827072987E+02  0.00000000000E+00 0. -1.
         11    1    3    3    0    0  0.33245165047E+02 -0.69467870312E+01  0.52391554164E+02  0.62436958580E+02  0.00000000000E+00 0.  1.
         21    1    1    2  502  501  0.11120490901E+02  0.18002936192E+02 -0.47763905448E-01  0.21160654783E+02  0.00000000000E+00 0. -1.
<scales pt_clust_5="13000.00000" pt_clust_6="13000.00000" pt_clust_7="13000.00000" pt_clust_8="13000.00000" pt_clust_9="21.16060"></scales>
<clustering>
<clus scale="   21.161">  1  9  2 -1</clus>
<clus scale="   80.649">  5  6 -1 -1</clus>
<clus scale="   84.128">  2  5  1 -1</clus>
<clus scale="   93.512">  7  8 -1 -1</clus>
<clus scale="   84.128">  2  5  1 -1</clus>
</clustering>
</event>
<event>
 9    2  0.3402837E-005  0.9259262E+02  0.7546771E-02  0.1303193E+00
          2   -1    0    0  502    0  0.00000000000E+00  0.00000000000E+00  0.15758001836E+04  0.15758001836E+04  0.00000000000E+00 0. -1.
         -1   -1    0    0    0  501 -0.00000000000E+00 -0.00000000000E+00 -0.11230947546E+02  0.11230947546E+02  0.00000000000E+00 0.  1.
         23    2    1    2    0    0  0.19910072357E+02 -0.18177026027E+02  0.36099017504E+03  0.37342440038E+03  0.91679120097E+02 0.  0.
         24    2    1    2    0    0 -0.11365656011E+02 -0.37457932368E+01  0.11684707286E+04  0.11713431287E+04  0.81102851030E+02 0.  0.
        -11    1    4    4    0    0 -0.28466395802E+02 -0.40647421859E+01  0.15014279894E+03  0.15287157320E+03  0.00000000000E+00 0.  1.
         12    1    4    4    0    0  0.17100739792E+02  0.31894894916E+00  0.10183279296E+04  0.10184715555E+04  0.00000000000E+00 0. -1.
        -13    1    3    3    0    0  0.31552572057E+02 -0.51341915638E+02  0.23792357248E+03  0.24543671984E+03  0.00000000000E+00 0.  1.
         13    1    3    3    0    0 -0.11642499700E+02  0.33164889611E+02  0.12306660256E+03  0.12798768053E+03  0.00000000000E+00 0. -1.
         21    1    1    2  502  501 -0.85444163461E+01  0.21922819264E+02  0.35108332381E+02  0.42263602044E+02  0.00000000000E+00 0. -1.
<scales pt_clust_5="13000.00000" pt_clust_6="13000.00000" pt_clust_7="13000.00000" pt_clust_8="13000.00000" pt_clust_9="23.52907"></scales>
<clustering>
<clus scale="   23.529">  2  9  1 -1</clus>
<clus scale="   81.103">  5  6 -1 -1</clus>
<clus scale="   82.134">  1  5  2 -1</clus>
<clus scale="   91.679">  7  8 -1 -1</clus>
<clus scale="   82.134">  1  5  2 -1</clus>
</clustering>
</event>
<event>
 9    2  0.3402837E-005  0.2816155E+03  0.7546771E-02  0.1095246E+00
          2   -1    0    0  502    0  0.00000000000E+00  0.00000000000E+00  0.10553100337E+04  0.10553100337E+04  0.00000000000E+00 0. -1.
         -1   -1    0    0    0  501 -0.00000000000E+00 -0.00000000000E+00 -0.12764774615E+03  0.12764774615E+03  0.00000000000E+00 0.  1.
         23    2    1    2    0    0 -0.70363622206E+02  0.27363397985E+03  0.24900402482E+03  0.38740470058E+03  0.90844941503E+02 0.  0.
         24    2    1    2    0    0  0.66799235509E+02 -0.25200266160E+03  0.70810389497E+03  0.75884253530E+03  0.80395198750E+02 0.  0.
        -13    1    4    4    0    0  0.29213187223E+02 -0.19280054538E+03  0.43199218832E+03  0.47396488412E+03  0.00000000000E+00 0.  1.
         14    1    4    4    0    0  0.37586048287E+02 -0.59202116218E+02  0.27611170665E+03  0.28487765118E+03  0.00000000000E+00 0. -1.
        -11    1    3    3    0    0 -0.14085013602E+02  0.14061468791E+03  0.17555437934E+03  0.22536685242E+03  0.00000000000E+00 0.  1.
         11    1    3    3    0    0 -0.56278608604E+02  0.13301929194E+03  0.73449645475E+02  0.16203784816E+03  0.00000000000E+00 0. -1.
         21    1    1    2  502  501  0.35643866969E+01 -0.21631318251E+02 -0.29445632237E+02  0.36710543984E+02  0.00000000000E+00 0.  1.
<scales pt_clust_5="13000.00000" pt_clust_6="13000.00000" pt_clust_7="13000.00000" pt_clust_8="13000.00000" pt_clust_9="21.92302"></scales>
<clustering>
<clus scale="   21.923">  2  9  1 -1</clus>
<clus scale="   80.395">  5  6 -1 -1</clus>
<clus scale="   90.845">  7  8 -1 -1</clus>
<clus scale="  278.420">  1  5  2 -1</clus>
<clus scale="  278.420">  1  5  2 -1</clus>
</clustering>
</event>
<event>
 9    2  0.3402837E-005  0.1012552E+03  0.7546771E-02  0.1279529E+00
         -1   -1    0    0    0  501 -0.00000000000E+00  0.00000000000E+00  0.59808401184E+02  0.59808401184E+02  0.00000000000E+00 0.  1.
          2   -1    0    0  502    0  0.00000000000E+00 -0.00000000000E+00 -0.83496833701E+03  0.83496833701E+03  0.00000000000E+00 0. -1.
         23    2    1    2    0    0  0.39089860243E+02  0.36931519780E+02 -0.55324214840E+01  0.10218999293E+03  0.86719274909E+02 0.  0.
         24    2    1    2    0    0 -0.16683362537E+02 -0.49845277470E+02 -0.75788919527E+03  0.76418596338E+03  0.82590968319E+02 0.  0.
        -13    1    4    4    0    0 -0.33445390760E+02 -0.12133517781E+01 -0.13163825435E+03  0.13582597834E+03  0.00000000000E+00 0.  1.
         14    1    4    4    0    0  0.16762028224E+02 -0.48631925691E+02 -0.62625094092E+03  0.62835998503E+03  0.00000000000E+00 0. -1.
        -11    1    3    3    0    0 -0.19505878926E+02 -0.94448495749E+01 -0.15717075175E+02  0.26771457716E+02  0.00000000000E+00 0. -1.
         11    1    3    3    0    0  0.58595739169E+02  0.46376369355E+02  0.10184653691E+02  0.75418535215E+02  0.00000000000E+00 0.  1.
         21    1    1    2  502  501 -0.22406497706E+02  0.12913757690E+02 -0.11738319076E+02  0.28400781888E+02  0.00000000000E+00 0.  1.
<scales pt_clust_5="13000.00000" pt_clust_6="13000.00000" pt_clust_7="13000.00000" pt_clust_8="13000.00000" pt_clust_9="25.86148"></scales>
<clustering>
<clus scale="   25.861">  1  9  2 -1</clus>
<clus scale="   82.591">  5  6 -1 -1</clus>
<clus scale="   86.719">  7  8 -1 -1</clus>
<clus scale="   97.743">  2  5  1 -1</clus>
<clus scale="   97.743">  2  5  1 -1</clus>
</clustering>
</event>
<event>
 9    2  0.3402837E-005  0.9318436E+02  0.7546771E-02  0.1302335E+00
         -1   -1    0    0    0  501 -0.00000000000E+00  0.00000000000E+00  0.33759216240E+03  0.33759216240E+03  0.00000000000E+00 0.  1.
          2   -1    0    0  502    0  0.00000000000E+00 -0.00000000000E+00 -0.76159161383E+02  0.76159161383E+02  0.00000000000E+00 0. -1.
         24    2    1    2    0    0 -0.19289251853E+02 -0.17731637051E+02  0.27161590608E+03  0.28417365070E+03  0.79328287041E+02 0.  0.
         23    2    1    2    0    0  0.20194177267E+02 -0.43181360961E+01 -0.31926699581E+02  0.98596969643E+02  0.90970309342E+02 0.  0.
        -13    1    3    3    0    0 -0.48133573540E+02 -0.18024274409E+02  0.20909116475E+03  0.21531565328E+03  0.00000000000E+00 0.  1.
         14    1    3    3    0    0  0.28844321686E+02  0.29263735741E+00  0.62524741329E+02  0.68857997418E+02  0.00000000000E+00 0. -1.
        -13    1    4    4    0    0  0.54270071725E+02  0.51551677270E+01 -0.62086220041E+01  0.54866778897E+02  0.00000000000E+00 0. -1.
         13    1    4    4    0    0 -0.34075894458E+02 -0.94733038231E+01 -0.25718077577E+02  0.43730190746E+02  0.00000000000E+00 0.  1.
         21    1    1    2  502  501 -0.90492541357E+00  0.22049773147E+02  0.21743794519E+02  0.30980703445E+02  0.00000000000E+00 0.  1.
<scales pt_clust_5="13000.00000" pt_clust_6="13000.00000" pt_clust_7="13000.00000" pt_clust_8="13000.00000" pt_clust_9="22.06833"></scales>
<clustering>
<clus scale="   22.068">  1  9  2 -1</clus>
<clus scale="   79.328">  5  6 -1 -1</clus>
<clus scale="   81.858">  1  5  2 -1</clus>
<clus scale="   90.970">  7  8 -1 -1</clus>
<clus scale="   93.184">  2  5  1 -1</clus>
</clustering>
</event>
<event>
 9    2  0.3402837E-005  0.9508935E+02  0.7546771E-02  0.1294743E+00
         -1   -1    0    0    0  501 -0.00000000000E+00  0.00000000000E+00  0.13542466441E+03  0.13542466441E+03  0.00000000000E+00 0.  1.
          2   -1    0    0  502    0  0.00000000000E+00 -0.00000000000E+00 -0.44091618790E+03  0.44091618790E+03  0.00000000000E+00 0. -1.
         23    2    1    2    0    0  0.46944826354E+02  0.12012147896E+02 -0.85303681835E+01  0.10104721192E+03  0.88259069996E+02 0.  0.
         24    2    1    2    0    0 -0.23333445782E+02 -0.25714078027E+02 -0.37882570073E+03  0.38899738336E+03  0.81267393388E+02 0.  0.
        -11    1    4    4    0    0 -0.10398927791E+02  0.22545852325E+02 -0.44490739465E+02  0.50949769915E+02  0.00000000000E+00 0.  1.
         12    1    4    4    0    0 -0.12934517991E+02 -0.48259930352E+02 -0.33433496126E+03  0.33804761345E+03  0.00000000000E+00 0. -1.
        -11    1    3    3    0    0  0.30632469078E+01 -0.32376339259E+02  0.12996833181E+02  0.35021828881E+02  0.00000000000E+00 0.  1.
         11    1    3    3    0    0  0.43881579446E+02  0.44388487155E+02 -0.21527201365E+02  0.66025383037E+02  0.00000000000E+00 0. -1.
         21    1    1    2  502  501 -0.23611380572E+02  0.13701930131E+02  0.81864545416E+02  0.86296257034E+02  0.00000000000E+00 0.  1.
<scales pt_clust_5="13000.00000" pt_clust_6="13000.00000" pt_clust_7="13000.00000" pt_clust_8="13000.00000" pt_clust_9="27.29909"></scales>
<clustering>
<clus scale="   27.299">  1  9  2 -1</clus>
<clus scale="   81.267">  5  6 -1 -1</clus>
<clus scale="   88.259">  7  8 -1 -1</clus>
<clus scale="   88.638">  2  5  1 -1</clus>
<clus scale="   88.638">  2  5  1 -1</clus>
</clustering>
</event>
<event>
 9    2  0.3402837E-005  0.1037206E+03  0.7546771E-02  0.1274663E+00
          2   -1    0    0  502    0  0.00000000000E+00  0.00000000000E+00  0.24377175430E+03  0.24377175430E+03  0.00000000000E+00 0. -1.
         -1   -1    0    0    0  501 -0.00000000000E+00 -0.00000000000E+00 -0.86317623681E+02  0.86317623681E+02  0.00000000000E+00 0.  1.
         24    2    1    2    0    0  0.23047433429E+02  0.51699150246E+02 -0.26359541230E+02  0.10497702170E+03  0.84388170665E+02 0.  0.
         23    2    1    2    0    0 -0.35072216106E+02 -0.29097268635E+02  0.11898263804E+03  0.15540939080E+03  0.88985949512E+02 0.  0.
        -13    1    3    3    0    0  0.32236682965E+02  0.44464207243E+02 -0.52725734681E+02  0.76133255231E+02  0.00000000000E+00 0.  1.
         14    1    3    3    0    0 -0.91892495359E+01  0.72349430032E+01  0.26366193451E+02  0.28843766474E+02  0.00000000000E+00 0. -1.
        -11    1    4    4    0    0 -0.49994258853E+02 -0.14385279520E+02  0.22504355607E+02  0.56681639059E+02  0.00000000000E+00 0.  1.
         11    1    4    4    0    0  0.14922042748E+02 -0.14711989115E+02  0.96478282429E+02  0.98727751741E+02  0.00000000000E+00 0. -1.
         21    1    1    2  502  501  0.12024782676E+02 -0.22601881610E+02  0.64831033814E+02  0.69702965476E+02  0.00000000000E+00 0.  1.
<scales pt_clust_5="13000.00000" pt_clust_6="13000.00000" pt_clust_7="13000.00000" pt_clust_8="13000.00000" pt_clust_9="25.60157"></scales>
<clustering>
<clus scale="   25.602">  1  9  2 -1</clus>
<clus scale="   84.388">  5  6 -1 -1</clus>
<clus scale="   88.986">  7  8 -1 -1</clus>
<clus scale="   99.804">  2  5  1 -1</clus>
<clus scale="   25.602">  1  5  2 -1</clus>
</clustering>
</event>
<event>
 9    2  0.3402837E-005  0.1564160E+03  0.7546771E-02  0.1195552E+00
         -1   -1    0    0    0  501 -0.00000000000E+00  0.00000000000E+00  0.15235204743E+03  0.15235204743E+03  0.00000000000E+00 0.  1.
          2   -1    0    0  502    0  0.00000000000E+00 -0.00000000000E+00 -0.21608454692E+03  0.21608454692E+03  0.00000000000E+00 0. -1.
         23    2    1    2    0    0  0.17848566590E+02 -0.12499028615E+03  0.24909133180E+00  0.15856419478E+03  0.95923922242E+02 0.  0.
         24    2    1    2    0    0 -0.37440389545E+02  0.11692225535E+03 -0.93239435083E+02  0.17374825115E+03  0.80139041407E+02 0.  0.
        -11    1    4    4    0    0 -0.58099039980E+00  0.10818429955E+03 -0.75456151121E+02  0.13190076179E+03  0.00000000000E+00 0.  1.
         12    1    4    4    0    0 -0.36859399145E+02  0.87379557932E+01 -0.17783283962E+02  0.41847489354E+02  0.00000000000E+00 0. -1.
        -13    1    3    3    0    0  0.68190674746E+01 -0.51880463562E+02  0.47621903403E+02  0.70752582033E+02  0.00000000000E+00 0.  1.
         13    1    3    3    0    0  0.11029499115E+02 -0.73109822592E+02 -0.47372812071E+02  0.87811612750E+02  0.00000000000E+00 0. -1.
         21    1    1    2  502  501  0.19591822955E+02  0.80680308077E+01  0.29257844264E+02  0.36124148416E+02  0.00000000000E+00 0.  1.
<scales pt_clust_5="13000.00000" pt_clust_6="13000.00000" pt_clust_7="13000.00000" pt_clust_8="13000.00000" pt_clust_9="21.18803"></scales>
<clustering>
<clus scale="   21.188">  1  9  2 -1</clus>
<clus scale="   80.139">  5  6 -1 -1</clus>
<clus scale="   95.924">  7  8 -1 -1</clus>
<clus scale="  147.264">  2  5  1 -1</clus>
<clus scale="  147.264">  2  5  1 -1</clus>
</clustering>
</event>
<event>
 9    2  0.3402837E-005  0.9707588E+02  0.7546771E-02  0.1290742E+00
          2   -1    0    0  502    0  0.00000000000E+00  0.00000000000E+00  0.24565120671E+03  0.24565120671E+03  0.00000000000E+00 0. -1.
         -1   -1    0    0    0  501 -0.00000000000E+00 -0.00000000000E+00 -0.31098867543E+03  0.31098867543E+03  0.00000000000E+00 0.  1.
         24    2    1    2    0    0  0.33702235661E+01 -0.17463704879E+02 -0.22160612038E+03  0.23835669422E+03  0.85955230770E+02 0.  0.
         23    2    1    2    0    0 -0.26220277697E+02  0.50108294188E+01  0.22481241908E+03  0.24496574706E+03  0.93568061250E+02 0.  0.
        -11    1    3    3    0    0  0.81287601596E+01  0.22692361977E+02 -0.16281129123E+02  0.29087715610E+02  0.00000000000E+00 0.  1.
         12    1    3    3    0    0 -0.47585365935E+01 -0.40156066857E+02 -0.20532499126E+03  0.20926897861E+03  0.00000000000E+00 0. -1.
        -11    1    4    4    0    0  0.17247676535E+01 -0.34185656032E+02  0.34268505017E+02  0.48435156012E+02  0.00000000000E+00 0.  1.
         11    1    4    4    0    0 -0.27945045351E+02  0.39196485450E+02  0.19054391407E+03  0.19653059105E+03  0.00000000000E+00 0. -1.
         21    1    1    2  502  501  0.22850054131E+02  0.12452875461E+02 -0.68543767423E+02  0.73317440855E+02  0.00000000000E+00 0.  1.
<scales pt_clust_5="13000.00000" pt_clust_6="13000.00000" pt_clust_7="13000.00000" pt_clust_8="13000.00000" pt_clust_9="26.02305"></scales>
<clustering>
<clus scale="   26.023">  2  9  1 -1</clus>
<clus scale="   85.955">  5  6 -1 -1</clus>
<clus scale="   89.761">  2  5  1 -1</clus>
<clus scale="   93.568">  7  8 -1 -1</clus>
<clus scale="   97.076">  1  5  2 -1</clus>
</clustering>
</event>
<event>
 9    2  0.3402837E-005  0.2151685E+03  0.7546771E-02  0.1138303E+00
          2   -1    0    0  502    0  0.00000000000E+00  0.00000000000E+00  0.25529127167E+03  0.25529127167E+03  0.00000000000E+00 0. -1.
         -1   -1    0    0    0  501 -0.00000000000E+00 -0.00000000000E+00 -0.42752106648E+03  0.42752106648E+03  0.00000000000E+00 0.  1.
         23    2    1    2    0    0 -0.12466567479E+03  0.17206342980E+03 -0.21086330623E+03  0.31285067484E+03  0.90911256118E+02 0.  0.
         24    2    1    2    0    0  0.11566847175E+03 -0.15259771219E+03  0.15009146926E+03  0.25645950390E+03  0.81109622568E+02 0.  0.
        -11    1    4    4    0    0  0.32471977826E+02 -0.31826391812E+02  0.84180719792E+02  0.95675190852E+02  0.00000000000E+00 0.  1.
         12    1    4    4    0    0  0.83196493926E+02 -0.12077132037E+03  0.65910749466E+02  0.16078431305E+03  0.00000000000E+00 0. -1.
        -11    1    3    3    0    0 -0.12532491451E+03  0.11764701771E+03 -0.18521516613E+03  0.25268916228E+03  0.00000000000E+00 0.  1.
         11    1    3    3    0    0  0.65923972362E+00  0.54416412097E+02 -0.25648140105E+02  0.60161512559E+02  0.00000000000E+00 0. -1.
         21    1    1    2  502  501  0.89972030371E+01 -0.19465717618E+02 -0.11145795784E+03  0.11350215941E+03  0.00000000000E+00 0. -1.
<scales pt_clust_5="13000.00000" pt_clust_6="13000.00000" pt_clust_7="13000.00000" pt_clust_8="13000.00000" pt_clust_9="21.44444"></scales>
<clustering>
<clus scale="   21.444">  2  9  1 -1</clus>
<clus scale="   81.110">  5  6 -1 -1</clus>
<clus scale="   90.911">  7  8 -1 -1</clus>
<clus scale="  211.214">  1  5  2 -1</clus>
<clus scale="  211.214">  1  5  2 -1</clus>
</clustering>
</event>
<event>
 9    2  0.3402837E-005  0.1084894E+03  0.7546771E-02  0.1268735E+00
          2   -1    0    0  502    0  0.00000000000E+00  0.00000000000E+00  0.18597337500E+03  0.18597337500E+03  0.00000000000E+00 0. -1.
         -1   -1    0    0    0  501 -0.00000000000E+00 -0.00000000000E+00 -0.20445037504E+03  0.20445037504E+03  0.00000000000E+00 0.  1.
         23    2    1    2    0    0 -0.26751398191E+02  0.83394133777E+02 -0.92765099746E+02  0.15818591129E+03  0.93526466552E+02 0.  0.
         24    2    1    2    0    0  0.34930441300E+02 -0.38105892766E+02  0.12897653707E+03  0.16076234154E+03  0.80854118930E+02 0.  0.
        -13    1    4    4    0    0 -0.69676803210E+01  0.20956383577E+02  0.43110157234E+02  0.48437632461E+02  0.00000000000E+00 0.  1.
         14    1    4    4    0    0  0.41898121621E+02 -0.59062276343E+02  0.85866379841E+02  0.11232470908E+03  0.00000000000E+00 0. -1.
        -13    1    3    3    0    0 -0.60547487261E+02  0.53188341629E+02 -0.72994439834E+02  0.10873447542E+03  0.00000000000E+00 0.  1.
         13    1    3    3    0    0  0.33796089070E+02  0.30205792148E+02 -0.19770659911E+02  0.49451435865E+02  0.00000000000E+00 0. -1.
         21    1    1    2  502  501 -0.81790431092E+01 -0.45288241012E+02 -0.54688437374E+02  0.71475497218E+02  0.00000000000E+00 0. -1.
<scales pt_clust_5="13000.00000" pt_clust_6="13000.00000" pt_clust_7="13000.00000" pt_clust_8="13000.00000" pt_clust_9="46.02088"></scales>
<clustering>
<clus scale="   46.021">  2  9  1 -1</clus>
<clus scale="   80.854">  5  6 -1 -1</clus>
<clus scale="   93.526">  7  8 -1 -1</clus>
<clus scale="   97.776">  1  5  2 -1</clus>
<clus scale="   97.776">  1  5  2 -1</clus>
</clustering>
</event>
<event>
 9    2  0.3402837E-005  0.1278376E+03  0.7546771E-02  0.1232663E+00
          2   -1    0    0  502    0  0.00000000000E+00  0.00000000000E+00  0.54330173688E+03  0.54330173688E+03  0.00000000000E+00 0. -1.
         -1   -1    0    0    0  501 -0.00000000000E+00 -0.00000000000E+00 -0.21119608891E+03  0.21119608891E+03  0.00000000000E+00 0.  1.
         24    2    1    2    0    0 -0.53475069036E+02  0.42169094064E+02 -0.17410131265E+03  0.20535537851E+03  0.84980873793E+02 0.  0.
         23    2    1    2    0    0  0.67106646998E+02 -0.59177075056E+02  0.51094184408E+03  0.52683750487E+03  0.92146406450E+02 0.  0.
        -13    1    3    3    0    0 -0.10940651500E+02  0.44757860989E+02 -0.29749599388E+02  0.54845260865E+02  0.00000000000E+00 0.  1.
         14    1    3    3    0    0 -0.42534417536E+02 -0.25887669251E+01 -0.14435171327E+03  0.15051011764E+03  0.00000000000E+00 0. -1.
        -13    1    4    4    0    0  0.86351963553E+01 -0.64168840728E+02  0.33980650088E+03  0.34592002656E+03  0.00000000000E+00 0. -1.
         13    1    4    4    0    0  0.58471450643E+02  0.49917656723E+01  0.17113534320E+03  0.18091747831E+03  0.00000000000E+00 0.  1.
         21    1    1    2  502  501 -0.13631577962E+02  0.17007980992E+02 -0.47348834559E+01  0.22304942423E+02  0.00000000000E+00 0.  1.
<scales pt_clust_5="13000.00000" pt_clust_6="13000.00000" pt_clust_7="13000.00000" pt_clust_8="13000.00000" pt_clust_9="21.79659"></scales>
<clustering>
<clus scale="   21.797">  2  9  1 -1</clus>
<clus scale="   84.981">  5  6 -1 -1</clus>
<clus scale="   92.146">  7  8 -1 -1</clus>
<clus scale="  122.773">  2  5  1 -1</clus>
<clus scale="  127.838">  1  5  2 -1</clus>
</clustering>
</event>
<event>
 9    2  0.3402837E-005  0.9593719E+02  0.7546771E-02  0.1294745E+00
          2   -1    0    0  502    0  0.00000000000E+00  0.00000000000E+00  0.58079897484E+02  0.58079897484E+02  0.00000000000E+00 0. -1.
         -1   -1    0    0    0  501 -0.00000000000E+00 -0.00000000000E+00 -0.22745666040E+03  0.22745666040E+03  0.00000000000E+00 0.  1.
         24    2    1    2    0    0  0.35167209287E+01 -0.35911707080E+02 -0.10087412128E+03  0.13491517475E+03  0.82003036550E+02 0.  0.
         23    2    1    2    0    0  0.17440483232E+02  0.19130171278E+02 -0.23956672570E+02  0.98610156359E+02  0.92086409790E+02 0.  0.
        -13    1    3    3    0    0 -0.19118843750E+02  0.18928137106E+02 -0.49926804829E+02  0.56714111128E+02  0.00000000000E+00 0.  1.
         14    1    3    3    0    0  0.22635564678E+02 -0.54839844186E+02 -0.50947316452E+02  0.78201063626E+02  0.00000000000E+00 0. -1.
        -13    1    4    4    0    0  0.50779806011E+02  0.16644940703E+02  0.59311136540E+01  0.53766354338E+02  0.00000000000E+00 0. -1.
         13    1    4    4    0    0 -0.33339322780E+02  0.24852305743E+01 -0.29887786224E+02  0.44843802022E+02  0.00000000000E+00 0.  1.
         21    1    1    2  502  501 -0.20957204161E+02  0.16781535803E+02 -0.44545969061E+02  0.52011226766E+02  0.00000000000E+00 0.  1.
<scales pt_clust_5="13000.00000" pt_clust_6="13000.00000" pt_clust_7="13000.00000" pt_clust_8="13000.00000" pt_clust_9="26.84817"></scales>
<clustering>
<clus scale="   26.848">  2  9  1 -1</clus>
<clus scale="   82.003">  5  6 -1 -1</clus>
<clus scale="   86.305">  2  5  1 -1</clus>
<clus scale="   92.086">  7  8 -1 -1</clus>
<clus scale="   95.937">  1  5  2 -1</clus>
</clustering>
</event>
<event>
 9    2  0.3402837E-005  0.1050344E+03  0.7546771E-02  0.1274347E+00
          2   -1    0    0  502    0  0.00000000000E+00  0.00000000000E+00  0.27022858310E+03  0.27022858310E+03  0.00000000000E+00 0. -1.
         -1   -1    0    0    0  501 -0.00000000000E+00 -0.00000000000E+00 -0.24315278677E+03  0.24315278677E+03  0.00000000000E+00 0.  1.
         23    2    1    2    0    0  0.78822379609E+02 -0.27901211826E+02 -0.52848337933E+02  0.13338387469E+03  0.89481093286E+02 0.  0.
         24    2    1    2    0    0 -0.33553135563E+02  0.41069270850E+02  0.21588257443E+03  0.23609683608E+03  0.79523154803E+02 0.  0.
        -11    1    4    4    0    0  0.36567044995E+01  0.53614226851E+02  0.96923335411E+02  0.11082413887E+03  0.00000000000E+00 0.  1.
         12    1    4    4    0    0 -0.37209840063E+02 -0.12544956001E+02  0.11895923902E+03  0.12527269721E+03  0.00000000000E+00 0. -1.
        -13    1    3    3    0    0  0.87369787676E+02 -0.47581925433E+02 -0.34964919588E+02  0.10545171894E+03  0.00000000000E+00 0.  1.
         13    1    3    3    0    0 -0.85474080669E+01  0.19680713607E+02 -0.17883418345E+02  0.27932155743E+02  0.00000000000E+00 0. -1.
         21    1    1    2  502  501 -0.45269244045E+02 -0.13168059024E+02 -0.13595844017E+03  0.14390065910E+03  0.00000000000E+00 0.  1.
<scales pt_clust_5="13000.00000" pt_clust_6="13000.00000" pt_clust_7="13000.00000" pt_clust_8="13000.00000" pt_clust_9="47.14554"></scales>
<clustering>
<clus scale="   47.146">  2  9  1 -1</clus>
<clus scale="   79.523">  5  6 -1 -1</clus>
<clus scale="   89.481">  7  8 -1 -1</clus>
<clus scale="   96.692">  1  5  2 -1</clus>
<clus scale="   96.692">  1  5  2 -1</clus>
</clustering>
</event>
<event>
 9    2  0.3402837E-005  0.1298167E+03  0.7546771E-02  0.1229436E+00
          2   -1    0    0  502    0  0.00000000000E+00  0.00000000000E+00  0.10066885232E+03  0.10066885232E+03  0.00000000000E+00 0. -1.
         -1   -1    0    0    0  501 -0.00000000000E+00 -0.00000000000E+00 -0.30679224409E+03  0.30679224409E+03  0.00000000000E+00 0.  1.
         24    2    1    2    0    0 -0.47988654142E+02 -0.93442679452E+02 -0.90630807815E+02  0.16204736974E+03  0.83731484198E+02 0.  0.
         23    2    1    2    0    0  0.53978422368E+02  0.69442446785E+02  0.12396735250E+01  0.12608934347E+03  0.90338597776E+02 0.  0.
        -11    1    3    3    0    0 -0.36243594913E+02 -0.10094717589E+03 -0.48577005855E+02  0.11774402741E+03  0.00000000000E+00 0.  1.
         12    1    3    3    0    0 -0.11745059229E+02  0.75044964352E+01 -0.42053801960E+02  0.44303342338E+02  0.00000000000E+00 0. -1.
        -13    1    4    4    0    0 -0.52412053239E+01  0.30072208903E+02 -0.34862210198E+02  0.46337691800E+02  0.00000000000E+00 0.  1.
         13    1    4    4    0    0  0.59219627692E+02  0.39370237882E+02  0.36101883723E+02  0.79751651665E+02  0.00000000000E+00 0. -1.
         21    1    1    2  502  501 -0.59897682261E+01  0.24000232668E+02 -0.11673225747E+03  0.11932438320E+03  0.00000000000E+00 0.  1.
<scales pt_clust_5="13000.00000" pt_clust_6="13000.00000" pt_clust_7="13000.00000" pt_clust_8="13000.00000" pt_clust_9="24.73638"></scales>
<clustering>
<clus scale="   24.736">  2  9  1 -1</clus>
<clus scale="   83.731">  5  6 -1 -1</clus>
<clus scale="   90.339">  7  8 -1 -1</clus>
<clus scale="  125.309">  2  5  1 -1</clus>
<clus scale="  129.817">  1  5  2 -1</clus>
</clustering>
</event>
<event>
 9    2  0.3402837E-005  0.1441462E+03  0.7546771E-02  0.1237341E+00
         -1   -1    0    0    0  501 -0.00000000000E+00  0.00000000000E+00  0.39641191351E+03  0.39641191351E+03  0.00000000000E+00 0.  1.
          2   -1    0    0  502    0  0.00000000000E+00 -0.00000000000E+00 -0.13802297188E+03  0.13802297188E+03  0.00000000000E+00 0. -1.
         23    2    1    2    0    0 -0.97468672682E+02  0.41431538567E+02  0.13356053506E+03  0.19267400019E+03  0.89822821591E+02 0.  0.
         24    2    1    2    0    0 -0.19880319776E+01  0.19805821799E+02 -0.76426345710E+02  0.10906983312E+03  0.75226453658E+02 0.  0.
        -13    1    4    4    0    0 -0.19980360567E+02  0.13308105027E+02 -0.84840394411E+02  0.88171497615E+02  0.00000000000E+00 0.  1.
         14    1    4    4    0    0  0.17992328589E+02  0.64977167727E+01  0.84140487015E+01  0.20898335505E+02  0.00000000000E+00 0. -1.
        -13    1    3    3    0    0 -0.22880833772E+02  0.11475426323E+02 -0.10531743603E+02  0.27679154371E+02  0.00000000000E+00 0. -1.
         13    1    3    3    0    0 -0.74587838910E+02  0.29956112244E+02  0.14409227867E+03  0.16499484581E+03  0.00000000000E+00 0.  1.
         21    1    1    2  502  501  0.99456704660E+02 -0.61237360366E+02  0.20125475228E+03  0.23269105208E+03  0.00000000000E+00 0. -1.
<scales pt_clust_5="13000.00000" pt_clust_6="13000.00000" pt_clust_7="13000.00000" pt_clust_8="13000.00000" pt_clust_9="112.73855"></scales>
<clustering>
<clus scale="   75.226">  5  6 -1 -1</clus>
<clus scale="   77.815">  2  5  1 -1</clus>
<clus scale="   89.823">  7  8 -1 -1</clus>
<clus scale="  112.739">  1  9  2 -1</clus>
<clus scale="   77.815">  2  5  1 -1</clus>
</clustering>
</event>
<event>
 9    2  0.3402837E-005  0.1610769E+03  0.7546771E-02  0.1187912E+00
          2   -1    0    0  502    0  0.00000000000E+00  0.00000000000E+00  0.17160748790E+04  0.17160748790E+04  0.00000000000E+00 0. -1.
         -1   -1    0    0    0  501 -0.00000000000E+00 -0.00000000000E+00 -0.19427784647E+03  0.19427784647E+03  0.00000000000E+00 0.  1.
         23    2    1    2    0    0 -0.26532923124E+00  0.12361727289E+03  0.17493935359E+03  0.22913933938E+03  0.81361900540E+02 0.  0.
         24    2    1    2    0    0 -0.75223627925E+02 -0.12082231180E+03  0.15007192706E+04  0.15098080657E+04  0.84293777358E+02 0.  0.
        -11    1    4    4    0    0 -0.10809180394E+02 -0.20105057905E+02  0.60959885229E+02  0.65093466195E+02  0.00000000000E+00 0.  1.
         12    1    4    4    0    0 -0.64414447531E+02 -0.10071725389E+03  0.14397593854E+04  0.14447145995E+04  0.00000000000E+00 0. -1.
        -11    1    3    3    0    0 -0.23809089746E+02  0.12061608286E+03  0.13429135227E+03  0.18206943591E+03  0.00000000000E+00 0.  1.
         11    1    3    3    0    0  0.23543760515E+02  0.30011900296E+01  0.40648001327E+02  0.47069903470E+02  0.00000000000E+00 0. -1.
         21    1    1    2  502  501  0.75488957156E+02 -0.27949610930E+01 -0.15386159168E+03  0.17140532038E+03  0.00000000000E+00 0.  1.
<scales pt_clust_5="13000.00000" pt_clust_6="13000.00000" pt_clust_7="13000.00000" pt_clust_8="13000.00000" pt_clust_9="75.54068"></scales>
<clustering>
<clus scale="   75.541">  2  9  1 -1</clus>
<clus scale="   81.362">  7  8 -1 -1</clus>
<clus scale="   84.294">  5  6 -1 -1</clus>
<clus scale="  159.562">  2  7  1 -1</clus>
<clus scale="  161.077">  1  5  2 -1</clus>
</clustering>
</event>
<event>
 9    2  0.3402837E-005  0.1254448E+03  0.7546771E-02  0.1237787E+00
          2   -1    0    0  502    0  0.00000000000E+00  0.00000000000E+00  0.10063849678E+03  0.10063849678E+03  0.00000000000E+00 0. -1.
         -1   -1    0    0    0  501 -0.00000000000E+00 -0.00000000000E+00 -0.23703211519E+03  0.23703211519E+03  0.00000000000E+00 0.  1.
         23    2    1    2    0    0 -0.95544039674E+02  0.25516499116E+02 -0.27093855071E+02  0.13787834908E+03  0.92177041166E+02 0.  0.
         24    2    1    2    0    0  0.67885060528E+02 -0.29205128020E+02 -0.26337889139E+02  0.11226342375E+03  0.80299881463E+02 0.  0.
        -13    1    4    4    0    0  0.17865014671E+00  0.23345077140E+02 -0.39139348901E+01  0.23671574279E+02  0.00000000000E+00 0.  1.
         14    1    4    4    0    0  0.67706410381E+02 -0.52550205159E+02 -0.22423954249E+02  0.88591849474E+02  0.00000000000E+00 0. -1.
        -13    1    3    3    0    0 -0.40880274762E+02 -0.31271832315E+02  0.71022776372E+01  0.51957354711E+02  0.00000000000E+00 0. -1.
         13    1    3    3    0    0 -0.54663764912E+02  0.56788331432E+02 -0.34196132708E+02  0.85920994369E+02  0.00000000000E+00 0.  1.
         21    1    1    2  502  501  0.27658979146E+02  0.36886289034E+01 -0.82961874194E+02  0.87528839136E+02  0.00000000000E+00 0.  1.
<scales pt_clust_5="13000.00000" pt_clust_6="13000.00000" pt_clust_7="13000.00000" pt_clust_8="13000.00000" pt_clust_9="27.90385"></scales>
<clustering>
<clus scale="   27.904">  2  9  1 -1</clus>
<clus scale="   80.300">  5  6 -1 -1</clus>
<clus scale="   92.177">  7  8 -1 -1</clus>
<clus scale="  116.995">  1  5  2 -1</clus>
<clus scale="  116.995">  1  5  2 -1</clus>
</clustering>
</event>
<event>
 9    2  0.3402837E-005  0.1143218E+03  0.7546771E-02  0.1256521E+00
          2   -1    0    0  502    0  0.00000000000E+00  0.00000000000E+00  0.44405964612E+03  0.44405964612E+03  0.00000000000E+00 0. -1.
         -1   -1    0    0    0  501 -0.00000000000E+00 -0.00000000000E+00 -0.30724783262E+03  0.30724783262E+03  0.00000000000E+00 0.  1.
         23    2    1    2    0    0  0.30715219935E+01 -0.75235316479E+02 -0.19303924015E+03  0.22648342398E+03  0.91437443134E+02 0.  0.
         24    2    1    2    0    0  0.35248527160E+02  0.59067531075E+02  0.41589863306E+03  0.42925204330E+03  0.80958086664E+02 0.  0.
        -13    1    4    4    0    0  0.87708819053E+01  0.58237006710E+02  0.13731582642E+03  0.14941256141E+03  0.00000000000E+00 0.  1.
         14    1    4    4    0    0  0.26477645255E+02  0.83052436557E+00  0.27858280664E+03  0.27983948189E+03  0.00000000000E+00 0. -1.
        -11    1    3    3    0    0 -0.39335366207E+02 -0.12542181135E+02 -0.85887140247E+02  0.95295216051E+02  0.00000000000E+00 0.  1.
         11    1    3    3    0    0  0.42406888201E+02 -0.62693135344E+02 -0.10715209991E+03  0.13118820793E+03  0.00000000000E+00 0. -1.
         21    1    1    2  502  501 -0.38320049153E+02  0.16167785404E+02 -0.86047579415E+02  0.95572011464E+02  0.00000000000E+00 0.  1.
<scales pt_clust_5="13000.00000" pt_clust_6="13000.00000" pt_clust_7="13000.00000" pt_clust_8="13000.00000" pt_clust_9="41.59115"></scales>
<clustering>
<clus scale="   41.591">  2  9  1 -1</clus>
<clus scale="   80.958">  5  6 -1 -1</clus>
<clus scale="   91.437">  7  8 -1 -1</clus>
<clus scale="  106.127">  1  5  2 -1</clus>
<clus scale="  106.127">  1  5  2 -1</clus>
</clustering>
</event>
<event>
 9    2  0.3402837E-005  0.1398770E+03  0.7546771E-02  0.1215770E+00
         -1   -1    0    0    0  501 -0.00000000000E+00  0.00000000000E+00  0.45408228045E+03  0.45408228045E+03  0.00000000000E+00 0.  1.
          2   -1    0    0  502    0  0.00000000000E+00 -0.00000000000E+00 -0.11940130740E+03  0.11940130740E+03  0.00000000000E+00 0. -1.
         24    2    1    2    0    0  0.13363073985E+03  0.75196449204E+01  0.79390023815E+02  0.17472445272E+03  0.79448969812E+02 0.  0.
         23    2    1    2    0    0 -0.92249013249E+02  0.26537328549E+02 -0.62605497449E+01  0.13177315917E+03  0.90060317252E+02 0.  0.
        -11    1    3    3    0    0  0.57081564083E+02 -0.17771775046E+01  0.79162678606E+02  0.97612463355E+02  0.00000000000E+00 0.  1.
         12    1    3    3    0    0  0.76549175770E+02  0.92968224250E+01  0.22734520860E+00  0.77111989367E+02  0.00000000000E+00 0. -1.
        -11    1    4    4    0    0 -0.80050843199E+02  0.45618900606E+02 -0.31956415687E+02  0.97521454526E+02  0.00000000000E+00 0. -1.
         11    1    4    4    0    0 -0.12198170051E+02 -0.19081572057E+02  0.25695865942E+02  0.34251704648E+02  0.00000000000E+00 0.  1.
         21    1    1    2  502  501 -0.41381726604E+02 -0.34056973469E+02  0.26155149898E+03  0.26698597596E+03  0.00000000000E+00 0. -1.
<scales pt_clust_5="13000.00000" pt_clust_6="13000.00000" pt_clust_7="13000.00000" pt_clust_8="13000.00000" pt_clust_9="53.59407"></scales>
<clustering>
<clus scale="   53.594">  1  9  2 -1</clus>
<clus scale="   79.449">  5  6 -1 -1</clus>
<clus scale="   90.060">  7  8 -1 -1</clus>
<clus scale="  133.292">  1  5  2 -1</clus>
<clus scale="  139.877">  2  5  1 -1</clus>
</clustering>
</event>
<event>
 9    2  0.3402837E-005  0.9238082E+02  0.7546771E-02  0.1305232E+00
         -1   -1    0    0    0  501 -0.00000000000E+00  0.00000000000E+00  0.56653531705E+02  0.56653531705E+02  0.00000000000E+00 0.  1.
          2   -1    0    0  502    0  0.00000000000E+00 -0.00000000000E+00 -0.74576065231E+03  0.74576065231E+03  0.00000000000E+00 0. -1.
         23    2    1    2    0    0 -0.92739523086E+01  0.32414893269E+01 -0.26885500429E+01  0.92757265649E+02  0.92196358848E+02 0.  0.
         24    2    1    2    0    0 -0.32689726227E+02  0.55945275519E+02 -0.31654692350E+03  0.33273642442E+03  0.79454901109E+02 0.  0.
        -13    1    4    4    0    0 -0.88946840859E+00  0.64263382545E+02 -0.15354169198E+03  0.16645006659E+03  0.00000000000E+00 0.  1.
         14    1    4    4    0    0 -0.31800257818E+02 -0.83181070258E+01 -0.16300523152E+03  0.16628635784E+03  0.00000000000E+00 0. -1.
        -13    1    3    3    0    0 -0.38587853207E+01 -0.39644732715E+02 -0.21897886498E+02  0.45454510110E+02  0.00000000000E+00 0.  1.
         13    1    3    3    0    0 -0.54151669879E+01  0.42886222042E+02  0.19209336455E+02  0.47302755539E+02  0.00000000000E+00 0. -1.
         21    1    1    2  502  501  0.41963678536E+02 -0.59186764846E+02 -0.36987164707E+03  0.37692049394E+03  0.00000000000E+00 0. -1.
<scales pt_clust_5="13000.00000" pt_clust_6="13000.00000" pt_clust_7="13000.00000" pt_clust_8="13000.00000" pt_clust_9="72.55359"></scales>
<clustering>
<clus scale="   72.554">  2  9  1 -1</clus>
<clus scale="   79.455">  5  6 -1 -1</clus>
<clus scale="   79.669">  2  5  1 -1</clus>
<clus scale="   92.196">  7  8 -1 -1</clus>
<clus scale="   72.554">  2  5  1 -1</clus>
</clustering>
</event>
<event>
 9    2  0.3402837E-005  0.1849472E+03  0.7546771E-02  0.1164800E+00
          2   -1    0    0  502    0  0.00000000000E+00  0.00000000000E+00  0.44783875384E+02  0.44783875384E+02  0.00000000000E+00 0. -1.
         -1   -1    0    0    0  501 -0.00000000000E+00 -0.00000000000E+00 -0.10517112033E+04  0.10517112033E+04  0.00000000000E+00 0.  1.
         23    2    1    2    0    0  0.14707574830E+03  0.59347510065E+02 -0.61320279017E+03  0.64033117812E+03  0.94090132895E+02 0.  0.
         24    2    1    2    0    0 -0.13532546380E+03 -0.85885456934E+02 -0.23744717613E+03  0.29721439424E+03  0.79157702233E+02 0.  0.
        -11    1    4    4    0    0 -0.43414136812E+02 -0.59821389657E+02 -0.15209778770E+03  0.16910683889E+03  0.00000000000E+00 0.  1.
         12    1    4    4    0    0 -0.91911326988E+02 -0.26064067277E+02 -0.85349388437E+02  0.12810755535E+03  0.00000000000E+00 0. -1.
        -11    1    3    3    0    0  0.76503994868E+02  0.15802585082E+02 -0.45554879124E+03  0.46219831688E+03  0.00000000000E+00 0.  1.
         11    1    3    3    0    0  0.70571753430E+02  0.43544924983E+02 -0.15765399893E+03  0.17813286124E+03  0.00000000000E+00 0. -1.
         21    1    1    2  502  501 -0.11750284498E+02  0.26537946869E+02 -0.15627736159E+03  0.15894950631E+03  0.00000000000E+00 0. -1.
<scales pt_clust_5="13000.00000" pt_clust_6="13000.00000" pt_clust_7="13000.00000" pt_clust_8="13000.00000" pt_clust_9="29.02295"></scales>
<clustering>
<clus scale="   29.023">  2  9  1 -1</clus>
<clus scale="   79.158">  5  6 -1 -1</clus>
<clus scale="   94.090">  7  8 -1 -1</clus>
<clus scale="  177.816">  1  5  2 -1</clus>
<clus scale="  177.816">  1  5  2 -1</clus>
</clustering>
</event>
<event>
 9    2  0.3402837E-005  0.9329549E+02  0.7546771E-02  0.1301317E+00
          2   -1    0    0  502    0  0.00000000000E+00  0.00000000000E+00  0.39844066858E+03  0.39844066858E+03  0.00000000000E+00 0. -1.
         -1   -1    0    0    0  501 -0.00000000000E+00 -0.00000000000E+00 -0.34798023507E+02  0.34798023507E+02  0.00000000000E+00 0.  1.
         24    2    1    2    0    0 -0.12892232614E+02 -0.21855137882E+01  0.73154219284E+02  0.11036465719E+03  0.81595536801E+02 0.  0.
         23    2    1    2    0    0  0.28893278911E+01 -0.21711029440E+02  0.27892221436E+03  0.29450362552E+03  0.91951436998E+02 0.  0.
        -13    1    3    3    0    0 -0.20908626370E+02 -0.25637187727E+02  0.78344644314E+02  0.85043044065E+02  0.00000000000E+00 0.  1.
         14    1    3    3    0    0  0.80163937559E+01  0.23451673939E+02 -0.51904250296E+01  0.25321613128E+02  0.00000000000E+00 0. -1.
        -13    1    4    4    0    0  0.38045628879E+02 -0.45548520176E+00  0.55212336863E+02  0.67052811167E+02  0.00000000000E+00 0.  1.
         13    1    4    4    0    0 -0.35156300988E+02 -0.21255544239E+02  0.22370987750E+03  0.22745081436E+03  0.00000000000E+00 0. -1.
         21    1    1    2  502  501  0.10002904723E+02  0.23896543229E+02  0.11566211427E+02  0.28370409372E+02  0.00000000000E+00 0.  1.
<scales pt_clust_5="13000.00000" pt_clust_6="13000.00000" pt_clust_7="13000.00000" pt_clust_8="13000.00000" pt_clust_9="25.90565"></scales>
<clustering>
<clus scale="   25.906">  2  9  1 -1</clus>
<clus scale="   81.596">  5  6 -1 -1</clus>
<clus scale="   83.107">  2  5  1 -1</clus>
<clus scale="   91.951">  7  8 -1 -1</clus>
<clus scale="   93.295">  1  5  2 -1</clus>
</clustering>
</event>
<event>
 9    2  0.3402837E-005  0.9881037E+02  0.7546771E-02  0.1289033E+00
          2   -1    0    0  502    0  0.00000000000E+00  0.00000000000E+00  0.34912350212E+03  0.34912350212E+03  0.00000000000E+00 0. -1.
         -1   -1    0    0    0  501 -0.00000000000E+00 -0.00000000000E+00 -0.12190683919E+03  0.12190683919E+03  0.00000000000E+00 0.  1.
         23    2    1    2    0    0  0.64509334733E+01  0.34973009295E+01 -0.63585270780E+02  0.11398180787E+03  0.94312884642E+02 0.  0.
         24    2    1    2    0    0 -0.30878265582E+02  0.36812127922E+01  0.31176563949E+03  0.32406819728E+03  0.82797125008E+02 0.  0.
        -13    1    4    4    0    0 -0.54240073548E+01 -0.19451430261E+02  0.14599961490E+02  0.24918604907E+02  0.00000000000E+00 0.  1.
         14    1    4    4    0    0 -0.25454258227E+02  0.23132643054E+02  0.29716567800E+03  0.29914959237E+03  0.00000000000E+00 0. -1.
        -11    1    3    3    0    0  0.44045110964E+02  0.40941103775E+01 -0.62241012291E+02  0.76358870806E+02  0.00000000000E+00 0.  1.
         11    1    3    3    0    0 -0.37594177491E+02 -0.59680944804E+00 -0.13442584888E+01  0.37622937068E+02  0.00000000000E+00 0. -1.
         21    1    1    2  502  501  0.24427332109E+02 -0.71785137217E+01 -0.20963705782E+02  0.32980336161E+02  0.00000000000E+00 0.  1.
<scales pt_clust_5="13000.00000" pt_clust_6="13000.00000" pt_clust_7="13000.00000" pt_clust_8="13000.00000" pt_clust_9="25.46028"></scales>
<clustering>
<clus scale="   25.460">  2  9  1 -1</clus>
<clus scale="   82.797">  5  6 -1 -1</clus>
<clus scale="   87.886">  1  5  2 -1</clus>
<clus scale="   94.313">  7  8 -1 -1</clus>
<clus scale="   87.886">  1  5  2 -1</clus>
</clustering>
</event>
<event>
 9    2  0.3402837E-005  0.1279197E+03  0.7546771E-02  0.1233146E+00
         -3   -1    0    0    0  501 -0.00000000000E+00  0.00000000000E+00  0.20362030792E+03  0.20362030792E+03  0.00000000000E+00 0.  1.
          4   -1    0    0  502    0  0.00000000000E+00 -0.00000000000E+00 -0.27293519344E+03  0.27293519344E+03  0.00000000000E+00 0. -1.
         24    2    1    2    0    0  0.77532983730E+02  0.65179108952E+02  0.13010232084E+03  0.18378566400E+03  0.81184213946E+02 0.  0.
         23    2    1    2    0    0 -0.10433096121E+02 -0.55647280661E+01 -0.17852740444E+03  0.20061424529E+03  0.90742633763E+02 0.  0.
        -11    1    3    3    0    0  0.77298827285E+02  0.53267050716E+02  0.13982018445E+03  0.16841072225E+03  0.00000000000E+00 0.  1.
         12    1    3    3    0    0  0.23415644449E+00  0.11912058236E+02 -0.97178636049E+01  0.15374941746E+02  0.00000000000E+00 0. -1.
        -13    1    4    4    0    0  0.32849407552E+02  0.73201956339E+01 -0.29032304192E+02  0.44447086826E+02  0.00000000000E+00 0.  1.
         13    1    4    4    0    0 -0.43282503673E+02 -0.12884923700E+02 -0.14949510025E+03  0.15616715846E+03  0.00000000000E+00 0. -1.
         21    1    1    2  502  501 -0.67099887609E+02 -0.59614380886E+02 -0.20889801915E+02  0.92155592069E+02  0.00000000000E+00 0. -1.
<scales pt_clust_5="13000.00000" pt_clust_6="13000.00000" pt_clust_7="13000.00000" pt_clust_8="13000.00000" pt_clust_9="89.75672"></scales>
<clustering>
<clus scale="   81.184">  5  6 -1 -1</clus>
<clus scale="   89.757">  2  9  1 -1</clus>
<clus scale="   90.743">  7  8 -1 -1</clus>
<clus scale="  121.326">  1  5  2 -1</clus>
<clus scale="   89.757">  2  5  1 -1</clus>
</clustering>
</event>
<event>
 9    2  0.3402837E-005  0.1072348E+03  0.7546771E-02  0.1269656E+00
         -1   -1    0    0    0  501 -0.00000000000E+00  0.00000000000E+00  0.21182965968E+03  0.21182965968E+03  0.00000000000E+00 0.  1.
          2   -1    0    0  502    0  0.00000000000E+00 -0.00000000000E+00 -0.28895224319E+03  0.28895224319E+03  0.00000000000E+00 0. -1.
         24    2    1    2    0    0  0.59291047221E+01 -0.21375783129E+02  0.10855513740E+03  0.13636550658E+03  0.79493742774E+02 0.  0.
         23    2    1    2    0    0  0.66194642841E+02 -0.81297576765E+00 -0.24466034628E+03  0.26863995827E+03  0.89030053725E+02 0.  0.
        -13    1    3    3    0    0 -0.11167174002E+02 -0.37427308098E+02  0.10576872941E+03  0.11274987045E+03  0.00000000000E+00 0.  1.
         14    1    3    3    0    0  0.17096278724E+02  0.16051524969E+02  0.27864079958E+01  0.23615636124E+02  0.00000000000E+00 0. -1.
        -13    1    4    4    0    0 -0.89112633407E+01  0.26142318735E+02 -0.96287389042E+02  0.10017031862E+03  0.00000000000E+00 0. -1.
         13    1    4    4    0    0  0.75105906182E+02 -0.26955294503E+02 -0.14837295724E+03  0.16846963965E+03  0.00000000000E+00 0.  1.
         21    1    1    2  502  501 -0.72123747563E+02  0.22188758897E+02  0.58982625365E+02  0.95776438016E+02  0.00000000000E+00 0.  1.
<scales pt_clust_5="13000.00000" pt_clust_6="13000.00000" pt_clust_7="13000.00000" pt_clust_8="13000.00000" pt_clust_9="75.45976"></scales>
<clustering>
<clus scale="   75.460">  1  9  2 -1</clus>
<clus scale="   79.494">  5  6 -1 -1</clus>
<clus scale="   89.030">  7  8 -1 -1</clus>
<clus scale="   99.460">  1  5  2 -1</clus>
<clus scale="  107.235">  2  5  1 -1</clus>
</clustering>
</event>
<event>
 9    2  0.3402837E-005  0.9043582E+02  0.7546771E-02  0.1303322E+00
         -1   -1    0    0    0  501 -0.00000000000E+00  0.00000000000E+00  0.59821044821E+02  0.59821044821E+02  0.00000000000E+00 0.  1.
          2   -1    0    0  502    0  0.00000000000E+00 -0.00000000000E+00 -0.37944683809E+03  0.37944683809E+03  0.00000000000E+00 0. -1.
         23    2    1    2    0    0  0.56929880539E+01 -0.22696370913E+00 -0.12405077940E+02  0.90050860682E+02  0.89010167540E+02 0.  0.
         24    2    1    2    0    0  0.70161022184E+01  0.17434196907E+02 -0.31442791582E+03  0.32664372853E+03  0.86475627929E+02 0.  0.
        -11    1    4    4    0    0 -0.39396661482E+02  0.19686490973E+01 -0.14908875991E+03  0.15421877592E+03  0.00000000000E+00 0.  1.
         12    1    4    4    0    0  0.46412763700E+02  0.15465547810E+02 -0.16533915591E+03  0.17242495260E+03  0.00000000000E+00 0. -1.
        -13    1    3    3    0    0  0.35506446627E+02 -0.29932746514E+01 -0.36951959426E+02  0.51333368783E+02  0.00000000000E+00 0. -1.
         13    1    3    3    0    0 -0.29813458573E+02  0.27663109422E+01  0.24546881486E+02  0.38717491900E+02  0.00000000000E+00 0.  1.
         21    1    1    2  502  501 -0.12709090272E+02 -0.17207233198E+02  0.72072004879E+01  0.22573293707E+02  0.00000000000E+00 0.  1.
<scales pt_clust_5="13000.00000" pt_clust_6="13000.00000" pt_clust_7="13000.00000" pt_clust_8="13000.00000" pt_clust_9="21.39182"></scales>
<clustering>
<clus scale="   21.392">  1  9  2 -1</clus>
<clus scale="   86.476">  5  6 -1 -1</clus>
<clus scale="   87.942">  2  5  1 -1</clus>
<clus scale="   89.010">  7  8 -1 -1</clus>
<clus scale="   87.942">  2  5  1 -1</clus>
</clustering>
</event>
<event>
 9    2  0.3402837E-005  0.9485330E+02  0.7546771E-02  0.1295163E+00
         -1   -1    0    0    0  501 -0.00000000000E+00  0.00000000000E+00  0.99627218134E+02  0.99627218134E+02  0.00000000000E+00 0.  1.
          2   -1    0    0  502    0  0.00000000000E+00 -0.00000000000E+00 -0.23673522049E+03  0.23673522049E+03  0.00000000000E+00 0. -1.
         23    2    1    2    0    0 -0.16194691824E+02  0.41117681733E+01 -0.23878666526E+02  0.94793881330E+02  0.90202630460E+02 0.  0.
         24    2    1    2    0    0  0.57972080188E+01 -0.36299384941E+02 -0.15977049223E+03  0.18403396265E+03  0.83610024831E+02 0.  0.
        -11    1    4    4    0    0  0.43681959204E+02 -0.10698767883E+02 -0.68382595339E+02  0.81845931722E+02  0.00000000000E+00 0.  1.
         12    1    4    4    0    0 -0.37884751185E+02 -0.25600617057E+02 -0.91387896893E+02  0.10218803093E+03  0.00000000000E+00 0. -1.
        -13    1    3    3    0    0 -0.44683054905E+02 -0.20768567533E+02 -0.28120372141E+02  0.56733271740E+02  0.00000000000E+00 0.  1.
         13    1    3    3    0    0  0.28488363080E+02  0.24880335706E+02  0.42417056150E+01  0.38060609590E+02  0.00000000000E+00 0. -1.
         21    1    1    2  502  501  0.10397483805E+02  0.32187616767E+02  0.46541156397E+02  0.57534594649E+02  0.00000000000E+00 0.  1.
<scales pt_clust_5="13000.00000" pt_clust_6="13000.00000" pt_clust_7="13000.00000" pt_clust_8="13000.00000" pt_clust_9="33.82529"></scales>
<clustering>
<clus scale="   33.825">  1  9  2 -1</clus>
<clus scale="   83.610">  5  6 -1 -1</clus>
<clus scale="   88.607">  2  5  1 -1</clus>
<clus scale="   90.203">  7  8 -1 -1</clus>
<clus scale="   88.607">  2  5  1 -1</clus>
</clustering>
</event>
<event>
 9    2  0.3402837E-005  0.1194089E+03  0.7546771E-02  0.1248482E+00
          2   -1    0    0  502    0  0.00000000000E+00  0.00000000000E+00  0.26783977801E+03  0.26783977801E+03  0.00000000000E+00 0. -1.
         -1   -1    0    0    0  501 -0.00000000000E+00 -0.00000000000E+00 -0.18513257526E+03  0.18513257526E+03  0.00000000000E+00 0.  1.
         24    2    1    2    0    0  0.30859478833E+02 -0.81753615397E+02 -0.48537370333E+02  0.12853642943E+03  0.80807031292E+02 0.  0.
         23    2    1    2    0    0  0.16765936895E+02  0.71374269207E+02  0.20433364157E+03  0.23658421365E+03  0.94045043069E+02 0.  0.
        -11    1    3    3    0    0  0.86040415049E+01 -0.92356358603E+02 -0.46611621818E+02  0.10380929531E+03  0.00000000000E+00 0.  1.
         12    1    3    3    0    0  0.22255437328E+02  0.10602743206E+02 -0.19257485150E+01  0.24727134114E+02  0.00000000000E+00 0. -1.
        -11    1    4    4    0    0 -0.25118329847E+02 -0.93560243380E+01  0.63634640130E+02  0.69049497537E+02  0.00000000000E+00 0.  1.
         11    1    4    4    0    0  0.41884266742E+02  0.80730293545E+02  0.14069900144E+03  0.16753471611E+03  0.00000000000E+00 0. -1.
         21    1    1    2  502  501 -0.47625415728E+02  0.10379346190E+02 -0.73089068495E+02  0.87851710194E+02  0.00000000000E+00 0.  1.
<scales pt_clust_5="13000.00000" pt_clust_6="13000.00000" pt_clust_7="13000.00000" pt_clust_8="13000.00000" pt_clust_9="48.74332"></scales>
<clustering>
<clus scale="   48.743">  2  9  1 -1</clus>
<clus scale="   80.807">  5  6 -1 -1</clus>
<clus scale="   94.045">  7  8 -1 -1</clus>
<clus scale="  109.288">  2  5  1 -1</clus>
<clus scale="  119.409">  1  5  2 -1</clus>
</clustering>
</event>
<event>
 9    2  0.3402837E-005  0.1506094E+03  0.7546771E-02  0.1202401E+00
         -1   -1    0    0    0  501 -0.00000000000E+00  0.00000000000E+00  0.31205406673E+02  0.31205406673E+02  0.00000000000E+00 0.  1.
          2   -1    0    0  502    0  0.00000000000E+00 -0.00000000000E+00 -0.14559732495E+04  0.14559732495E+04  0.00000000000E+00 0. -1.
         23    2    1    2    0    0 -0.13783638022E+03 -0.46838915786E+02 -0.40820647500E+03  0.44309544220E+03  0.92240408305E+02 0.  0.
         24    2    1    2    0    0  0.11304494697E+03 -0.20408774822E+02 -0.86954030588E+03  0.88052264503E+03  0.77615119321E+02 0.  0.
        -13    1    4    4    0    0  0.11447549316E+03 -0.36498655126E+02 -0.70230499977E+03  0.71250901964E+03  0.00000000000E+00 0.  1.
         14    1    4    4    0    0 -0.14305461917E+01  0.16089880304E+02 -0.16723530610E+03  0.16801362539E+03  0.00000000000E+00 0. -1.
        -13    1    3    3    0    0 -0.45370488299E+02 -0.63430341263E+02 -0.17002883609E+03  0.18706067065E+03  0.00000000000E+00 0.  1.
         13    1    3    3    0    0 -0.92465891917E+02  0.16591425477E+02 -0.23817763891E+03  0.25603477155E+03  0.00000000000E+00 0. -1.
         21    1    1    2  502  501  0.24791433247E+02  0.67247690609E+02 -0.14702106196E+03  0.16356056895E+03  0.00000000000E+00 0. -1.
<scales pt_clust_5="13000.00000" pt_clust_6="13000.00000" pt_clust_7="13000.00000" pt_clust_8="13000.00000" pt_clust_9="71.67194"></scales>
<clustering>
<clus scale="   71.672">  1  9  2 -1</clus>
<clus scale="   77.615">  5  6 -1 -1</clus>
<clus scale="   92.240">  7  8 -1 -1</clus>
<clus scale="  142.123">  2  5  1 -1</clus>
<clus scale="  142.123">  2  5  1 -1</clus>
</clustering>
</event>
<event>
 9    2  0.3402837E-005  0.9171773E+02  0.7546771E-02  0.1313939E+00
          2   -1    0    0  502    0  0.00000000000E+00  0.00000000000E+00  0.34221797642E+03  0.34221797642E+03  0.00000000000E+00 0. -1.
         -1   -1    0    0    0  501 -0.00000000000E+00 -0.00000000000E+00 -0.42877928940E+02  0.42877928940E+02  0.00000000000E+00 0.  1.
         24    2    1    2    0    0 -0.16772638426E+02 -0.14072332158E+02  0.11331180875E+02  0.73591700894E+02  0.69339677302E+02 0.  0.
         23    2    1    2    0    0  0.41720037930E+00  0.29623654121E+00  0.26356241940E+03  0.27902482724E+03  0.91593905274E+02 0.  0.
        -13    1    3    3    0    0  0.12836860644E+02 -0.23568649195E+02 -0.16798037419E+02  0.31661337262E+02  0.00000000000E+00 0.  1.
         14    1    3    3    0    0 -0.29609499070E+02  0.94963170372E+01  0.28129218294E+02  0.41930363632E+02  0.00000000000E+00 0. -1.
        -13    1    4    4    0    0  0.38649125228E+02 -0.87096283800E+01  0.20307348696E+03  0.20690203869E+03  0.00000000000E+00 0.  1.
         13    1    4    4    0    0 -0.38231924848E+02  0.90058649212E+01  0.60488932443E+02  0.72122788553E+02  0.00000000000E+00 0. -1.
         21    1    1    2  502  501  0.16355438047E+02  0.13776095617E+02  0.24446447205E+02  0.32479377227E+02  0.00000000000E+00 0. -1.
<scales pt_clust_5="13000.00000" pt_clust_6="13000.00000" pt_clust_7="13000.00000" pt_clust_8="13000.00000" pt_clust_9="21.38413"></scales>
<clustering>
<clus scale="   21.384">  2  9  1 -1</clus>
<clus scale="   69.340">  5  6 -1 -1</clus>
<clus scale="   69.503">  2  5  1 -1</clus>
<clus scale="   91.594">  7  8 -1 -1</clus>
<clus scale="   91.718">  1  5  2 -1</clus>
</clustering>
</event>
<event>
 9    2  0.3402837E-005  0.9935638E+02  0.7546771E-02  0.1288032E+00
          2   -1    0    0  502    0  0.00000000000E+00  0.00000000000E+00  0.49476026697E+03  0.49476026697E+03  0.00000000000E+00 0. -1.
         -1   -1    0    0    0  501 -0.00000000000E+00 -0.00000000000E+00 -0.17363589825E+03  0.17363589825E+03  0.00000000000E+00 0.  1.
         24    2    1    2    0    0 -0.44150087674E+02  0.15564272093E+02 -0.13890921156E+03  0.16628991884E+03  0.78518095022E+02 0.  0.
         23    2    1    2    0    0 -0.30535386533E+02  0.16523202277E+02  0.13129951198E+03  0.16347131946E+03  0.90982879692E+02 0.  0.
        -11    1    3    3    0    0  0.85982918518E+01  0.32433591752E+02 -0.34641796498E+02  0.48227819371E+02  0.00000000000E+00 0.  1.
         12    1    3    3    0    0 -0.52748379525E+02 -0.16869319660E+02 -0.10426741506E+03  0.11806209947E+03  0.00000000000E+00 0. -1.
        -13    1    4    4    0    0  0.26505841895E+02  0.16407582016E+01  0.95870587592E+01  0.28234082909E+02  0.00000000000E+00 0.  1.
         13    1    4    4    0    0 -0.57041228428E+02  0.14882444075E+02  0.12171245322E+03  0.13523723655E+03  0.00000000000E+00 0. -1.
         21    1    1    2  502  501  0.74685474206E+02 -0.32087474370E+02  0.32873406830E+03  0.33863492692E+03  0.00000000000E+00 0.  1.
<scales pt_clust_5="13000.00000" pt_clust_6="13000.00000" pt_clust_7="13000.00000" pt_clust_8="13000.00000" pt_clust_9="81.28669"></scales>
<clustering>
<clus scale="   78.518">  5  6 -1 -1</clus>
<clus scale="   81.287">  1  9  2 -1</clus>
<clus scale="   88.085">  2  5  1 -1</clus>
<clus scale="   90.983">  7  8 -1 -1</clus>
<clus scale="   81.287">  1  5  2 -1</clus>
</clustering>
</event>
<event>
 9    2  0.3402837E-005  0.1045847E+03  0.7546771E-02  0.1274248E+00
          2   -1    0    0  502    0  0.00000000000E+00  0.00000000000E+00  0.40707098767E+03  0.40707098767E+03  0.00000000000E+00 0. -1.
         -1   -1    0    0    0  501 -0.00000000000E+00 -0.00000000000E+00 -0.58478653778E+02  0.58478653778E+02  0.00000000000E+00 0.  1.
         24    2    1    2    0    0 -0.60785582592E+02 -0.24853055740E+02  0.21362800198E+02  0.10843697118E+03  0.83604103107E+02 0.  0.
         23    2    1    2    0    0  0.36224329436E+02  0.33343304973E+02  0.30755287707E+03  0.32451650017E+03  0.91094504025E+02 0.  0.
        -11    1    3    3    0    0 -0.19549598877E+02  0.25615032524E+02 -0.13016581555E+02  0.34752670442E+02  0.00000000000E+00 0.  1.
         12    1    3    3    0    0 -0.41235983714E+02 -0.50468088264E+02  0.34379381753E+02  0.73684300740E+02  0.00000000000E+00 0. -1.
        -13    1    4    4    0    0  0.35133996434E+02  0.55736738800E+02  0.28573475500E+03  0.29323255613E+03  0.00000000000E+00 0. -1.
         13    1    4    4    0    0  0.10903330019E+01 -0.22393433827E+02  0.21818122065E+02  0.31283944046E+02  0.00000000000E+00 0.  1.
         21    1    1    2  502  501  0.24561253156E+02 -0.84902492336E+01  0.19676656629E+02  0.32596170093E+02  0.00000000000E+00 0.  1.
<scales pt_clust_5="13000.00000" pt_clust_6="13000.00000" pt_clust_7="13000.00000" pt_clust_8="13000.00000" pt_clust_9="25.98729"></scales>
<clustering>
<clus scale="   25.987">  2  9  1 -1</clus>
<clus scale="   83.604">  5  6 -1 -1</clus>
<clus scale="   91.095">  7  8 -1 -1</clus>
<clus scale="   98.130">  2  5  1 -1</clus>
<clus scale="  104.585">  1  5  2 -1</clus>
</clustering>
</event>
<event>
 9    2  0.3402837E-005  0.1490153E+03  0.7546771E-02  0.1203327E+00
         -1   -1    0    0    0  501 -0.00000000000E+00  0.00000000000E+00  0.38124134380E+02  0.38124134380E+02  0.00000000000E+00 0.  1.
          2   -1    0    0  502    0  0.00000000000E+00 -0.00000000000E+00 -0.71227807037E+03  0.71227807037E+03  0.00000000000E+00 0. -1.
         24    2    1    2    0    0  0.11797155923E+03 -0.39139202309E+02 -0.24514311097E+03  0.28685452702E+03  0.82104865089E+02 0.  0.
         23    2    1    2    0    0 -0.98886591942E+02  0.58997766213E+02 -0.37992101631E+03  0.40725906559E+03  0.90888246719E+02 0.  0.
        -11    1    3    3    0    0  0.65148430442E+02  0.60203460256E+01 -0.58769523413E+02  0.87945548139E+02  0.00000000000E+00 0.  1.
         12    1    3    3    0    0  0.52823128790E+02 -0.45159548335E+02 -0.18637358755E+03  0.19890897888E+03  0.00000000000E+00 0. -1.
        -11    1    4    4    0    0  0.87055084749E+01  0.33874523824E+02 -0.11561086655E+03  0.12078551944E+03  0.00000000000E+00 0.  1.
         11    1    4    4    0    0 -0.10759210042E+03  0.25123242388E+02 -0.26431014976E+03  0.28647354615E+03  0.00000000000E+00 0. -1.
         21    1    1    2  502  501 -0.19084967290E+02 -0.19858563903E+02 -0.49089808716E+02  0.56288612139E+02  0.00000000000E+00 0.  1.
<scales pt_clust_5="13000.00000" pt_clust_6="13000.00000" pt_clust_7="13000.00000" pt_clust_8="13000.00000" pt_clust_9="27.54267"></scales>
<clustering>
<clus scale="   27.543">  1  9  2 -1</clus>
<clus scale="   82.105">  5  6 -1 -1</clus>
<clus scale="   90.888">  7  8 -1 -1</clus>
<clus scale="  143.827">  1  5  2 -1</clus>
<clus scale="  149.015">  2  5  1 -1</clus>
</clustering>
</event>
<event>
 9    2  0.3402837E-005  0.1584001E+03  0.7546771E-02  0.1192219E+00
         -1   -1    0    0    0  501 -0.00000000000E+00  0.00000000000E+00  0.75615585618E+02  0.75615585618E+02  0.00000000000E+00 0.  1.
          2   -1    0    0  502    0  0.00000000000E+00 -0.00000000000E+00 -0.80687084041E+03  0.80687084041E+03  0.00000000000E+00 0. -1.
         23    2    1    2    0    0  0.78145457701E+01  0.12853795305E+03 -0.12705056911E+03  0.20250693507E+03  0.91017246387E+02 0.  0.
         24    2    1    2    0    0 -0.30132996855E+02 -0.12669264417E+03 -0.62854015479E+03  0.64690784934E+03  0.80423975083E+02 0.  0.
        -11    1    4    4    0    0  0.26301193123E+02 -0.60987196792E+02 -0.26668314572E+03  0.27482920359E+03  0.00000000000E+00 0.  1.
         12    1    4    4    0    0 -0.56434189978E+02 -0.65705447375E+02 -0.36185700906E+03  0.37207864575E+03  0.00000000000E+00 0. -1.
        -13    1    3    3    0    0  0.36675840907E+02  0.36210404853E+02 -0.79433365768E+02  0.94688807803E+02  0.00000000000E+00 0. -1.
         13    1    3    3    0    0 -0.28861295137E+02  0.92327548195E+02 -0.47617203340E+02  0.10781812726E+03  0.00000000000E+00 0.  1.
         21    1    1    2  502  501  0.22318451085E+02 -0.18453088808E+01  0.24335469099E+02  0.33071641628E+02  0.00000000000E+00 0.  1.
<scales pt_clust_5="13000.00000" pt_clust_6="13000.00000" pt_clust_7="13000.00000" pt_clust_8="13000.00000" pt_clust_9="22.39461"></scales>
<clustering>
<clus scale="   22.395">  1  9  2 -1</clus>
<clus scale="   80.424">  5  6 -1 -1</clus>
<clus scale="   91.017">  7  8 -1 -1</clus>
<clus scale="  152.560">  2  5  1 -1</clus>
<clus scale="  152.560">  2  5  1 -1</clus>
</clustering>
</event>
<event>
 9    2  0.3402837E-005  0.2660055E+03  0.7546771E-02  0.1104149E+00
         -1   -1    0    0    0  501 -0.00000000000E+00  0.00000000000E+00  0.27505596654E+03  0.27505596654E+03  0.00000000000E+00 0.  1.
          2   -1    0    0  502    0  0.00000000000E+00 -0.00000000000E+00 -0.32466749419E+03  0.32466749419E+03  0.00000000000E+00 0. -1.
         23    2    1    2    0    0 -0.24996428517E+03 -0.71392550702E+01  0.89805095117E+02  0.28118854226E+03  0.92026780697E+02 0.  0.
         24    2    1    2    0    0  0.24926918549E+03 -0.13265242097E+02 -0.14157054133E+03  0.29800528054E+03  0.80335767715E+02 0.  0.
        -13    1    4    4    0    0  0.44044793604E+02  0.22120216785E+02 -0.50955927845E+02  0.70892555440E+02  0.00000000000E+00 0.  1.
         14    1    4    4    0    0  0.20522439188E+03 -0.35385458883E+02 -0.90614613487E+02  0.22711272510E+03  0.00000000000E+00 0. -1.
        -13    1    3    3    0    0 -0.64488731121E+02 -0.10760327984E+02  0.68112873854E+02  0.94413689074E+02  0.00000000000E+00 0.  1.
         13    1    3    3    0    0 -0.18547555405E+03  0.36210729137E+01  0.21692221263E+02  0.18677485319E+03  0.00000000000E+00 0. -1.
         21    1    1    2  502  501  0.69509968652E+00  0.20404497168E+02  0.21539185664E+01  0.20529637927E+02  0.00000000000E+00 0. -1.
<scales pt_clust_5="13000.00000" pt_clust_6="13000.00000" pt_clust_7="13000.00000" pt_clust_8="13000.00000" pt_clust_9="20.41633"></scales>
<clustering>
<clus scale="   20.416">  1  9  2 -1</clus>
<clus scale="   80.336">  5  6 -1 -1</clus>
<clus scale="   92.027">  7  8 -1 -1</clus>
<clus scale="  262.190">  2  5  1 -1</clus>
<clus scale="  262.190">  2  5  1 -1</clus>
</clustering>
</event>
<event>
 9    2  0.3402837E-005  0.1852763E+03  0.7546771E-02  0.1163991E+00
         -1   -1    0    0    0  501 -0.00000000000E+00  0.00000000000E+00  0.97446426155E+02  0.97446426155E+02  0.00000000000E+00 0.  1.
          2   -1    0    0  502    0  0.00000000000E+00 -0.00000000000E+00 -0.43003976838E+03  0.43003976838E+03  0.00000000000E+00 0. -1.
         23    2    1    2    0    0  0.16006501834E+03 -0.39728352487E+02 -0.86479382987E+02  0.20740520999E+03  0.91318592647E+02 0.  0.
         24    2    1    2    0    0 -0.15604994718E+03  0.13074894172E+02 -0.19837185368E+03  0.26525547698E+03  0.80539039368E+02 0.  0.
        -13    1    4    4    0    0 -0.58161500498E+02  0.67627651698E+01 -0.20334055700E+02  0.61983618434E+02  0.00000000000E+00 0.  1.
         14    1    4    4    0    0 -0.97888446677E+02  0.63121290023E+01 -0.17803779798E+03  0.20327185855E+03  0.00000000000E+00 0. -1.
        -11    1    3    3    0    0  0.40074016870E+02 -0.46014300549E+02 -0.29910235311E+01  0.61091643495E+02  0.00000000000E+00 0.  1.
         11    1    3    3    0    0  0.11999100147E+03  0.62859480623E+01 -0.83488359456E+02  0.14631356650E+03  0.00000000000E+00 0. -1.
         21    1    1    2  502  501 -0.40150711658E+01  0.26653458315E+02 -0.47742105559E+02  0.54825507566E+02  0.00000000000E+00 0. -1.
<scales pt_clust_5="13000.00000" pt_clust_6="13000.00000" pt_clust_7="13000.00000" pt_clust_8="13000.00000" pt_clust_9="26.95418"></scales>
<clustering>
<clus scale="   26.954">  2  9  1 -1</clus>
<clus scale="   80.539">  5  6 -1 -1</clus>
<clus scale="   91.319">  7  8 -1 -1</clus>
<clus scale="  180.208">  2  5  1 -1</clus>
<clus scale="   26.954">  2  5  1 -1</clus>
</clustering>
</event>
<event>
 9    2  0.3402837E-005  0.1335427E+03  0.7546771E-02  0.1227945E+00
          2   -1    0    0  502    0  0.00000000000E+00  0.00000000000E+00  0.67683776915E+03  0.67683776915E+03  0.00000000000E+00 0. -1.
         -1   -1    0    0    0  501 -0.00000000000E+00 -0.00000000000E+00 -0.70371672302E+02  0.70371672302E+02  0.00000000000E+00 0.  1.
         23    2    1    2    0    0 -0.26650285344E+02  0.11455548185E+02  0.25872159044E+02  0.10639726559E+03  0.99043133117E+02 0.  0.
         24    2    1    2    0    0  0.10109912615E+03 -0.20812356923E+01  0.54122489101E+03  0.55607476100E+03  0.77906304781E+02 0.  0.
        -11    1    4    4    0    0  0.41041478479E+02 -0.28116020763E+02  0.12172494417E+03  0.13149857647E+03  0.00000000000E+00 0.  1.
         12    1    4    4    0    0  0.60057647674E+02  0.26034785070E+02  0.41949994684E+03  0.42457618453E+03  0.00000000000E+00 0. -1.
        -11    1    3    3    0    0 -0.14882415291E+02 -0.28061852866E+02  0.49544669733E+02  0.58852596970E+02  0.00000000000E+00 0. -1.
         11    1    3    3    0    0 -0.11767870054E+02  0.39517401052E+02 -0.23672510690E+02  0.47544668616E+02  0.00000000000E+00 0.  1.
         21    1    1    2  502  501 -0.74448840808E+02 -0.93743124929E+01  0.39369046797E+02  0.84737414866E+02  0.00000000000E+00 0.  1.
<scales pt_clust_5="13000.00000" pt_clust_6="13000.00000" pt_clust_7="13000.00000" pt_clust_8="13000.00000" pt_clust_9="75.03671"></scales>
<clustering>
<clus scale="   75.037">  2  9  1 -1</clus>
<clus scale="   77.906">  5  6 -1 -1</clus>
<clus scale="   99.043">  7  8 -1 -1</clus>
<clus scale="  118.716">  1  5  2 -1</clus>
<clus scale="  118.716">  1  5  2 -1</clus>
</clustering>
</event>
<event>
 9    2  0.3402837E-005  0.1839913E+03  0.7546771E-02  0.1164840E+00
         -1   -1    0    0    0  501 -0.00000000000E+00  0.00000000000E+00  0.52772162151E+03  0.52772162151E+03  0.00000000000E+00 0.  1.
          2   -1    0    0  502    0  0.00000000000E+00 -0.00000000000E+00 -0.77383941938E+03  0.77383941938E+03  0.00000000000E+00 0. -1.
         24    2    1    2    0    0 -0.15229837412E+03 -0.73747268423E+02  0.38003755802E+03  0.42374449070E+03  0.80606411219E+02 0.  0.
         23    2    1    2    0    0  0.14727018137E+03 -0.70004163421E+02 -0.69431245265E+03  0.71864636858E+03  0.88282115683E+02 0.  0.
        -13    1    3    3    0    0 -0.88938494151E+02 -0.39588710391E+02  0.30325501471E+03  0.31849792100E+03  0.00000000000E+00 0.  1.
         14    1    3    3    0    0 -0.63359879967E+02 -0.34158558031E+02  0.76782543313E+02  0.10524656970E+03  0.00000000000E+00 0. -1.
        -11    1    4    4    0    0  0.76621501938E+02 -0.68143398668E+02 -0.52922953950E+03  0.53907168617E+03  0.00000000000E+00 0. -1.
         11    1    4    4    0    0  0.70648679435E+02 -0.18607647527E+01 -0.16508291314E+03  0.17957468241E+03  0.00000000000E+00 0.  1.
         21    1    1    2  502  501  0.50281927444E+01  0.14375143184E+03  0.68157096750E+02  0.15917018162E+03  0.00000000000E+00 0.  1.
<scales pt_clust_5="13000.00000" pt_clust_6="13000.00000" pt_clust_7="13000.00000" pt_clust_8="13000.00000" pt_clust_9="143.83934"></scales>
<clustering>
<clus scale="   80.606">  5  6 -1 -1</clus>
<clus scale="   88.282">  7  8 -1 -1</clus>
<clus scale="  143.839">  1  9  2 -1</clus>
<clus scale="  180.434">  1  5  2 -1</clus>
<clus scale="  183.991">  2  5  1 -1</clus>
</clustering>
</event>
<event>
 9    2  0.3402837E-005  0.1119095E+03  0.7546771E-02  0.1260965E+00
          2   -1    0    0  502    0  0.00000000000E+00  0.00000000000E+00  0.64955716118E+03  0.64955716118E+03  0.00000000000E+00 0. -1.
         -1   -1    0    0    0  501 -0.00000000000E+00 -0.00000000000E+00 -0.30803130995E+02  0.30803130995E+02  0.00000000000E+00 0.  1.
         23    2    1    2    0    0 -0.19938986307E+02  0.43776791686E+02  0.12552127241E+03  0.16237814597E+03  0.91088428441E+02 0.  0.
         24    2    1    2    0    0  0.50968452746E+02 -0.50352098483E+02  0.45811847931E+03  0.47066328106E+03  0.80735779240E+02 0.  0.
        -13    1    4    4    0    0  0.40136389744E+02 -0.31810013082E+02  0.10431338050E+03  0.11620709129E+03  0.00000000000E+00 0.  1.
         14    1    4    4    0    0  0.10832063003E+02 -0.18542085401E+02  0.35380509881E+03  0.35445618977E+03  0.00000000000E+00 0. -1.
        -13    1    3    3    0    0  0.14851031233E+02  0.53648909618E+02  0.10947376157E+03  0.12281393693E+03  0.00000000000E+00 0. -1.
         13    1    3    3    0    0 -0.34790017541E+02 -0.98721179319E+01  0.16047510844E+02  0.39564209043E+02  0.00000000000E+00 0.  1.
         21    1    1    2  502  501 -0.31029466439E+02  0.65753067977E+01  0.35114278459E+02  0.47318865145E+02  0.00000000000E+00 0.  1.
<scales pt_clust_5="13000.00000" pt_clust_6="13000.00000" pt_clust_7="13000.00000" pt_clust_8="13000.00000" pt_clust_9="31.71849"></scales>
<clustering>
<clus scale="   31.718">  2  9  1 -1</clus>
<clus scale="   80.736">  5  6 -1 -1</clus>
<clus scale="   91.088">  7  8 -1 -1</clus>
<clus scale="  103.658">  1  5  2 -1</clus>
<clus scale="  103.658">  1  5  2 -1</clus>
</clustering>
</event>
<event>
 9    2  0.3402837E-005  0.1077980E+03  0.7546771E-02  0.1269082E+00
          2   -1    0    0  502    0  0.00000000000E+00  0.00000000000E+00  0.12658165556E+03  0.12658165556E+03  0.00000000000E+00 0. -1.
         -1   -1    0    0    0  501 -0.00000000000E+00 -0.00000000000E+00 -0.16751109426E+03  0.16751109426E+03  0.00000000000E+00 0.  1.
         23    2    1    2    0    0 -0.12489782888E+02 -0.61768436226E+02 -0.92687764193E+02  0.14457589826E+03  0.91322693431E+02 0.  0.
         24    2    1    2    0    0  0.33001843421E+02  0.38261227901E+02  0.77498329524E+01  0.95571686013E+02  0.80751743182E+02 0.  0.
        -13    1    4    4    0    0  0.45441340489E+02  0.15389588144E+02 -0.24705455096E+02  0.53964009860E+02  0.00000000000E+00 0.  1.
         14    1    4    4    0    0 -0.12439497068E+02  0.22871639757E+02  0.32455288049E+02  0.41607676152E+02  0.00000000000E+00 0. -1.
        -11    1    3    3    0    0  0.34383118525E+02 -0.43818383768E+02 -0.26972512928E+02  0.61885103613E+02  0.00000000000E+00 0.  1.
         11    1    3    3    0    0 -0.46872901413E+02 -0.17950052457E+02 -0.65715251264E+02  0.82690794644E+02  0.00000000000E+00 0. -1.
         21    1    1    2  502  501 -0.20512060532E+02  0.23507208325E+02  0.44008492541E+02  0.53945165550E+02  0.00000000000E+00 0. -1.
<scales pt_clust_5="13000.00000" pt_clust_6="13000.00000" pt_clust_7="13000.00000" pt_clust_8="13000.00000" pt_clust_9="31.19829"></scales>
<clustering>
<clus scale="   31.198">  1  9  2 -1</clus>
<clus scale="   80.752">  5  6 -1 -1</clus>
<clus scale="   91.323">  7  8 -1 -1</clus>
<clus scale="   99.002">  1  5  2 -1</clus>
<clus scale="   31.198">  1  5  2 -1</clus>
</clustering>
</event>
<event>
 9    2  0.3402837E-005  0.1945030E+03  0.7546771E-02  0.1157310E+00
          2   -1    0    0  502    0  0.00000000000E+00  0.00000000000E+00  0.46958229621E+02  0.46958229621E+02  0.00000000000E+00 0. -1.
         -1   -1    0    0    0  501 -0.00000000000E+00 -0.00000000000E+00 -0.10003571612E+04  0.10003571612E+04  0.00000000000E+00 0.  1.
         24    2    1    2    0    0 -0.11690762677E+02  0.17057939507E+03 -0.59104905196E+03  0.61826790010E+03  0.60681220450E+02 0.  0.
         23    2    1    2    0    0 -0.14994490907E+02 -0.17182907469E+03 -0.27235780628E+03  0.33517397091E+03  0.91721047013E+02 0.  0.
        -13    1    3    3    0    0 -0.26077907895E+02  0.14185078925E+03 -0.53007931975E+03  0.54935033350E+03  0.00000000000E+00 0.  1.
         14    1    3    3    0    0  0.14387145217E+02  0.28728605823E+02 -0.60969732204E+02  0.68917566593E+02  0.00000000000E+00 0. -1.
        -11    1    4    4    0    0  0.11454034184E+02 -0.13462674914E+03 -0.25038705603E+03  0.28451578921E+03  0.00000000000E+00 0.  1.
         11    1    4    4    0    0 -0.26448525091E+02 -0.37202325557E+02 -0.21970750246E+02  0.50658181696E+02  0.00000000000E+00 0. -1.
         21    1    1    2  502  501  0.26685253584E+02  0.12496796247E+01 -0.89992073313E+02  0.93873519787E+02  0.00000000000E+00 0.  1.
<scales pt_clust_5="13000.00000" pt_clust_6="13000.00000" pt_clust_7="13000.00000" pt_clust_8="13000.00000" pt_clust_9="26.71450"></scales>
<clustering>
<clus scale="   26.714">  2  9  1 -1</clus>
<clus scale="   60.681">  5  6 -1 -1</clus>
<clus scale="   91.721">  7  8 -1 -1</clus>
<clus scale="  181.936">  2  5  1 -1</clus>
<clus scale="  194.503">  1  5  2 -1</clus>
</clustering>
</event>
<event>
 9    2  0.4743188E-005  0.1250792E+03  0.7546771E-02  0.1238693E+00
         -1   -1    0    0    0  501 -0.00000000000E+00  0.00000000000E+00  0.44949243835E+03  0.44949243835E+03  0.00000000000E+00 0.  1.
          2   -1    0    0  502    0  0.00000000000E+00 -0.00000000000E+00 -0.51392982745E+03  0.51392982745E+03  0.00000000000E+00 0. -1.
         24    2    1    2    0    0 -0.10432152708E+02  0.20854449627E+02  0.34703386843E+03  0.35711159170E+03  0.80947175422E+02 0.  0.
         23    2    1    2    0    0  0.42496948226E+02 -0.72745062300E+02 -0.49053408148E+03  0.50645218960E+03  0.93660560308E+02 0.  0.
        -13    1    3    3    0    0  0.14472521580E+02  0.42369042995E+02  0.26441886233E+03  0.26818263263E+03  0.00000000000E+00 0.  1.
         14    1    3    3    0    0 -0.24904674288E+02 -0.21514593368E+02  0.82615006092E+02  0.88928959067E+02  0.00000000000E+00 0. -1.
        -11    1    4    4    0    0 -0.24680327231E+02 -0.34207212337E+02 -0.10386560479E+03  0.11210404001E+03  0.00000000000E+00 0.  1.
         11    1    4    4    0    0  0.67177275457E+02 -0.38537849962E+02 -0.38666847669E+03  0.39434814959E+03  0.00000000000E+00 0. -1.
         21    1    1    2  502  501 -0.32064795518E+02  0.51890612673E+02  0.79062823963E+02  0.99858484507E+02  0.00000000000E+00 0. -1.
<scales pt_clust_5="13000.00000" pt_clust_6="13000.00000" pt_clust_7="13000.00000" pt_clust_8="13000.00000" pt_clust_9="60.99825"></scales>
<clustering>
<clus scale="   60.998">  1  9  2 -1</clus>
<clus scale="   80.947">  5  6 -1 -1</clus>
<clus scale="   93.661">  7  8 -1 -1</clus>
<clus scale="  115.866">  1  5  2 -1</clus>
<clus scale="  125.079">  2  5  1 -1</clus>
</clustering>
</event>
<event>
 9    2  0.3402837E-005  0.1906310E+03  0.7546771E-02  0.1158988E+00
         -1   -1    0    0    0  501 -0.00000000000E+00  0.00000000000E+00  0.47689374756E+03  0.47689374756E+03  0.00000000000E+00 0.  1.
          2   -1    0    0  502    0  0.00000000000E+00 -0.00000000000E+00 -0.16004315171E+03  0.16004315171E+03  0.00000000000E+00 0. -1.
         23    2    1    2    0    0 -0.17396520700E+03 -0.16763062571E+02  0.32723558909E+03  0.38166969206E+03  0.89686841624E+02 0.  0.
         24    2    1    2    0    0  0.16692509659E+03 -0.12349537294E+02 -0.62351714961E+02  0.19528682048E+03  0.78947494907E+02 0.  0.
        -13    1    4    4    0    0  0.89939664894E+02 -0.36968396736E+02 -0.73432760998E+01  0.97517841354E+02  0.00000000000E+00 0.  1.
         14    1    4    4    0    0  0.76985431700E+02  0.24618859442E+02 -0.55008438861E+02  0.97768979130E+02  0.00000000000E+00 0. -1.
        -11    1    3    3    0    0 -0.55615256727E+02 -0.45153940041E+02  0.15519653472E+03  0.17093244125E+03  0.00000000000E+00 0.  1.
         11    1    3    3    0    0 -0.11834995027E+03  0.28390877470E+02  0.17203905437E+03  0.21073725081E+03  0.00000000000E+00 0. -1.
         21    1    1    2  502  501  0.70401104017E+01  0.29112599865E+02  0.51966721715E+02  0.59980386721E+02  0.00000000000E+00 0.  1.
<scales pt_clust_5="13000.00000" pt_clust_6="13000.00000" pt_clust_7="13000.00000" pt_clust_8="13000.00000" pt_clust_9="29.95174"></scales>
<clustering>
<clus scale="   29.952">  1  9  2 -1</clus>
<clus scale="   78.947">  5  6 -1 -1</clus>
<clus scale="   89.687">  7  8 -1 -1</clus>
<clus scale="  185.820">  2  5  1 -1</clus>
<clus scale="  185.820">  2  5  1 -1</clus>
</clustering>
</event>
<event>
 9    2  0.3402837E-005  0.9469762E+02  0.7546771E-02  0.1298087E+00
         -1   -1    0    0    0  501 -0.00000000000E+00  0.00000000000E+00  0.23730932175E+03  0.23730932175E+03  0.00000000000E+00 0.  1.
          2   -1    0    0  502    0  0.00000000000E+00 -0.00000000000E+00 -0.13713270481E+03  0.13713270481E+03  0.00000000000E+00 0. -1.
         23    2    1    2    0    0 -0.13034106438E+02 -0.40827999831E+02 -0.51910810416E+01  0.10140654150E+03  0.91757974237E+02 0.  0.
         24    2    1    2    0    0  0.15197061371E+02  0.85919397531E+01 -0.61406997571E+02  0.10316011598E+03  0.81033438003E+02 0.  0.
        -11    1    4    4    0    0  0.28489883197E+02  0.25586287832E+02 -0.23362888428E+00  0.38293421786E+02  0.00000000000E+00 0.  1.
         12    1    4    4    0    0 -0.13292821826E+02 -0.16994348079E+02 -0.61173368687E+02  0.64866694191E+02  0.00000000000E+00 0. -1.
        -13    1    3    3    0    0  0.35377830204E+02 -0.62011771901E+01  0.14470088453E+02  0.38722460257E+02  0.00000000000E+00 0.  1.
         13    1    3    3    0    0 -0.48411936642E+02 -0.34626822641E+02 -0.19661169495E+02  0.62684081245E+02  0.00000000000E+00 0. -1.
         21    1    1    2  502  501 -0.21629549339E+01  0.32236060078E+02  0.16677469555E+03  0.16987536908E+03  0.00000000000E+00 0.  1.
<scales pt_clust_5="13000.00000" pt_clust_6="13000.00000" pt_clust_7="13000.00000" pt_clust_8="13000.00000" pt_clust_9="32.30854"></scales>
<clustering>
<clus scale="   32.309">  1  9  2 -1</clus>
<clus scale="   81.033">  5  6 -1 -1</clus>
<clus scale="   84.348">  2  5  1 -1</clus>
<clus scale="   91.758">  7  8 -1 -1</clus>
<clus scale="   84.348">  2  5  1 -1</clus>
</clustering>
</event>
<event>
 9    2  0.3402837E-005  0.9168266E+02  0.7546771E-02  0.1303157E+00
          2   -1    0    0  502    0  0.00000000000E+00  0.00000000000E+00  0.61573275251E+03  0.61573275251E+03  0.00000000000E+00 0. -1.
         -1   -1    0    0    0  501 -0.00000000000E+00 -0.00000000000E+00 -0.33860704391E+02  0.33860704391E+02  0.00000000000E+00 0.  1.
         23    2    1    2    0    0 -0.36920724026E+02 -0.36429748501E+02  0.11266238299E+03  0.15156467015E+03  0.87113548070E+02 0.  0.
         24    2    1    2    0    0 -0.19221377688E+02 -0.17605918547E+02  0.30425107116E+03  0.31559214947E+03  0.79688523510E+02 0.  0.
        -13    1    4    4    0    0 -0.30689498531E+02 -0.44133082372E+02  0.17129795386E+03  0.17953429554E+03  0.00000000000E+00 0.  1.
         14    1    4    4    0    0  0.11468120843E+02  0.26527163825E+02  0.13295311730E+03  0.13605785393E+03  0.00000000000E+00 0. -1.
        -11    1    3    3    0    0  0.27539862802E+02 -0.19530712002E+02  0.28276508498E+02  0.44039228959E+02  0.00000000000E+00 0.  1.
         11    1    3    3    0    0 -0.64460586829E+02 -0.16899036499E+02  0.84385874497E+02  0.10752544119E+03  0.00000000000E+00 0. -1.
         21    1    1    2  502  501  0.56142101715E+02  0.54035667048E+02  0.16495859397E+03  0.18243663728E+03  0.00000000000E+00 0. -1.
<scales pt_clust_5="13000.00000" pt_clust_6="13000.00000" pt_clust_7="13000.00000" pt_clust_8="13000.00000" pt_clust_9="77.92168"></scales>
<clustering>
<clus scale="   77.922">  1  9  2 -1</clus>
<clus scale="   79.689">  5  6 -1 -1</clus>
<clus scale="   84.659">  1  5  2 -1</clus>
<clus scale="   87.114">  7  8 -1 -1</clus>
<clus scale="   77.922">  1  5  2 -1</clus>
</clustering>
</event>
<event>
 9    2  0.3402837E-005  0.1125213E+03  0.7546771E-02  0.1260346E+00
         -1   -1    0    0    0  501 -0.00000000000E+00  0.00000000000E+00  0.10508402726E+03  0.10508402726E+03  0.00000000000E+00 0.  1.
          2   -1    0    0  502    0  0.00000000000E+00 -0.00000000000E+00 -0.22468456415E+03  0.22468456415E+03  0.00000000000E+00 0. -1.
         23    2    1    2    0    0 -0.31312725289E+02  0.64182962294E+02  0.36451889916E+02  0.12205919081E+03  0.92031333622E+02 0.  0.
         24    2    1    2    0    0 -0.44101943605E+01 -0.53073984840E+02 -0.90600076322E+02  0.13232010062E+03  0.80398616386E+02 0.  0.
        -11    1    4    4    0    0 -0.22105054199E+02 -0.64020704989E+02 -0.42622090600E+02  0.80024538084E+02  0.00000000000E+00 0.  1.
         12    1    4    4    0    0  0.17694859838E+02  0.10946720149E+02 -0.47977985722E+02  0.52295562534E+02  0.00000000000E+00 0. -1.
        -11    1    3    3    0    0  0.21831452540E+02 -0.30706979170E+01  0.28417712767E+02  0.35966761109E+02  0.00000000000E+00 0. -1.
         11    1    3    3    0    0 -0.53144177829E+02  0.67253660211E+02  0.80341771486E+01  0.86092429698E+02  0.00000000000E+00 0.  1.
         21    1    1    2  502  501  0.35722919650E+02 -0.11108977454E+02 -0.65452350480E+02  0.75389299982E+02  0.00000000000E+00 0. -1.
<scales pt_clust_5="13000.00000" pt_clust_6="13000.00000" pt_clust_7="13000.00000" pt_clust_8="13000.00000" pt_clust_9="37.41038"></scales>
<clustering>
<clus scale="   37.410">  2  9  1 -1</clus>
<clus scale="   80.399">  5  6 -1 -1</clus>
<clus scale="   92.031">  7  8 -1 -1</clus>
<clus scale="  103.224">  2  5  1 -1</clus>
<clus scale="   37.410">  2  5  1 -1</clus>
</clustering>
</event>
<event>
 9    2  0.3402837E-005  0.1312357E+03  0.7546771E-02  0.1229399E+00
          2   -1    0    0  502    0  0.00000000000E+00  0.00000000000E+00  0.12553777410E+04  0.12553777410E+04  0.00000000000E+00 0. -1.
         -1   -1    0    0    0  501 -0.00000000000E+00 -0.00000000000E+00 -0.57883372544E+02  0.57883372544E+02  0.00000000000E+00 0.  1.
         23    2    1    2    0    0 -0.36006983911E+02  0.14236300934E+03  0.36272552939E+03  0.40285187945E+03  0.95687500687E+02 0.  0.
         24    2    1    2    0    0  0.69844459884E+02 -0.46163309540E+02  0.79072742023E+03  0.79932816642E+03  0.81647809535E+02 0.  0.
        -11    1    4    4    0    0  0.31077874164E+02  0.15381106707E+02  0.12774337816E+03  0.13236609600E+03  0.00000000000E+00 0.  1.
         12    1    4    4    0    0  0.38766585720E+02 -0.61544416247E+02  0.66298404207E+03  0.66696207042E+03  0.00000000000E+00 0. -1.
        -11    1    3    3    0    0 -0.50683552233E+02  0.28781188440E+02  0.15582980331E+03  0.16637339594E+03  0.00000000000E+00 0. -1.
         11    1    3    3    0    0  0.14676568322E+02  0.11358182090E+03  0.20689572608E+03  0.23647848352E+03  0.00000000000E+00 0.  1.
         21    1    1    2  502  501 -0.33837475973E+02 -0.96199699798E+02  0.44041418826E+02  0.11108106766E+03  0.00000000000E+00 0. -1.
<scales pt_clust_5="13000.00000" pt_clust_6="13000.00000" pt_clust_7="13000.00000" pt_clust_8="13000.00000" pt_clust_9="101.97724"></scales>
<clustering>
<clus scale="   81.648">  5  6 -1 -1</clus>
<clus scale="   95.688">  7  8 -1 -1</clus>
<clus scale="  101.977">  2  9  1 -1</clus>
<clus scale="  121.380">  1  5  2 -1</clus>
<clus scale="  121.380">  1  5  2 -1</clus>
</clustering>
</event>
<event>
 9    2  0.3402837E-005  0.1184050E+03  0.7546771E-02  0.1251432E+00
          2   -1    0    0  502    0  0.00000000000E+00  0.00000000000E+00  0.12096072086E+04  0.12096072086E+04  0.00000000000E+00 0. -1.
         -1   -1    0    0    0  501 -0.00000000000E+00 -0.00000000000E+00 -0.19218245228E+02  0.19218245228E+02  0.00000000000E+00 0.  1.
         23    2    1    2    0    0 -0.69322960120E+02 -0.82904105244E+01  0.24094729635E+03  0.26760431172E+03  0.93177595625E+02 0.  0.
         24    2    1    2    0    0  0.84998626366E+02 -0.18773680957E+02  0.81534450867E+03  0.82352495683E+03  0.76350960278E+02 0.  0.
        -13    1    4    4    0    0  0.40798973031E+02 -0.34126994766E+02  0.21976501578E+03  0.22611030523E+03  0.00000000000E+00 0.  1.
         14    1    4    4    0    0  0.44199653334E+02  0.15353313809E+02  0.59557949289E+03  0.59741465160E+03  0.00000000000E+00 0. -1.
        -11    1    3    3    0    0  0.47810834621E+01 -0.28510913472E+02  0.12655641357E+03  0.12981624229E+03  0.00000000000E+00 0. -1.
         11    1    3    3    0    0 -0.74104043582E+02  0.20220502948E+02  0.11439088278E+03  0.13778806943E+03  0.00000000000E+00 0.  1.
         21    1    1    2  502  501 -0.15675666246E+02  0.27064091482E+02  0.13409715833E+03  0.13769618525E+03  0.00000000000E+00 0. -1.
<scales pt_clust_5="13000.00000" pt_clust_6="13000.00000" pt_clust_7="13000.00000" pt_clust_8="13000.00000" pt_clust_9="31.27605"></scales>
<clustering>
<clus scale="   31.276">  1  9  2 -1</clus>
<clus scale="   76.351">  5  6 -1 -1</clus>
<clus scale="   93.178">  7  8 -1 -1</clus>
<clus scale="  105.675">  1  5  2 -1</clus>
<clus scale="   31.276">  1  5  2 -1</clus>
</clustering>
</event>
<event>
 9    2  0.3402837E-005  0.1263334E+03  0.7546771E-02  0.1235907E+00
         -1   -1    0    0    0  501 -0.00000000000E+00  0.00000000000E+00  0.67903826212E+02  0.67903826212E+02  0.00000000000E+00 0.  1.
          2   -1    0    0  502    0  0.00000000000E+00 -0.00000000000E+00 -0.30539792147E+03  0.30539792147E+03  0.00000000000E+00 0. -1.
         24    2    1    2    0    0 -0.75311826823E+02 -0.15262432914E+01 -0.30167755868E+02  0.11420914213E+03  0.80370603912E+02 0.  0.
         23    2    1    2    0    0  0.93110139593E+02  0.10726039220E+02 -0.19760894347E+03  0.23682505145E+03  0.90841975104E+02 0.  0.
        -11    1    3    3    0    0 -0.40722871196E+02  0.10795548540E+02  0.24213822636E+02  0.48592235114E+02  0.00000000000E+00 0.  1.
         12    1    3    3    0    0 -0.34588955627E+02 -0.12321791831E+02 -0.54381578504E+02  0.65616907013E+02  0.00000000000E+00 0. -1.
        -13    1    4    4    0    0  0.47184132232E+02 -0.91168076721E+01 -0.19567092355E+02  0.51887663465E+02  0.00000000000E+00 0.  1.
         13    1    4    4    0    0  0.45926007361E+02  0.19842846892E+02 -0.17804185112E+03  0.18493738798E+03  0.00000000000E+00 0. -1.
         21    1    1    2  502  501 -0.17798312770E+02 -0.91997959284E+01 -0.97173959229E+01  0.22267554112E+02  0.00000000000E+00 0.  1.
<scales pt_clust_5="13000.00000" pt_clust_6="13000.00000" pt_clust_7="13000.00000" pt_clust_8="13000.00000" pt_clust_9="20.03537"></scales>
<clustering>
<clus scale="   20.035">  1  9  2 -1</clus>
<clus scale="   80.371">  5  6 -1 -1</clus>
<clus scale="   90.842">  7  8 -1 -1</clus>
<clus scale="  119.026">  1  5  2 -1</clus>
<clus scale="  126.333">  2  5  1 -1</clus>
</clustering>
</event>
<event>
 9    2  0.3402837E-005  0.1419130E+03  0.7546771E-02  0.1237759E+00
         -1   -1    0    0    0  501 -0.00000000000E+00  0.00000000000E+00  0.47272082251E+03  0.47272082251E+03  0.00000000000E+00 0.  1.
          2   -1    0    0  502    0  0.00000000000E+00 -0.00000000000E+00 -0.16197004952E+03  0.16197004952E+03  0.00000000000E+00 0. -1.
         23    2    1    2    0    0 -0.70912571654E+02  0.33027873964E+01  0.39769910765E+03  0.42175537646E+03  0.12113428962E+03 0.  0.
         24    2    1    2    0    0 -0.11477456341E+02 -0.13602593642E+00 -0.10091324922E+03  0.12931035623E+03  0.80037077993E+02 0.  0.
        -11    1    4    4    0    0  0.28141061625E+02  0.21746615262E+02 -0.46195373648E+02  0.58299632685E+02  0.00000000000E+00 0.  1.
         12    1    4    4    0    0 -0.39618517965E+02 -0.21882641198E+02 -0.54717875569E+02  0.71010723545E+02  0.00000000000E+00 0. -1.
        -11    1    3    3    0    0  0.22548611432E+02  0.26404893486E+02  0.49309441743E+02  0.60308202780E+02  0.00000000000E+00 0. -1.
         11    1    3    3    0    0 -0.93461183085E+02 -0.23102106089E+02  0.34838966591E+03  0.36144717368E+03  0.00000000000E+00 0.  1.
         21    1    1    2  502  501  0.82390027994E+02 -0.31667614600E+01  0.13964914554E+02  0.83625139339E+02  0.00000000000E+00 0. -1.
<scales pt_clust_5="13000.00000" pt_clust_6="13000.00000" pt_clust_7="13000.00000" pt_clust_8="13000.00000" pt_clust_9="73.93100"></scales>
<clustering>
<clus scale="   80.037">  5  6 -1 -1</clus>
<clus scale="   80.856">  2  5  1 -1</clus>
<clus scale="   73.931">  2  9  1 -1</clus>
<clus scale="  121.134">  7  8 -1 -1</clus>
<clus scale="   80.856">  2  5  1 -1</clus>
</clustering>
</event>
<event>
 9    2  0.3402837E-005  0.2203336E+03  0.7546771E-02  0.1134455E+00
         -1   -1    0    0    0  501 -0.00000000000E+00  0.00000000000E+00  0.16965782886E+03  0.16965782886E+03  0.00000000000E+00 0.  1.
          2   -1    0    0  502    0  0.00000000000E+00 -0.00000000000E+00 -0.43541741844E+03  0.43541741844E+03  0.00000000000E+00 0. -1.
         23    2    1    2    0    0  0.34723166590E+02  0.21241859330E+03 -0.13048492721E+02  0.23425552993E+03  0.91531595979E+02 0.  0.
         24    2    1    2    0    0 -0.45888501232E+02 -0.19019381319E+03 -0.26814562828E+03  0.34154805346E+03  0.80458397520E+02 0.  0.
        -11    1    4    4    0    0 -0.21360719639E+02 -0.54933693652E+01 -0.12964106392E+02  0.25583696078E+02  0.00000000000E+00 0.  1.
         12    1    4    4    0    0 -0.24527781593E+02 -0.18470044383E+03 -0.25518152189E+03  0.31596435738E+03  0.00000000000E+00 0. -1.
        -11    1    3    3    0    0 -0.40652561389E+01  0.13031389080E+03  0.29966234089E+02  0.13377672304E+03  0.00000000000E+00 0.  1.
         11    1    3    3    0    0  0.38788422729E+02  0.82104702497E+02 -0.43014726811E+02  0.10047880688E+03  0.00000000000E+00 0. -1.
         21    1    1    2  502  501  0.11165334642E+02 -0.22224780104E+02  0.15434531424E+02  0.29271663920E+02  0.00000000000E+00 0.  1.
<scales pt_clust_5="13000.00000" pt_clust_6="13000.00000" pt_clust_7="13000.00000" pt_clust_8="13000.00000" pt_clust_9="24.87178"></scales>
<clustering>
<clus scale="   24.872">  1  9  2 -1</clus>
<clus scale="   80.458">  5  6 -1 -1</clus>
<clus scale="   91.532">  7  8 -1 -1</clus>
<clus scale="  215.969">  2  5  1 -1</clus>
<clus scale="  215.969">  2  5  1 -1</clus>
</clustering>
</event>
<event>
 9    2  0.3402837E-005  0.1307852E+03  0.7546771E-02  0.1229086E+00
          2   -1    0    0  502    0  0.00000000000E+00  0.00000000000E+00  0.22909640684E+03  0.22909640684E+03  0.00000000000E+00 0. -1.
         -1   -1    0    0    0  501 -0.00000000000E+00 -0.00000000000E+00 -0.44567658635E+03  0.44567658635E+03  0.00000000000E+00 0.  1.
         23    2    1    2    0    0 -0.56755465898E+02 -0.50952562827E+02 -0.39978041316E+03  0.41699717185E+03  0.90801519885E+02 0.  0.
         24    2    1    2    0    0  0.76494451631E+02  0.56206623559E+02  0.19723103480E+03  0.23299485904E+03  0.79849468330E+02 0.  0.
        -11    1    4    4    0    0  0.89448613124E+02  0.59880815125E+02  0.15531865569E+03  0.18897262028E+03  0.00000000000E+00 0.  1.
         12    1    4    4    0    0 -0.12954161493E+02 -0.36741915658E+01  0.41912379106E+02  0.44022238766E+02  0.00000000000E+00 0. -1.
        -13    1    3    3    0    0 -0.79066444802E+02 -0.23799329823E+02 -0.25614137448E+03  0.26912137506E+03  0.00000000000E+00 0.  1.
         13    1    3    3    0    0  0.22310978904E+02 -0.27153233004E+02 -0.14363903868E+03  0.14787579679E+03  0.00000000000E+00 0. -1.
         21    1    1    2  502  501 -0.19738985733E+02 -0.52540607324E+01 -0.14030801145E+02  0.24780962304E+02  0.00000000000E+00 0. -1.
<scales pt_clust_5="13000.00000" pt_clust_6="13000.00000" pt_clust_7="13000.00000" pt_clust_8="13000.00000" pt_clust_9="20.42628"></scales>
<clustering>
<clus scale="   20.426">  2  9  1 -1</clus>
<clus scale="   79.849">  5  6 -1 -1</clus>
<clus scale="   90.802">  7  8 -1 -1</clus>
<clus scale="  123.433">  1  5  2 -1</clus>
<clus scale="  123.433">  1  5  2 -1</clus>
</clustering>
</event>
<event>
 9    2  0.3402837E-005  0.1028312E+03  0.7546771E-02  0.1279273E+00
          2   -1    0    0  502    0  0.00000000000E+00  0.00000000000E+00  0.44448356153E+03  0.44448356153E+03  0.00000000000E+00 0. -1.
         -1   -1    0    0    0  501 -0.00000000000E+00 -0.00000000000E+00 -0.12569882854E+03  0.12569882854E+03  0.00000000000E+00 0.  1.
         24    2    1    2    0    0  0.13199576632E+02  0.51640488832E+01 -0.83262801660E+02  0.11727098391E+03  0.81356581195E+02 0.  0.
         23    2    1    2    0    0 -0.32263726978E+02  0.37507723631E+02  0.39134231987E+03  0.40496431425E+03  0.91648824801E+02 0.  0.
        -13    1    3    3    0    0  0.99080998916E+01 -0.25783993624E+02 -0.81550309573E+02  0.86101322650E+02  0.00000000000E+00 0.  1.
         14    1    3    3    0    0  0.32914767409E+01  0.30948042507E+02 -0.17124920873E+01  0.31169661264E+02  0.00000000000E+00 0. -1.
        -11    1    4    4    0    0 -0.20067236714E+02  0.67088437731E+02  0.30357180191E+03  0.31154356257E+03  0.00000000000E+00 0. -1.
         11    1    4    4    0    0 -0.12196490264E+02 -0.29580714100E+02  0.87770517958E+02  0.93420751678E+02  0.00000000000E+00 0.  1.
         21    1    1    2  502  501  0.19064150345E+02 -0.42671772514E+02  0.10705214784E+02  0.47947091898E+02  0.00000000000E+00 0.  1.
<scales pt_clust_5="13000.00000" pt_clust_6="13000.00000" pt_clust_7="13000.00000" pt_clust_8="13000.00000" pt_clust_9="46.73673"></scales>
<clustering>
<clus scale="   46.737">  2  9  1 -1</clus>
<clus scale="   81.357">  5  6 -1 -1</clus>
<clus scale="   91.649">  7  8 -1 -1</clus>
<clus scale="   93.774">  2  5  1 -1</clus>
<clus scale="  102.831">  1  5  2 -1</clus>
</clustering>
</event>
<event>
 9    2  0.3402837E-005  0.1162103E+03  0.7546771E-02  0.1253432E+00
          2   -1    0    0  502    0  0.00000000000E+00  0.00000000000E+00  0.14907987305E+04  0.14907987305E+04  0.00000000000E+00 0. -1.
         -1   -1    0    0    0  501 -0.00000000000E+00 -0.00000000000E+00 -0.13045450350E+02  0.13045450350E+02  0.00000000000E+00 0.  1.
         23    2    1    2    0    0  0.82437953786E+02  0.37023271614E+02  0.48825499821E+03  0.50493897865E+03  0.91671642394E+02 0.  0.
         24    2    1    2    0    0 -0.42023406632E+02 -0.20137063549E+02  0.64754669527E+03  0.65415983635E+03  0.80230299215E+02 0.  0.
        -11    1    4    4    0    0 -0.19940892109E+02 -0.19044915646E+02  0.58233546839E+02  0.64432088027E+02  0.00000000000E+00 0.  1.
         12    1    4    4    0    0 -0.22082514523E+02 -0.10921479023E+01  0.58931314843E+03  0.58972774833E+03  0.00000000000E+00 0. -1.
        -13    1    3    3    0    0  0.97905672807E+02  0.15925375377E+02  0.42628507512E+03  0.43767351258E+03  0.00000000000E+00 0.  1.
         13    1    3    3    0    0 -0.15467719021E+02  0.21097896238E+02  0.61969923092E+02  0.67265466068E+02  0.00000000000E+00 0. -1.
         21    1    1    2  502  501 -0.40414547154E+02 -0.16886208066E+02  0.34195158666E+03  0.34474536583E+03  0.00000000000E+00 0. -1.
<scales pt_clust_5="13000.00000" pt_clust_6="13000.00000" pt_clust_7="13000.00000" pt_clust_8="13000.00000" pt_clust_9="43.80045"></scales>
<clustering>
<clus scale="   43.800">  1  9  2 -1</clus>
<clus scale="   80.230">  5  6 -1 -1</clus>
<clus scale="   91.672">  7  8 -1 -1</clus>
<clus scale="  107.415">  1  5  2 -1</clus>
<clus scale="   43.800">  1  5  2 -1</clus>
</clustering>
</event>
<event>
 9    2  0.3402837E-005  0.9768567E+02  0.7546771E-02  0.1288898E+00
          2   -1    0    0  502    0  0.00000000000E+00  0.00000000000E+00  0.12485954177E+04  0.12485954177E+04  0.00000000000E+00 0. -1.
         -1   -1    0    0    0  501 -0.00000000000E+00 -0.00000000000E+00 -0.29132645466E+02  0.29132645466E+02  0.00000000000E+00 0.  1.
         23    2    1    2    0    0  0.23567447174E+02 -0.39284360658E+02  0.24216852662E+03  0.26305558483E+03  0.91945417870E+02 0.  0.
         24    2    1    2    0    0 -0.24161977898E+02  0.19264901956E+02  0.98788448571E+03  0.99201667602E+03  0.85008180647E+02 0.  0.
        -13    1    4    4    0    0 -0.29091212263E+02  0.58986442255E+01  0.10766443180E+03  0.11168134361E+03  0.00000000000E+00 0.  1.
         14    1    4    4    0    0  0.49292343645E+01  0.13366257731E+02  0.88022005391E+03  0.88033533242E+03  0.00000000000E+00 0. -1.
        -11    1    3    3    0    0 -0.20199768801E+02 -0.44274900009E+02  0.18256846610E+03  0.18894322492E+03  0.00000000000E+00 0. -1.
         11    1    3    3    0    0  0.43767215974E+02  0.49905393511E+01  0.59600060520E+02  0.74112359908E+02  0.00000000000E+00 0.  1.
         21    1    1    2  502  501  0.59453072466E+00  0.20019458702E+02 -0.10590240091E+02  0.22655802318E+02  0.00000000000E+00 0.  1.
<scales pt_clust_5="13000.00000" pt_clust_6="13000.00000" pt_clust_7="13000.00000" pt_clust_8="13000.00000" pt_clust_9="20.02828"></scales>
<clustering>
<clus scale="   20.028">  2  9  1 -1</clus>
<clus scale="   85.008">  5  6 -1 -1</clus>
<clus scale="   91.186">  1  5  2 -1</clus>
<clus scale="   91.945">  7  8 -1 -1</clus>
<clus scale="   91.186">  1  5  2 -1</clus>
</clustering>
</event>
<event>
 9    2  0.3402837E-005  0.1234791E+03  0.7546771E-02  0.1246951E+00
         -1   -1    0    0    0  501 -0.00000000000E+00  0.00000000000E+00  0.23964005660E+03  0.23964005660E+03  0.00000000000E+00 0.  1.
          2   -1    0    0  502    0  0.00000000000E+00 -0.00000000000E+00 -0.49014040881E+03  0.49014040881E+03  0.00000000000E+00 0. -1.
         24    2    1    2    0    0  0.96674193784E+01 -0.61663962892E+02 -0.23975822559E+01  0.10194175734E+03  0.80563454321E+02 0.  0.
         23    2    1    2    0    0  0.77728701701E+02 -0.33333408805E+02 -0.40591632329E+03  0.42395712424E+03  0.88423495008E+02 0.  0.
        -13    1    3    3    0    0 -0.30528341800E+02 -0.44755670630E+01  0.63308849393E+01  0.31497467481E+02  0.00000000000E+00 0.  1.
         14    1    3    3    0    0  0.40195761179E+02 -0.57188395829E+02 -0.87284671952E+01  0.70444289859E+02  0.00000000000E+00 0. -1.
        -11    1    4    4    0    0  0.61746206357E+02 -0.56712265487E+02 -0.36287904582E+03  0.37243801759E+03  0.00000000000E+00 0. -1.
         11    1    4    4    0    0  0.15982495344E+02  0.23378856683E+02 -0.43037277470E+02  0.51519106643E+02  0.00000000000E+00 0.  1.
         21    1    1    2  502  501 -0.87396121079E+02  0.94997371696E+02  0.15781355334E+03  0.20388158383E+03  0.00000000000E+00 0.  1.
<scales pt_clust_5="13000.00000" pt_clust_6="13000.00000" pt_clust_7="13000.00000" pt_clust_8="13000.00000" pt_clust_9="86.18797"></scales>
<clustering>
<clus scale="   80.563">  5  6 -1 -1</clus>
<clus scale="   88.423">  7  8 -1 -1</clus>
<clus scale="  101.914">  1  5  2 -1</clus>
<clus scale="   86.188">  1  9  2 -1</clus>
<clus scale="  123.479">  2  5  1 -1</clus>
</clustering>
</event>
<event>
 9    2  0.3402837E-005  0.1271150E+03  0.7546771E-02  0.1234828E+00
         -3   -1    0    0    0  501 -0.00000000000E+00  0.00000000000E+00  0.32995704261E+03  0.32995704261E+03  0.00000000000E+00 0.  1.
          4   -1    0    0  502    0  0.00000000000E+00 -0.00000000000E+00 -0.33050111057E+03  0.33050111057E+03  0.00000000000E+00 0. -1.
         23    2    1    2    0    0  0.83754543931E+02  0.52079534388E+01  0.17593117299E+03  0.21591616918E+03  0.92876628239E+02 0.  0.
         24    2    1    2    0    0 -0.72060124969E+02  0.20148717741E+02 -0.29585616318E+03  0.32193886496E+03  0.10254331300E+03 0.  0.
        -11    1    4    4    0    0 -0.29146425135E+01 -0.28251402412E+02 -0.23684967566E+02  0.36981273205E+02  0.00000000000E+00 0.  1.
         12    1    4    4    0    0 -0.69145482456E+02  0.48400120153E+02 -0.27217119562E+03  0.28495759175E+03  0.00000000000E+00 0. -1.
        -11    1    3    3    0    0  0.74826861815E+02 -0.13964271710E+02  0.56937153119E+02  0.95057348684E+02  0.00000000000E+00 0.  1.
         11    1    3    3    0    0  0.89276821163E+01  0.19172225149E+02  0.11899401987E+03  0.12085882049E+03  0.00000000000E+00 0. -1.
         21    1    1    2  502  501 -0.11694418962E+02 -0.25356671180E+02  0.11938092222E+03  0.12260311904E+03  0.00000000000E+00 0.  1.
<scales pt_clust_5="13000.00000" pt_clust_6="13000.00000" pt_clust_7="13000.00000" pt_clust_8="13000.00000" pt_clust_9="27.92347"></scales>
<clustering>
<clus scale="   27.923">  1  9  2 -1</clus>
<clus scale="   92.877">  7  8 -1 -1</clus>
<clus scale="  102.543">  5  6 -1 -1</clus>
<clus scale="  119.454">  1  7  2 -1</clus>
<clus scale="  127.115">  2  5  1 -1</clus>
</clustering>
</event>
<event>
 9    2  0.3402837E-005  0.1112199E+03  0.7546771E-02  0.1262778E+00
         -1   -1    0    0    0  501 -0.00000000000E+00  0.00000000000E+00  0.16017222103E+03  0.16017222103E+03  0.00000000000E+00 0.  1.
          2   -1    0    0  502    0  0.00000000000E+00 -0.00000000000E+00 -0.21403698225E+03  0.21403698225E+03  0.00000000000E+00 0. -1.
         23    2    1    2    0    0 -0.56769765497E+02  0.36742168837E+02  0.11014431208E+03  0.15711099916E+03  0.89326946263E+02 0.  0.
         24    2    1    2    0    0  0.30036797949E+02 -0.56119994630E+02 -0.15177644161E+03  0.18188756703E+03  0.77429553694E+02 0.  0.
        -11    1    4    4    0    0  0.21385727803E+02  0.86089281029E+01 -0.87508890871E+01  0.24658488529E+02  0.00000000000E+00 0.  1.
         12    1    4    4    0    0  0.86510701456E+01 -0.64728922733E+02 -0.14302555252E+03  0.15722907850E+03  0.00000000000E+00 0. -1.
        -11    1    3    3    0    0 -0.50566523574E+02 -0.20122409713E+02  0.60431857587E+02  0.81325851305E+02  0.00000000000E+00 0.  1.
         11    1    3    3    0    0 -0.62032419233E+01  0.56864578550E+02  0.49712454494E+02  0.75785147858E+02  0.00000000000E+00 0. -1.
         21    1    1    2  502  501  0.26732967548E+02  0.19377825793E+02 -0.12232631695E+02  0.35210637094E+02  0.00000000000E+00 0.  1.
<scales pt_clust_5="13000.00000" pt_clust_6="13000.00000" pt_clust_7="13000.00000" pt_clust_8="13000.00000" pt_clust_9="33.01745"></scales>
<clustering>
<clus scale="   33.017">  2  9  1 -1</clus>
<clus scale="   77.430">  5  6 -1 -1</clus>
<clus scale="   89.327">  7  8 -1 -1</clus>
<clus scale="  101.911">  2  5  1 -1</clus>
<clus scale="   33.017">  2  5  1 -1</clus>
</clustering>
</event>
<event>
 9    2  0.3402837E-005  0.1588296E+03  0.7546771E-02  0.1198411E+00
          4   -1    0    0  502    0  0.00000000000E+00  0.00000000000E+00  0.44080094091E+03  0.44080094091E+03  0.00000000000E+00 0. -1.
         -3   -1    0    0    0  501 -0.00000000000E+00 -0.00000000000E+00 -0.32822420770E+03  0.32822420770E+03  0.00000000000E+00 0.  1.
         23    2    1    2    0    0  0.81144754022E+02 -0.74575420450E+02 -0.14137591775E+03  0.20064054123E+03  0.90130528821E+02 0.  0.
         24    2    1    2    0    0  0.10073936741E+03  0.34281677161E+02  0.33881612178E+03  0.36367205754E+03  0.78341224957E+02 0.  0.
        -11    1    4    4    0    0  0.12916456809E+02  0.41972273211E+02  0.10728616927E+03  0.11592596211E+03  0.00000000000E+00 0.  1.
         12    1    4    4    0    0  0.87822910604E+02 -0.76905960507E+01  0.23152995251E+03  0.24774609543E+03  0.00000000000E+00 0. -1.
        -11    1    3    3    0    0 -0.29470657456E+01 -0.54387281884E+02 -0.68736034822E+02  0.87700080447E+02  0.00000000000E+00 0.  1.
         11    1    3    3    0    0  0.84091819768E+02 -0.20188138566E+02 -0.72639882927E+02  0.11294046078E+03  0.00000000000E+00 0. -1.
         21    1    1    2  502  501 -0.18188412144E+03  0.40293743290E+02 -0.84863470820E+02  0.20471254983E+03  0.00000000000E+00 0.  1.
<scales pt_clust_5="13000.00000" pt_clust_6="13000.00000" pt_clust_7="13000.00000" pt_clust_8="13000.00000" pt_clust_9="130.77975"></scales>
<clustering>
<clus scale="   78.341">  5  6 -1 -1</clus>
<clus scale="   90.131">  7  8 -1 -1</clus>
<clus scale="  132.140">  1  5  2 -1</clus>
<clus scale="  130.780">  1  9  2 -1</clus>
<clus scale="  132.140">  1  5  2 -1</clus>
</clustering>
</event>
<event>
 9    2  0.3402837E-005  0.9855720E+02  0.7546771E-02  0.1290405E+00
         -1   -1    0    0    0  501 -0.00000000000E+00  0.00000000000E+00  0.69838753133E+03  0.69838753133E+03  0.00000000000E+00 0.  1.
          2   -1    0    0  502    0  0.00000000000E+00 -0.00000000000E+00 -0.37077880960E+02  0.37077880960E+02  0.00000000000E+00 0. -1.
         24    2    1    2    0    0  0.30809776320E+01 -0.11904687254E+02  0.40550422763E+03  0.41343031287E+03  0.79622427574E+02 0.  0.
         23    2    1    2    0    0 -0.33212941337E+02  0.18576297801E+02  0.46582212979E+02  0.11054799077E+03  0.92751158397E+02 0.  0.
        -13    1    3    3    0    0  0.12926921756E+02 -0.40229954735E+02  0.14000153122E+03  0.14623947247E+03  0.00000000000E+00 0.  1.
         14    1    3    3    0    0 -0.98459441235E+01  0.28325267481E+02  0.26550269641E+03  0.26719084041E+03  0.00000000000E+00 0. -1.
        -13    1    4    4    0    0 -0.54238526831E+02  0.42074280759E+02  0.33938879371E+02  0.76576174018E+02  0.00000000000E+00 0. -1.
         13    1    4    4    0    0  0.21025585494E+02 -0.23497982958E+02  0.12643333608E+02  0.33971816748E+02  0.00000000000E+00 0.  1.
         21    1    1    2  502  501  0.30131963705E+02 -0.66716105469E+01  0.20922320976E+03  0.21148710866E+03  0.00000000000E+00 0.  1.
<scales pt_clust_5="13000.00000" pt_clust_6="13000.00000" pt_clust_7="13000.00000" pt_clust_8="13000.00000" pt_clust_9="30.86172"></scales>
<clustering>
<clus scale="   30.862">  1  9  2 -1</clus>
<clus scale="   79.622">  5  6 -1 -1</clus>
<clus scale="   86.316">  1  5  2 -1</clus>
<clus scale="   92.751">  7  8 -1 -1</clus>
<clus scale="   98.557">  2  5  1 -1</clus>
</clustering>
</event>
<event>
 9    2  0.3402837E-005  0.3581281E+03  0.7546771E-02  0.1093231E+00
          2   -1    0    0  502    0  0.00000000000E+00  0.00000000000E+00  0.11765731920E+04  0.11765731920E+04  0.00000000000E+00 0. -1.
         -1   -1    0    0    0  501 -0.00000000000E+00 -0.00000000000E+00 -0.24950684373E+03  0.24950684373E+03  0.00000000000E+00 0.  1.
         23    2    1    2    0    0  0.21219071709E+02  0.10641407997E+03  0.70308131200E+02  0.15910354697E+03  0.92717311893E+02 0.  0.
         24    2    1    2    0    0 -0.18515404590E+03 -0.31713375286E+03  0.91886998477E+03  0.99286824735E+03  0.81298645538E+02 0.  0.
        -11    1    4    4    0    0 -0.52073460116E+02 -0.16967457890E+03  0.43231137225E+03  0.46732668504E+03  0.00000000000E+00 0.  1.
         12    1    4    4    0    0 -0.13308058578E+03 -0.14745917396E+03  0.48655861252E+03  0.52554156231E+03  0.00000000000E+00 0. -1.
        -11    1    3    3    0    0 -0.23430569212E+01  0.11679535178E+03  0.54666046339E+02  0.12897682248E+03  0.00000000000E+00 0.  1.
         11    1    3    3    0    0  0.23562128630E+02 -0.10381271808E+02  0.15642084861E+02  0.30126724494E+02  0.00000000000E+00 0. -1.
         21    1    1    2  502  501  0.16393497419E+03  0.21071967288E+03 -0.62111767729E+02  0.27410824138E+03  0.00000000000E+00 0.  1.
<scales pt_clust_5="13000.00000" pt_clust_6="13000.00000" pt_clust_7="13000.00000" pt_clust_8="13000.00000" pt_clust_9="348.77830"></scales>
<clustering>
<clus scale="   81.299">  5  6 -1 -1</clus>
<clus scale="   92.717">  7  8 -1 -1</clus>
<clus scale="  142.726">  2  7  1 -1</clus>
<clus scale="  348.778">  2  9  1 -1</clus>
<clus scale="  358.128">  1  5  2 -1</clus>
</clustering>
</event>
<event>
 9    2  0.3402837E-005  0.2658188E+03  0.7546771E-02  0.1131134E+00
          2   -1    0    0  502    0  0.00000000000E+00  0.00000000000E+00  0.86787919048E+03  0.86787919048E+03  0.00000000000E+00 0. -1.
         -1   -1    0    0    0  501 -0.00000000000E+00 -0.00000000000E+00 -0.21549500385E+03  0.21549500385E+03  0.00000000000E+00 0.  1.
         24    2    1    2    0    0 -0.83323940578E+02  0.66897872335E+02 -0.16074625412E+00  0.13339017128E+03  0.79841765749E+02 0.  0.
         23    2    1    2    0    0 -0.19041322753E+03  0.13080385494E+03  0.53996165340E+03  0.59404441442E+03  0.89237511579E+02 0.  0.
        -13    1    3    3    0    0 -0.39532804407E+02 -0.53124437913E+01  0.22705979025E+02  0.45897997416E+02  0.00000000000E+00 0.  1.
         14    1    3    3    0    0 -0.43791136170E+02  0.72210316126E+02 -0.22866725279E+02  0.87492173862E+02  0.00000000000E+00 0. -1.
        -11    1    4    4    0    0 -0.16566786847E+03  0.70003052510E+02  0.42809673851E+03  0.46434156343E+03  0.00000000000E+00 0. -1.
         11    1    4    4    0    0 -0.24745359061E+02  0.60800802435E+02  0.11186491489E+03  0.12970285099E+03  0.00000000000E+00 0.  1.
         21    1    1    2  502  501  0.27373716811E+03 -0.19770172728E+03  0.11258327948E+03  0.35593960863E+03  0.00000000000E+00 0. -1.
<scales pt_clust_5="13000.00000" pt_clust_6="13000.00000" pt_clust_7="13000.00000" pt_clust_8="13000.00000" pt_clust_9="250.39225"></scales>
<clustering>
<clus scale="   79.842">  5  6 -1 -1</clus>
<clus scale="   89.238">  7  8 -1 -1</clus>
<clus scale="  133.390">  2  5  1 -1</clus>
<clus scale="  250.392">  2  9  1 -1</clus>
<clus scale="  265.819">  1  5  2 -1</clus>
</clustering>
</event>
<event>
 9    2  0.3402837E-005  0.1037221E+03  0.7546771E-02  0.1277717E+00
         -1   -1    0    0    0  501 -0.00000000000E+00  0.00000000000E+00  0.26435808250E+02  0.26435808250E+02  0.00000000000E+00 0.  1.
          2   -1    0    0  502    0  0.00000000000E+00 -0.00000000000E+00 -0.77075701773E+03  0.77075701773E+03  0.00000000000E+00 0. -1.
         23    2    1    2    0    0 -0.11228363887E+02 -0.56584945202E+02 -0.18569709904E+03  0.21495015936E+03  0.91609094729E+02 0.  0.
         24    2    1    2    0    0 -0.13368772535E+02  0.45608167114E+02 -0.54321072767E+03  0.55120911791E+03  0.80590123626E+02 0.  0.
        -11    1    4    4    0    0 -0.37293806502E+02 -0.56116726636E+00 -0.14965154618E+03  0.15422946601E+03  0.00000000000E+00 0.  1.
         12    1    4    4    0    0  0.23925033967E+02  0.46169334381E+02 -0.39355918149E+03  0.39697965190E+03  0.00000000000E+00 0. -1.
        -13    1    3    3    0    0  0.33873868532E+02 -0.42842263919E+01 -0.95018659529E+02  0.10096702048E+03  0.00000000000E+00 0.  1.
         13    1    3    3    0    0 -0.45102232419E+02 -0.52300718810E+02 -0.90678439508E+02  0.11398313888E+03  0.00000000000E+00 0. -1.
         21    1    1    2  502  501  0.24597136422E+02  0.10976778088E+02 -0.15413382774E+02  0.31033548715E+02  0.00000000000E+00 0.  1.
<scales pt_clust_5="13000.00000" pt_clust_6="13000.00000" pt_clust_7="13000.00000" pt_clust_8="13000.00000" pt_clust_9="26.93527"></scales>
<clustering>
<clus scale="   26.935">  1  9  2 -1</clus>
<clus scale="   80.590">  5  6 -1 -1</clus>
<clus scale="   91.609">  7  8 -1 -1</clus>
<clus scale="   94.132">  2  5  1 -1</clus>
<clus scale="   94.132">  2  5  1 -1</clus>
</clustering>
</event>
<event>
 9    2  0.3402837E-005  0.1124533E+03  0.7546771E-02  0.1260198E+00
          2   -1    0    0  502    0  0.00000000000E+00  0.00000000000E+00  0.52501542350E+03  0.52501542350E+03  0.00000000000E+00 0. -1.
         -1   -1    0    0    0  501 -0.00000000000E+00 -0.00000000000E+00 -0.34392716200E+02  0.34392716200E+02  0.00000000000E+00 0.  1.
         23    2    1    2    0    0  0.31812376845E+02 -0.60376267037E+02  0.11556704587E+03  0.16245770213E+03  0.91539291838E+02 0.  0.
         24    2    1    2    0    0 -0.47264165839E+02  0.39573306284E+02  0.32674627269E+03  0.34212965683E+03  0.80558223831E+02 0.  0.
        -11    1    4    4    0    0 -0.60857702903E+02  0.28771734208E+01  0.22544838365E+03  0.23353567569E+03  0.00000000000E+00 0.  1.
         12    1    4    4    0    0  0.13593537065E+02  0.36696132863E+02  0.10129788904E+03  0.10859398114E+03  0.00000000000E+00 0. -1.
        -11    1    3    3    0    0  0.49861405304E+02 -0.74139925416E+02  0.10357317189E+03  0.13678556289E+03  0.00000000000E+00 0. -1.
         11    1    3    3    0    0 -0.18049028459E+02  0.13763658379E+02  0.11993873972E+02  0.25672139240E+02  0.00000000000E+00 0.  1.
         21    1    1    2  502  501  0.15451788994E+02  0.20802960753E+02  0.48309388743E+02  0.54820780731E+02  0.00000000000E+00 0.  1.
<scales pt_clust_5="13000.00000" pt_clust_6="13000.00000" pt_clust_7="13000.00000" pt_clust_8="13000.00000" pt_clust_9="25.91372"></scales>
<clustering>
<clus scale="   25.914">  1  9  2 -1</clus>
<clus scale="   80.558">  5  6 -1 -1</clus>
<clus scale="   91.539">  7  8 -1 -1</clus>
<clus scale="  103.711">  1  5  2 -1</clus>
<clus scale="   25.914">  1  5  2 -1</clus>
</clustering>
</event>
<event>
 9    2  0.3402837E-005  0.9965720E+02  0.7546771E-02  0.1284819E+00
          2   -1    0    0  502    0  0.00000000000E+00  0.00000000000E+00  0.35380950470E+03  0.35380950470E+03  0.00000000000E+00 0. -1.
         -1   -1    0    0    0  501 -0.00000000000E+00 -0.00000000000E+00 -0.59501899146E+02  0.59501899146E+02  0.00000000000E+00 0.  1.
         24    2    1    2    0    0 -0.19410824042E+02  0.45171060047E+02  0.20865688406E+02  0.96600649184E+02  0.80492879898E+02 0.  0.
         23    2    1    2    0    0  0.57498519799E+02 -0.69746448971E+01  0.18820380421E+03  0.21583868422E+03  0.88379523850E+02 0.  0.
        -13    1    3    3    0    0 -0.18940205424E+02  0.44545984066E+02 -0.22393577548E+02  0.53334307845E+02  0.00000000000E+00 0.  1.
         14    1    3    3    0    0 -0.47061861885E+00  0.62507598123E+00  0.43259265955E+02  0.43266341338E+02  0.00000000000E+00 0. -1.
        -13    1    4    4    0    0 -0.11616690742E+02 -0.22673594349E+02  0.97244187371E+02  0.10052597357E+03  0.00000000000E+00 0. -1.
         13    1    4    4    0    0  0.69115210541E+02  0.15698949451E+02  0.90959616838E+02  0.11531271065E+03  0.00000000000E+00 0.  1.
         21    1    1    2  502  501 -0.38087695757E+02 -0.38196415150E+02  0.85238112941E+02  0.10087207045E+03  0.00000000000E+00 0.  1.
<scales pt_clust_5="13000.00000" pt_clust_6="13000.00000" pt_clust_7="13000.00000" pt_clust_8="13000.00000" pt_clust_9="53.94107"></scales>
<clustering>
<clus scale="   53.941">  1  9  2 -1</clus>
<clus scale="   80.493">  5  6 -1 -1</clus>
<clus scale="   88.380">  7  8 -1 -1</clus>
<clus scale="   92.735">  2  5  1 -1</clus>
<clus scale="   53.941">  1  5  2 -1</clus>
</clustering>
</event>
<event>
 9    2  0.3402837E-005  0.9623859E+02  0.7546771E-02  0.1290895E+00
          2   -1    0    0  502    0  0.00000000000E+00  0.00000000000E+00  0.54553008821E+03  0.54553008821E+03  0.00000000000E+00 0. -1.
         -1   -1    0    0    0  501 -0.00000000000E+00 -0.00000000000E+00 -0.35957717476E+02  0.35957717476E+02  0.00000000000E+00 0.  1.
         24    2    1    2    0    0  0.29309019835E+02 -0.25775512209E+02  0.50161715776E+02  0.10461350789E+03  0.83092674946E+02 0.  0.
         23    2    1    2    0    0 -0.13885755612E+02  0.43026271676E+02  0.41704793232E+03  0.42860354008E+03  0.87908716594E+02 0.  0.
        -11    1    3    3    0    0 -0.16255836978E+01 -0.51018889738E+02  0.21120222905E+02  0.55241591650E+02  0.00000000000E+00 0.  1.
         12    1    3    3    0    0  0.30934603533E+02  0.25243377529E+02  0.29041492871E+02  0.49371916238E+02  0.00000000000E+00 0. -1.
        -13    1    4    4    0    0  0.25215298552E+02 -0.78285403504E+01  0.56137226594E+02  0.62036163121E+02  0.00000000000E+00 0.  1.
         13    1    4    4    0    0 -0.39101054164E+02  0.50854812027E+02  0.36091070573E+03  0.36656737696E+03  0.00000000000E+00 0. -1.
         21    1    1    2  502  501 -0.15423264223E+02 -0.17250759468E+02  0.42362722640E+02  0.48270757721E+02  0.00000000000E+00 0. -1.
<scales pt_clust_5="13000.00000" pt_clust_6="13000.00000" pt_clust_7="13000.00000" pt_clust_8="13000.00000" pt_clust_9="23.14013"></scales>
<clustering>
<clus scale="   23.140">  1  9  2 -1</clus>
<clus scale="   83.093">  5  6 -1 -1</clus>
<clus scale="   87.909">  7  8 -1 -1</clus>
<clus scale="   91.860">  2  5  1 -1</clus>
<clus scale="   23.140">  1  5  2 -1</clus>
</clustering>
</event>
<event>
 9    2  0.3402837E-005  0.1152729E+03  0.7546771E-02  0.1255198E+00
         -1   -1    0    0    0  501 -0.00000000000E+00  0.00000000000E+00  0.39899127476E+02  0.39899127476E+02  0.00000000000E+00 0.  1.
          2   -1    0    0  502    0  0.00000000000E+00 -0.00000000000E+00 -0.69924244662E+03  0.69924244662E+03  0.00000000000E+00 0. -1.
         23    2    1    2    0    0 -0.59709419034E+01  0.66439129267E+02 -0.93361654204E+02  0.14713138145E+03  0.92094706067E+02 0.  0.
         24    2    1    2    0    0  0.30111069562E+02 -0.63732035381E+02 -0.55521998037E+03  0.56544164027E+03  0.80539264412E+02 0.  0.
        -13    1    4    4    0    0 -0.17847813263E+02 -0.52011556735E+02 -0.22915871302E+03  0.23566387552E+03  0.00000000000E+00 0.  1.
         14    1    4    4    0    0  0.47958882825E+02 -0.11720478646E+02 -0.32606126734E+03  0.32977776475E+03  0.00000000000E+00 0. -1.
        -11    1    3    3    0    0 -0.32358970726E+02  0.77692165178E+02 -0.61365938055E+02  0.10415831157E+03  0.00000000000E+00 0.  1.
         11    1    3    3    0    0  0.26388028822E+02 -0.11253035911E+02 -0.31995716148E+02  0.42973069872E+02  0.00000000000E+00 0. -1.
         21    1    1    2  502  501 -0.24140127659E+02 -0.27070938859E+01 -0.10761684578E+02  0.26568552381E+02  0.00000000000E+00 0.  1.
<scales pt_clust_5="13000.00000" pt_clust_6="13000.00000" pt_clust_7="13000.00000" pt_clust_8="13000.00000" pt_clust_9="24.29144"></scales>
<clustering>
<clus scale="   24.291">  1  9  2 -1</clus>
<clus scale="   80.539">  5  6 -1 -1</clus>
<clus scale="   92.095">  7  8 -1 -1</clus>
<clus scale="  106.268">  2  5  1 -1</clus>
<clus scale="  106.268">  2  5  1 -1</clus>
</clustering>
</event>
<event>
 9    2  0.3402837E-005  0.1155680E+03  0.7546771E-02  0.1255438E+00
         -1   -1    0    0    0  501 -0.00000000000E+00  0.00000000000E+00  0.72970727870E+02  0.72970727870E+02  0.00000000000E+00 0.  1.
          2   -1    0    0  502    0  0.00000000000E+00 -0.00000000000E+00 -0.57634540458E+03  0.57634540458E+03  0.00000000000E+00 0. -1.
         23    2    1    2    0    0  0.75213350571E+02  0.48895685046E+02 -0.62424878960E+02  0.14369421693E+03  0.93291619908E+02 0.  0.
         24    2    1    2    0    0 -0.55045590874E+02 -0.34958761558E+02 -0.46197577544E+03  0.47332535060E+03  0.79769281936E+02 0.  0.
        -11    1    4    4    0    0 -0.33573105326E+02 -0.23239261829E+02 -0.73499931451E+02  0.84080060745E+02  0.00000000000E+00 0.  1.
         12    1    4    4    0    0 -0.21472485548E+02 -0.11719499729E+02 -0.38847584399E+03  0.38924528985E+03  0.00000000000E+00 0. -1.
        -11    1    3    3    0    0  0.35332466918E+02  0.72397191366E+02 -0.25555539542E+02  0.84515218378E+02  0.00000000000E+00 0.  1.
         11    1    3    3    0    0  0.39880883653E+02 -0.23501506320E+02 -0.36869339418E+02  0.59178998550E+02  0.00000000000E+00 0. -1.
         21    1    1    2  502  501 -0.20167759697E+02 -0.13936923488E+02  0.21025977695E+02  0.32296564919E+02  0.00000000000E+00 0. -1.
<scales pt_clust_5="13000.00000" pt_clust_6="13000.00000" pt_clust_7="13000.00000" pt_clust_8="13000.00000" pt_clust_9="24.51482"></scales>
<clustering>
<clus scale="   24.515">  1  9  2 -1</clus>
<clus scale="   79.769">  5  6 -1 -1</clus>
<clus scale="   93.292">  7  8 -1 -1</clus>
<clus scale="  104.956">  2  5  1 -1</clus>
<clus scale="  104.956">  2  5  1 -1</clus>
</clustering>
</event>
<event>
 9    2  0.3402837E-005  0.2020565E+03  0.7546771E-02  0.1152254E+00
         -1   -1    0    0    0  501 -0.00000000000E+00  0.00000000000E+00  0.12014964915E+03  0.12014964915E+03  0.00000000000E+00 0.  1.
          2   -1    0    0  502    0  0.00000000000E+00 -0.00000000000E+00 -0.11658813804E+04  0.11658813804E+04  0.00000000000E+00 0. -1.
         24    2    1    2    0    0  0.33869389131E+02 -0.13034400218E+03 -0.30180237695E+03  0.34006103776E+03  0.80125777629E+02 0.  0.
         23    2    1    2    0    0 -0.58751913727E+02  0.17746271206E+03 -0.82215967849E+03  0.85131643143E+03  0.11767891886E+03 0.  0.
        -11    1    3    3    0    0 -0.11858094046E+02 -0.68894971337E+02 -0.84588233543E+02  0.10973741716E+03  0.00000000000E+00 0.  1.
         12    1    3    3    0    0  0.45727483177E+02 -0.61449030841E+02 -0.21721414341E+03  0.23032362060E+03  0.00000000000E+00 0. -1.
        -11    1    4    4    0    0 -0.90740381326E+02  0.16099917243E+03 -0.67819903094E+03  0.70292849984E+03  0.00000000000E+00 0. -1.
         11    1    4    4    0    0  0.31988467599E+02  0.16463539639E+02 -0.14396064755E+03  0.14838793158E+03  0.00000000000E+00 0.  1.
         21    1    1    2  502  501  0.24882524596E+02 -0.47118709886E+02  0.78230324235E+02  0.94653560322E+02  0.00000000000E+00 0.  1.
<scales pt_clust_5="13000.00000" pt_clust_6="13000.00000" pt_clust_7="13000.00000" pt_clust_8="13000.00000" pt_clust_9="53.28520"></scales>
<clustering>
<clus scale="   53.285">  1  9  2 -1</clus>
<clus scale="   80.126">  5  6 -1 -1</clus>
<clus scale="  117.679">  7  8 -1 -1</clus>
<clus scale="  182.753">  1  5  2 -1</clus>
<clus scale="  202.057">  2  5  1 -1</clus>
</clustering>
</event>
<event>
 9    2  0.3402837E-005  0.1111284E+03  0.7546771E-02  0.1263093E+00
         -1   -1    0    0    0  501 -0.00000000000E+00  0.00000000000E+00  0.51959590169E+03  0.51959590169E+03  0.00000000000E+00 0.  1.
          2   -1    0    0  502    0  0.00000000000E+00 -0.00000000000E+00 -0.11736232654E+03  0.11736232654E+03  0.00000000000E+00 0. -1.
         23    2    1    2    0    0 -0.41991808307E+02  0.41690937159E+02  0.24947462665E+03  0.27197053151E+03  0.90713474538E+02 0.  0.
         24    2    1    2    0    0  0.57673129601E+02  0.38883253122E+02 -0.70924856731E+02  0.12671778947E+03  0.78669979115E+02 0.  0.
        -13    1    4    4    0    0  0.53898748257E+02 -0.76553239873E+01 -0.20967867024E+02  0.58338070731E+02  0.00000000000E+00 0.  1.
         14    1    4    4    0    0  0.37743813431E+01  0.46538577109E+02 -0.49956989707E+02  0.68379718736E+02  0.00000000000E+00 0. -1.
        -11    1    3    3    0    0 -0.44212371145E+02  0.37761500698E+01  0.42168911706E+02  0.61214460596E+02  0.00000000000E+00 0.  1.
         11    1    3    3    0    0  0.22205628388E+01  0.37914787089E+02  0.20730571495E+03  0.21075607092E+03  0.00000000000E+00 0. -1.
         21    1    1    2  502  501 -0.15681321294E+02 -0.80574190281E+02  0.22368380523E+03  0.23826990725E+03  0.00000000000E+00 0.  1.
<scales pt_clust_5="13000.00000" pt_clust_6="13000.00000" pt_clust_7="13000.00000" pt_clust_8="13000.00000" pt_clust_9="82.08595"></scales>
<clustering>
<clus scale="   78.670">  5  6 -1 -1</clus>
<clus scale="   82.086">  1  9  2 -1</clus>
<clus scale="   90.713">  7  8 -1 -1</clus>
<clus scale="  101.536">  2  5  1 -1</clus>
<clus scale="  101.536">  2  5  1 -1</clus>
</clustering>
</event>
<event>
 9    2  0.3402837E-005  0.1338009E+03  0.7546771E-02  0.1227514E+00
         -1   -1    0    0    0  501 -0.00000000000E+00  0.00000000000E+00  0.58711315643E+02  0.58711315643E+02  0.00000000000E+00 0.  1.
          2   -1    0    0  502    0  0.00000000000E+00 -0.00000000000E+00 -0.15552058717E+04  0.15552058717E+04  0.00000000000E+00 0. -1.
         23    2    1    2    0    0 -0.81371042100E+01 -0.76865907006E+02 -0.23076820863E+03  0.25968502378E+03  0.90596718130E+02 0.  0.
         24    2    1    2    0    0  0.67616185458E+02 -0.78453078125E+02 -0.11356623840E+04  0.11430962291E+04  0.78823248661E+02 0.  0.
        -11    1    4    4    0    0  0.79507414365E+01 -0.29218093967E+02 -0.98410338674E+02  0.10296361524E+03  0.00000000000E+00 0.  1.
         12    1    4    4    0    0  0.59665444021E+02 -0.49234984158E+02 -0.10372520453E+04  0.10401326139E+04  0.00000000000E+00 0. -1.
        -13    1    3    3    0    0 -0.41329230562E+02 -0.74431040235E+02 -0.15293532856E+03  0.17503513867E+03  0.00000000000E+00 0.  1.
         13    1    3    3    0    0  0.33192126353E+02 -0.24348667704E+01 -0.77832880073E+02  0.84649885106E+02  0.00000000000E+00 0. -1.
         21    1    1    2  502  501 -0.59479081248E+02  0.15531898513E+03 -0.13006396346E+03  0.21113593450E+03  0.00000000000E+00 0.  1.
<scales pt_clust_5="13000.00000" pt_clust_6="13000.00000" pt_clust_7="13000.00000" pt_clust_8="13000.00000" pt_clust_9="108.11832"></scales>
<clustering>
<clus scale="   78.823">  5  6 -1 -1</clus>
<clus scale="   90.597">  7  8 -1 -1</clus>
<clus scale="  119.090">  1  7  2 -1</clus>
<clus scale="  108.118">  1  9  2 -1</clus>
<clus scale="  133.801">  2  5  1 -1</clus>
</clustering>
</event>
<event>
 9    2  0.3402837E-005  0.3075411E+03  0.7546771E-02  0.1081790E+00
          2   -1    0    0  502    0  0.00000000000E+00  0.00000000000E+00  0.93155704283E+03  0.93155704283E+03  0.00000000000E+00 0. -1.
         -1   -1    0    0    0  501 -0.00000000000E+00 -0.00000000000E+00 -0.19115577505E+03  0.19115577505E+03  0.00000000000E+00 0.  1.
         23    2    1    2    0    0  0.21241392422E+03 -0.13079648572E+03 -0.42561989315E+01  0.26641285260E+03  0.93436057920E+02 0.  0.
         24    2    1    2    0    0 -0.21811955505E+03  0.21416823540E+03  0.68044297912E+03  0.75091067131E+03  0.86139509534E+02 0.  0.
        -11    1    4    4    0    0 -0.39450729382E+02  0.37646761728E+02  0.21741733919E+03  0.22415159624E+03  0.00000000000E+00 0.  1.
         12    1    4    4    0    0 -0.17866882567E+03  0.17652147368E+03  0.46302563993E+03  0.52675907507E+03  0.00000000000E+00 0. -1.
        -13    1    3    3    0    0  0.58149601646E+02 -0.10845413987E+02 -0.34798092511E+02  0.68628757956E+02  0.00000000000E+00 0. -1.
         13    1    3    3    0    0  0.15426432258E+03 -0.11995107173E+03  0.30541893580E+02  0.19778409464E+03  0.00000000000E+00 0.  1.
         21    1    1    2  502  501  0.57056308278E+01 -0.83371749683E+02  0.64214487581E+02  0.10538929397E+03  0.00000000000E+00 0.  1.
<scales pt_clust_5="13000.00000" pt_clust_6="13000.00000" pt_clust_7="13000.00000" pt_clust_8="13000.00000" pt_clust_9="83.56676"></scales>
<clustering>
<clus scale="   83.567">  2  9  1 -1</clus>
<clus scale="   86.140">  5  6 -1 -1</clus>
<clus scale="   93.436">  7  8 -1 -1</clus>
<clus scale="  305.403">  1  5  2 -1</clus>
<clus scale="  305.403">  1  5  2 -1</clus>
</clustering>
</event>
<event>
 9    2  0.3402837E-005  0.1519464E+03  0.7546771E-02  0.1201384E+00
          2   -1    0    0  502    0  0.00000000000E+00  0.00000000000E+00  0.26350107961E+03  0.26350107961E+03  0.00000000000E+00 0. -1.
         -1   -1    0    0    0  501 -0.00000000000E+00 -0.00000000000E+00 -0.27486415855E+03  0.27486415855E+03  0.00000000000E+00 0.  1.
         23    2    1    2    0    0 -0.10672084800E+03  0.29152172377E+02  0.16300194593E+02  0.14787281849E+03  0.96754770177E+02 0.  0.
         24    2    1    2    0    0  0.12158871740E+03  0.26070134583E+02  0.14607108705E+03  0.20758756798E+03  0.79324446361E+02 0.  0.
        -11    1    4    4    0    0  0.56263469986E+02  0.58634152560E+01  0.13100360479E+02  0.58065283415E+02  0.00000000000E+00 0.  1.
         12    1    4    4    0    0  0.65325247414E+02  0.20206719327E+02  0.13297072657E+03  0.14952228456E+03  0.00000000000E+00 0. -1.
        -11    1    3    3    0    0 -0.56583884901E+01 -0.28815997890E+02  0.10618691503E+02  0.31227162918E+02  0.00000000000E+00 0. -1.
         11    1    3    3    0    0 -0.10106245951E+03  0.57968170267E+02  0.56815030901E+01  0.11664565557E+03  0.00000000000E+00 0.  1.
         21    1    1    2  502  501 -0.14867869405E+02 -0.55222306960E+02 -0.17373436059E+03  0.18290485170E+03  0.00000000000E+00 0.  1.
<scales pt_clust_5="13000.00000" pt_clust_6="13000.00000" pt_clust_7="13000.00000" pt_clust_8="13000.00000" pt_clust_9="57.18878"></scales>
<clustering>
<clus scale="   57.189">  2  9  1 -1</clus>
<clus scale="   79.324">  5  6 -1 -1</clus>
<clus scale="   96.755">  7  8 -1 -1</clus>
<clus scale="  141.487">  1  5  2 -1</clus>
<clus scale="  141.487">  1  5  2 -1</clus>
</clustering>
</event>
<event>
 9    2  0.3402837E-005  0.1165226E+03  0.7546771E-02  0.1251880E+00
          2   -1    0    0  502    0  0.00000000000E+00  0.00000000000E+00  0.69386819650E+03  0.69386819650E+03  0.00000000000E+00 0. -1.
         -1   -1    0    0    0  501 -0.00000000000E+00 -0.00000000000E+00 -0.78180066622E+02  0.78180066622E+02  0.00000000000E+00 0.  1.
         23    2    1    2    0    0  0.46506604296E+02 -0.77198092962E+02  0.10114227265E+02  0.12697145830E+03  0.88865312861E+02 0.  0.
         24    2    1    2    0    0 -0.72911956025E+01  0.74431966480E+02  0.59412481907E+03  0.60413072749E+03  0.79977222380E+02 0.  0.
        -13    1    4    4    0    0 -0.10870027826E+02  0.58222300884E+02  0.17643151521E+03  0.18610769297E+03  0.00000000000E+00 0.  1.
         14    1    4    4    0    0  0.35788322234E+01  0.16209665596E+02  0.41769330386E+03  0.41802303451E+03  0.00000000000E+00 0. -1.
        -11    1    3    3    0    0 -0.75519753027E+01 -0.67845040985E+02  0.20200658152E+02  0.71190227609E+02  0.00000000000E+00 0. -1.
         11    1    3    3    0    0  0.54058579599E+02 -0.93530519776E+01 -0.10086430887E+02  0.55781230693E+02  0.00000000000E+00 0.  1.
         21    1    1    2  502  501 -0.39215408694E+02  0.27661264827E+01  0.11449083546E+02  0.40946077331E+02  0.00000000000E+00 0.  1.
<scales pt_clust_5="13000.00000" pt_clust_6="13000.00000" pt_clust_7="13000.00000" pt_clust_8="13000.00000" pt_clust_9="39.31284"></scales>
<clustering>
<clus scale="   39.313">  2  9  1 -1</clus>
<clus scale="   79.977">  5  6 -1 -1</clus>
<clus scale="   88.865">  7  8 -1 -1</clus>
<clus scale="  109.895">  1  5  2 -1</clus>
<clus scale="  109.895">  1  5  2 -1</clus>
</clustering>
</event>
<event>
 9    2  0.3402837E-005  0.9935434E+02  0.7546771E-02  0.1288577E+00
          2   -1    0    0  502    0  0.00000000000E+00  0.00000000000E+00  0.27129734429E+03  0.27129734429E+03  0.00000000000E+00 0. -1.
         -1   -1    0    0    0  501 -0.00000000000E+00 -0.00000000000E+00 -0.16636017084E+03  0.16636017084E+03  0.00000000000E+00 0.  1.
         23    2    1    2    0    0  0.92304935421E+01  0.14824994873E+02  0.77567279116E+01  0.95957000633E+02  0.94035082063E+02 0.  0.
         24    2    1    2    0    0 -0.15059797137E+02  0.38476951312E+02  0.20333666606E+03  0.22277103369E+03  0.81079346421E+02 0.  0.
        -11    1    4    4    0    0 -0.25175254311E+02 -0.19348893918E+02  0.83363798534E+02  0.89205919263E+02  0.00000000000E+00 0.  1.
         12    1    4    4    0    0  0.10115457174E+02  0.57825845230E+02  0.11997286752E+03  0.13356511443E+03  0.00000000000E+00 0. -1.
        -11    1    3    3    0    0  0.29615181801E+02 -0.19767149947E+02  0.32985600218E+02  0.48537089240E+02  0.00000000000E+00 0. -1.
         11    1    3    3    0    0 -0.20384688259E+02  0.34592144820E+02 -0.25228872307E+02  0.47419911393E+02  0.00000000000E+00 0.  1.
         21    1    1    2  502  501  0.58293035953E+01 -0.53301946185E+02 -0.10615622052E+03  0.11892948080E+03  0.00000000000E+00 0.  1.
<scales pt_clust_5="13000.00000" pt_clust_6="13000.00000" pt_clust_7="13000.00000" pt_clust_8="13000.00000" pt_clust_9="53.61976"></scales>
<clustering>
<clus scale="   53.620">  2  9  1 -1</clus>
<clus scale="   81.079">  5  6 -1 -1</clus>
<clus scale="   87.193">  1  5  2 -1</clus>
<clus scale="   94.035">  7  8 -1 -1</clus>
<clus scale="   87.193">  1  5  2 -1</clus>
</clustering>
</event>
<event>
 9    2  0.3402837E-005  0.1922602E+03  0.7546771E-02  0.1158068E+00
          2   -1    0    0  502    0  0.00000000000E+00  0.00000000000E+00  0.58342696707E+03  0.58342696707E+03  0.00000000000E+00 0. -1.
         -1   -1    0    0    0  501 -0.00000000000E+00 -0.00000000000E+00 -0.12597286270E+03  0.12597286270E+03  0.00000000000E+00 0.  1.
         23    2    1    2    0    0 -0.15946208952E+03  0.29830074493E+02  0.18655719136E+01  0.18799568543E+03  0.94978450405E+02 0.  0.
         24    2    1    2    0    0  0.15944971865E+03 -0.54142354247E+02  0.46039974621E+03  0.49662038197E+03  0.79424619493E+02 0.  0.
        -13    1    4    4    0    0  0.87137787098E+02 -0.12866389370E+02  0.13858024448E+03  0.16420420846E+03  0.00000000000E+00 0.  1.
         14    1    4    4    0    0  0.72311931556E+02 -0.41275964876E+02  0.32181950172E+03  0.33241617351E+03  0.00000000000E+00 0. -1.
        -11    1    3    3    0    0 -0.82540001972E+02  0.61550911454E+02 -0.11937603198E+02  0.10365265552E+03  0.00000000000E+00 0. -1.
         11    1    3    3    0    0 -0.76922087548E+02 -0.31720836961E+02  0.13803175112E+02  0.84343029905E+02  0.00000000000E+00 0.  1.
         21    1    1    2  502  501  0.12370866951E-01  0.24312279754E+02 -0.48112137463E+01  0.24783762377E+02  0.00000000000E+00 0. -1.
<scales pt_clust_5="13000.00000" pt_clust_6="13000.00000" pt_clust_7="13000.00000" pt_clust_8="13000.00000" pt_clust_9="24.31228"></scales>
<clustering>
<clus scale="   24.312">  2  9  1 -1</clus>
<clus scale="   79.425">  5  6 -1 -1</clus>
<clus scale="   94.978">  7  8 -1 -1</clus>
<clus scale="  185.071">  1  5  2 -1</clus>
<clus scale="  185.071">  1  5  2 -1</clus>
</clustering>
</event>
<event>
 9    2  0.3402837E-005  0.9922874E+02  0.7546771E-02  0.1288233E+00
          2   -1    0    0  502    0  0.00000000000E+00  0.00000000000E+00  0.16375714463E+03  0.16375714463E+03  0.00000000000E+00 0. -1.
         -1   -1    0    0    0  501 -0.00000000000E+00 -0.00000000000E+00 -0.27200446095E+03  0.27200446095E+03  0.00000000000E+00 0.  1.
         24    2    1    2    0    0  0.51148768253E+01 -0.39470663799E+02 -0.23129432340E+03  0.24789017461E+03  0.79802126327E+02 0.  0.
         23    2    1    2    0    0 -0.11641354672E+02 -0.23314077124E+01  0.10943332997E+03  0.14342663038E+03  0.91948833558E+02 0.  0.
        -13    1    3    3    0    0  0.41979470552E+01 -0.60659315386E+02 -0.20648326606E+03  0.21524988842E+03  0.00000000000E+00 0.  1.
         14    1    3    3    0    0  0.91692977019E+00  0.21188651587E+02 -0.24811057340E+02  0.32640286191E+02  0.00000000000E+00 0. -1.
        -11    1    4    4    0    0 -0.57287315381E+01 -0.46920554778E+02  0.63222568830E+02  0.78939534044E+02  0.00000000000E+00 0.  1.
         11    1    4    4    0    0 -0.59126231341E+01  0.44589147065E+02  0.46210761138E+02  0.64487096332E+02  0.00000000000E+00 0. -1.
         21    1    1    2  502  501  0.65264778468E+01  0.41802071511E+02  0.13613677111E+02  0.44444800598E+02  0.00000000000E+00 0. -1.
<scales pt_clust_5="13000.00000" pt_clust_6="13000.00000" pt_clust_7="13000.00000" pt_clust_8="13000.00000" pt_clust_9="42.30849"></scales>
<clustering>
<clus scale="   42.308">  1  9  2 -1</clus>
<clus scale="   79.802">  5  6 -1 -1</clus>
<clus scale="   88.092">  2  5  1 -1</clus>
<clus scale="   91.949">  7  8 -1 -1</clus>
<clus scale="   42.308">  1  5  2 -1</clus>
</clustering>
</event>
<event>
 9    2  0.3402837E-005  0.8392832E+02  0.7546771E-02  0.1322655E+00
         -1   -1    0    0    0  501 -0.00000000000E+00  0.00000000000E+00  0.12967687652E+03  0.12967687652E+03  0.00000000000E+00 0.  1.
          2   -1    0    0  502    0  0.00000000000E+00 -0.00000000000E+00 -0.16097644872E+03  0.16097644872E+03  0.00000000000E+00 0. -1.
         24    2    1    2    0    0 -0.33257213918E+01  0.74983820258E+01  0.44490654684E+02  0.92513929170E+02  0.80697723515E+02 0.  0.
         23    2    1    2    0    0 -0.27184859955E+02 -0.34735880785E+01 -0.12036615290E+03  0.14397199147E+03  0.74086713661E+02 0.  0.
        -11    1    3    3    0    0  0.19747136753E+01 -0.36085148555E+02  0.12690363489E+02  0.38302516442E+02  0.00000000000E+00 0.  1.
         12    1    3    3    0    0 -0.53004350671E+01  0.43583530581E+02  0.31800291196E+02  0.54211412728E+02  0.00000000000E+00 0. -1.
        -13    1    4    4    0    0  0.18603595086E+02 -0.21670893673E+02 -0.56498903373E+02  0.63307562464E+02  0.00000000000E+00 0.  1.
         13    1    4    4    0    0 -0.45788455042E+02  0.18197305594E+02 -0.63867249522E+02  0.80664429010E+02  0.00000000000E+00 0. -1.
         21    1    1    2  502  501  0.30510581347E+02 -0.40247939473E+01  0.44575926014E+02  0.54167404595E+02  0.00000000000E+00 0. -1.
<scales pt_clust_5="13000.00000" pt_clust_6="13000.00000" pt_clust_7="13000.00000" pt_clust_8="13000.00000" pt_clust_9="30.77490"></scales>
<clustering>
<clus scale="   30.775">  1  9  2 -1</clus>
<clus scale="   74.087">  7  8 -1 -1</clus>
<clus scale="   77.593">  2  7  1 -1</clus>
<clus scale="   80.698">  5  6 -1 -1</clus>
<clus scale="   77.593">  2  5  1 -1</clus>
</clustering>
</event>
<event>
 9    2  0.3402837E-005  0.1301317E+03  0.7546771E-02  0.1229848E+00
         -3   -1    0    0    0  501 -0.00000000000E+00  0.00000000000E+00  0.46212032901E+02  0.46212032901E+02  0.00000000000E+00 0.  1.
          4   -1    0    0  502    0  0.00000000000E+00 -0.00000000000E+00 -0.50980804400E+03  0.50980804400E+03  0.00000000000E+00 0. -1.
         24    2    1    2    0    0  0.97621495423E+02 -0.21917793600E+02 -0.22620306141E+03  0.26061319932E+03  0.82104011004E+02 0.  0.
         23    2    1    2    0    0 -0.86361353274E+02 -0.85741133767E+01 -0.22937527448E+03  0.26192807372E+03  0.91986414760E+02 0.  0.
        -13    1    3    3    0    0  0.34363161645E+02 -0.31270554666E+02 -0.32692733175E+02  0.56810996029E+02  0.00000000000E+00 0.  1.
         14    1    3    3    0    0  0.63258333778E+02  0.93527610668E+01 -0.19351032824E+03  0.20380220329E+03  0.00000000000E+00 0. -1.
        -11    1    4    4    0    0 -0.12028475218E+02 -0.41882036493E+02 -0.61954183783E+02  0.75743713172E+02  0.00000000000E+00 0.  1.
         11    1    4    4    0    0 -0.74332878056E+02  0.33307923117E+02 -0.16742109069E+03  0.18618436055E+03  0.00000000000E+00 0. -1.
         21    1    1    2  502  501 -0.11260142149E+02  0.30491906976E+02 -0.80176752079E+01  0.33478803862E+02  0.00000000000E+00 0. -1.
<scales pt_clust_5="13000.00000" pt_clust_6="13000.00000" pt_clust_7="13000.00000" pt_clust_8="13000.00000" pt_clust_9="32.50457"></scales>
<clustering>
<clus scale="   32.505">  1  9  2 -1</clus>
<clus scale="   82.104">  5  6 -1 -1</clus>
<clus scale="   91.986">  7  8 -1 -1</clus>
<clus scale="  123.344">  1  5  2 -1</clus>
<clus scale="  130.132">  2  5  1 -1</clus>
</clustering>
</event>
<event>
 9    2  0.3402837E-005  0.1507541E+03  0.7546771E-02  0.1201510E+00
         -1   -1    0    0    0  501 -0.00000000000E+00  0.00000000000E+00  0.26241467869E+02  0.26241467869E+02  0.00000000000E+00 0.  1.
          2   -1    0    0  502    0  0.00000000000E+00 -0.00000000000E+00 -0.18044481955E+04  0.18044481955E+04  0.00000000000E+00 0. -1.
         23    2    1    2    0    0 -0.11634701628E+03  0.28811410657E+02 -0.33062722508E+03  0.36329758817E+03  0.91126560498E+02 0.  0.
         24    2    1    2    0    0  0.12088426094E+03  0.22499018569E+01 -0.14139799490E+04  0.14214103210E+04  0.80311504592E+02 0.  0.
        -13    1    4    4    0    0  0.24066075942E+02  0.24802941690E+02 -0.17075469962E+03  0.17421690322E+03  0.00000000000E+00 0.  1.
         14    1    4    4    0    0  0.96818185000E+02 -0.22553039833E+02 -0.12432252494E+04  0.12471934177E+04  0.00000000000E+00 0. -1.
        -13    1    3    3    0    0 -0.92810703487E+02 -0.20794253508E+02 -0.22424951664E+03  0.24358586448E+03  0.00000000000E+00 0.  1.
         13    1    3    3    0    0 -0.23536312791E+02  0.49605664165E+02 -0.10637770843E+03  0.11971172369E+03  0.00000000000E+00 0. -1.
         21    1    1    2  502  501 -0.45372446631E+01 -0.31061312514E+02 -0.33599553592E+02  0.45981754270E+02  0.00000000000E+00 0.  1.
<scales pt_clust_5="13000.00000" pt_clust_6="13000.00000" pt_clust_7="13000.00000" pt_clust_8="13000.00000" pt_clust_9="31.39095"></scales>
<clustering>
<clus scale="   31.391">  1  9  2 -1</clus>
<clus scale="   80.312">  5  6 -1 -1</clus>
<clus scale="   91.127">  7  8 -1 -1</clus>
<clus scale="  144.474">  2  5  1 -1</clus>
<clus scale="  144.474">  2  5  1 -1</clus>
</clustering>
</event>
<event>
 9    2  0.3402837E-005  0.2013848E+03  0.7546771E-02  0.1150944E+00
         -1   -1    0    0    0  501 -0.00000000000E+00  0.00000000000E+00  0.57013134819E+02  0.57013134819E+02  0.00000000000E+00 0.  1.
          2   -1    0    0  502    0  0.00000000000E+00 -0.00000000000E+00 -0.95896724382E+03  0.95896724382E+03  0.00000000000E+00 0. -1.
         24    2    1    2    0    0  0.10593922088E+03  0.15366925932E+03 -0.25584649851E+03  0.32598217744E+03  0.77263118159E+02 0.  0.
         23    2    1    2    0    0 -0.81165388639E+02 -0.14808792987E+03 -0.62964897844E+03  0.65973633458E+03  0.10137228338E+03 0.  0.
        -13    1    3    3    0    0  0.10340868228E+03  0.93377641029E+02 -0.15463009713E+03  0.20814227430E+03  0.00000000000E+00 0.  1.
         14    1    3    3    0    0  0.25305385965E+01  0.60291618290E+02 -0.10121640138E+03  0.11783990313E+03  0.00000000000E+00 0. -1.
        -11    1    4    4    0    0 -0.23566361879E+02 -0.13594415171E+03 -0.45196881562E+03  0.47255898689E+03  0.00000000000E+00 0. -1.
         11    1    4    4    0    0 -0.57599026760E+02 -0.12143778158E+02 -0.17768016281E+03  0.18717734769E+03  0.00000000000E+00 0.  1.
         21    1    1    2  502  501 -0.24773832237E+02 -0.55813294517E+01 -0.16458632057E+02  0.30261866620E+02  0.00000000000E+00 0.  1.
<scales pt_clust_5="13000.00000" pt_clust_6="13000.00000" pt_clust_7="13000.00000" pt_clust_8="13000.00000" pt_clust_9="25.39476"></scales>
<clustering>
<clus scale="   25.395">  1  9  2 -1</clus>
<clus scale="   77.263">  5  6 -1 -1</clus>
<clus scale="  101.372">  7  8 -1 -1</clus>
<clus scale="  190.392">  1  5  2 -1</clus>
<clus scale="  201.385">  2  5  1 -1</clus>
</clustering>
</event>
<event>
 9    2  0.3402837E-005  0.1275543E+03  0.7546771E-02  0.1234618E+00
          2   -1    0    0  502    0  0.00000000000E+00  0.00000000000E+00  0.13351316531E+04  0.13351316531E+04  0.00000000000E+00 0. -1.
         -1   -1    0    0    0  501 -0.00000000000E+00 -0.00000000000E+00 -0.29346007451E+02  0.29346007451E+02  0.00000000000E+00 0.  1.
         23    2    1    2    0    0  0.57896001505E+02  0.47669290130E+02  0.31779782614E+03  0.33930486147E+03  0.92238942436E+02 0.  0.
         24    2    1    2    0    0 -0.79534627979E+02 -0.47978327256E+02  0.99494874113E+03  0.10024400014E+04  0.79594484669E+02 0.  0.
        -13    1    4    4    0    0 -0.62423481227E+02 -0.44246464440E+02  0.40108258553E+03  0.40831566348E+03  0.00000000000E+00 0.  1.
         14    1    4    4    0    0 -0.17111146752E+02 -0.37318628168E+01  0.59386615560E+03  0.59412433792E+03  0.00000000000E+00 0. -1.
        -13    1    3    3    0    0  0.83046142767E+02  0.31351026614E+02  0.23043009907E+03  0.24693638706E+03  0.00000000000E+00 0.  1.
         13    1    3    3    0    0 -0.25150141262E+02  0.16318263517E+02  0.87367727076E+02  0.92368474406E+02  0.00000000000E+00 0. -1.
         21    1    1    2  502  501  0.21638626474E+02  0.30903712612E+00 -0.69609216453E+01  0.22732797667E+02  0.00000000000E+00 0.  1.
<scales pt_clust_5="13000.00000" pt_clust_6="13000.00000" pt_clust_7="13000.00000" pt_clust_8="13000.00000" pt_clust_9="21.64083"></scales>
<clustering>
<clus scale="   21.641">  2  9  1 -1</clus>
<clus scale="   79.594">  5  6 -1 -1</clus>
<clus scale="   92.239">  7  8 -1 -1</clus>
<clus scale="  118.732">  1  5  2 -1</clus>
<clus scale="  118.732">  1  5  2 -1</clus>
</clustering>
</event>
<event>
 9    2  0.3402837E-005  0.1053420E+03  0.7546771E-02  0.1273645E+00
          2   -1    0    0  502    0  0.00000000000E+00  0.00000000000E+00  0.33933750866E+03  0.33933750866E+03  0.00000000000E+00 0. -1.
         -1   -1    0    0    0  501 -0.00000000000E+00 -0.00000000000E+00 -0.95170438996E+02  0.95170438996E+02  0.00000000000E+00 0.  1.
         23    2    1    2    0    0 -0.26511203067E+00  0.34801991957E+02 -0.27239532456E+02  0.10046387050E+03  0.90220553195E+02 0.  0.
         24    2    1    2    0    0  0.38893438718E+01 -0.56759312453E+02  0.28920789166E+03  0.30554592127E+03  0.80500676137E+02 0.  0.
        -13    1    4    4    0    0  0.26292931639E+02 -0.66356743685E+02  0.24350492858E+03  0.25375024321E+03  0.00000000000E+00 0.  1.
         14    1    4    4    0    0 -0.22403587767E+02  0.95974312319E+01  0.45702963084E+02  0.51795678061E+02  0.00000000000E+00 0. -1.
        -11    1    3    3    0    0 -0.29308635115E+02  0.51542031732E+02 -0.35166786266E+01  0.59396499526E+02  0.00000000000E+00 0.  1.
         11    1    3    3    0    0  0.29043523085E+02 -0.16740039775E+02 -0.23722853830E+02  0.41067370974E+02  0.00000000000E+00 0. -1.
         21    1    1    2  502  501 -0.36242318412E+01  0.21957320496E+02 -0.17801289540E+02  0.28498155889E+02  0.00000000000E+00 0.  1.
<scales pt_clust_5="13000.00000" pt_clust_6="13000.00000" pt_clust_7="13000.00000" pt_clust_8="13000.00000" pt_clust_9="22.25441"></scales>
<clustering>
<clus scale="   22.254">  2  9  1 -1</clus>
<clus scale="   80.501">  5  6 -1 -1</clus>
<clus scale="   90.221">  7  8 -1 -1</clus>
<clus scale="   97.147">  1  5  2 -1</clus>
<clus scale="   97.147">  1  5  2 -1</clus>
</clustering>
</event>
<event>
 9    2  0.3402837E-005  0.1077000E+03  0.7546771E-02  0.1268675E+00
         -1   -1    0    0    0  501 -0.00000000000E+00  0.00000000000E+00  0.49070992955E+02  0.49070992955E+02  0.00000000000E+00 0.  1.
          2   -1    0    0  502    0  0.00000000000E+00 -0.00000000000E+00 -0.92201135899E+03  0.92201135899E+03  0.00000000000E+00 0. -1.
         23    2    1    2    0    0 -0.12717147281E+02 -0.41130314889E+02 -0.25344423492E+03  0.27244237856E+03  0.90207764536E+02 0.  0.
         24    2    1    2    0    0  0.74856425558E+02  0.15558565263E+02 -0.62152110628E+03  0.63141419850E+03  0.80931150487E+02 0.  0.
        -11    1    4    4    0    0  0.47302274433E+02 -0.63506387402E+01 -0.12749198059E+03  0.13613243880E+03  0.00000000000E+00 0.  1.
         12    1    4    4    0    0  0.27554151125E+02  0.21909204003E+02 -0.49402912569E+03  0.49528175970E+03  0.00000000000E+00 0. -1.
        -13    1    3    3    0    0 -0.34802147895E+02 -0.60415919178E+02 -0.19426284645E+03  0.20639604236E+03  0.00000000000E+00 0.  1.
         13    1    3    3    0    0  0.22085000614E+02  0.19285604289E+02 -0.59181388467E+02  0.66046336203E+02  0.00000000000E+00 0. -1.
         21    1    1    2  502  501 -0.62139278277E+02  0.25571749626E+02  0.20249751695E+01  0.67225774880E+02  0.00000000000E+00 0.  1.
<scales pt_clust_5="13000.00000" pt_clust_6="13000.00000" pt_clust_7="13000.00000" pt_clust_8="13000.00000" pt_clust_9="67.19527"></scales>
<clustering>
<clus scale="   67.195">  1  9  2 -1</clus>
<clus scale="   80.931">  5  6 -1 -1</clus>
<clus scale="   90.208">  7  8 -1 -1</clus>
<clus scale="  100.059">  2  5  1 -1</clus>
<clus scale="  100.059">  2  5  1 -1</clus>
</clustering>
</event>
<event>
 9    2  0.3402837E-005  0.1725884E+03  0.7546771E-02  0.1176816E+00
         -1   -1    0    0    0  501 -0.00000000000E+00  0.00000000000E+00  0.37451230170E+03  0.37451230170E+03  0.00000000000E+00 0.  1.
          2   -1    0    0  502    0  0.00000000000E+00 -0.00000000000E+00 -0.37298287595E+03  0.37298287595E+03  0.00000000000E+00 0. -1.
         23    2    1    2    0    0 -0.28106744297E+02  0.18048592929E+03 -0.11110637382E+02  0.20508860792E+03  0.92589044103E+02 0.  0.
         24    2    1    2    0    0 -0.45724923221E+02 -0.13249061185E+03 -0.23184001224E+03  0.28255050789E+03  0.80252522681E+02 0.  0.
        -11    1    4    4    0    0  0.15876980226E+02 -0.41595648664E+02 -0.33042207380E+02  0.55444241878E+02  0.00000000000E+00 0.  1.
         12    1    4    4    0    0 -0.61601903447E+02 -0.90894963190E+02 -0.19879780486E+03  0.22710626601E+03  0.00000000000E+00 0. -1.
        -13    1    3    3    0    0  0.27676316208E+02  0.11464718662E+03  0.10349614441E+01  0.11794501695E+03  0.00000000000E+00 0.  1.
         13    1    3    3    0    0 -0.55783060505E+02  0.65838742676E+02 -0.12145598826E+02  0.87143590971E+02  0.00000000000E+00 0. -1.
         21    1    1    2  502  501  0.73831667519E+02 -0.47995317439E+02  0.24448007537E+03  0.25985606185E+03  0.00000000000E+00 0.  1.
<scales pt_clust_5="13000.00000" pt_clust_6="13000.00000" pt_clust_7="13000.00000" pt_clust_8="13000.00000" pt_clust_9="88.06058"></scales>
<clustering>
<clus scale="   80.253">  5  6 -1 -1</clus>
<clus scale="   88.061">  1  9  2 -1</clus>
<clus scale="   92.589">  7  8 -1 -1</clus>
<clus scale="  166.296">  2  5  1 -1</clus>
<clus scale="  166.296">  2  5  1 -1</clus>
</clustering>
</event>
<event>
 9    2  0.3402837E-005  0.1685577E+03  0.7546771E-02  0.1179787E+00
          2   -1    0    0  502    0  0.00000000000E+00  0.00000000000E+00  0.34454702977E+03  0.34454702977E+03  0.00000000000E+00 0. -1.
         -1   -1    0    0    0  501 -0.00000000000E+00 -0.00000000000E+00 -0.22013473255E+03  0.22013473255E+03  0.00000000000E+00 0.  1.
         23    2    1    2    0    0  0.16954069861E+03 -0.42337966063E+02 -0.62750575253E+02  0.20462332017E+03  0.86003003492E+02 0.  0.
         24    2    1    2    0    0 -0.13802197538E+03  0.20944855579E+02  0.24314666786E+03  0.29234374332E+03  0.82799815864E+02 0.  0.
        -11    1    4    4    0    0 -0.23981904140E+02  0.33734148518E+02  0.33113876232E+02  0.53006162864E+02  0.00000000000E+00 0.  1.
         12    1    4    4    0    0 -0.11404007124E+03 -0.12789292939E+02  0.21003279163E+03  0.23933758046E+03  0.00000000000E+00 0. -1.
        -13    1    3    3    0    0  0.69381574132E+02 -0.40432334236E+02 -0.66666547202E+02  0.10436955972E+03  0.00000000000E+00 0.  1.
         13    1    3    3    0    0  0.10015912448E+03 -0.19056318270E+01  0.39159719486E+01  0.10025376045E+03  0.00000000000E+00 0. -1.
         21    1    1    2  502  501 -0.31518723229E+02  0.21393110483E+02 -0.55983795389E+02  0.67714698820E+02  0.00000000000E+00 0. -1.
<scales pt_clust_5="13000.00000" pt_clust_6="13000.00000" pt_clust_7="13000.00000" pt_clust_8="13000.00000" pt_clust_9="38.09324"></scales>
<clustering>
<clus scale="   38.093">  2  9  1 -1</clus>
<clus scale="   82.800">  5  6 -1 -1</clus>
<clus scale="   86.003">  7  8 -1 -1</clus>
<clus scale="  166.946">  1  5  2 -1</clus>
<clus scale="  166.946">  1  5  2 -1</clus>
</clustering>
</event>
<event>
 9    2  0.3402837E-005  0.9208711E+02  0.7546771E-02  0.1304173E+00
         -1   -1    0    0    0  501 -0.00000000000E+00  0.00000000000E+00  0.30398625302E+03  0.30398625302E+03  0.00000000000E+00 0.  1.
          2   -1    0    0  502    0  0.00000000000E+00 -0.00000000000E+00 -0.10646864626E+03  0.10646864626E+03  0.00000000000E+00 0. -1.
         23    2    1    2    0    0  0.28825347185E+02 -0.15707109762E+02  0.19728233574E+03  0.21999742052E+03  0.91656593326E+02 0.  0.
         24    2    1    2    0    0 -0.45131648743E+01  0.52999345857E+01 -0.74824239500E+02  0.11087530976E+03  0.81524287995E+02 0.  0.
        -11    1    4    4    0    0  0.98053049564E+01 -0.29950179121E+02 -0.57772638090E+01  0.32039569469E+02  0.00000000000E+00 0.  1.
         12    1    4    4    0    0 -0.14318469831E+02  0.35250113706E+02 -0.69046975691E+02  0.78835740287E+02  0.00000000000E+00 0. -1.
        -11    1    3    3    0    0  0.69046110033E+01  0.35008402377E+02  0.41628747285E+02  0.54828956680E+02  0.00000000000E+00 0. -1.
         11    1    3    3    0    0  0.21920736182E+02 -0.50715512138E+02  0.15565358846E+03  0.16516846384E+03  0.00000000000E+00 0.  1.
         21    1    1    2  502  501 -0.24312182311E+02  0.10407175176E+02  0.75059510521E+02  0.79582169004E+02  0.00000000000E+00 0.  1.
<scales pt_clust_5="13000.00000" pt_clust_6="13000.00000" pt_clust_7="13000.00000" pt_clust_8="13000.00000" pt_clust_9="26.44601"></scales>
<clustering>
<clus scale="   26.446">  1  9  2 -1</clus>
<clus scale="   81.524">  5  6 -1 -1</clus>
<clus scale="   82.008">  2  5  1 -1</clus>
<clus scale="   91.657">  7  8 -1 -1</clus>
<clus scale="   82.008">  2  5  1 -1</clus>
</clustering>
</event>
<event>
 9    2  0.3402837E-005  0.2042377E+03  0.7546771E-02  0.1149605E+00
         -1   -1    0    0    0  501 -0.00000000000E+00  0.00000000000E+00  0.25060926748E+03  0.25060926748E+03  0.00000000000E+00 0.  1.
          2   -1    0    0  502    0  0.00000000000E+00 -0.00000000000E+00 -0.17370395421E+04  0.17370395421E+04  0.00000000000E+00 0. -1.
         23    2    1    2    0    0  0.39422167937E+02 -0.11305203916E+03 -0.32132538474E+03  0.35837751492E+03  0.10416126651E+03 0.  0.
         24    2    1    2    0    0 -0.11246092991E+02  0.20174033413E+03 -0.13793283300E+04  0.13957093390E+04  0.68060855263E+02 0.  0.
        -11    1    4    4    0    0 -0.92560472272E+01  0.67544565096E+02 -0.27818801178E+03  0.28642016790E+03  0.00000000000E+00 0.  1.
         12    1    4    4    0    0 -0.19900457634E+01  0.13419576903E+03 -0.11011403182E+04  0.11092891711E+04  0.00000000000E+00 0. -1.
        -11    1    3    3    0    0  0.58908545528E+02 -0.55074407838E+02 -0.98456022932E+02  0.12726741762E+03  0.00000000000E+00 0.  1.
         11    1    3    3    0    0 -0.19486377590E+02 -0.57977631321E+02 -0.22286936181E+03  0.23111009731E+03  0.00000000000E+00 0. -1.
         21    1    1    2  502  501 -0.28176074947E+02 -0.88688294968E+02  0.21422344008E+03  0.23356195569E+03  0.00000000000E+00 0.  1.
<scales pt_clust_5="13000.00000" pt_clust_6="13000.00000" pt_clust_7="13000.00000" pt_clust_8="13000.00000" pt_clust_9="93.05646"></scales>
<clustering>
<clus scale="   68.061">  5  6 -1 -1</clus>
<clus scale="   93.056">  1  9  2 -1</clus>
<clus scale="  104.161">  7  8 -1 -1</clus>
<clus scale="  188.403">  2  5  1 -1</clus>
<clus scale="  188.403">  2  5  1 -1</clus>
</clustering>
</event>
<event>
 9    2  0.3402837E-005  0.1715019E+03  0.7546771E-02  0.1177390E+00
         -1   -1    0    0    0  501 -0.00000000000E+00  0.00000000000E+00  0.22918463984E+03  0.22918463984E+03  0.00000000000E+00 0.  1.
          2   -1    0    0  502    0  0.00000000000E+00 -0.00000000000E+00 -0.66976039873E+03  0.66976039873E+03  0.00000000000E+00 0. -1.
         23    2    1    2    0    0  0.10833495498E+03  0.45269243427E+02 -0.28658868550E+02  0.15080351337E+03  0.90192028616E+02 0.  0.
         24    2    1    2    0    0 -0.11946597846E+03 -0.95224845512E+02 -0.56275993103E+03  0.58885221361E+03  0.81904201916E+02 0.  0.
        -13    1    4    4    0    0 -0.44754444341E+02  0.35289239145E+01 -0.96546751757E+02  0.10647388819E+03  0.00000000000E+00 0.  1.
         14    1    4    4    0    0 -0.74711534121E+02 -0.98753769426E+02 -0.46621317927E+03  0.48237832542E+03  0.00000000000E+00 0. -1.
        -11    1    3    3    0    0  0.11811876018E+03  0.21442259677E+02 -0.13223704592E+02  0.12077532186E+03  0.00000000000E+00 0.  1.
         11    1    3    3    0    0 -0.97838051995E+01  0.23826983751E+02 -0.15435163957E+02  0.30028191508E+02  0.00000000000E+00 0. -1.
         21    1    1    2  502  501  0.11131023477E+02  0.49955602085E+02  0.15084304069E+03  0.15928931159E+03  0.00000000000E+00 0.  1.
<scales pt_clust_5="13000.00000" pt_clust_6="13000.00000" pt_clust_7="13000.00000" pt_clust_8="13000.00000" pt_clust_9="51.18068"></scales>
<clustering>
<clus scale="   51.181">  1  9  2 -1</clus>
<clus scale="   81.904">  5  6 -1 -1</clus>
<clus scale="   90.192">  7  8 -1 -1</clus>
<clus scale="  167.292">  2  5  1 -1</clus>
<clus scale="  167.292">  2  5  1 -1</clus>
</clustering>
</event>
<event>
 9    2  0.3402837E-005  0.1314338E+03  0.7546771E-02  0.1228612E+00
          2   -1    0    0  502    0  0.00000000000E+00  0.00000000000E+00  0.78011549027E+03  0.78011549027E+03  0.00000000000E+00 0. -1.
         -1   -1    0    0    0  501 -0.00000000000E+00 -0.00000000000E+00 -0.30508025799E+02  0.30508025799E+02  0.00000000000E+00 0.  1.
         23    2    1    2    0    0 -0.74896386654E+02  0.53864316138E+02  0.24889079642E+03  0.28146438017E+03  0.93620165946E+02 0.  0.
         24    2    1    2    0    0  0.96647175467E+02 -0.16237441895E+02  0.35488417441E+03  0.37698819689E+03  0.81073992759E+02 0.  0.
        -13    1    4    4    0    0  0.23589017058E+02  0.31791682202E+02  0.11984289974E+03  0.12621201766E+03  0.00000000000E+00 0.  1.
         14    1    4    4    0    0  0.73058158410E+02 -0.48029124097E+02  0.23504127468E+03  0.25077617924E+03  0.00000000000E+00 0. -1.
        -11    1    3    3    0    0 -0.89589306283E+02  0.16247048881E+02  0.17293699135E+03  0.19544158558E+03  0.00000000000E+00 0. -1.
         11    1    3    3    0    0  0.14692919629E+02  0.37617267257E+02  0.75953805071E+02  0.86022794582E+02  0.00000000000E+00 0.  1.
         21    1    1    2  502  501 -0.21750788814E+02 -0.37626874243E+02  0.14583249364E+03  0.15217093901E+03  0.00000000000E+00 0. -1.
<scales pt_clust_5="13000.00000" pt_clust_6="13000.00000" pt_clust_7="13000.00000" pt_clust_8="13000.00000" pt_clust_9="43.46123"></scales>
<clustering>
<clus scale="   43.461">  1  9  2 -1</clus>
<clus scale="   81.074">  5  6 -1 -1</clus>
<clus scale="   93.620">  7  8 -1 -1</clus>
<clus scale="  122.813">  1  5  2 -1</clus>
<clus scale="   43.461">  1  5  2 -1</clus>
</clustering>
</event>
<event>
 9    2  0.3402837E-005  0.1036555E+03  0.7546771E-02  0.1276583E+00
         -1   -1    0    0    0  501 -0.00000000000E+00  0.00000000000E+00  0.66235220558E+02  0.66235220558E+02  0.00000000000E+00 0.  1.
          2   -1    0    0  502    0  0.00000000000E+00 -0.00000000000E+00 -0.42070463211E+03  0.42070463211E+03  0.00000000000E+00 0. -1.
         23    2    1    2    0    0  0.37712402283E+02  0.80698712959E+02 -0.58158179271E+02  0.13789689648E+03  0.87742080456E+02 0.  0.
         24    2    1    2    0    0  0.32989699016E+02 -0.44569250866E+02 -0.21355152741E+03  0.23435514555E+03  0.79014815203E+02 0.  0.
        -11    1    4    4    0    0 -0.59233703764E+01 -0.36538396707E+02 -0.33343980944E+02  0.49819291602E+02  0.00000000000E+00 0.  1.
         12    1    4    4    0    0  0.38913069393E+02 -0.80308541592E+01 -0.18020754647E+03  0.18453585395E+03  0.00000000000E+00 0. -1.
        -13    1    3    3    0    0  0.66185966739E+02  0.56429637570E+02 -0.34133570113E+02  0.93434398367E+02  0.00000000000E+00 0.  1.
         13    1    3    3    0    0 -0.28473564456E+02  0.24269075389E+02 -0.24024609158E+02  0.44462498111E+02  0.00000000000E+00 0. -1.
         21    1    1    2  502  501 -0.70702101300E+02 -0.36129462093E+02 -0.82759704866E+02  0.11468781064E+03  0.00000000000E+00 0.  1.
<scales pt_clust_5="13000.00000" pt_clust_6="13000.00000" pt_clust_7="13000.00000" pt_clust_8="13000.00000" pt_clust_9="79.39852"></scales>
<clustering>
<clus scale="   79.015">  5  6 -1 -1</clus>
<clus scale="   79.399">  1  9  2 -1</clus>
<clus scale="   87.742">  7  8 -1 -1</clus>
<clus scale="   96.380">  2  5  1 -1</clus>
<clus scale="   96.380">  2  5  1 -1</clus>
</clustering>
</event>
<event>
 9    2  0.3402837E-005  0.1428052E+03  0.7546771E-02  0.1211555E+00
          2   -1    0    0  502    0  0.00000000000E+00  0.00000000000E+00  0.92942487256E+02  0.92942487256E+02  0.00000000000E+00 0. -1.
         -1   -1    0    0    0  501 -0.00000000000E+00 -0.00000000000E+00 -0.47973158095E+03  0.47973158095E+03  0.00000000000E+00 0.  1.
         24    2    1    2    0    0  0.10757450491E+03  0.32431109551E+02 -0.11603210457E+03  0.18047116651E+03  0.80512990737E+02 0.  0.
         23    2    1    2    0    0  0.12683543488E+02 -0.10203433762E+03 -0.88750886599E+02  0.16322074317E+03  0.90511948382E+02 0.  0.
        -13    1    3    3    0    0  0.53479850152E+02  0.40632766988E+02 -0.10502043115E+03  0.12466116911E+03  0.00000000000E+00 0.  1.
         14    1    3    3    0    0  0.54094654763E+02 -0.82016574368E+01 -0.11011673421E+02  0.55809997404E+02  0.00000000000E+00 0. -1.
        -11    1    4    4    0    0 -0.86873277567E+01 -0.10903395113E+03 -0.88552787193E+02  0.14073190215E+03  0.00000000000E+00 0. -1.
         11    1    4    4    0    0  0.21370871245E+02  0.69996135113E+01 -0.19809940570E+00  0.22488841021E+02  0.00000000000E+00 0.  1.
         21    1    1    2  502  501 -0.12025804840E+03  0.69603228072E+02 -0.18200610252E+03  0.22898215852E+03  0.00000000000E+00 0.  1.
<scales pt_clust_5="13000.00000" pt_clust_6="13000.00000" pt_clust_7="13000.00000" pt_clust_8="13000.00000" pt_clust_9="117.94488"></scales>
<clustering>
<clus scale="   80.513">  5  6 -1 -1</clus>
<clus scale="   90.512">  7  8 -1 -1</clus>
<clus scale="  136.983">  1  7  2 -1</clus>
<clus scale="  117.945">  2  9  1 -1</clus>
<clus scale="  136.983">  1  5  2 -1</clus>
</clustering>
</event>
<event>
 9    2  0.3402837E-005  0.1056892E+03  0.7546771E-02  0.1281665E+00
          2   -1    0    0  502    0  0.00000000000E+00  0.00000000000E+00  0.40294460564E+03  0.40294460564E+03  0.00000000000E+00 0. -1.
         -1   -1    0    0    0  501 -0.00000000000E+00 -0.00000000000E+00 -0.12393857295E+03  0.12393857295E+03  0.00000000000E+00 0.  1.
         23    2    1    2    0    0 -0.24555057536E+01  0.52275786700E+02 -0.25178742357E+02  0.11806705855E+03  0.10279627359E+03 0.  0.
         24    2    1    2    0    0  0.26074742677E+02  0.19853156351E+01  0.33285964729E+03  0.34305607232E+03  0.78791435306E+02 0.  0.
        -13    1    4    4    0    0  0.43671944439E+02  0.13693485224E+02  0.10924876073E+03  0.11844847821E+03  0.00000000000E+00 0.  1.
         14    1    4    4    0    0 -0.17597201762E+02 -0.11708169589E+02  0.22361088655E+03  0.22460759410E+03  0.00000000000E+00 0. -1.
        -11    1    3    3    0    0  0.25143718448E+02 -0.21761138452E+02  0.47187907457E+01  0.33586019565E+02  0.00000000000E+00 0.  1.
         11    1    3    3    0    0 -0.27599224202E+02  0.74036925152E+02 -0.29897533103E+02  0.84481038986E+02  0.00000000000E+00 0. -1.
         21    1    1    2  502  501 -0.23619236923E+02 -0.54261102335E+02 -0.28674872238E+02  0.65760047729E+02  0.00000000000E+00 0.  1.
<scales pt_clust_5="13000.00000" pt_clust_6="13000.00000" pt_clust_7="13000.00000" pt_clust_8="13000.00000" pt_clust_9="59.17884"></scales>
<clustering>
<clus scale="   59.179">  2  9  1 -1</clus>
<clus scale="   78.791">  5  6 -1 -1</clus>
<clus scale="   82.530">  1  5  2 -1</clus>
<clus scale="  102.796">  7  8 -1 -1</clus>
<clus scale="   82.530">  1  5  2 -1</clus>
</clustering>
</event>
<event>
 9    2  0.3402837E-005  0.1120549E+03  0.7546771E-02  0.1260048E+00
         -1   -1    0    0    0  501 -0.00000000000E+00  0.00000000000E+00  0.24120504035E+02  0.24120504035E+02  0.00000000000E+00 0.  1.
          2   -1    0    0  502    0  0.00000000000E+00 -0.00000000000E+00 -0.14403038627E+04  0.14403038627E+04  0.00000000000E+00 0. -1.
         23    2    1    2    0    0  0.22891483799E+02  0.60477165366E+02 -0.15620452286E+03  0.19196957196E+03  0.90944796641E+02 0.  0.
         24    2    1    2    0    0 -0.63102603086E+02 -0.26121893901E+02 -0.10675269557E+04  0.10728678590E+04  0.82263903272E+02 0.  0.
        -13    1    4    4    0    0 -0.18499726773E+02  0.24197035810E+02 -0.16136354842E+03  0.16421306644E+03  0.00000000000E+00 0.  1.
         14    1    4    4    0    0 -0.44602876313E+02 -0.50318929711E+02 -0.90616340732E+03  0.90865479255E+03  0.00000000000E+00 0. -1.
        -11    1    3    3    0    0  0.85988106409E+01  0.31834461655E+02 -0.15652145530E+03  0.15995730200E+03  0.00000000000E+00 0. -1.
         11    1    3    3    0    0  0.14292673158E+02  0.28642703711E+02  0.31693244291E+00  0.32012269961E+02  0.00000000000E+00 0.  1.
         21    1    1    2  502  501  0.40211119287E+02 -0.34355271465E+02 -0.19245188008E+03  0.19958693579E+03  0.00000000000E+00 0. -1.
<scales pt_clust_5="13000.00000" pt_clust_6="13000.00000" pt_clust_7="13000.00000" pt_clust_8="13000.00000" pt_clust_9="52.88874"></scales>
<clustering>
<clus scale="   52.889">  1  9  2 -1</clus>
<clus scale="   82.264">  5  6 -1 -1</clus>
<clus scale="   90.945">  7  8 -1 -1</clus>
<clus scale="  105.132">  2  5  1 -1</clus>
<clus scale="  105.132">  2  5  1 -1</clus>
</clustering>
</event>
<event>
 9    2  0.3402837E-005  0.9909184E+02  0.7546771E-02  0.1285825E+00
         -1   -1    0    0    0  501 -0.00000000000E+00  0.00000000000E+00  0.48334793518E+02  0.48334793518E+02  0.00000000000E+00 0.  1.
          2   -1    0    0  502    0  0.00000000000E+00 -0.00000000000E+00 -0.77065114561E+03  0.77065114561E+03  0.00000000000E+00 0. -1.
         23    2    1    2    0    0 -0.78840084418E+01  0.24972853371E+02 -0.18590841313E+03  0.20746257770E+03  0.88277868579E+02 0.  0.
         24    2    1    2    0    0  0.24246150385E+02 -0.46300560462E+02 -0.56449310141E+03  0.57264705594E+03  0.80873799401E+02 0.  0.
        -11    1    4    4    0    0 -0.28363838836E+02 -0.15443008600E+02 -0.13301162534E+03  0.13687617157E+03  0.00000000000E+00 0.  1.
         12    1    4    4    0    0  0.52609989221E+02 -0.30857551862E+02 -0.43148147607E+03  0.43577088437E+03  0.00000000000E+00 0. -1.
        -13    1    3    3    0    0 -0.19024677782E+02 -0.29732710521E+02 -0.86958753894E+02  0.93849865841E+02  0.00000000000E+00 0. -1.
         13    1    3    3    0    0  0.11140669340E+02  0.54705563892E+02 -0.98949659234E+02  0.11361271186E+03  0.00000000000E+00 0.  1.
         21    1    1    2  502  501 -0.16362141943E+02  0.21327707092E+02  0.28085162445E+02  0.38876305487E+02  0.00000000000E+00 0.  1.
<scales pt_clust_5="13000.00000" pt_clust_6="13000.00000" pt_clust_7="13000.00000" pt_clust_8="13000.00000" pt_clust_9="26.88105"></scales>
<clustering>
<clus scale="   26.881">  1  9  2 -1</clus>
<clus scale="   80.874">  5  6 -1 -1</clus>
<clus scale="   88.278">  7  8 -1 -1</clus>
<clus scale="   92.557">  2  5  1 -1</clus>
<clus scale="   92.557">  2  5  1 -1</clus>
</clustering>
</event>
<event>
 9    2  0.3402837E-005  0.1025482E+03  0.7546771E-02  0.1281060E+00
          4   -1    0    0  502    0  0.00000000000E+00  0.00000000000E+00  0.83981679405E+02  0.83981679405E+02  0.00000000000E+00 0. -1.
         -3   -1    0    0    0  501 -0.00000000000E+00 -0.00000000000E+00 -0.22907269325E+03  0.22907269325E+03  0.00000000000E+00 0.  1.
         23    2    1    2    0    0  0.32582191757E+02 -0.48798656889E+01 -0.36879191020E+02  0.10338115986E+03  0.90786437173E+02 0.  0.
         24    2    1    2    0    0 -0.56539604072E+02  0.11684878343E+02  0.16456886293E+01  0.97028023707E+02  0.77964516820E+02 0.  0.
        -13    1    4    4    0    0 -0.32674449236E+00 -0.27617057551E+02 -0.51768905328E+01  0.28099979099E+02  0.00000000000E+00 0.  1.
         14    1    4    4    0    0 -0.56212859579E+02  0.39301935894E+02  0.68225791621E+01  0.68928044608E+02  0.00000000000E+00 0. -1.
        -13    1    3    3    0    0  0.19720715954E+02 -0.37980090467E+02 -0.49737146971E+02  0.65613852946E+02  0.00000000000E+00 0.  1.
         13    1    3    3    0    0  0.12861475803E+02  0.33100224778E+02  0.12857955951E+02  0.37767306913E+02  0.00000000000E+00 0. -1.
         21    1    1    2  502  501  0.23957412314E+02 -0.68050126539E+01 -0.10985751145E+03  0.11264518908E+03  0.00000000000E+00 0.  1.
<scales pt_clust_5="13000.00000" pt_clust_6="13000.00000" pt_clust_7="13000.00000" pt_clust_8="13000.00000" pt_clust_9="24.90514"></scales>
<clustering>
<clus scale="   24.905">  2  9  1 -1</clus>
<clus scale="   77.965">  5  6 -1 -1</clus>
<clus scale="   90.786">  7  8 -1 -1</clus>
<clus scale="   91.392">  1  5  2 -1</clus>
<clus scale="   91.392">  1  5  2 -1</clus>
</clustering>
</event>
<event>
 9    2  0.3402837E-005  0.2337892E+03  0.7546771E-02  0.1124532E+00
          2   -1    0    0  502    0  0.00000000000E+00  0.00000000000E+00  0.30439457928E+03  0.30439457928E+03  0.00000000000E+00 0. -1.
         -1   -1    0    0    0  501 -0.00000000000E+00 -0.00000000000E+00 -0.57809747601E+03  0.57809747601E+03  0.00000000000E+00 0.  1.
         23    2    1    2    0    0  0.15605886698E+03  0.15256226409E+03 -0.40485987926E+03  0.46834700740E+03  0.88361660923E+02 0.  0.
         24    2    1    2    0    0 -0.13150846065E+03 -0.17194863405E+03  0.22069494710E+03  0.31929990626E+03  0.79908463155E+02 0.  0.
        -11    1    4    4    0    0 -0.37909893815E+02 -0.40113041259E+02  0.11085880096E+03  0.12383816002E+03  0.00000000000E+00 0.  1.
         12    1    4    4    0    0 -0.93598566836E+02 -0.13183559279E+03  0.10983614615E+03  0.19546174624E+03  0.00000000000E+00 0. -1.
        -13    1    3    3    0    0  0.77471654247E+02  0.85694268101E+02 -0.12567182438E+03  0.17070082672E+03  0.00000000000E+00 0.  1.
         13    1    3    3    0    0  0.78587212729E+02  0.66867995994E+02 -0.27918805487E+03  0.29764618068E+03  0.00000000000E+00 0. -1.
         21    1    1    2  502  501 -0.24550406325E+02  0.19386369959E+02 -0.89537964581E+02  0.94845141638E+02  0.00000000000E+00 0.  1.
<scales pt_clust_5="13000.00000" pt_clust_6="13000.00000" pt_clust_7="13000.00000" pt_clust_8="13000.00000" pt_clust_9="31.28184"></scales>
<clustering>
<clus scale="   31.282">  2  9  1 -1</clus>
<clus scale="   79.908">  5  6 -1 -1</clus>
<clus scale="   88.362">  7  8 -1 -1</clus>
<clus scale="  230.727">  1  5  2 -1</clus>
<clus scale="  230.727">  1  5  2 -1</clus>
</clustering>
</event>
<event>
 9    2  0.3402837E-005  0.9843729E+02  0.7546771E-02  0.1292820E+00
          2   -1    0    0  502    0  0.00000000000E+00  0.00000000000E+00  0.19168690433E+03  0.19168690433E+03  0.00000000000E+00 0. -1.
         -1   -1    0    0    0  501 -0.00000000000E+00 -0.00000000000E+00 -0.15239961185E+03  0.15239961185E+03  0.00000000000E+00 0.  1.
         23    2    1    2    0    0 -0.25450597261E+02 -0.19714980041E+00 -0.91974428122E+02  0.13625079742E+03  0.97248201010E+02 0.  0.
         24    2    1    2    0    0 -0.11410890367E+00 -0.16548133703E+02  0.15037623372E+03  0.17178959092E+03  0.81392862898E+02 0.  0.
        -13    1    4    4    0    0 -0.32264703019E+02  0.91901428310E+01  0.31643349552E+02  0.46116931349E+02  0.00000000000E+00 0.  1.
         14    1    4    4    0    0  0.32150594115E+02 -0.25738276534E+02  0.11873288417E+03  0.12567265957E+03  0.00000000000E+00 0. -1.
        -13    1    3    3    0    0 -0.51315776278E+02  0.42819600327E+01 -0.96721334613E+02  0.10957490883E+03  0.00000000000E+00 0.  1.
         13    1    3    3    0    0  0.25865179017E+02 -0.44791098331E+01  0.47469064915E+01  0.26675888583E+02  0.00000000000E+00 0. -1.
         21    1    1    2  502  501  0.25564706165E+02  0.16745283503E+02 -0.19114513113E+02  0.36046127842E+02  0.00000000000E+00 0.  1.
<scales pt_clust_5="13000.00000" pt_clust_6="13000.00000" pt_clust_7="13000.00000" pt_clust_8="13000.00000" pt_clust_9="30.56074"></scales>
<clustering>
<clus scale="   30.561">  2  9  1 -1</clus>
<clus scale="   81.393">  5  6 -1 -1</clus>
<clus scale="   82.810">  1  5  2 -1</clus>
<clus scale="   97.248">  7  8 -1 -1</clus>
<clus scale="   82.810">  1  5  2 -1</clus>
</clustering>
</event>
<event>
 9    2  0.3402837E-005  0.2404615E+03  0.7546771E-02  0.1120255E+00
         -1   -1    0    0    0  501 -0.00000000000E+00  0.00000000000E+00  0.10392493539E+03  0.10392493539E+03  0.00000000000E+00 0.  1.
          2   -1    0    0  502    0  0.00000000000E+00 -0.00000000000E+00 -0.94839790407E+03  0.94839790407E+03  0.00000000000E+00 0. -1.
         23    2    1    2    0    0 -0.69641890771E+02  0.19349526509E+03 -0.84035551890E+02  0.24052957577E+03  0.92206790838E+02 0.  0.
         24    2    1    2    0    0  0.93001950804E+02 -0.20616981259E+03 -0.74113973270E+03  0.77894912919E+03  0.79487659488E+02 0.  0.
        -13    1    4    4    0    0  0.81978391433E+02 -0.95961203316E+02 -0.33528853979E+03  0.35825607338E+03  0.00000000000E+00 0.  1.
         14    1    4    4    0    0  0.11023559371E+02 -0.11020860928E+03 -0.40585119291E+03  0.42069305581E+03  0.00000000000E+00 0. -1.
        -13    1    3    3    0    0  0.40395195079E+00  0.87984790739E+02  0.98829736804E+00  0.87991268375E+02  0.00000000000E+00 0.  1.
         13    1    3    3    0    0 -0.70045842722E+02  0.10551047435E+03 -0.85023849258E+02  0.15253830739E+03  0.00000000000E+00 0. -1.
         21    1    1    2  502  501 -0.23360060032E+02  0.12674547510E+02 -0.19297684096E+02  0.32844134496E+02  0.00000000000E+00 0.  1.
<scales pt_clust_5="13000.00000" pt_clust_6="13000.00000" pt_clust_7="13000.00000" pt_clust_8="13000.00000" pt_clust_9="26.57699"></scales>
<clustering>
<clus scale="   26.577">  1  9  2 -1</clus>
<clus scale="   79.488">  5  6 -1 -1</clus>
<clus scale="   92.207">  7  8 -1 -1</clus>
<clus scale="  235.877">  2  5  1 -1</clus>
<clus scale="  235.877">  2  5  1 -1</clus>
</clustering>
</event>
<event>
 9    2  0.3402837E-005  0.1494242E+03  0.7546771E-02  0.1202133E+00
          2   -1    0    0  502    0  0.00000000000E+00  0.00000000000E+00  0.26681776303E+03  0.26681776303E+03  0.00000000000E+00 0. -1.
         -1   -1    0    0    0  501 -0.00000000000E+00 -0.00000000000E+00 -0.12341598619E+03  0.12341598619E+03  0.00000000000E+00 0.  1.
         23    2    1    2    0    0  0.10221616374E+03 -0.61851591268E+02 -0.25759221552E+02  0.15256292415E+03  0.91313442930E+02 0.  0.
         24    2    1    2    0    0 -0.10857129807E+03  0.41453253306E+02  0.15489365775E+03  0.21197964112E+03  0.86239341742E+02 0.  0.
        -13    1    4    4    0    0 -0.43390244122E+02 -0.25435811701E+02  0.42515519523E+02  0.65857901592E+02  0.00000000000E+00 0.  1.
         14    1    4    4    0    0 -0.65181053946E+02  0.66889065007E+02  0.11237813822E+03  0.14612173952E+03  0.00000000000E+00 0. -1.
        -11    1    3    3    0    0  0.24713912561E+02 -0.65762487074E+02  0.16257353891E+01  0.70271795165E+02  0.00000000000E+00 0.  1.
         11    1    3    3    0    0  0.77502251177E+02  0.39108958064E+01 -0.27384956941E+02  0.82291128988E+02  0.00000000000E+00 0. -1.
         21    1    1    2  502  501  0.63551343304E+01  0.20398337961E+02  0.14267340646E+02  0.25691183956E+02  0.00000000000E+00 0.  1.
<scales pt_clust_5="13000.00000" pt_clust_6="13000.00000" pt_clust_7="13000.00000" pt_clust_8="13000.00000" pt_clust_9="21.36539"></scales>
<clustering>
<clus scale="   21.365">  1  9  2 -1</clus>
<clus scale="   86.239">  5  6 -1 -1</clus>
<clus scale="   91.313">  7  8 -1 -1</clus>
<clus scale="  146.379">  1  5  2 -1</clus>
<clus scale="   21.365">  1  5  2 -1</clus>
</clustering>
</event>
<event>
 9    2  0.3402837E-005  0.9240784E+02  0.7546771E-02  0.1303052E+00
         -1   -1    0    0    0  501 -0.00000000000E+00  0.00000000000E+00  0.36871604483E+03  0.36871604483E+03  0.00000000000E+00 0.  1.
          2   -1    0    0  502    0  0.00000000000E+00 -0.00000000000E+00 -0.65337696380E+02  0.65337696380E+02  0.00000000000E+00 0. -1.
         23    2    1    2    0    0  0.44265044307E+02 -0.12297230421E+01  0.22723760015E+03  0.24890538766E+03  0.91411480232E+02 0.  0.
         24    2    1    2    0    0  0.20542004003E+02  0.94694698094E+01 -0.29346999384E-01  0.84800307453E+02  0.81727880775E+02 0.  0.
        -13    1    4    4    0    0 -0.30346836194E+02  0.88508122818E+01 -0.95554338901E+01  0.33023834754E+02  0.00000000000E+00 0.  1.
         14    1    4    4    0    0  0.50888840197E+02  0.61865752751E+00  0.95260868907E+01  0.51776472699E+02  0.00000000000E+00 0. -1.
        -13    1    3    3    0    0  0.20173143005E+02  0.32282575767E+02  0.33150932137E+02  0.50478754922E+02  0.00000000000E+00 0. -1.
         13    1    3    3    0    0  0.24091901302E+02 -0.33512298809E+02  0.19408666801E+03  0.19842663274E+03  0.00000000000E+00 0.  1.
         21    1    1    2  502  501 -0.64807048310E+02 -0.82397467672E+01  0.76170095297E+02  0.10034804610E+03  0.00000000000E+00 0. -1.
<scales pt_clust_5="13000.00000" pt_clust_6="13000.00000" pt_clust_7="13000.00000" pt_clust_8="13000.00000" pt_clust_9="65.32876"></scales>
<clustering>
<clus scale="   65.329">  1  9  2 -1</clus>
<clus scale="   81.728">  5  6 -1 -1</clus>
<clus scale="   82.841">  2  5  1 -1</clus>
<clus scale="   91.411">  7  8 -1 -1</clus>
<clus scale="   82.841">  2  5  1 -1</clus>
</clustering>
</event>
<event>
 9    2  0.3402837E-005  0.1914030E+03  0.7546771E-02  0.1158880E+00
          2   -1    0    0  502    0  0.00000000000E+00  0.00000000000E+00  0.89839939292E+02  0.89839939292E+02  0.00000000000E+00 0. -1.
         -1   -1    0    0    0  501 -0.00000000000E+00 -0.00000000000E+00 -0.58789389020E+03  0.58789389020E+03  0.00000000000E+00 0.  1.
         23    2    1    2    0    0 -0.76996672054E+02 -0.15046558906E+03 -0.27323357919E+03  0.33487095699E+03  0.94411800327E+02 0.  0.
         24    2    1    2    0    0  0.11435252614E+03  0.12228287799E+03 -0.10138566941E+03  0.21085586219E+03  0.78431742136E+02 0.  0.
        -11    1    4    4    0    0  0.32317631496E+02  0.91832715543E+02 -0.51691881361E+02  0.11022580255E+03  0.00000000000E+00 0.  1.
         12    1    4    4    0    0  0.82034894645E+02  0.30450162447E+02 -0.49693788051E+02  0.10063005964E+03  0.00000000000E+00 0. -1.
        -11    1    3    3    0    0  0.68571623021E+01 -0.43832321340E+02 -0.13104795902E+03  0.13835411317E+03  0.00000000000E+00 0. -1.
         11    1    3    3    0    0 -0.83853834356E+02 -0.10663326772E+03 -0.14218562017E+03  0.19651684381E+03  0.00000000000E+00 0.  1.
         21    1    1    2  502  501 -0.37355854087E+02  0.28182711066E+02 -0.12343470231E+03  0.13200701031E+03  0.00000000000E+00 0. -1.
<scales pt_clust_5="13000.00000" pt_clust_6="13000.00000" pt_clust_7="13000.00000" pt_clust_8="13000.00000" pt_clust_9="46.79450"></scales>
<clustering>
<clus scale="   46.794">  2  9  1 -1</clus>
<clus scale="   78.432">  5  6 -1 -1</clus>
<clus scale="   94.412">  7  8 -1 -1</clus>
<clus scale="  184.046">  1  5  2 -1</clus>
<clus scale="  184.046">  1  5  2 -1</clus>
</clustering>
</event>
<event>
 9    2  0.3402837E-005  0.1594045E+03  0.7546771E-02  0.1191279E+00
         -1   -1    0    0    0  501 -0.00000000000E+00  0.00000000000E+00  0.75937847172E+02  0.75937847172E+02  0.00000000000E+00 0.  1.
          2   -1    0    0  502    0  0.00000000000E+00 -0.00000000000E+00 -0.52607589533E+03  0.52607589533E+03  0.00000000000E+00 0. -1.
         24    2    1    2    0    0  0.10976281424E+03 -0.57748243879E+02 -0.11408824763E+03  0.18656238663E+03  0.80041619166E+02 0.  0.
         23    2    1    2    0    0 -0.10081308958E+03  0.89062917494E+02 -0.34510712687E+03  0.38164689587E+03  0.91977941985E+02 0.  0.
        -11    1    3    3    0    0  0.96375160766E+02 -0.51734372651E+02 -0.49029376884E+02  0.11986866448E+03  0.00000000000E+00 0.  1.
         12    1    3    3    0    0  0.13387653477E+02 -0.60138712277E+01 -0.65058870742E+02  0.66693722155E+02  0.00000000000E+00 0. -1.
        -13    1    4    4    0    0 -0.34901203259E+02  0.66015132504E+02 -0.88925776129E+02  0.11612013335E+03  0.00000000000E+00 0.  1.
         13    1    4    4    0    0 -0.65911886319E+02  0.23047784990E+02 -0.25618135074E+03  0.26552676252E+03  0.00000000000E+00 0. -1.
         21    1    1    2  502  501 -0.89497246644E+01 -0.31314673616E+02  0.90573263354E+01  0.33804459995E+02  0.00000000000E+00 0. -1.
<scales pt_clust_5="13000.00000" pt_clust_6="13000.00000" pt_clust_7="13000.00000" pt_clust_8="13000.00000" pt_clust_9="32.56849"></scales>
<clustering>
<clus scale="   32.568">  1  9  2 -1</clus>
<clus scale="   80.042">  5  6 -1 -1</clus>
<clus scale="   91.978">  7  8 -1 -1</clus>
<clus scale="  152.828">  1  5  2 -1</clus>
<clus scale="  159.404">  2  5  1 -1</clus>
</clustering>
</event>
<event>
 9    2  0.3402837E-005  0.1409373E+03  0.7546771E-02  0.1214417E+00
          2   -1    0    0  502    0  0.00000000000E+00  0.00000000000E+00  0.25779123584E+03  0.25779123584E+03  0.00000000000E+00 0. -1.
         -1   -1    0    0    0  501 -0.00000000000E+00 -0.00000000000E+00 -0.45965542217E+03  0.45965542217E+03  0.00000000000E+00 0.  1.
         24    2    1    2    0    0  0.17183995826E+01  0.91124107927E+02 -0.27207699210E+03  0.29851551811E+03  0.82335101744E+02 0.  0.
         23    2    1    2    0    0  0.17363112367E+02 -0.10558883544E+03  0.22300306816E+03  0.26427605035E+03  0.93064399959E+02 0.  0.
        -13    1    3    3    0    0  0.19753252400E+02  0.10031920804E+03 -0.23481033323E+03  0.25610549989E+03  0.00000000000E+00 0.  1.
         14    1    3    3    0    0 -0.18034852817E+02 -0.91951001097E+01 -0.37266658871E+02  0.42410018221E+02  0.00000000000E+00 0. -1.
        -11    1    4    4    0    0  0.51393075874E+02 -0.53243570085E+02  0.15617977218E+03  0.17282432480E+03  0.00000000000E+00 0.  1.
         11    1    4    4    0    0 -0.34029963507E+02 -0.52345265351E+02  0.66823295978E+02  0.91451725551E+02  0.00000000000E+00 0. -1.
         21    1    1    2  502  501 -0.19081511950E+02  0.14464727509E+02 -0.15279026239E+03  0.15465508954E+03  0.00000000000E+00 0.  1.
<scales pt_clust_5="13000.00000" pt_clust_6="13000.00000" pt_clust_7="13000.00000" pt_clust_8="13000.00000" pt_clust_9="23.94436"></scales>
<clustering>
<clus scale="   23.944">  2  9  1 -1</clus>
<clus scale="   82.335">  5  6 -1 -1</clus>
<clus scale="   93.064">  7  8 -1 -1</clus>
<clus scale="  134.095">  2  5  1 -1</clus>
<clus scale="  140.937">  1  5  2 -1</clus>
</clustering>
</event>
<event>
 9    2  0.3402837E-005  0.2758942E+03  0.7546771E-02  0.1120221E+00
          2   -1    0    0  502    0  0.00000000000E+00  0.00000000000E+00  0.64608973489E+03  0.64608973489E+03  0.00000000000E+00 0. -1.
         -1   -1    0    0    0  501 -0.00000000000E+00 -0.00000000000E+00 -0.27891721744E+03  0.27891721744E+03  0.00000000000E+00 0.  1.
         23    2    1    2    0    0 -0.47736122659E+02  0.11784393714E+03 -0.62568104085E+02  0.16836224712E+03  0.90912857597E+02 0.  0.
         24    2    1    2    0    0  0.20677937552E+03  0.14734136819E+03  0.34577274704E+03  0.43622528259E+03  0.79161326737E+02 0.  0.
        -11    1    4    4    0    0  0.12362265943E+03  0.13139649600E+03  0.21840429368E+03  0.28328084401E+03  0.00000000000E+00 0.  1.
         12    1    4    4    0    0  0.83156716093E+02  0.15944872196E+02  0.12736845336E+03  0.15294443858E+03  0.00000000000E+00 0. -1.
        -13    1    3    3    0    0 -0.42922636398E+02  0.89697107610E+02 -0.85965229963E+02  0.13144559556E+03  0.00000000000E+00 0.  1.
         13    1    3    3    0    0 -0.48134862604E+01  0.28146829535E+02  0.23397125878E+02  0.36916651557E+02  0.00000000000E+00 0. -1.
         21    1    1    2  502  501 -0.15904325286E+03 -0.26518530534E+03  0.83967874501E+02  0.32041942263E+03  0.00000000000E+00 0. -1.
<scales pt_clust_5="13000.00000" pt_clust_6="13000.00000" pt_clust_7="13000.00000" pt_clust_8="13000.00000" pt_clust_9="264.29355"></scales>
<clustering>
<clus scale="   79.161">  5  6 -1 -1</clus>
<clus scale="   90.913">  7  8 -1 -1</clus>
<clus scale="  156.304">  2  7  1 -1</clus>
<clus scale="  264.294">  2  9  1 -1</clus>
<clus scale="  275.894">  1  5  2 -1</clus>
</clustering>
</event>
<event>
 9    2  0.3402837E-005  0.9453074E+02  0.7546771E-02  0.1297181E+00
         -1   -1    0    0    0  501 -0.00000000000E+00  0.00000000000E+00  0.27186627753E+02  0.27186627753E+02  0.00000000000E+00 0.  1.
          2   -1    0    0  502    0  0.00000000000E+00 -0.00000000000E+00 -0.88001621973E+03  0.88001621973E+03  0.00000000000E+00 0. -1.
         23    2    1    2    0    0 -0.35574914871E+02  0.17989185868E+02 -0.11868382524E+03  0.15370603626E+03  0.89165631464E+02 0.  0.
         24    2    1    2    0    0  0.23479959973E+02  0.24716310021E+02 -0.66901637948E+03  0.67468130261E+03  0.80310270677E+02 0.  0.
        -13    1    4    4    0    0 -0.24208046514E+02 -0.35014359168E+01 -0.98954958121E+02  0.10193318060E+03  0.00000000000E+00 0.  1.
         14    1    4    4    0    0  0.47688006487E+02  0.28217745938E+02 -0.57006142136E+03  0.57274812201E+03  0.00000000000E+00 0. -1.
        -13    1    3    3    0    0 -0.32670739586E+02  0.38106544971E+02 -0.12306986579E+03  0.13291229386E+03  0.00000000000E+00 0.  1.
         13    1    3    3    0    0 -0.29041752854E+01 -0.20117359103E+02  0.43860405486E+01  0.20793742402E+02  0.00000000000E+00 0. -1.
         21    1    1    2  502  501  0.12094954898E+02 -0.42705495889E+02 -0.65129387261E+02  0.78815508614E+02  0.00000000000E+00 0. -1.
<scales pt_clust_5="13000.00000" pt_clust_6="13000.00000" pt_clust_7="13000.00000" pt_clust_8="13000.00000" pt_clust_9="44.38522"></scales>
<clustering>
<clus scale="   44.385">  1  9  2 -1</clus>
<clus scale="   80.310">  5  6 -1 -1</clus>
<clus scale="   86.228">  2  5  1 -1</clus>
<clus scale="   89.166">  7  8 -1 -1</clus>
<clus scale="   86.228">  2  5  1 -1</clus>
</clustering>
</event>
<event>
 9    2  0.3402837E-005  0.1290791E+03  0.7546771E-02  0.1232396E+00
          2   -1    0    0  502    0  0.00000000000E+00  0.00000000000E+00  0.13086164939E+03  0.13086164939E+03  0.00000000000E+00 0. -1.
         -1   -1    0    0    0  501 -0.00000000000E+00 -0.00000000000E+00 -0.41989543915E+03  0.41989543915E+03  0.00000000000E+00 0.  1.
         24    2    1    2    0    0  0.56446405653E+02  0.53638938271E+02 -0.10680898500E+03  0.15457580971E+03  0.80138562895E+02 0.  0.
         23    2    1    2    0    0  0.43517316654E+02 -0.10325344097E+03  0.36792698834E+02  0.15037035243E+03  0.93287246072E+02 0.  0.
        -13    1    3    3    0    0  0.61547770075E+02  0.73516141303E+01 -0.78711624760E+02  0.10018829325E+03  0.00000000000E+00 0.  1.
         14    1    3    3    0    0 -0.51013644224E+01  0.46287324141E+02 -0.28097360235E+02  0.54387516465E+02  0.00000000000E+00 0. -1.
        -13    1    4    4    0    0  0.48249466466E+02 -0.58968661968E+02  0.62851005132E+02  0.98770253390E+02  0.00000000000E+00 0.  1.
         13    1    4    4    0    0 -0.47321498126E+01 -0.44284779004E+02 -0.26058306299E+02  0.51600099035E+02  0.00000000000E+00 0. -1.
         21    1    1    2  502  501 -0.99963722306E+02  0.49614502702E+02 -0.21901750359E+03  0.24581092640E+03  0.00000000000E+00 0. -1.
<scales pt_clust_5="13000.00000" pt_clust_6="13000.00000" pt_clust_7="13000.00000" pt_clust_8="13000.00000" pt_clust_9="111.59904"></scales>
<clustering>
<clus scale="   80.139">  5  6 -1 -1</clus>
<clus scale="   93.287">  7  8 -1 -1</clus>
<clus scale="  111.599">  2  9  1 -1</clus>
<clus scale="  119.921">  2  5  1 -1</clus>
<clus scale="  129.079">  1  5  2 -1</clus>
</clustering>
</event>
<event>
 9    2  0.3402837E-005  0.1733140E+03  0.7546771E-02  0.1190398E+00
          2   -1    0    0  502    0  0.00000000000E+00  0.00000000000E+00  0.11221030655E+04  0.11221030655E+04  0.00000000000E+00 0. -1.
         -1   -1    0    0    0  501 -0.00000000000E+00 -0.00000000000E+00 -0.24191358952E+03  0.24191358952E+03  0.00000000000E+00 0.  1.
         23    2    1    2    0    0 -0.37443667835E+02 -0.69095859069E+02 -0.19485228832E+03  0.22949092914E+03  0.92316879779E+02 0.  0.
         24    2    1    2    0    0  0.16520545873E+03  0.10031190353E+02  0.84490682464E+03  0.86475952940E+03  0.80919917106E+02 0.  0.
        -11    1    4    4    0    0  0.17258481618E+03  0.17715208796E+02  0.80188586566E+03  0.82043908302E+03  0.00000000000E+00 0.  1.
         12    1    4    4    0    0 -0.73793574428E+01 -0.76840184439E+01  0.43020958979E+02  0.44320446378E+02  0.00000000000E+00 0. -1.
        -13    1    3    3    0    0  0.29669718466E+02 -0.34790738865E+02 -0.68257988351E+02  0.82157414019E+02  0.00000000000E+00 0. -1.
         13    1    3    3    0    0 -0.67113386300E+02 -0.34305120205E+02 -0.12659429997E+03  0.14733351512E+03  0.00000000000E+00 0.  1.
         21    1    1    2  502  501 -0.12776179090E+03  0.59064668717E+02  0.23013493965E+03  0.26976619646E+03  0.00000000000E+00 0. -1.
<scales pt_clust_5="13000.00000" pt_clust_6="13000.00000" pt_clust_7="13000.00000" pt_clust_8="13000.00000" pt_clust_9="153.26352"></scales>
<clustering>
<clus scale="   80.920">  5  6 -1 -1</clus>
<clus scale="   92.317">  7  8 -1 -1</clus>
<clus scale="  121.238">  2  7  1 -1</clus>
<clus scale="  153.264">  2  9  1 -1</clus>
<clus scale="  173.314">  1  5  2 -1</clus>
</clustering>
</event>
<event>
 9    2  0.3402837E-005  0.2440955E+03  0.7546771E-02  0.1117583E+00
          2   -1    0    0  502    0  0.00000000000E+00  0.00000000000E+00  0.11980937221E+04  0.11980937221E+04  0.00000000000E+00 0. -1.
         -1   -1    0    0    0  501 -0.00000000000E+00 -0.00000000000E+00 -0.17345171638E+03  0.17345171638E+03  0.00000000000E+00 0.  1.
         24    2    1    2    0    0 -0.60133869704E+02  0.23384583831E+03 -0.75520119350E+01  0.25695980931E+03  0.87586256541E+02 0.  0.
         23    2    1    2    0    0  0.72497261561E+02 -0.21085107589E+03  0.10533920192E+04  0.10809557640E+04  0.95480827207E+02 0.  0.
        -11    1    3    3    0    0 -0.64384164594E+02  0.12558502911E+03  0.26077462384E+02  0.14351639011E+03  0.00000000000E+00 0.  1.
         12    1    3    3    0    0  0.42502948900E+01  0.10826080921E+03 -0.33629474319E+02  0.11344341920E+03  0.00000000000E+00 0. -1.
        -13    1    4    4    0    0  0.82559128212E+02 -0.11323798064E+03  0.51673433640E+03  0.53540006008E+03  0.00000000000E+00 0.  1.
         13    1    4    4    0    0 -0.10061866651E+02 -0.97613095251E+02  0.53665768283E+03  0.54555570391E+03  0.00000000000E+00 0. -1.
         21    1    1    2  502  501 -0.12363391857E+02 -0.22994762420E+02 -0.21198001625E+02  0.33629865148E+02  0.00000000000E+00 0.  1.
<scales pt_clust_5="13000.00000" pt_clust_6="13000.00000" pt_clust_7="13000.00000" pt_clust_8="13000.00000" pt_clust_9="26.10771"></scales>
<clustering>
<clus scale="   26.108">  2  9  1 -1</clus>
<clus scale="   87.586">  5  6 -1 -1</clus>
<clus scale="   95.481">  7  8 -1 -1</clus>
<clus scale="  241.117">  2  5  1 -1</clus>
<clus scale="  244.096">  1  5  2 -1</clus>
</clustering>
</event>
<event>
 9    2  0.3402837E-005  0.2459687E+03  0.7546771E-02  0.1116427E+00
         -1   -1    0    0    0  501 -0.00000000000E+00  0.00000000000E+00  0.75248957029E+03  0.75248957029E+03  0.00000000000E+00 0.  1.
          2   -1    0    0  502    0  0.00000000000E+00 -0.00000000000E+00 -0.32210156452E+03  0.32210156452E+03  0.00000000000E+00 0. -1.
         23    2    1    2    0    0  0.42753174997E+02  0.20381172594E+03  0.54314724386E+03  0.58888198882E+03  0.91684320599E+02 0.  0.
         24    2    1    2    0    0 -0.60164188958E+02 -0.22203208398E+03 -0.24801654602E+03  0.34812402977E+03  0.82220174262E+02 0.  0.
        -11    1    4    4    0    0 -0.26387958197E+02 -0.31702767418E+02 -0.11813778245E+02  0.42906353331E+02  0.00000000000E+00 0.  1.
         12    1    4    4    0    0 -0.33776230761E+02 -0.19032931656E+03 -0.23620276777E+03  0.30521767644E+03  0.00000000000E+00 0. -1.
        -13    1    3    3    0    0  0.70654741341E+02  0.15186071673E+03  0.42561269990E+03  0.45738379954E+03  0.00000000000E+00 0.  1.
         13    1    3    3    0    0 -0.27901566344E+02  0.51951009204E+02  0.11753454396E+03  0.13149818928E+03  0.00000000000E+00 0. -1.
         21    1    1    2  502  501  0.17411013961E+02  0.18220358037E+02  0.13525730793E+03  0.13758511621E+03  0.00000000000E+00 0.  1.
<scales pt_clust_5="13000.00000" pt_clust_6="13000.00000" pt_clust_7="13000.00000" pt_clust_8="13000.00000" pt_clust_9="25.20168"></scales>
<clustering>
<clus scale="   25.202">  1  9  2 -1</clus>
<clus scale="   82.220">  5  6 -1 -1</clus>
<clus scale="   91.684">  7  8 -1 -1</clus>
<clus scale="  242.600">  2  5  1 -1</clus>
<clus scale="  242.600">  2  5  1 -1</clus>
</clustering>
</event>
<event>
 9    2  0.3402837E-005  0.1630171E+03  0.7546771E-02  0.1185845E+00
         -1   -1    0    0    0  501 -0.00000000000E+00  0.00000000000E+00  0.44452686999E+02  0.44452686999E+02  0.00000000000E+00 0.  1.
          2   -1    0    0  502    0  0.00000000000E+00 -0.00000000000E+00 -0.20682427990E+04  0.20682427990E+04  0.00000000000E+00 0. -1.
         23    2    1    2    0    0 -0.10241162808E+03  0.12131238573E+03 -0.23491056045E+03  0.29778613190E+03  0.91042695732E+02 0.  0.
         24    2    1    2    0    0  0.89309299880E+02 -0.97991861068E+02 -0.17794666870E+04  0.17865523463E+04  0.87687171137E+02 0.  0.
        -11    1    4    4    0    0  0.13539910037E+01 -0.22082231966E+02 -0.76710774599E+02  0.79837342139E+02  0.00000000000E+00 0.  1.
         12    1    4    4    0    0  0.87955308877E+02 -0.75909629102E+02 -0.17027559124E+04  0.17067150041E+04  0.00000000000E+00 0. -1.
        -13    1    3    3    0    0 -0.54937076366E+02  0.17540503618E+02 -0.13229555209E+03  0.14431862225E+03  0.00000000000E+00 0. -1.
         13    1    3    3    0    0 -0.47474551714E+02  0.10377188211E+03 -0.10261500836E+03  0.15346750965E+03  0.00000000000E+00 0.  1.
         21    1    1    2  502  501  0.13102328200E+02 -0.23320524659E+02 -0.94128645944E+01  0.28357007855E+02  0.00000000000E+00 0. -1.
<scales pt_clust_5="13000.00000" pt_clust_6="13000.00000" pt_clust_7="13000.00000" pt_clust_8="13000.00000" pt_clust_9="26.74917"></scales>
<clustering>
<clus scale="   26.749">  1  9  2 -1</clus>
<clus scale="   87.687">  5  6 -1 -1</clus>
<clus scale="   91.043">  7  8 -1 -1</clus>
<clus scale="  161.167">  2  5  1 -1</clus>
<clus scale="  161.167">  2  5  1 -1</clus>
</clustering>
</event>
<event>
 9    2  0.3402837E-005  0.9270884E+02  0.7546771E-02  0.1303778E+00
          2   -1    0    0  502    0  0.00000000000E+00  0.00000000000E+00  0.54940770477E+03  0.54940770477E+03  0.00000000000E+00 0. -1.
         -1   -1    0    0    0  501 -0.00000000000E+00 -0.00000000000E+00 -0.74949046884E+02  0.74949046884E+02  0.00000000000E+00 0.  1.
         23    2    1    2    0    0 -0.17894735319E+02  0.24880245307E+02  0.77391157084E+01  0.97923933198E+02  0.92682008083E+02 0.  0.
         24    2    1    2    0    0  0.96301313549E+00  0.11676740821E+01  0.48411021798E+03  0.49082926631E+03  0.80922028235E+02 0.  0.
        -13    1    4    4    0    0 -0.18843407976E+02  0.24807502751E+02  0.84994377867E+02  0.90523646004E+02  0.00000000000E+00 0.  1.
         14    1    4    4    0    0  0.19806421112E+02 -0.23639828669E+02  0.39911584011E+03  0.40030562030E+03  0.00000000000E+00 0. -1.
        -11    1    3    3    0    0  0.29284067735E+02 -0.26515858016E+01  0.27082504678E+02  0.39975612440E+02  0.00000000000E+00 0. -1.
         11    1    3    3    0    0 -0.47178803054E+02  0.27531831108E+02 -0.19343388969E+02  0.57948320757E+02  0.00000000000E+00 0.  1.
         21    1    1    2  502  501  0.16931722184E+02 -0.26047919389E+02 -0.17390675804E+02  0.35603552147E+02  0.00000000000E+00 0.  1.
<scales pt_clust_5="13000.00000" pt_clust_6="13000.00000" pt_clust_7="13000.00000" pt_clust_8="13000.00000" pt_clust_9="31.06730"></scales>
<clustering>
<clus scale="   31.067">  2  9  1 -1</clus>
<clus scale="   80.922">  5  6 -1 -1</clus>
<clus scale="   80.953">  1  5  2 -1</clus>
<clus scale="   92.682">  7  8 -1 -1</clus>
<clus scale="   80.953">  1  5  2 -1</clus>
</clustering>
</event>
<event>
 9    2  0.3402837E-005  0.1446292E+03  0.7546771E-02  0.1209444E+00
          2   -1    0    0  502    0  0.00000000000E+00  0.00000000000E+00  0.29925584956E+03  0.29925584956E+03  0.00000000000E+00 0. -1.
         -1   -1    0    0    0  501 -0.00000000000E+00 -0.00000000000E+00 -0.11597927792E+03  0.11597927792E+03  0.00000000000E+00 0.  1.
         24    2    1    2    0    0 -0.87551275401E+02  0.46753964406E+02 -0.16856172960E+02  0.12769210338E+03  0.78549243709E+02 0.  0.
         23    2    1    2    0    0  0.11315010399E+03 -0.35090212046E+02  0.21038955513E+03  0.25760065768E+03  0.89777864263E+02 0.  0.
        -11    1    3    3    0    0 -0.64371442313E+02  0.30014769223E+02 -0.47760602410E+02  0.85589976630E+02  0.00000000000E+00 0.  1.
         12    1    3    3    0    0 -0.23179833088E+02  0.16739195183E+02  0.30904429450E+02  0.42102126751E+02  0.00000000000E+00 0. -1.
        -13    1    4    4    0    0  0.18914229803E+02 -0.26833532833E+02  0.74030127953E+01  0.33653991914E+02  0.00000000000E+00 0.  1.
         13    1    4    4    0    0  0.94235874188E+02 -0.82566792137E+01  0.20298654234E+03  0.22394666576E+03  0.00000000000E+00 0. -1.
         21    1    1    2  502  501 -0.25598828590E+02 -0.11663752360E+02 -0.10256810540E+02  0.29942366419E+02  0.00000000000E+00 0.  1.
<scales pt_clust_5="13000.00000" pt_clust_6="13000.00000" pt_clust_7="13000.00000" pt_clust_8="13000.00000" pt_clust_9="28.13082"></scales>
<clustering>
<clus scale="   28.131">  2  9  1 -1</clus>
<clus scale="   78.549">  5  6 -1 -1</clus>
<clus scale="   89.778">  7  8 -1 -1</clus>
<clus scale="  137.940">  2  5  1 -1</clus>
<clus scale="  144.629">  1  5  2 -1</clus>
</clustering>
</event>
<event>
 9    2  0.3402837E-005  0.3066748E+03  0.7546771E-02  0.1081951E+00
          2   -1    0    0  502    0  0.00000000000E+00  0.00000000000E+00  0.13623347527E+04  0.13623347527E+04  0.00000000000E+00 0. -1.
         -1   -1    0    0    0  501 -0.00000000000E+00 -0.00000000000E+00 -0.25480320597E+03  0.25480320597E+03  0.00000000000E+00 0.  1.
         24    2    1    2    0    0  0.57994635452E+02 -0.12519920946E+03  0.77219309820E+03  0.78845827639E+03  0.79662117138E+02 0.  0.
         23    2    1    2    0    0  0.72418030878E+01 -0.11288475866E+03  0.50765984413E+03  0.52762415226E+03  0.88731709433E+02 0.  0.
        -13    1    3    3    0    0  0.46289241590E+02 -0.11592709675E+03  0.48265932148E+03  0.49853967370E+03  0.00000000000E+00 0.  1.
         14    1    3    3    0    0  0.11705393862E+02 -0.92721127125E+01  0.28953377672E+03  0.28991860269E+03  0.00000000000E+00 0. -1.
        -13    1    4    4    0    0  0.23511395135E+02 -0.10372607381E+02  0.33415585015E+02  0.42154216954E+02  0.00000000000E+00 0.  1.
         13    1    4    4    0    0 -0.16269592047E+02 -0.10251215127E+03  0.47424425912E+03  0.48546993531E+03  0.00000000000E+00 0. -1.
         21    1    1    2  502  501 -0.65236438540E+02  0.23808396811E+03 -0.17232139559E+03  0.30105553003E+03  0.00000000000E+00 0.  1.
<scales pt_clust_5="13000.00000" pt_clust_6="13000.00000" pt_clust_7="13000.00000" pt_clust_8="13000.00000" pt_clust_9="246.85982"></scales>
<clustering>
<clus scale="   79.662">  5  6 -1 -1</clus>
<clus scale="   88.732">  7  8 -1 -1</clus>
<clus scale="  101.575">  5  7 -1 -1</clus>
<clus scale="  246.860">  2  9  1 -1</clus>
<clus scale="  306.675">  1  5  2 -1</clus>
</clustering>
</event>
<event>
 9    2  0.3402837E-005  0.1455199E+03  0.7546771E-02  0.1208076E+00
          2   -1    0    0  502    0  0.00000000000E+00  0.00000000000E+00  0.52433830059E+03  0.52433830059E+03  0.00000000000E+00 0. -1.
         -1   -1    0    0    0  501 -0.00000000000E+00 -0.00000000000E+00 -0.10584290443E+03  0.10584290443E+03  0.00000000000E+00 0.  1.
         23    2    1    2    0    0  0.20551787102E+02  0.85665984617E+02 -0.39739234414E+02  0.13256083324E+03  0.90731091057E+02 0.  0.
         24    2    1    2    0    0 -0.47560658339E+02 -0.10730121893E+03  0.42997832823E+03  0.45294396736E+03  0.80630682891E+02 0.  0.
        -11    1    4    4    0    0 -0.67045866862E+02 -0.94952067072E+02  0.31710870435E+03  0.33774098608E+03  0.00000000000E+00 0.  1.
         12    1    4    4    0    0  0.19485208523E+02 -0.12349151853E+02  0.11286962388E+03  0.11520298128E+03  0.00000000000E+00 0. -1.
        -11    1    3    3    0    0 -0.34274015372E+02  0.16594839439E+02 -0.15417140723E+02  0.41082661230E+02  0.00000000000E+00 0. -1.
         11    1    3    3    0    0  0.54825802473E+02  0.69071145178E+02 -0.24322093691E+02  0.91478172011E+02  0.00000000000E+00 0.  1.
         21    1    1    2  502  501  0.27008871237E+02  0.21635234308E+02  0.28256302348E+02  0.44676404415E+02  0.00000000000E+00 0.  1.
<scales pt_clust_5="13000.00000" pt_clust_6="13000.00000" pt_clust_7="13000.00000" pt_clust_8="13000.00000" pt_clust_9="34.60582"></scales>
<clustering>
<clus scale="   34.606">  2  9  1 -1</clus>
<clus scale="   80.631">  5  6 -1 -1</clus>
<clus scale="   90.731">  7  8 -1 -1</clus>
<clus scale="  139.446">  1  5  2 -1</clus>
<clus scale="  139.446">  1  5  2 -1</clus>
</clustering>
</event>
<event>
 9    2  0.3402837E-005  0.9738351E+02  0.7546771E-02  0.1290623E+00
         -1   -1    0    0    0  501 -0.00000000000E+00  0.00000000000E+00  0.18579076068E+03  0.18579076068E+03  0.00000000000E+00 0.  1.
          2   -1    0    0  502    0  0.00000000000E+00 -0.00000000000E+00 -0.13432015408E+03  0.13432015408E+03  0.00000000000E+00 0. -1.
         23    2    1    2    0    0  0.32313869742E+02 -0.91343670857E+01  0.12475143571E+03  0.15726161618E+03  0.89669796318E+02 0.  0.
         24    2    1    2    0    0 -0.34285333869E+02 -0.20205379802E+02 -0.91486989249E+02  0.12826358353E+03  0.80609777117E+02 0.  0.
        -13    1    4    4    0    0 -0.27205531527E+02 -0.24487814533E+02 -0.20138185587E+00  0.36603750640E+02  0.00000000000E+00 0.  1.
         14    1    4    4    0    0 -0.70798023419E+01  0.42824347303E+01 -0.91285607393E+02  0.91659832891E+02  0.00000000000E+00 0. -1.
        -11    1    3    3    0    0 -0.19118382559E+02 -0.31701732918E+02  0.32524116120E+02  0.49278094028E+02  0.00000000000E+00 0. -1.
         11    1    3    3    0    0  0.51432252301E+02  0.22567365832E+02  0.92227319594E+02  0.10798352215E+03  0.00000000000E+00 0.  1.
         21    1    1    2  502  501  0.19714641268E+01  0.29339746888E+02  0.18206160137E+02  0.34585715046E+02  0.00000000000E+00 0. -1.
<scales pt_clust_5="13000.00000" pt_clust_6="13000.00000" pt_clust_7="13000.00000" pt_clust_8="13000.00000" pt_clust_9="29.40591"></scales>
<clustering>
<clus scale="   29.406">  1  9  2 -1</clus>
<clus scale="   80.610">  5  6 -1 -1</clus>
<clus scale="   89.111">  2  5  1 -1</clus>
<clus scale="   89.670">  7  8 -1 -1</clus>
<clus scale="   89.111">  2  5  1 -1</clus>
</clustering>
</event>
<event>
 9    2  0.3402837E-005  0.1565193E+03  0.7546771E-02  0.1214932E+00
         -1   -1    0    0    0  501 -0.00000000000E+00  0.00000000000E+00  0.68066408800E+02  0.68066408800E+02  0.00000000000E+00 0.  1.
          2   -1    0    0  502    0  0.00000000000E+00 -0.00000000000E+00 -0.81018068103E+03  0.81018068103E+03  0.00000000000E+00 0. -1.
         23    2    1    2    0    0 -0.41405648703E+02  0.12278767707E+03 -0.49840097196E+03  0.52817129520E+03  0.11734626896E+03 0.  0.
         24    2    1    2    0    0 -0.26694390245E+02 -0.47333264231E+02 -0.22736471176E+03  0.24712794342E+03  0.80152853283E+02 0.  0.
        -13    1    4    4    0    0 -0.51443014894E+02 -0.12881260392E+02 -0.10525172707E+03  0.11785684835E+03  0.00000000000E+00 0.  1.
         14    1    4    4    0    0  0.24748624649E+02 -0.34452003840E+02 -0.12211298469E+03  0.12927109507E+03  0.00000000000E+00 0. -1.
        -13    1    3    3    0    0 -0.18065783951E+02  0.20661568191E+02 -0.10882863924E+02  0.29524729923E+02  0.00000000000E+00 0.  1.
         13    1    3    3    0    0 -0.23339864752E+02  0.10212610888E+03 -0.48751810804E+03  0.49864656528E+03  0.00000000000E+00 0. -1.
         21    1    1    2  502  501  0.68100038948E+02 -0.75454412841E+02 -0.16348588503E+02  0.10294785121E+03  0.00000000000E+00 0.  1.
<scales pt_clust_5="13000.00000" pt_clust_6="13000.00000" pt_clust_7="13000.00000" pt_clust_8="13000.00000" pt_clust_9="103.57668"></scales>
<clustering>
<clus scale="   80.153">  5  6 -1 -1</clus>
<clus scale="   96.838">  2  5  1 -1</clus>
<clus scale="  103.577">  1  9  2 -1</clus>
<clus scale="  117.346">  7  8 -1 -1</clus>
<clus scale="   96.838">  2  5  1 -1</clus>
</clustering>
</event>
<event>
 9    2  0.3402837E-005  0.1471084E+03  0.7546771E-02  0.1205289E+00
         -1   -1    0    0    0  501 -0.00000000000E+00  0.00000000000E+00  0.47498759841E+02  0.47498759841E+02  0.00000000000E+00 0.  1.
          2   -1    0    0  502    0  0.00000000000E+00 -0.00000000000E+00 -0.88232043808E+03  0.88232043808E+03  0.00000000000E+00 0. -1.
         23    2    1    2    0    0  0.84361627889E+02 -0.11062304965E+03 -0.21001760590E+03  0.26667353112E+03  0.87481621145E+02 0.  0.
         24    2    1    2    0    0 -0.62329349183E+02  0.93878257206E+02 -0.61965881293E+03  0.63499814340E+03  0.80916764267E+02 0.  0.
        -13    1    4    4    0    0 -0.34844415530E+02  0.22189077247E+02 -0.81309601608E+02  0.91201643386E+02  0.00000000000E+00 0.  1.
         14    1    4    4    0    0 -0.27484933653E+02  0.71689179960E+02 -0.53834921132E+03  0.54379650001E+03  0.00000000000E+00 0. -1.
        -13    1    3    3    0    0 -0.23492126167E+01 -0.60988947830E+02 -0.10687151448E+03  0.12307189429E+03  0.00000000000E+00 0. -1.
         13    1    3    3    0    0  0.86710840505E+02 -0.49634101823E+02 -0.10314609142E+03  0.14360163683E+03  0.00000000000E+00 0.  1.
         21    1    1    2  502  501 -0.22032278706E+02  0.16744792446E+02 -0.51452594093E+01  0.28147523398E+02  0.00000000000E+00 0. -1.
<scales pt_clust_5="13000.00000" pt_clust_6="13000.00000" pt_clust_7="13000.00000" pt_clust_8="13000.00000" pt_clust_9="27.67326"></scales>
<clustering>
<clus scale="   27.673">  1  9  2 -1</clus>
<clus scale="   80.917">  5  6 -1 -1</clus>
<clus scale="   87.482">  7  8 -1 -1</clus>
<clus scale="  143.302">  2  5  1 -1</clus>
<clus scale="  143.302">  2  5  1 -1</clus>
</clustering>
</event>
<event>
 9    2  0.3402837E-005  0.1092865E+03  0.7546771E-02  0.1262010E+00
          2   -1    0    0  502    0  0.00000000000E+00  0.00000000000E+00  0.22177860318E+03  0.22177860318E+03  0.00000000000E+00 0. -1.
         -1   -1    0    0    0  501 -0.00000000000E+00 -0.00000000000E+00 -0.19046173933E+03  0.19046173933E+03  0.00000000000E+00 0.  1.
         23    2    1    2    0    0  0.49593699466E+02  0.75500022342E+02 -0.92240567280E+02  0.15735245825E+03  0.89953796271E+02 0.  0.
         24    2    1    2    0    0 -0.10557884183E+02 -0.58260785535E+02  0.16402090950E+03  0.19608074828E+03  0.89660543397E+02 0.  0.
        -13    1    4    4    0    0 -0.18610870390E+02 -0.18810958495E+02 -0.73954852237E+00  0.26471939637E+02  0.00000000000E+00 0.  1.
         14    1    4    4    0    0  0.80529862066E+01 -0.39449827040E+02  0.16476045803E+03  0.16960880864E+03  0.00000000000E+00 0. -1.
        -13    1    3    3    0    0  0.18359625700E+02  0.44419586385E+02 -0.10151971503E+03  0.11232287412E+03  0.00000000000E+00 0.  1.
         13    1    3    3    0    0  0.31234073766E+02  0.31080435957E+02  0.92791477544E+01  0.45029584124E+02  0.00000000000E+00 0. -1.
         21    1    1    2  502  501 -0.39035815283E+02 -0.17239236807E+02 -0.40463478372E+02  0.58807135983E+02  0.00000000000E+00 0. -1.
<scales pt_clust_5="13000.00000" pt_clust_6="13000.00000" pt_clust_7="13000.00000" pt_clust_8="13000.00000" pt_clust_9="42.67301"></scales>
<clustering>
<clus scale="   42.673">  2  9  1 -1</clus>
<clus scale="   89.661">  5  6 -1 -1</clus>
<clus scale="   89.954">  7  8 -1 -1</clus>
<clus scale="  109.045">  1  5  2 -1</clus>
<clus scale="  109.045">  1  5  2 -1</clus>
</clustering>
</event>
<event>
 9    2  0.3402837E-005  0.9442780E+02  0.7546771E-02  0.1299470E+00
         -3   -1    0    0    0  501 -0.00000000000E+00  0.00000000000E+00  0.80963426035E+02  0.80963426035E+02  0.00000000000E+00 0.  1.
          4   -1    0    0  502    0  0.00000000000E+00 -0.00000000000E+00 -0.19330904222E+03  0.19330904222E+03  0.00000000000E+00 0. -1.
         23    2    1    2    0    0 -0.33401652186E+02 -0.77676040898E+01 -0.53561429153E+01  0.97713890207E+02  0.91341721193E+02 0.  0.
         24    2    1    2    0    0  0.10790862167E+02  0.20938296557E+02 -0.12119242790E+03  0.14678545450E+03  0.79394647836E+02 0.  0.
        -13    1    4    4    0    0  0.10752509572E+02  0.50946747197E+02 -0.67173116160E+02  0.84990676234E+02  0.00000000000E+00 0.  1.
         14    1    4    4    0    0  0.38352595188E-01 -0.30008450641E+02 -0.54019311738E+02  0.61794778270E+02  0.00000000000E+00 0. -1.
        -13    1    3    3    0    0 -0.28528523196E+02 -0.34897038687E+02 -0.35124737322E+02  0.57143915834E+02  0.00000000000E+00 0. -1.
         13    1    3    3    0    0 -0.48731289898E+01  0.27129434597E+02  0.29768594407E+02  0.40569974373E+02  0.00000000000E+00 0.  1.
         21    1    1    2  502  501  0.22610790019E+02 -0.13170692467E+02  0.14202954630E+02  0.29773123543E+02  0.00000000000E+00 0.  1.
<scales pt_clust_5="13000.00000" pt_clust_6="13000.00000" pt_clust_7="13000.00000" pt_clust_8="13000.00000" pt_clust_9="26.16706"></scales>
<clustering>
<clus scale="   26.167">  1  9  2 -1</clus>
<clus scale="   79.395">  5  6 -1 -1</clus>
<clus scale="   82.927">  2  5  1 -1</clus>
<clus scale="   91.342">  7  8 -1 -1</clus>
<clus scale="   82.927">  2  5  1 -1</clus>
</clustering>
</event>
<event>
 9    2  0.3402837E-005  0.1637633E+03  0.7546771E-02  0.1185137E+00
          2   -1    0    0  502    0  0.00000000000E+00  0.00000000000E+00  0.10260946078E+04  0.10260946078E+04  0.00000000000E+00 0. -1.
         -1   -1    0    0    0  501 -0.00000000000E+00 -0.00000000000E+00 -0.39481357297E+02  0.39481357297E+02  0.00000000000E+00 0.  1.
         24    2    1    2    0    0  0.13426093628E+03  0.19003303274E+01  0.21016320979E+03  0.26249820391E+03  0.81897020954E+02 0.  0.
         23    2    1    2    0    0 -0.15322582032E+03 -0.21473886014E+02  0.69328432503E+03  0.71556017910E+03  0.86278240515E+02 0.  0.
        -13    1    3    3    0    0  0.13505632958E+03  0.22117082303E+02  0.17856139326E+03  0.22497455112E+03  0.00000000000E+00 0.  1.
         14    1    3    3    0    0 -0.79539329494E+00 -0.20216751976E+02  0.31601816525E+02  0.37523652789E+02  0.00000000000E+00 0. -1.
        -11    1    4    4    0    0 -0.22737080064E+02 -0.14848554185E+01  0.22910433288E+02  0.32312034274E+02  0.00000000000E+00 0.  1.
         11    1    4    4    0    0 -0.13048874026E+03 -0.19989030595E+02  0.67037389174E+03  0.68324814482E+03  0.00000000000E+00 0. -1.
         21    1    1    2  502  501  0.18964884041E+02  0.19573555687E+02  0.83165715664E+02  0.87517582067E+02  0.00000000000E+00 0.  1.
<scales pt_clust_5="13000.00000" pt_clust_6="13000.00000" pt_clust_7="13000.00000" pt_clust_8="13000.00000" pt_clust_9="27.25419"></scales>
<clustering>
<clus scale="   27.254">  1  9  2 -1</clus>
<clus scale="   81.897">  5  6 -1 -1</clus>
<clus scale="   86.278">  7  8 -1 -1</clus>
<clus scale="  161.498">  2  5  1 -1</clus>
<clus scale="   27.254">  1  5  2 -1</clus>
</clustering>
</event>
<event>
 9    2  0.3402837E-005  0.1215103E+03  0.7546771E-02  0.1243642E+00
         -1   -1    0    0    0  501 -0.00000000000E+00  0.00000000000E+00  0.10778874639E+03  0.10778874639E+03  0.00000000000E+00 0.  1.
          2   -1    0    0  502    0  0.00000000000E+00 -0.00000000000E+00 -0.17967728436E+03  0.17967728436E+03  0.00000000000E+00 0. -1.
         23    2    1    2    0    0 -0.40519648084E+02 -0.87591136668E+02 -0.33065678051E+02  0.13653761023E+03  0.90747621671E+02 0.  0.
         24    2    1    2    0    0  0.39290965114E+02  0.59086694478E+02 -0.52014385042E+02  0.11949548840E+03  0.80861969381E+02 0.  0.
        -13    1    4    4    0    0  0.19112871038E+02 -0.86491931886E+01  0.11973543533E+02  0.24155250503E+02  0.00000000000E+00 0.  1.
         14    1    4    4    0    0  0.20178094076E+02  0.67735887667E+02 -0.63987928575E+02  0.95340237895E+02  0.00000000000E+00 0. -1.
        -11    1    3    3    0    0 -0.62821854650E+02 -0.45913905723E+02  0.17486408436E+01  0.77831419781E+02  0.00000000000E+00 0.  1.
         11    1    3    3    0    0  0.22302206566E+02 -0.41677230945E+02 -0.34814318895E+02  0.58706190450E+02  0.00000000000E+00 0. -1.
         21    1    1    2  502  501  0.12286829695E+01  0.28504442190E+02  0.13191525128E+02  0.31432932119E+02  0.00000000000E+00 0. -1.
<scales pt_clust_5="13000.00000" pt_clust_6="13000.00000" pt_clust_7="13000.00000" pt_clust_8="13000.00000" pt_clust_9="28.53091"></scales>
<clustering>
<clus scale="   28.531">  1  9  2 -1</clus>
<clus scale="   80.862">  5  6 -1 -1</clus>
<clus scale="   90.748">  7  8 -1 -1</clus>
<clus scale="  114.317">  2  5  1 -1</clus>
<clus scale="  114.317">  2  5  1 -1</clus>
</clustering>
</event>
<event>
 9    2  0.3402837E-005  0.1334012E+03  0.7546771E-02  0.1229790E+00
          2   -1    0    0  502    0  0.00000000000E+00  0.00000000000E+00  0.69666023928E+03  0.69666023928E+03  0.00000000000E+00 0. -1.
         -1   -1    0    0    0  501 -0.00000000000E+00 -0.00000000000E+00 -0.18419768093E+03  0.18419768093E+03  0.00000000000E+00 0.  1.
         23    2    1    2    0    0  0.52270452723E+02 -0.10639603395E+03 -0.51412108793E+02  0.15915248247E+03  0.92919273986E+02 0.  0.
         24    2    1    2    0    0 -0.28341698357E+02  0.90342712036E+02  0.63492309338E+03  0.64503619161E+03  0.63081665216E+02 0.  0.
        -11    1    4    4    0    0 -0.38650095810E+02  0.21639254740E+02  0.25025025435E+03  0.25414027043E+03  0.00000000000E+00 0.  1.
         12    1    4    4    0    0  0.10308397452E+02  0.68703457296E+02  0.38467283903E+03  0.39089592117E+03  0.00000000000E+00 0. -1.
        -11    1    3    3    0    0  0.68208617057E+02 -0.90757185455E+02 -0.67086679900E+02  0.13187078817E+03  0.00000000000E+00 0.  1.
         11    1    3    3    0    0 -0.15938164334E+02 -0.15638848499E+02  0.15674571107E+02  0.27281694304E+02  0.00000000000E+00 0. -1.
         21    1    1    2  502  501 -0.23928754366E+02  0.16053321917E+02 -0.71048426242E+02  0.76669246126E+02  0.00000000000E+00 0.  1.
<scales pt_clust_5="13000.00000" pt_clust_6="13000.00000" pt_clust_7="13000.00000" pt_clust_8="13000.00000" pt_clust_9="28.81483"></scales>
<clustering>
<clus scale="   28.815">  2  9  1 -1</clus>
<clus scale="   63.082">  5  6 -1 -1</clus>
<clus scale="   92.919">  7  8 -1 -1</clus>
<clus scale="  114.635">  1  5  2 -1</clus>
<clus scale="  114.635">  1  5  2 -1</clus>
</clustering>
</event>
<event>
 9    2  0.3402837E-005  0.9430822E+02  0.7546771E-02  0.1296327E+00
         -1   -1    0    0    0  501 -0.00000000000E+00  0.00000000000E+00  0.26570670830E+03  0.26570670830E+03  0.00000000000E+00 0.  1.
          2   -1    0    0  502    0  0.00000000000E+00 -0.00000000000E+00 -0.47562170416E+03  0.47562170416E+03  0.00000000000E+00 0. -1.
         23    2    1    2    0    0 -0.18085580060E+02  0.71795742213E+02  0.18275636316E+03  0.21584633859E+03  0.87795425865E+02 0.  0.
         24    2    1    2    0    0 -0.54009546874E+00 -0.33636412496E+02 -0.44754451536E+03  0.45609826077E+03  0.81227029356E+02 0.  0.
        -11    1    4    4    0    0  0.37907570149E+02 -0.30686445687E+02 -0.22348476625E+03  0.22874457932E+03  0.00000000000E+00 0.  1.
         12    1    4    4    0    0 -0.38447665618E+02 -0.29499668092E+01 -0.22405974911E+03  0.22735368145E+03  0.00000000000E+00 0. -1.
        -11    1    3    3    0    0 -0.40085126055E+02  0.25373490735E+02  0.14365820500E+03  0.15128883378E+03  0.00000000000E+00 0.  1.
         11    1    3    3    0    0  0.21999545995E+02  0.46422251478E+02  0.39098158161E+02  0.64557504814E+02  0.00000000000E+00 0. -1.
         21    1    1    2  502  501  0.18625675528E+02 -0.38159329716E+02  0.54873156343E+02  0.69383813101E+02  0.00000000000E+00 0.  1.
<scales pt_clust_5="13000.00000" pt_clust_6="13000.00000" pt_clust_7="13000.00000" pt_clust_8="13000.00000" pt_clust_9="42.46234"></scales>
<clustering>
<clus scale="   42.462">  1  9  2 -1</clus>
<clus scale="   81.227">  5  6 -1 -1</clus>
<clus scale="   87.795">  7  8 -1 -1</clus>
<clus scale="   88.226">  2  5  1 -1</clus>
<clus scale="   88.226">  2  5  1 -1</clus>
</clustering>
</event>
<event>
 9    2  0.3402837E-005  0.1300614E+03  0.7546771E-02  0.1229809E+00
          2   -1    0    0  502    0  0.00000000000E+00  0.00000000000E+00  0.22990028950E+03  0.22990028950E+03  0.00000000000E+00 0. -1.
         -1   -1    0    0    0  501 -0.00000000000E+00 -0.00000000000E+00 -0.15920839577E+03  0.15920839577E+03  0.00000000000E+00 0.  1.
         23    2    1    2    0    0 -0.58664674567E+02 -0.86513249311E+02 -0.15022471568E+02  0.13905319005E+03  0.90465621436E+02 0.  0.
         24    2    1    2    0    0  0.64328254152E+02  0.63880805641E+02  0.14330783603E+03  0.18791604310E+03  0.80971734435E+02 0.  0.
        -13    1    4    4    0    0  0.32402600998E+02  0.13445974735E+02  0.27265317697E+01  0.35187451791E+02  0.00000000000E+00 0.  1.
         14    1    4    4    0    0  0.31925653154E+02  0.50434830906E+02  0.14058130426E+03  0.15272859131E+03  0.00000000000E+00 0. -1.
        -11    1    3    3    0    0 -0.82331789593E+02 -0.66674206504E+02 -0.19876489601E+02  0.10779168906E+03  0.00000000000E+00 0.  1.
         11    1    3    3    0    0  0.23667115026E+02 -0.19839042806E+02  0.48540180324E+01  0.31261500991E+02  0.00000000000E+00 0. -1.
         21    1    1    2  502  501 -0.56635795859E+01  0.22632443670E+02 -0.57593470729E+02  0.62139452128E+02  0.00000000000E+00 0. -1.
<scales pt_clust_5="13000.00000" pt_clust_6="13000.00000" pt_clust_7="13000.00000" pt_clust_8="13000.00000" pt_clust_9="23.33032"></scales>
<clustering>
<clus scale="   23.330">  2  9  1 -1</clus>
<clus scale="   80.972">  5  6 -1 -1</clus>
<clus scale="   90.466">  7  8 -1 -1</clus>
<clus scale="  123.646">  1  5  2 -1</clus>
<clus scale="  123.646">  1  5  2 -1</clus>
</clustering>
</event>
<event>
 9    2  0.3402837E-005  0.9562161E+02  0.7546771E-02  0.1297852E+00
          2   -1    0    0  502    0  0.00000000000E+00  0.00000000000E+00  0.38707819649E+03  0.38707819649E+03  0.00000000000E+00 0. -1.
         -1   -1    0    0    0  501 -0.00000000000E+00 -0.00000000000E+00 -0.14951291045E+03  0.14951291045E+03  0.00000000000E+00 0.  1.
         24    2    1    2    0    0 -0.84115353739E+02 -0.30961256281E+02 -0.78164849982E+02  0.14271520680E+03  0.78891662124E+02 0.  0.
         23    2    1    2    0    0  0.18737212337E+02  0.40313654122E+01  0.30861477716E+03  0.32281150169E+03  0.92719199248E+02 0.  0.
        -13    1    3    3    0    0 -0.87764635221E+02 -0.48675776323E+02 -0.59246940616E+02  0.11654253459E+03  0.00000000000E+00 0.  1.
         14    1    3    3    0    0  0.36492814820E+01  0.17714520041E+02 -0.18917909366E+02  0.26172672206E+02  0.00000000000E+00 0. -1.
        -11    1    4    4    0    0  0.24984839146E+02 -0.41333681184E+02  0.17631813895E+03  0.18281357036E+03  0.00000000000E+00 0. -1.
         11    1    4    4    0    0 -0.62476268089E+01  0.45365046596E+02  0.13229663822E+03  0.13999793133E+03  0.00000000000E+00 0.  1.
         21    1    1    2  502  501  0.65378141402E+02  0.26929890869E+02  0.71153588639E+01  0.71064398451E+02  0.00000000000E+00 0. -1.
<scales pt_clust_5="13000.00000" pt_clust_6="13000.00000" pt_clust_7="13000.00000" pt_clust_8="13000.00000" pt_clust_9="70.70729"></scales>
<clustering>
<clus scale="   70.707">  2  9  1 -1</clus>
<clus scale="   78.892">  5  6 -1 -1</clus>
<clus scale="   82.283">  2  5  1 -1</clus>
<clus scale="   92.719">  7  8 -1 -1</clus>
<clus scale="   95.622">  1  5  2 -1</clus>
</clustering>
</event>
<event>
 9    2  0.3402837E-005  0.1635194E+03  0.7546771E-02  0.1187492E+00
          2   -1    0    0  502    0  0.00000000000E+00  0.00000000000E+00  0.14842356234E+04  0.14842356234E+04  0.00000000000E+00 0. -1.
         -1   -1    0    0    0  501 -0.00000000000E+00 -0.00000000000E+00 -0.32831263072E+02  0.32831263072E+02  0.00000000000E+00 0.  1.
         23    2    1    2    0    0 -0.88090715246E+02 -0.46414774265E+01  0.18261298355E+03  0.22264015604E+03  0.91867403871E+02 0.  0.
         24    2    1    2    0    0  0.14842198421E+03 -0.28370779657E+02  0.10898032339E+04  0.11026809966E+04  0.73486769092E+02 0.  0.
        -13    1    4    4    0    0  0.64522242432E+02 -0.42595615217E+02  0.37926950608E+03  0.38706958606E+03  0.00000000000E+00 0.  1.
         14    1    4    4    0    0  0.83899741783E+02  0.14224835560E+02  0.71053372779E+03  0.71561141058E+03  0.00000000000E+00 0. -1.
        -11    1    3    3    0    0 -0.10529151548E+03  0.85511566029E+01  0.14921288966E+03  0.18282207731E+03  0.00000000000E+00 0.  1.
         11    1    3    3    0    0  0.17200800238E+02 -0.13192634029E+02  0.33400093893E+02  0.39818078727E+02  0.00000000000E+00 0. -1.
         21    1    1    2  502  501 -0.60331268968E+02  0.33012257083E+02  0.17898814292E+03  0.19174573383E+03  0.00000000000E+00 0.  1.
<scales pt_clust_5="13000.00000" pt_clust_6="13000.00000" pt_clust_7="13000.00000" pt_clust_8="13000.00000" pt_clust_9="68.77260"></scales>
<clustering>
<clus scale="   68.773">  2  9  1 -1</clus>
<clus scale="   73.487">  5  6 -1 -1</clus>
<clus scale="   91.867">  7  8 -1 -1</clus>
<clus scale="  153.946">  1  5  2 -1</clus>
<clus scale="  153.946">  1  5  2 -1</clus>
</clustering>
</event>
<event>
 9    2  0.3402837E-005  0.1017110E+03  0.7546771E-02  0.1279791E+00
          2   -1    0    0  502    0  0.00000000000E+00  0.00000000000E+00  0.38388777820E+03  0.38388777820E+03  0.00000000000E+00 0. -1.
         -1   -1    0    0    0  501 -0.00000000000E+00 -0.00000000000E+00 -0.40459653397E+03  0.40459653397E+03  0.00000000000E+00 0.  1.
         23    2    1    2    0    0  0.53757133237E+02 -0.28173086339E+02 -0.27076305484E+03  0.29115970029E+03  0.88191762865E+02 0.  0.
         24    2    1    2    0    0 -0.16902150959E+02  0.47904288771E+02  0.36373733589E+03  0.37619887997E+03  0.81487693431E+02 0.  0.
        -13    1    4    4    0    0 -0.15851179788E+02  0.43759183297E+02  0.80923870605E+02  0.93353087026E+02  0.00000000000E+00 0.  1.
         14    1    4    4    0    0 -0.10509711716E+01  0.41451054732E+01  0.28281346529E+03  0.28284579295E+03  0.00000000000E+00 0. -1.
        -13    1    3    3    0    0  0.48260623916E+02 -0.57650178096E+02 -0.21620832146E+03  0.22890755585E+03  0.00000000000E+00 0.  1.
         13    1    3    3    0    0  0.54965093209E+01  0.29477091758E+02 -0.54554733379E+02  0.62252144439E+02  0.00000000000E+00 0. -1.
         21    1    1    2  502  501 -0.36854982278E+02 -0.19731202432E+02 -0.11368303682E+03  0.12112573191E+03  0.00000000000E+00 0.  1.
<scales pt_clust_5="13000.00000" pt_clust_6="13000.00000" pt_clust_7="13000.00000" pt_clust_8="13000.00000" pt_clust_9="41.80443"></scales>
<clustering>
<clus scale="   41.804">  2  9  1 -1</clus>
<clus scale="   81.488">  5  6 -1 -1</clus>
<clus scale="   88.192">  7  8 -1 -1</clus>
<clus scale="   95.956">  1  5  2 -1</clus>
<clus scale="   95.956">  1  5  2 -1</clus>
</clustering>
</event>
<event>
 9    2  0.3402837E-005  0.9383849E+02  0.7546771E-02  0.1298590E+00
          2   -1    0    0  502    0  0.00000000000E+00  0.00000000000E+00  0.20709922123E+03  0.20709922123E+03  0.00000000000E+00 0. -1.
         -1   -1    0    0    0  501 -0.00000000000E+00 -0.00000000000E+00 -0.13028266440E+03  0.13028266440E+03  0.00000000000E+00 0.  1.
         24    2    1    2    0    0  0.16863997535E+02  0.78156092049E+01 -0.63563978404E+02  0.10448211808E+03  0.80812471111E+02 0.  0.
         23    2    1    2    0    0  0.31750091370E+02 -0.16147099273E+02  0.15419953713E+03  0.18167762214E+03  0.89221432502E+02 0.  0.
        -13    1    3    3    0    0 -0.13856223520E+02  0.22750735548E+02 -0.65048545056E+02  0.70291565014E+02  0.00000000000E+00 0.  1.
         14    1    3    3    0    0  0.30720221055E+02 -0.14935126344E+02  0.14845666518E+01  0.34190553062E+02  0.00000000000E+00 0. -1.
        -13    1    4    4    0    0 -0.60003479114E+00  0.23480486854E+02  0.50848611048E+01  0.24032251603E+02  0.00000000000E+00 0.  1.
         13    1    4    4    0    0  0.32350126161E+02 -0.39627586127E+02  0.14911467603E+03  0.15764537054E+03  0.00000000000E+00 0. -1.
         21    1    1    2  502  501 -0.48614088905E+02  0.83314900680E+01 -0.13819001904E+02  0.51222145411E+02  0.00000000000E+00 0. -1.
<scales pt_clust_5="13000.00000" pt_clust_6="13000.00000" pt_clust_7="13000.00000" pt_clust_8="13000.00000" pt_clust_9="49.32285"></scales>
<clustering>
<clus scale="   49.323">  2  9  1 -1</clus>
<clus scale="   80.812">  5  6 -1 -1</clus>
<clus scale="   85.883">  2  5  1 -1</clus>
<clus scale="   89.221">  7  8 -1 -1</clus>
<clus scale="   93.838">  1  5  2 -1</clus>
</clustering>
</event>
<event>
 9    2  0.3402837E-005  0.1163212E+03  0.7546771E-02  0.1253013E+00
         -1   -1    0    0    0  501 -0.00000000000E+00  0.00000000000E+00  0.22837255524E+03  0.22837255524E+03  0.00000000000E+00 0.  1.
          2   -1    0    0  502    0  0.00000000000E+00 -0.00000000000E+00 -0.11154416973E+03  0.11154416973E+03  0.00000000000E+00 0. -1.
         23    2    1    2    0    0  0.41878993877E+02 -0.14225034168E+02  0.12589110921E+03  0.16237167769E+03  0.92519125667E+02 0.  0.
         24    2    1    2    0    0 -0.57858119724E+02  0.52819957394E+02 -0.45539897164E+02  0.12208799412E+03  0.81817395193E+02 0.  0.
        -13    1    4    4    0    0 -0.10728853796E+02 -0.22198280357E+02 -0.88095648030E+01  0.26181680363E+02  0.00000000000E+00 0.  1.
         14    1    4    4    0    0 -0.47129265928E+02  0.75018237752E+02 -0.36730332361E+02  0.95906313752E+02  0.00000000000E+00 0. -1.
        -13    1    3    3    0    0  0.65099379876E+02 -0.34962294609E+01  0.11930970283E+03  0.13595939861E+03  0.00000000000E+00 0.  1.
         13    1    3    3    0    0 -0.23220385999E+02 -0.10728804708E+02  0.65814063725E+01  0.26412279080E+02  0.00000000000E+00 0. -1.
         21    1    1    2  502  501  0.15979125847E+02 -0.38594923226E+02  0.36477173469E+02  0.55457053167E+02  0.00000000000E+00 0.  1.
<scales pt_clust_5="13000.00000" pt_clust_6="13000.00000" pt_clust_7="13000.00000" pt_clust_8="13000.00000" pt_clust_9="41.77201"></scales>
<clustering>
<clus scale="   41.772">  1  9  2 -1</clus>
<clus scale="   81.817">  5  6 -1 -1</clus>
<clus scale="   92.519">  7  8 -1 -1</clus>
<clus scale="  108.004">  2  5  1 -1</clus>
<clus scale="  108.004">  2  5  1 -1</clus>
</clustering>
</event>
<event>
 9    2  0.3402837E-005  0.1161725E+03  0.7546771E-02  0.1252846E+00
         -1   -1    0    0    0  501 -0.00000000000E+00  0.00000000000E+00  0.13287677143E+03  0.13287677143E+03  0.00000000000E+00 0.  1.
          2   -1    0    0  502    0  0.00000000000E+00 -0.00000000000E+00 -0.20296191129E+03  0.20296191129E+03  0.00000000000E+00 0. -1.
         24    2    1    2    0    0 -0.55599141601E+02 -0.65933794593E+02 -0.12250936722E+02  0.11857831196E+03  0.80449989437E+02 0.  0.
         23    2    1    2    0    0  0.30576896351E+02  0.60830965450E+02 -0.11092283678E+03  0.15834895723E+03  0.90195141714E+02 0.  0.
        -11    1    3    3    0    0  0.15540561037E+02 -0.35341281438E+02  0.58614035224E+01  0.39049600027E+02  0.00000000000E+00 0.  1.
         12    1    3    3    0    0 -0.71139702638E+02 -0.30592513155E+02 -0.18112340244E+02  0.79528711932E+02  0.00000000000E+00 0. -1.
        -11    1    4    4    0    0  0.40446514356E+02  0.14014742852E+02 -0.62501066498E+01  0.43259650644E+02  0.00000000000E+00 0.  1.
         11    1    4    4    0    0 -0.98696180045E+01  0.46816222598E+02 -0.10467273013E+03  0.11508930659E+03  0.00000000000E+00 0. -1.
         21    1    1    2  502  501  0.25022245250E+02  0.51028291429E+01  0.53088633636E+02  0.58911413528E+02  0.00000000000E+00 0.  1.
<scales pt_clust_5="13000.00000" pt_clust_6="13000.00000" pt_clust_7="13000.00000" pt_clust_8="13000.00000" pt_clust_9="25.53726"></scales>
<clustering>
<clus scale="   25.537">  1  9  2 -1</clus>
<clus scale="   80.450">  5  6 -1 -1</clus>
<clus scale="   90.195">  7  8 -1 -1</clus>
<clus scale="  108.780">  1  5  2 -1</clus>
<clus scale="  116.173">  2  5  1 -1</clus>
</clustering>
</event>
<event>
 9    2  0.5435247E-005  0.1038915E+03  0.7546771E-02  0.1275839E+00
          2   -1    0    0  502    0  0.00000000000E+00  0.00000000000E+00  0.41393146179E+03  0.41393146179E+03  0.00000000000E+00 0. -1.
         -1   -1    0    0    0  501 -0.00000000000E+00 -0.00000000000E+00 -0.23139083164E+03  0.23139083164E+03  0.00000000000E+00 0.  1.
         24    2    1    2    0    0  0.98259361267E+01  0.12139858067E+02 -0.19491921747E+03  0.21157394236E+03  0.80784321326E+02 0.  0.
         23    2    1    2    0    0 -0.47862400123E+02 -0.27579383481E+02  0.37849467121E+03  0.39268471267E+03  0.88834878817E+02 0.  0.
        -13    1    3    3    0    0  0.33772989852E+02 -0.16890743042E+02 -0.13996329655E+03  0.14496770821E+03  0.00000000000E+00 0.  1.
         14    1    3    3    0    0 -0.23947053726E+02  0.29030601108E+02 -0.54955920925E+02  0.66606234149E+02  0.00000000000E+00 0. -1.
        -13    1    4    4    0    0 -0.15008949328E+02  0.23721114848E+02  0.40703108567E+02  0.49443936904E+02  0.00000000000E+00 0.  1.
         13    1    4    4    0    0 -0.32853450795E+02 -0.51300498330E+02  0.33779156264E+03  0.34324077577E+03  0.00000000000E+00 0. -1.
         21    1    1    2  502  501  0.38036463996E+02  0.15439525414E+02 -0.10348235921E+01  0.41063638395E+02  0.00000000000E+00 0.  1.
<scales pt_clust_5="13000.00000" pt_clust_6="13000.00000" pt_clust_7="13000.00000" pt_clust_8="13000.00000" pt_clust_9="41.05060"></scales>
<clustering>
<clus scale="   41.051">  2  9  1 -1</clus>
<clus scale="   80.784">  5  6 -1 -1</clus>
<clus scale="   88.835">  7  8 -1 -1</clus>
<clus scale="   97.097">  2  5  1 -1</clus>
<clus scale="  103.891">  1  5  2 -1</clus>
</clustering>
</event>
<event>
 9    2  0.4640317E-005  0.1105960E+03  0.7546771E-02  0.1265418E+00
          2   -1    0    0  502    0  0.00000000000E+00  0.00000000000E+00  0.82864275536E+03  0.82864275536E+03  0.00000000000E+00 0. -1.
         -1   -1    0    0    0  501 -0.00000000000E+00 -0.00000000000E+00 -0.43408216324E+03  0.43408216324E+03  0.00000000000E+00 0.  1.
         23    2    1    2    0    0  0.13635379537E+02  0.55206513227E+02 -0.23509803365E+03  0.25965775186E+03  0.94431880190E+02 0.  0.
         24    2    1    2    0    0  0.17781335695E+02 -0.54869102634E+02  0.81204337196E+03  0.81799604666E+03  0.79851738181E+02 0.  0.
        -13    1    4    4    0    0  0.24194514584E+02  0.37311357685E+01  0.81994593741E+02  0.85571077549E+02  0.00000000000E+00 0.  1.
         14    1    4    4    0    0 -0.64131788890E+01 -0.58600238402E+02  0.73004877822E+03  0.73242496911E+03  0.00000000000E+00 0. -1.
        -13    1    3    3    0    0  0.49121908492E+02  0.19220228981E+02 -0.74415099945E+02  0.91213958339E+02  0.00000000000E+00 0. -1.
         13    1    3    3    0    0 -0.35486528955E+02  0.35986284246E+02 -0.16068293371E+03  0.16844379352E+03  0.00000000000E+00 0.  1.
         21    1    1    2  502  501 -0.31416715232E+02 -0.33741059362E+00 -0.18238474619E+03  0.18507112007E+03  0.00000000000E+00 0.  1.
<scales pt_clust_5="13000.00000" pt_clust_6="13000.00000" pt_clust_7="13000.00000" pt_clust_8="13000.00000" pt_clust_9="31.41853"></scales>
<clustering>
<clus scale="   31.419">  2  9  1 -1</clus>
<clus scale="   79.852">  5  6 -1 -1</clus>
<clus scale="   94.432">  7  8 -1 -1</clus>
<clus scale="   98.440">  1  5  2 -1</clus>
<clus scale="   98.440">  1  5  2 -1</clus>
</clustering>
</event>
<event>
 9    2  0.3402837E-005  0.1717779E+03  0.7546771E-02  0.1194786E+00
         -1   -1    0    0    0  501 -0.00000000000E+00  0.00000000000E+00  0.43470672225E+03  0.43470672225E+03  0.00000000000E+00 0.  1.
          2   -1    0    0  502    0  0.00000000000E+00 -0.00000000000E+00 -0.24717435658E+03  0.24717435658E+03  0.00000000000E+00 0. -1.
         23    2    1    2    0    0  0.65783547660E+02  0.71225366943E+01  0.27377471798E+03  0.29620276595E+03  0.91680296035E+02 0.  0.
         24    2    1    2    0    0 -0.12618046478E+03 -0.13686151393E+03  0.25036563612E+02  0.20439679993E+03  0.80614134105E+02 0.  0.
        -13    1    4    4    0    0 -0.86211302027E+02 -0.12506750122E+03 -0.66464886791E+01  0.15204750663E+03  0.00000000000E+00 0.  1.
         14    1    4    4    0    0 -0.39969162750E+02 -0.11794012701E+02  0.31683052291E+02  0.52349293300E+02  0.00000000000E+00 0. -1.
        -11    1    3    3    0    0  0.57743766297E+02 -0.33534271343E+02  0.20804117286E+03  0.21849489584E+03  0.00000000000E+00 0.  1.
         11    1    3    3    0    0  0.80397813629E+01  0.40656808038E+02  0.65733545115E+02  0.77707870113E+02  0.00000000000E+00 0. -1.
         21    1    1    2  502  501  0.60396917117E+02  0.12973897723E+03 -0.11127891592E+03  0.18128151295E+03  0.00000000000E+00 0. -1.
<scales pt_clust_5="13000.00000" pt_clust_6="13000.00000" pt_clust_7="13000.00000" pt_clust_8="13000.00000" pt_clust_9="151.68725"></scales>
<clustering>
<clus scale="   80.614">  5  6 -1 -1</clus>
<clus scale="   91.680">  7  8 -1 -1</clus>
<clus scale="  113.064">  1  7  2 -1</clus>
<clus scale="  151.687">  2  9  1 -1</clus>
<clus scale="  151.687">  2  5  1 -1</clus>
</clustering>
</event>
<event>
 9    2  0.3402837E-005  0.1282690E+03  0.7546771E-02  0.1247035E+00
         -1   -1    0    0    0  501 -0.00000000000E+00  0.00000000000E+00  0.19673530844E+03  0.19673530844E+03  0.00000000000E+00 0.  1.
          2   -1    0    0  502    0  0.00000000000E+00 -0.00000000000E+00 -0.31486964665E+03  0.31486964665E+03  0.00000000000E+00 0. -1.
         23    2    1    2    0    0 -0.47159138902E+02 -0.28640918835E+02 -0.22491874596E+02  0.10977491869E+03  0.92197406351E+02 0.  0.
         24    2    1    2    0    0 -0.37181192180E+02 -0.20640918769E+02 -0.22332618111E+03  0.24106585295E+03  0.80185246209E+02 0.  0.
        -11    1    4    4    0    0 -0.55578298368E+02 -0.67877582624E+01 -0.91718197465E+02  0.10745812514E+03  0.00000000000E+00 0.  1.
         12    1    4    4    0    0  0.18397106188E+02 -0.13853160506E+02 -0.13160798365E+03  0.13360772781E+03  0.00000000000E+00 0. -1.
        -11    1    3    3    0    0 -0.43568487396E+02  0.19218953888E+02  0.13828790490E+02  0.49586457113E+02  0.00000000000E+00 0.  1.
         11    1    3    3    0    0 -0.35906515052E+01 -0.47859872723E+02 -0.36320665086E+02  0.60188461582E+02  0.00000000000E+00 0. -1.
         21    1    1    2  502  501  0.84340331082E+02  0.49281837604E+02  0.12768371750E+03  0.16076418344E+03  0.00000000000E+00 0.  1.
<scales pt_clust_5="13000.00000" pt_clust_6="13000.00000" pt_clust_7="13000.00000" pt_clust_8="13000.00000" pt_clust_9="89.17728"></scales>
<clustering>
<clus scale="   80.185">  5  6 -1 -1</clus>
<clus scale="   90.764">  2  5  1 -1</clus>
<clus scale="   89.177">  1  9  2 -1</clus>
<clus scale="   92.197">  7  8 -1 -1</clus>
<clus scale="   90.764">  2  5  1 -1</clus>
</clustering>
</event>
<event>
 9    2  0.3402837E-005  0.8846885E+02  0.7546771E-02  0.1312216E+00
         -1   -1    0    0    0  501 -0.00000000000E+00  0.00000000000E+00  0.12586167906E+02  0.12586167906E+02  0.00000000000E+00 0.  1.
          2   -1    0    0  502    0  0.00000000000E+00 -0.00000000000E+00 -0.10703078008E+04  0.10703078008E+04  0.00000000000E+00 0. -1.
         23    2    1    2    0    0 -0.15149122073E+02 -0.10789891598E+02 -0.21772521666E+03  0.23568130882E+03  0.88292081747E+02 0.  0.
         24    2    1    2    0    0 -0.59480385095E+01  0.39407040925E+01 -0.75991817774E+03  0.76411918340E+03  0.79696808359E+02 0.  0.
        -11    1    4    4    0    0  0.18870628704E+02  0.26390835229E+02 -0.15934384488E+03  0.16261315357E+03  0.00000000000E+00 0.  1.
         12    1    4    4    0    0 -0.24818667214E+02 -0.22450131137E+02 -0.60057433286E+03  0.60150602983E+03  0.00000000000E+00 0. -1.
        -11    1    3    3    0    0 -0.11951718623E+02  0.36894174662E+02 -0.65391089869E+02  0.76026431827E+02  0.00000000000E+00 0. -1.
         11    1    3    3    0    0 -0.31974034500E+01 -0.47684066260E+02 -0.15233412679E+03  0.15965487700E+03  0.00000000000E+00 0.  1.
         21    1    1    2  502  501  0.21097160582E+02  0.68491875055E+01 -0.80078238471E+02  0.83093476464E+02  0.00000000000E+00 0. -1.
<scales pt_clust_5="13000.00000" pt_clust_6="13000.00000" pt_clust_7="13000.00000" pt_clust_8="13000.00000" pt_clust_9="22.18111"></scales>
<clustering>
<clus scale="   22.181">  1  9  2 -1</clus>
<clus scale="   79.697">  5  6 -1 -1</clus>
<clus scale="   79.893">  2  5  1 -1</clus>
<clus scale="   88.292">  7  8 -1 -1</clus>
<clus scale="   79.893">  2  5  1 -1</clus>
</clustering>
</event>
<event>
 9    2  0.3402837E-005  0.1491257E+03  0.7546771E-02  0.1203647E+00
          2   -1    0    0  502    0  0.00000000000E+00  0.00000000000E+00  0.44069204894E+03  0.44069204894E+03  0.00000000000E+00 0. -1.
         -1   -1    0    0    0  501 -0.00000000000E+00 -0.00000000000E+00 -0.13801748055E+03  0.13801748055E+03  0.00000000000E+00 0.  1.
         23    2    1    2    0    0  0.16857367231E+03  0.39960935159E+02  0.18324160314E+02  0.19683882957E+03  0.91628547076E+02 0.  0.
         24    2    1    2    0    0 -0.10702272146E+03  0.23649504058E+02  0.25436451235E+03  0.28841503412E+03  0.80428631789E+02 0.  0.
        -11    1    4    4    0    0 -0.69736132147E+02  0.23937247129E+02  0.74835451552E+02  0.10505457980E+03  0.00000000000E+00 0.  1.
         12    1    4    4    0    0 -0.37286589317E+02 -0.28774307129E+00  0.17952906080E+03  0.18336045433E+03  0.00000000000E+00 0. -1.
        -13    1    3    3    0    0  0.11928090547E+03 -0.16733370727E+02  0.50978335525E+01  0.12055674188E+03  0.00000000000E+00 0. -1.
         13    1    3    3    0    0  0.49292766844E+02  0.56694305885E+02  0.13226326762E+02  0.76282087691E+02  0.00000000000E+00 0.  1.
         21    1    1    2  502  501 -0.61550950847E+02 -0.63610439217E+02  0.29985895732E+02  0.93455665802E+02  0.00000000000E+00 0. -1.
<scales pt_clust_5="13000.00000" pt_clust_6="13000.00000" pt_clust_7="13000.00000" pt_clust_8="13000.00000" pt_clust_9="88.51445"></scales>
<clustering>
<clus scale="   80.429">  5  6 -1 -1</clus>
<clus scale="   88.514">  2  9  1 -1</clus>
<clus scale="   91.629">  7  8 -1 -1</clus>
<clus scale="  142.518">  1  5  2 -1</clus>
<clus scale="  142.518">  1  5  2 -1</clus>
</clustering>
</event>
<event>
 9    2  0.3402837E-005  0.1603766E+03  0.7546771E-02  0.1197237E+00
         -1   -1    0    0    0  501 -0.00000000000E+00  0.00000000000E+00  0.41509603367E+02  0.41509603367E+02  0.00000000000E+00 0.  1.
          2   -1    0    0  502    0  0.00000000000E+00 -0.00000000000E+00 -0.17036133058E+04  0.17036133058E+04  0.00000000000E+00 0. -1.
         24    2    1    2    0    0  0.56665919246E+02  0.14717906116E+03 -0.10058131385E+04  0.10210468980E+04  0.77485456577E+02 0.  0.
         23    2    1    2    0    0  0.59998299924E+02 -0.67038015637E+02 -0.48141064328E+03  0.49909575897E+03  0.96158606589E+02 0.  0.
        -13    1    3    3    0    0  0.41755284636E+02  0.13225008012E+03 -0.65107410010E+03  0.66568090802E+03  0.00000000000E+00 0.  1.
         14    1    3    3    0    0  0.14910634611E+02  0.14928981043E+02 -0.35473903836E+03  0.35536598998E+03  0.00000000000E+00 0. -1.
        -11    1    4    4    0    0  0.66116634530E+02 -0.11733336542E+02 -0.35011645472E+03  0.35649770324E+03  0.00000000000E+00 0. -1.
         11    1    4    4    0    0 -0.61183346053E+01 -0.55304679096E+02 -0.13129418856E+03  0.14259805573E+03  0.00000000000E+00 0.  1.
         21    1    1    2  502  501 -0.11666421917E+03 -0.80141045527E+02 -0.17487992067E+03  0.22498025217E+03  0.00000000000E+00 0.  1.
<scales pt_clust_5="13000.00000" pt_clust_6="13000.00000" pt_clust_7="13000.00000" pt_clust_8="13000.00000" pt_clust_9="140.41600"></scales>
<clustering>
<clus scale="   77.485">  5  6 -1 -1</clus>
<clus scale="   96.159">  7  8 -1 -1</clus>
<clus scale="  131.683">  2  7  1 -1</clus>
<clus scale="  140.416">  1  9  2 -1</clus>
<clus scale="  131.683">  2  5  1 -1</clus>
</clustering>
</event>
<event>
 9    2  0.3402837E-005  0.9750533E+02  0.7546771E-02  0.1291332E+00
         -1   -1    0    0    0  501 -0.00000000000E+00  0.00000000000E+00  0.25600998754E+02  0.25600998754E+02  0.00000000000E+00 0.  1.
          2   -1    0    0  502    0  0.00000000000E+00 -0.00000000000E+00 -0.47337462481E+03  0.47337462481E+03  0.00000000000E+00 0. -1.
         24    2    1    2    0    0  0.29150630802E+02  0.28453381717E+02 -0.16132560968E+03  0.18490057649E+03  0.80640663703E+02 0.  0.
         23    2    1    2    0    0 -0.82205822135E+01 -0.30720100061E+02 -0.27165562918E+03  0.28834530427E+03  0.91295843861E+02 0.  0.
        -13    1    3    3    0    0 -0.16903110873E+02  0.13542662116E+02 -0.11788853937E+03  0.11986169767E+03  0.00000000000E+00 0.  1.
         14    1    3    3    0    0  0.46053741675E+02  0.14910719601E+02 -0.43437070309E+02  0.65038878821E+02  0.00000000000E+00 0. -1.
        -11    1    4    4    0    0  0.11857559931E+02 -0.52957056542E+02 -0.23407607965E+03  0.24028454513E+03  0.00000000000E+00 0. -1.
         11    1    4    4    0    0 -0.20078142144E+02  0.22236956481E+02 -0.37579549532E+02  0.48060759134E+02  0.00000000000E+00 0.  1.
         21    1    1    2  502  501 -0.20930048588E+02  0.22667183437E+01 -0.14792387203E+02  0.25729742811E+02  0.00000000000E+00 0.  1.
<scales pt_clust_5="13000.00000" pt_clust_6="13000.00000" pt_clust_7="13000.00000" pt_clust_8="13000.00000" pt_clust_9="21.05243"></scales>
<clustering>
<clus scale="   21.052">  1  9  2 -1</clus>
<clus scale="   80.641">  5  6 -1 -1</clus>
<clus scale="   87.609">  1  5  2 -1</clus>
<clus scale="   91.296">  7  8 -1 -1</clus>
<clus scale="   97.505">  2  5  1 -1</clus>
</clustering>
</event>
<event>
 9    2  0.3402837E-005  0.1133557E+03  0.7546771E-02  0.1258018E+00
          2   -1    0    0  502    0  0.00000000000E+00  0.00000000000E+00  0.23478650265E+03  0.23478650265E+03  0.00000000000E+00 0. -1.
         -1   -1    0    0    0  501 -0.00000000000E+00 -0.00000000000E+00 -0.12136197413E+03  0.12136197413E+03  0.00000000000E+00 0.  1.
         24    2    1    2    0    0 -0.56232779773E+02 -0.45625446668E+02  0.12609636935E+02  0.10875388777E+03  0.80153591663E+02 0.  0.
         23    2    1    2    0    0  0.73387282581E+02 -0.55225999735E+01  0.13906063900E+03  0.18126489192E+03  0.90016150607E+02 0.  0.
        -11    1    3    3    0    0 -0.59223176480E+02 -0.31613921080E+00 -0.63159425362E+01  0.59559849786E+02  0.00000000000E+00 0.  1.
         12    1    3    3    0    0  0.29903967069E+01 -0.45309307457E+02  0.18925579471E+02  0.49194037982E+02  0.00000000000E+00 0. -1.
        -13    1    4    4    0    0  0.31203917698E+02  0.24915548698E+02  0.86423825683E+01  0.40855352441E+02  0.00000000000E+00 0.  1.
         13    1    4    4    0    0  0.42183364883E+02 -0.30438148671E+02  0.13041825643E+03  0.14040953948E+03  0.00000000000E+00 0. -1.
         21    1    1    2  502  501 -0.17154502808E+02  0.51148046641E+02 -0.38245747410E+02  0.66129697087E+02  0.00000000000E+00 0.  1.
<scales pt_clust_5="13000.00000" pt_clust_6="13000.00000" pt_clust_7="13000.00000" pt_clust_8="13000.00000" pt_clust_9="53.94812"></scales>
<clustering>
<clus scale="   53.948">  2  9  1 -1</clus>
<clus scale="   80.154">  5  6 -1 -1</clus>
<clus scale="   90.016">  7  8 -1 -1</clus>
<clus scale="  105.694">  2  5  1 -1</clus>
<clus scale="  113.356">  1  5  2 -1</clus>
</clustering>
</event>
<event>
 9    2  0.3402837E-005  0.1213808E+03  0.7546771E-02  0.1243947E+00
         -1   -1    0    0    0  501 -0.00000000000E+00  0.00000000000E+00  0.18292432018E+02  0.18292432018E+02  0.00000000000E+00 0.  1.
          2   -1    0    0  502    0  0.00000000000E+00 -0.00000000000E+00 -0.13363915886E+04  0.13363915886E+04  0.00000000000E+00 0. -1.
         23    2    1    2    0    0  0.33156452085E+02  0.54986759722E+02 -0.22521138039E+03  0.25111865472E+03  0.90650531324E+02 0.  0.
         24    2    1    2    0    0 -0.55256384151E+02 -0.64819262767E+02 -0.10213330401E+04  0.10280328208E+04  0.80470472957E+02 0.  0.
        -13    1    4    4    0    0 -0.19091423328E+01 -0.53939309357E+02 -0.31377857033E+03  0.31838669118E+03  0.00000000000E+00 0.  1.
         14    1    4    4    0    0 -0.53347241818E+02 -0.10879953411E+02 -0.70755446974E+03  0.70964612959E+03  0.00000000000E+00 0. -1.
        -11    1    3    3    0    0  0.50622346104E+02  0.21356956061E+02 -0.58913075040E+02  0.80557382703E+02  0.00000000000E+00 0.  1.
         11    1    3    3    0    0 -0.17465894019E+02  0.33629803662E+02 -0.16629830535E+03  0.17056127202E+03  0.00000000000E+00 0. -1.
         21    1    1    2  502  501  0.22099932066E+02  0.98325030451E+01 -0.71554736146E+02  0.75532545160E+02  0.00000000000E+00 0.  1.
<scales pt_clust_5="13000.00000" pt_clust_6="13000.00000" pt_clust_7="13000.00000" pt_clust_8="13000.00000" pt_clust_9="24.18853"></scales>
<clustering>
<clus scale="   24.189">  1  9  2 -1</clus>
<clus scale="   80.470">  5  6 -1 -1</clus>
<clus scale="   90.651">  7  8 -1 -1</clus>
<clus scale="  113.979">  2  5  1 -1</clus>
<clus scale="  113.979">  2  5  1 -1</clus>
</clustering>
</event>
<event>
 9    2  0.3402837E-005  0.9292100E+02  0.7546771E-02  0.1301332E+00
         -1   -1    0    0    0  501 -0.00000000000E+00  0.00000000000E+00  0.24904521408E+03  0.24904521408E+03  0.00000000000E+00 0.  1.
          2   -1    0    0  502    0  0.00000000000E+00 -0.00000000000E+00 -0.74070735556E+02  0.74070735556E+02  0.00000000000E+00 0. -1.
         23    2    1    2    0    0  0.65806756339E+01 -0.25142803197E+02  0.16328987227E+03  0.18796471588E+03  0.89396231387E+02 0.  0.
         24    2    1    2    0    0 -0.22742195598E+02  0.13347921781E+02 -0.29460562273E+02  0.89399306492E+02  0.80180651003E+02 0.  0.
        -13    1    4    4    0    0 -0.52763338864E+02  0.44779626904E+01 -0.21063813059E+02  0.56988650611E+02  0.00000000000E+00 0.  1.
         14    1    4    4    0    0  0.30021143266E+02  0.88699590910E+01 -0.83967492143E+01  0.32410655881E+02  0.00000000000E+00 0. -1.
        -13    1    3    3    0    0 -0.40928510849E+02 -0.11413011108E+02  0.90325894760E+02  0.99820674647E+02  0.00000000000E+00 0.  1.
         13    1    3    3    0    0  0.47509186483E+02 -0.13729792089E+02  0.72963977508E+02  0.88144041233E+02  0.00000000000E+00 0. -1.
         21    1    1    2  502  501  0.16161519964E+02  0.11794881415E+02  0.41145168528E+02  0.45751927263E+02  0.00000000000E+00 0. -1.
<scales pt_clust_5="13000.00000" pt_clust_6="13000.00000" pt_clust_7="13000.00000" pt_clust_8="13000.00000" pt_clust_9="20.00785"></scales>
<clustering>
<clus scale="   20.008">  1  9  2 -1</clus>
<clus scale="   80.181">  5  6 -1 -1</clus>
<clus scale="   84.093">  2  5  1 -1</clus>
<clus scale="   89.396">  7  8 -1 -1</clus>
<clus scale="   84.093">  2  5  1 -1</clus>
</clustering>
</event>
<event>
 9    2  0.3402837E-005  0.9839504E+02  0.7546771E-02  0.1290765E+00
          4   -1    0    0  502    0  0.00000000000E+00  0.00000000000E+00  0.32415707248E+02  0.32415707248E+02  0.00000000000E+00 0. -1.
         -3   -1    0    0    0  501 -0.00000000000E+00 -0.00000000000E+00 -0.47251913403E+03  0.47251913403E+03  0.00000000000E+00 0.  1.
         23    2    1    2    0    0  0.81675108942E+01  0.84469460564E+01 -0.27146235498E+03  0.28670201436E+03  0.91477733551E+02 0.  0.
         24    2    1    2    0    0 -0.46575664786E+02  0.99492726771E+01 -0.87674979230E+02  0.12674995805E+03  0.78168851256E+02 0.  0.
        -13    1    4    4    0    0  0.21927499982E+02  0.62119259753E+01 -0.18901642742E+02  0.29608704432E+02  0.00000000000E+00 0.  1.
         14    1    4    4    0    0 -0.68503164768E+02  0.37373467018E+01 -0.68773336488E+02  0.97141253622E+02  0.00000000000E+00 0. -1.
        -13    1    3    3    0    0 -0.28391079347E+02 -0.16672829823E+02 -0.43998962771E+02  0.54954029568E+02  0.00000000000E+00 0. -1.
         13    1    3    3    0    0  0.36558590241E+02  0.25119775879E+02 -0.22746339221E+03  0.23174798479E+03  0.00000000000E+00 0.  1.
         21    1    1    2  502  501  0.38408153891E+02 -0.18396218734E+02 -0.80966092573E+02  0.91482868864E+02  0.00000000000E+00 0.  1.
<scales pt_clust_5="13000.00000" pt_clust_6="13000.00000" pt_clust_7="13000.00000" pt_clust_8="13000.00000" pt_clust_9="42.58647"></scales>
<clustering>
<clus scale="   42.586">  2  9  1 -1</clus>
<clus scale="   78.169">  5  6 -1 -1</clus>
<clus scale="   86.161">  1  5  2 -1</clus>
<clus scale="   91.478">  7  8 -1 -1</clus>
<clus scale="   86.161">  1  5  2 -1</clus>
</clustering>
</event>
<event>
 9    2  0.3402837E-005  0.9846852E+02  0.7546771E-02  0.1290582E+00
          2   -1    0    0  502    0  0.00000000000E+00  0.00000000000E+00  0.14949852465E+04  0.14949852465E+04  0.00000000000E+00 0. -1.
         -1   -1    0    0    0  501 -0.00000000000E+00 -0.00000000000E+00 -0.27920011188E+02  0.27920011188E+02  0.00000000000E+00 0.  1.
         23    2    1    2    0    0 -0.27291963141E+02 -0.13441809273E+02  0.76860744439E+02  0.12482716300E+03  0.93534555644E+02 0.  0.
         24    2    1    2    0    0  0.16149895409E+02  0.44201293458E+02  0.12723328719E+04  0.12757506239E+04  0.80586252426E+02 0.  0.
        -13    1    4    4    0    0 -0.15771018228E+02  0.13443653999E+02  0.81514820558E+02  0.84107804748E+02  0.00000000000E+00 0.  1.
         14    1    4    4    0    0  0.31920913637E+02  0.30757639459E+02  0.11908180513E+04  0.11916428192E+04  0.00000000000E+00 0. -1.
        -13    1    3    3    0    0 -0.38718758427E+02  0.27383621728E+02  0.65628899067E+02  0.80970101802E+02  0.00000000000E+00 0. -1.
         13    1    3    3    0    0  0.11426795286E+02 -0.40825431000E+02  0.11231845372E+02  0.43857061203E+02  0.00000000000E+00 0.  1.
         21    1    1    2  502  501  0.11142067732E+02 -0.30759484185E+02  0.11787161894E+03  0.12232747072E+03  0.00000000000E+00 0.  1.
<scales pt_clust_5="13000.00000" pt_clust_6="13000.00000" pt_clust_7="13000.00000" pt_clust_8="13000.00000" pt_clust_9="32.71531"></scales>
<clustering>
<clus scale="   32.715">  1  9  2 -1</clus>
<clus scale="   80.586">  5  6 -1 -1</clus>
<clus scale="   86.264">  1  5  2 -1</clus>
<clus scale="   93.535">  7  8 -1 -1</clus>
<clus scale="   32.715">  1  5  2 -1</clus>
</clustering>
</event>
<event>
 9    2  0.3402837E-005  0.1775850E+03  0.7546771E-02  0.1171771E+00
         -1   -1    0    0    0  501 -0.00000000000E+00  0.00000000000E+00  0.95802125443E+02  0.95802125443E+02  0.00000000000E+00 0.  1.
          2   -1    0    0  502    0  0.00000000000E+00 -0.00000000000E+00 -0.88511045188E+03  0.88511045188E+03  0.00000000000E+00 0. -1.
         23    2    1    2    0    0 -0.37952626648E+02 -0.16585591949E+03 -0.63670016873E+02  0.20378961573E+03  0.92345809493E+02 0.  0.
         24    2    1    2    0    0  0.40980796706E+02  0.14344677468E+03 -0.73386187423E+03  0.75306123679E+03  0.79319436750E+02 0.  0.
        -11    1    4    4    0    0  0.24329007518E+01  0.52243530122E+02 -0.11507336447E+03  0.12640088867E+03  0.00000000000E+00 0.  1.
         12    1    4    4    0    0  0.38547895954E+02  0.91203244558E+02 -0.61878850976E+03  0.62666034812E+03  0.00000000000E+00 0. -1.
        -13    1    3    3    0    0  0.19017319626E+02 -0.19600448090E+02  0.11653368094E+02  0.29692372741E+02  0.00000000000E+00 0. -1.
         13    1    3    3    0    0 -0.56969946274E+02 -0.14625547140E+03 -0.75323384967E+02  0.17409724299E+03  0.00000000000E+00 0.  1.
         21    1    1    2  502  501 -0.30281700586E+01  0.22409144812E+02  0.82235646572E+01  0.24061724809E+02  0.00000000000E+00 0. -1.
<scales pt_clust_5="13000.00000" pt_clust_6="13000.00000" pt_clust_7="13000.00000" pt_clust_8="13000.00000" pt_clust_9="22.61282"></scales>
<clustering>
<clus scale="   22.613">  1  9  2 -1</clus>
<clus scale="   79.319">  5  6 -1 -1</clus>
<clus scale="   92.346">  7  8 -1 -1</clus>
<clus scale="  171.173">  2  5  1 -1</clus>
<clus scale="  171.173">  2  5  1 -1</clus>
</clustering>
</event>
<event>
 9    2  0.3402837E-005  0.1919249E+03  0.7546771E-02  0.1157891E+00
         -1   -1    0    0    0  501 -0.00000000000E+00  0.00000000000E+00  0.66043096755E+02  0.66043096755E+02  0.00000000000E+00 0.  1.
          2   -1    0    0  502    0  0.00000000000E+00 -0.00000000000E+00 -0.10429749248E+04  0.10429749248E+04  0.00000000000E+00 0. -1.
         24    2    1    2    0    0 -0.96729685918E+02 -0.12451689707E+03 -0.29222117923E+03  0.34174744546E+03  0.80851772348E+02 0.  0.
         23    2    1    2    0    0  0.16490605340E+03  0.77888080344E+02 -0.64313257785E+03  0.67479896091E+03  0.92051971460E+02 0.  0.
        -13    1    3    3    0    0 -0.33367927281E+02 -0.13492501560E+02 -0.20409526152E+02  0.41376502113E+02  0.00000000000E+00 0.  1.
         14    1    3    3    0    0 -0.63361758637E+02 -0.11102439552E+03 -0.27181165308E+03  0.30037094334E+03  0.00000000000E+00 0. -1.
        -13    1    4    4    0    0  0.44588598973E+02  0.57352982730E+02 -0.34654562846E+03  0.35407821225E+03  0.00000000000E+00 0.  1.
         13    1    4    4    0    0  0.12031745443E+03  0.20535097614E+02 -0.29658694939E+03  0.32072074867E+03  0.00000000000E+00 0. -1.
         21    1    1    2  502  501 -0.68176367481E+02  0.46628816731E+02 -0.41578070995E+02  0.92471615214E+02  0.00000000000E+00 0.  1.
<scales pt_clust_5="13000.00000" pt_clust_6="13000.00000" pt_clust_7="13000.00000" pt_clust_8="13000.00000" pt_clust_9="82.59700"></scales>
<clustering>
<clus scale="   80.852">  5  6 -1 -1</clus>
<clus scale="   82.597">  1  9  2 -1</clus>
<clus scale="   92.052">  7  8 -1 -1</clus>
<clus scale="  186.812">  1  5  2 -1</clus>
<clus scale="  191.925">  2  5  1 -1</clus>
</clustering>
</event>
<event>
 9    2  0.3402837E-005  0.9843158E+02  0.7546771E-02  0.1288750E+00
         -1   -1    0    0    0  501 -0.00000000000E+00  0.00000000000E+00  0.16068173796E+03  0.16068173796E+03  0.00000000000E+00 0.  1.
          2   -1    0    0  502    0  0.00000000000E+00 -0.00000000000E+00 -0.39839303989E+03  0.39839303989E+03  0.00000000000E+00 0. -1.
         23    2    1    2    0    0  0.43703253069E+01  0.49260112819E+02  0.12787234531E+03  0.16441688713E+03  0.90751956574E+02 0.  0.
         24    2    1    2    0    0 -0.19855493749E+02 -0.32258402831E+02 -0.36011989854E+03  0.37102103107E+03  0.80841938314E+02 0.  0.
        -13    1    4    4    0    0 -0.37350099928E+02 -0.51028872478E+02 -0.24002452915E+03  0.24821512925E+03  0.00000000000E+00 0.  1.
         14    1    4    4    0    0  0.17494606179E+02  0.18770469647E+02 -0.12009536938E+03  0.12280590182E+03  0.00000000000E+00 0. -1.
        -11    1    3    3    0    0  0.40894014748E+02  0.42276798790E+02  0.46599199533E+02  0.75040879227E+02  0.00000000000E+00 0. -1.
         11    1    3    3    0    0 -0.36523689441E+02  0.69833140297E+01  0.81273145774E+02  0.89376007906E+02  0.00000000000E+00 0.  1.
         21    1    1    2  502  501  0.15485168443E+02 -0.17001709988E+02 -0.54637487026E+01  0.23636859650E+02  0.00000000000E+00 0. -1.
<scales pt_clust_5="13000.00000" pt_clust_6="13000.00000" pt_clust_7="13000.00000" pt_clust_8="13000.00000" pt_clust_9="22.99671"></scales>
<clustering>
<clus scale="   22.997">  1  9  2 -1</clus>
<clus scale="   80.842">  5  6 -1 -1</clus>
<clus scale="   89.377">  2  5  1 -1</clus>
<clus scale="   90.752">  7  8 -1 -1</clus>
<clus scale="   89.377">  2  5  1 -1</clus>
</clustering>
</event>
<event>
 9    2  0.3402837E-005  0.1944033E+03  0.7546771E-02  0.1155583E+00
          2   -1    0    0  502    0  0.00000000000E+00  0.00000000000E+00  0.10319951368E+04  0.10319951368E+04  0.00000000000E+00 0. -1.
         -1   -1    0    0    0  501 -0.00000000000E+00 -0.00000000000E+00 -0.65371007052E+02  0.65371007052E+02  0.00000000000E+00 0.  1.
         24    2    1    2    0    0 -0.61844442815E+02  0.17895524901E+03  0.26648142458E+03  0.33657136682E+03  0.80113788219E+02 0.  0.
         23    2    1    2    0    0  0.71283686020E+02 -0.15004676437E+03  0.70504172574E+03  0.72999217650E+03  0.90605448582E+02 0.  0.
        -11    1    3    3    0    0 -0.47011254788E+02  0.17209734706E+03  0.19953739784E+03  0.26766159246E+03  0.00000000000E+00 0.  1.
         12    1    3    3    0    0 -0.14833188027E+02  0.68579019497E+01  0.66944026742E+02  0.68909774362E+02  0.00000000000E+00 0. -1.
        -11    1    4    4    0    0  0.46761576020E+02 -0.16208397031E+02  0.25791386305E+03  0.26261934026E+03  0.00000000000E+00 0.  1.
         11    1    4    4    0    0  0.24522110000E+02 -0.13383836734E+03  0.44712786270E+03  0.46737283624E+03  0.00000000000E+00 0. -1.
         21    1    1    2  502  501 -0.94392432053E+01 -0.28908484638E+02 -0.48990205858E+01  0.30802600524E+02  0.00000000000E+00 0.  1.
<scales pt_clust_5="13000.00000" pt_clust_6="13000.00000" pt_clust_7="13000.00000" pt_clust_8="13000.00000" pt_clust_9="30.41052"></scales>
<clustering>
<clus scale="   30.411">  2  9  1 -1</clus>
<clus scale="   80.114">  5  6 -1 -1</clus>
<clus scale="   90.605">  7  8 -1 -1</clus>
<clus scale="  189.741">  2  5  1 -1</clus>
<clus scale="  194.403">  1  5  2 -1</clus>
</clustering>
</event>
<event>
 9    2  0.3402837E-005  0.1392885E+03  0.7546771E-02  0.1215596E+00
          2   -1    0    0  502    0  0.00000000000E+00  0.00000000000E+00  0.94231926465E+02  0.94231926465E+02  0.00000000000E+00 0. -1.
         -1   -1    0    0    0  501 -0.00000000000E+00 -0.00000000000E+00 -0.40762041616E+03  0.40762041616E+03  0.00000000000E+00 0.  1.
         23    2    1    2    0    0 -0.12172639465E+03  0.23546076986E+02 -0.16402491860E+03  0.22325506322E+03  0.86988024679E+02 0.  0.
         24    2    1    2    0    0  0.99530575660E+02  0.43793119717E+02 -0.28415873908E+02  0.13839896540E+03  0.80762855997E+02 0.  0.
        -13    1    4    4    0    0  0.67248728821E+01  0.35902060554E+02  0.96504874399E+01  0.37779806446E+02  0.00000000000E+00 0.  1.
         14    1    4    4    0    0  0.92805702778E+02  0.78910591634E+01 -0.38066361348E+02  0.10061915896E+03  0.00000000000E+00 0. -1.
        -11    1    3    3    0    0 -0.96001608355E+02  0.71432473371E+01 -0.16683476020E+03  0.19261664518E+03  0.00000000000E+00 0.  1.
         11    1    3    3    0    0 -0.25724786296E+02  0.16402829649E+02  0.28098416005E+01  0.30638418044E+02  0.00000000000E+00 0. -1.
         21    1    1    2  502  501  0.22195818991E+02 -0.67339196703E+02 -0.12094769719E+03  0.14019831400E+03  0.00000000000E+00 0. -1.
<scales pt_clust_5="13000.00000" pt_clust_6="13000.00000" pt_clust_7="13000.00000" pt_clust_8="13000.00000" pt_clust_9="70.90290"></scales>
<clustering>
<clus scale="   70.903">  2  9  1 -1</clus>
<clus scale="   80.763">  5  6 -1 -1</clus>
<clus scale="   86.988">  7  8 -1 -1</clus>
<clus scale="  135.488">  1  5  2 -1</clus>
<clus scale="  135.488">  1  5  2 -1</clus>
</clustering>
</event>
<event>
 9    2  0.3402837E-005  0.1395941E+03  0.7546771E-02  0.1219433E+00
         -3   -1    0    0    0  501 -0.00000000000E+00  0.00000000000E+00  0.46922352796E+03  0.46922352796E+03  0.00000000000E+00 0.  1.
          4   -1    0    0  502    0  0.00000000000E+00 -0.00000000000E+00 -0.37606274143E+03  0.37606274143E+03  0.00000000000E+00 0. -1.
         24    2    1    2    0    0 -0.78863407476E+02 -0.51664515969E+02  0.41665280761E+03  0.43451385369E+03  0.79461108186E+02 0.  0.
         23    2    1    2    0    0  0.91980645187E+02  0.10674539626E+03 -0.30519580250E+03  0.35126849219E+03  0.10193162920E+03 0.  0.
        -11    1    3    3    0    0 -0.43834614681E+02 -0.56535866684E+02  0.36480264199E+03  0.37175091831E+03  0.00000000000E+00 0.  1.
         12    1    3    3    0    0 -0.35028792796E+02  0.48713507151E+01  0.51850165619E+02  0.62762935378E+02  0.00000000000E+00 0. -1.
        -13    1    4    4    0    0  0.25580109217E+02  0.13785010545E+02 -0.42472145905E+01  0.29366772636E+02  0.00000000000E+00 0.  1.
         13    1    4    4    0    0  0.66400535970E+02  0.92960385712E+02 -0.30094858791E+03  0.32190171955E+03  0.00000000000E+00 0. -1.
         21    1    1    2  502  501 -0.13117237710E+02 -0.55080880287E+02 -0.18296218585E+02  0.59503923508E+02  0.00000000000E+00 0.  1.
<scales pt_clust_5="13000.00000" pt_clust_6="13000.00000" pt_clust_7="13000.00000" pt_clust_8="13000.00000" pt_clust_9="56.62124"></scales>
<clustering>
<clus scale="   56.621">  2  9  1 -1</clus>
<clus scale="   79.461">  5  6 -1 -1</clus>
<clus scale="  101.932">  7  8 -1 -1</clus>
<clus scale="  124.139">  1  5  2 -1</clus>
<clus scale="   56.621">  2  5  1 -1</clus>
</clustering>
</event>
<event>
 9    2  0.3402837E-005  0.1755319E+03  0.7546771E-02  0.1172280E+00
          4   -1    0    0  502    0  0.00000000000E+00  0.00000000000E+00  0.18219854230E+03  0.18219854230E+03  0.00000000000E+00 0. -1.
         -3   -1    0    0    0  501 -0.00000000000E+00 -0.00000000000E+00 -0.36369991760E+03  0.36369991760E+03  0.00000000000E+00 0.  1.
         24    2    1    2    0    0 -0.13399437543E+03  0.67998107731E+01 -0.18763786024E+03  0.24866388799E+03  0.92871053189E+02 0.  0.
         23    2    1    2    0    0  0.14279910638E+03 -0.57111462226E+02  0.88314075683E+02  0.20047744309E+03  0.93480079808E+02 0.  0.
        -13    1    3    3    0    0 -0.12268443226E+03  0.39177328451E+02 -0.14475123328E+03  0.19375049037E+03  0.00000000000E+00 0.  1.
         14    1    3    3    0    0 -0.11309943166E+02 -0.32377517678E+02 -0.42886626965E+02  0.54913397617E+02  0.00000000000E+00 0. -1.
        -11    1    4    4    0    0  0.57102948920E+02  0.17240294936E+01 -0.92991456030E+01  0.57880853155E+02  0.00000000000E+00 0.  1.
         11    1    4    4    0    0  0.85696157463E+02 -0.58835491720E+02  0.97613221286E+02  0.14259658993E+03  0.00000000000E+00 0. -1.
         21    1    1    2  502  501 -0.88047309576E+01  0.50311651453E+02 -0.82177590737E+02  0.96757128825E+02  0.00000000000E+00 0.  1.
<scales pt_clust_5="13000.00000" pt_clust_6="13000.00000" pt_clust_7="13000.00000" pt_clust_8="13000.00000" pt_clust_9="51.07627"></scales>
<clustering>
<clus scale="   51.076">  2  9  1 -1</clus>
<clus scale="   92.871">  5  6 -1 -1</clus>
<clus scale="   93.480">  7  8 -1 -1</clus>
<clus scale="  175.208">  2  5  1 -1</clus>
<clus scale="  175.532">  1  5  2 -1</clus>
</clustering>
</event>
<event>
 9    2  0.3402837E-005  0.2551570E+03  0.7546771E-02  0.1110547E+00
         -1   -1    0    0    0  501 -0.00000000000E+00  0.00000000000E+00  0.19722575290E+03  0.19722575290E+03  0.00000000000E+00 0.  1.
          2   -1    0    0  502    0  0.00000000000E+00 -0.00000000000E+00 -0.77492319615E+03  0.77492319615E+03  0.00000000000E+00 0. -1.
         23    2    1    2    0    0 -0.11501143026E+03 -0.19279910300E+03 -0.50240618628E+02  0.24578608532E+03  0.86530669515E+02 0.  0.
         24    2    1    2    0    0  0.16441004880E+03  0.18196357762E+03 -0.59137075441E+03  0.64486057822E+03  0.77358829168E+02 0.  0.
        -13    1    4    4    0    0  0.10348736179E+03  0.95309862279E+02 -0.24352331467E+03  0.28124225978E+03  0.00000000000E+00 0.  1.
         14    1    4    4    0    0  0.60922687006E+02  0.86653715339E+02 -0.34784743974E+03  0.36361831844E+03  0.00000000000E+00 0. -1.
        -13    1    3    3    0    0 -0.34240197197E+02 -0.10749949828E+02 -0.27733796653E+02  0.45355440712E+02  0.00000000000E+00 0. -1.
         13    1    3    3    0    0 -0.80771233068E+02 -0.18204915317E+03 -0.22506821975E+02  0.20043064460E+03  0.00000000000E+00 0.  1.
         21    1    1    2  502  501 -0.49398618535E+02  0.10835525380E+02  0.63913929779E+02  0.81502285509E+02  0.00000000000E+00 0.  1.
<scales pt_clust_5="13000.00000" pt_clust_6="13000.00000" pt_clust_7="13000.00000" pt_clust_8="13000.00000" pt_clust_9="50.57304"></scales>
<clustering>
<clus scale="   50.573">  1  9  2 -1</clus>
<clus scale="   77.359">  5  6 -1 -1</clus>
<clus scale="   86.531">  7  8 -1 -1</clus>
<clus scale="  252.194">  2  5  1 -1</clus>
<clus scale="  252.194">  2  5  1 -1</clus>
</clustering>
</event>
<event>
 9    2  0.3402837E-005  0.2268682E+03  0.7546771E-02  0.1130055E+00
          2   -1    0    0  502    0  0.00000000000E+00  0.00000000000E+00  0.38815101095E+03  0.38815101095E+03  0.00000000000E+00 0. -1.
         -1   -1    0    0    0  501 -0.00000000000E+00 -0.00000000000E+00 -0.20817167826E+03  0.20817167826E+03  0.00000000000E+00 0.  1.
         23    2    1    2    0    0 -0.18634333233E+03 -0.12107475580E+03 -0.53082221166E+02  0.24893730582E+03  0.98838889266E+02 0.  0.
         24    2    1    2    0    0  0.16941678747E+03  0.10494082805E+03  0.24025278853E+03  0.32292060458E+03  0.82714504172E+02 0.  0.
        -11    1    4    4    0    0  0.10348554952E+03  0.73446753358E+02  0.89169422542E+02  0.15509632637E+03  0.00000000000E+00 0.  1.
         12    1    4    4    0    0  0.65931237946E+02  0.31494074688E+02  0.15108336599E+03  0.16782427821E+03  0.00000000000E+00 0. -1.
        -11    1    3    3    0    0 -0.77590606994E+02 -0.80707624697E+02 -0.69507272542E+02  0.13177740290E+03  0.00000000000E+00 0.  1.
         11    1    3    3    0    0 -0.10875272533E+03 -0.40367131103E+02  0.16425051376E+02  0.11715990293E+03  0.00000000000E+00 0. -1.
         21    1    1    2  502  501  0.16926544863E+02  0.16133927754E+02 -0.71912346730E+01  0.24464778804E+02  0.00000000000E+00 0. -1.
<scales pt_clust_5="13000.00000" pt_clust_6="13000.00000" pt_clust_7="13000.00000" pt_clust_8="13000.00000" pt_clust_9="23.38400"></scales>
<clustering>
<clus scale="   23.384">  2  9  1 -1</clus>
<clus scale="   82.715">  5  6 -1 -1</clus>
<clus scale="   98.839">  7  8 -1 -1</clus>
<clus scale="  220.322">  1  5  2 -1</clus>
<clus scale="  220.322">  1  5  2 -1</clus>
</clustering>
</event>
<event>
 9    2  0.3402837E-005  0.9147093E+02  0.7546771E-02  0.1302911E+00
         -1   -1    0    0    0  501 -0.00000000000E+00  0.00000000000E+00  0.21127313794E+03  0.21127313794E+03  0.00000000000E+00 0.  1.
          2   -1    0    0  502    0  0.00000000000E+00 -0.00000000000E+00 -0.15480849917E+03  0.15480849917E+03  0.00000000000E+00 0. -1.
         24    2    1    2    0    0  0.74998498735E+01 -0.81452270338E+01  0.82732986950E+01  0.83320281385E+02  0.82165864855E+02 0.  0.
         23    2    1    2    0    0  0.26444727466E+02  0.21875525855E+02 -0.95503154343E+02  0.13447493301E+03  0.88231473272E+02 0.  0.
        -13    1    3    3    0    0  0.22758922918E+02  0.24191428466E+02  0.27139415654E+02  0.42892209848E+02  0.00000000000E+00 0.  1.
         14    1    3    3    0    0 -0.15259073045E+02 -0.32336655500E+02 -0.18866116959E+02  0.40428071537E+02  0.00000000000E+00 0. -1.
        -13    1    4    4    0    0 -0.28064219908E+02 -0.33003199791E+01 -0.55641028207E+02  0.62405260763E+02  0.00000000000E+00 0.  1.
         13    1    4    4    0    0  0.54508947374E+02  0.25175845834E+02 -0.39862126135E+02  0.72069672244E+02  0.00000000000E+00 0. -1.
         21    1    1    2  502  501 -0.33944577340E+02 -0.13730298821E+02  0.14369449442E+03  0.14828642272E+03  0.00000000000E+00 0.  1.
<scales pt_clust_5="13000.00000" pt_clust_6="13000.00000" pt_clust_7="13000.00000" pt_clust_8="13000.00000" pt_clust_9="36.61633"></scales>
<clustering>
<clus scale="   36.616">  1  9  2 -1</clus>
<clus scale="   82.166">  5  6 -1 -1</clus>
<clus scale="   85.635">  1  5  2 -1</clus>
<clus scale="   88.231">  7  8 -1 -1</clus>
<clus scale="   91.471">  2  5  1 -1</clus>
</clustering>
</event>
<event>
 9    2  0.3402837E-005  0.1097171E+03  0.7546771E-02  0.1266374E+00
         -1   -1    0    0    0  501 -0.00000000000E+00  0.00000000000E+00  0.17560758845E+03  0.17560758845E+03  0.00000000000E+00 0.  1.
          2   -1    0    0  502    0  0.00000000000E+00 -0.00000000000E+00 -0.37597538621E+03  0.37597538621E+03  0.00000000000E+00 0. -1.
         23    2    1    2    0    0 -0.32686888830E+02  0.18096280887E+02 -0.22325176662E+02  0.10259349145E+03  0.92903729159E+02 0.  0.
         24    2    1    2    0    0  0.53092332029E+02  0.42184320983E+02 -0.29652128174E+03  0.31450035316E+03  0.79920516474E+02 0.  0.
        -11    1    4    4    0    0  0.48573816831E+02 -0.51896796540E+01 -0.88319809685E+02  0.10092936758E+03  0.00000000000E+00 0.  1.
         12    1    4    4    0    0  0.45185151985E+01  0.47374000637E+02 -0.20820147205E+03  0.21357098558E+03  0.00000000000E+00 0. -1.
        -11    1    3    3    0    0 -0.56656437339E+02  0.38585297830E+02 -0.13718623531E+02  0.69906921918E+02  0.00000000000E+00 0.  1.
         11    1    3    3    0    0  0.23969548508E+02 -0.20489016943E+02 -0.86065531310E+01  0.32686569532E+02  0.00000000000E+00 0. -1.
         21    1    1    2  502  501 -0.20405443199E+02 -0.60280601870E+02  0.11847866064E+03  0.13448913005E+03  0.00000000000E+00 0.  1.
<scales pt_clust_5="13000.00000" pt_clust_6="13000.00000" pt_clust_7="13000.00000" pt_clust_8="13000.00000" pt_clust_9="63.64066"></scales>
<clustering>
<clus scale="   63.641">  1  9  2 -1</clus>
<clus scale="   79.921">  5  6 -1 -1</clus>
<clus scale="   92.904">  7  8 -1 -1</clus>
<clus scale="   98.965">  2  5  1 -1</clus>
<clus scale="   98.965">  2  5  1 -1</clus>
</clustering>
</event>
<event>
 9    2  0.3402837E-005  0.9591450E+02  0.7546771E-02  0.1294576E+00
         -1   -1    0    0    0  501 -0.00000000000E+00  0.00000000000E+00  0.14198610094E+02  0.14198610094E+02  0.00000000000E+00 0.  1.
          2   -1    0    0  502    0  0.00000000000E+00 -0.00000000000E+00 -0.13151870540E+04  0.13151870540E+04  0.00000000000E+00 0. -1.
         23    2    1    2    0    0 -0.10436684654E+02  0.17531835636E+02 -0.27331452477E+03  0.28865371399E+03  0.90575093170E+02 0.  0.
         24    2    1    2    0    0  0.66105355362E+02 -0.21121021126E+02 -0.74965005931E+03  0.75716687859E+03  0.80687391015E+02 0.  0.
        -11    1    4    4    0    0  0.10811487947E+02 -0.41527292118E+02 -0.21224740447E+03  0.21654183191E+03  0.00000000000E+00 0.  1.
         12    1    4    4    0    0  0.55293867414E+02  0.20406270991E+02 -0.53740265484E+03  0.54062504668E+03  0.00000000000E+00 0. -1.
        -11    1    3    3    0    0 -0.38144016496E+02 -0.79485428929E+01 -0.21979708139E+03  0.22322388384E+03  0.00000000000E+00 0. -1.
         11    1    3    3    0    0  0.27707331842E+02  0.25480378529E+02 -0.53517443383E+02  0.65429830154E+02  0.00000000000E+00 0.  1.
         21    1    1    2  502  501 -0.55668670707E+02  0.35891854907E+01 -0.27802385986E+03  0.28356507155E+03  0.00000000000E+00 0. -1.
<scales pt_clust_5="13000.00000" pt_clust_6="13000.00000" pt_clust_7="13000.00000" pt_clust_8="13000.00000" pt_clust_9="55.78426"></scales>
<clustering>
<clus scale="   55.784">  2  9  1 -1</clus>
<clus scale="   80.687">  5  6 -1 -1</clus>
<clus scale="   86.638">  2  5  1 -1</clus>
<clus scale="   90.575">  7  8 -1 -1</clus>
<clus scale="   55.784">  2  5  1 -1</clus>
</clustering>
</event>
<event>
 9    2  0.3402837E-005  0.1254275E+03  0.7546771E-02  0.1239045E+00
          2   -1    0    0  502    0  0.00000000000E+00  0.00000000000E+00  0.34246989851E+03  0.34246989851E+03  0.00000000000E+00 0. -1.
         -1   -1    0    0    0  501 -0.00000000000E+00 -0.00000000000E+00 -0.75761704091E+02  0.75761704091E+02  0.00000000000E+00 0.  1.
         23    2    1    2    0    0  0.62718799502E+02 -0.57738269482E+02  0.68425222396E+02  0.14237954972E+03  0.91228118176E+02 0.  0.
         24    2    1    2    0    0 -0.44749361848E+02  0.75076623725E+02  0.21633390196E+03  0.24504044323E+03  0.74869599060E+02 0.  0.
        -13    1    4    4    0    0 -0.14171590907E+02  0.25637424349E+02  0.10441113604E+02  0.31098687583E+02  0.00000000000E+00 0.  1.
         14    1    4    4    0    0 -0.30577770940E+02  0.49439199376E+02  0.20589278836E+03  0.21394175564E+03  0.00000000000E+00 0. -1.
        -11    1    3    3    0    0  0.13908071850E+02 -0.56370073728E+02 -0.31488194896E+00  0.58061336751E+02  0.00000000000E+00 0.  1.
         11    1    3    3    0    0  0.48810727652E+02 -0.13681957542E+01  0.68740104345E+02  0.84318212973E+02  0.00000000000E+00 0. -1.
         21    1    1    2  502  501 -0.17969437655E+02 -0.17338354243E+02 -0.18050929940E+02  0.30811609649E+02  0.00000000000E+00 0.  1.
<scales pt_clust_5="13000.00000" pt_clust_6="13000.00000" pt_clust_7="13000.00000" pt_clust_8="13000.00000" pt_clust_9="24.97037"></scales>
<clustering>
<clus scale="   24.970">  2  9  1 -1</clus>
<clus scale="   74.870">  5  6 -1 -1</clus>
<clus scale="   91.228">  7  8 -1 -1</clus>
<clus scale="  114.083">  1  5  2 -1</clus>
<clus scale="  114.083">  1  5  2 -1</clus>
</clustering>
</event>
<event>
 9    2  0.3402837E-005  0.9724386E+02  0.7546771E-02  0.1290272E+00
          2   -1    0    0  502    0  0.00000000000E+00  0.00000000000E+00  0.37791259396E+02  0.37791259396E+02  0.00000000000E+00 0. -1.
         -1   -1    0    0    0  501 -0.00000000000E+00 -0.00000000000E+00 -0.45424700118E+03  0.45424700118E+03  0.00000000000E+00 0.  1.
         23    2    1    2    0    0  0.65244920757E+01  0.20341674533E+02 -0.26793158580E+03  0.28333786198E+03  0.89647401757E+02 0.  0.
         24    2    1    2    0    0 -0.10691430965E+02 -0.40607419266E+02 -0.43650963671E+02  0.10180582317E+03  0.81827561415E+02 0.  0.
        -13    1    4    4    0    0 -0.22161347325E+02  0.43768147786E+01 -0.50080315382E+02  0.54939237451E+02  0.00000000000E+00 0.  1.
         14    1    4    4    0    0  0.11469916360E+02 -0.44984234045E+02  0.64293517109E+01  0.46866585723E+02  0.00000000000E+00 0. -1.
        -11    1    3    3    0    0  0.21019767576E+02 -0.25310789561E+02 -0.47625037048E+02  0.57884461222E+02  0.00000000000E+00 0. -1.
         11    1    3    3    0    0 -0.14495275500E+02  0.45652464095E+02 -0.22030654875E+03  0.22545340076E+03  0.00000000000E+00 0.  1.
         21    1    1    2  502  501  0.41669388890E+01  0.20265744733E+02 -0.10487319231E+03  0.10689457542E+03  0.00000000000E+00 0.  1.
<scales pt_clust_5="13000.00000" pt_clust_6="13000.00000" pt_clust_7="13000.00000" pt_clust_8="13000.00000" pt_clust_9="20.68970"></scales>
<clustering>
<clus scale="   20.690">  2  9  1 -1</clus>
<clus scale="   81.828">  5  6 -1 -1</clus>
<clus scale="   89.647">  7  8 -1 -1</clus>
<clus scale="   90.086">  1  5  2 -1</clus>
<clus scale="   90.086">  1  5  2 -1</clus>
</clustering>
</event>
<event>
 9    2  0.3402837E-005  0.9262530E+02  0.7546771E-02  0.1303952E+00
         -1   -1    0    0    0  501 -0.00000000000E+00  0.00000000000E+00  0.12246799073E+03  0.12246799073E+03  0.00000000000E+00 0.  1.
          2   -1    0    0  502    0  0.00000000000E+00 -0.00000000000E+00 -0.99201761640E+02  0.99201761640E+02  0.00000000000E+00 0. -1.
         23    2    1    2    0    0 -0.20394627051E+02  0.15154329634E+02  0.52243878761E+02  0.10902059705E+03  0.92252225962E+02 0.  0.
         24    2    1    2    0    0  0.38113749181E+01  0.14251384228E+01 -0.35864625280E+02  0.88209158477E+02  0.80486189464E+02 0.  0.
        -13    1    4    4    0    0 -0.12707721762E+02 -0.25105525915E+02  0.12367632249E+02  0.30736492176E+02  0.00000000000E+00 0.  1.
         14    1    4    4    0    0  0.16519096680E+02  0.26530664338E+02 -0.48232257529E+02  0.57472666301E+02  0.00000000000E+00 0. -1.
        -13    1    3    3    0    0  0.25043223103E+02  0.36693325116E+02  0.16779288086E+02  0.47487973637E+02  0.00000000000E+00 0. -1.
         13    1    3    3    0    0 -0.45437850154E+02 -0.21538995481E+02  0.35464590675E+02  0.61532623418E+02  0.00000000000E+00 0.  1.
         21    1    1    2  502  501  0.16583252133E+02 -0.16579468057E+02  0.68869756050E+01  0.24439996836E+02  0.00000000000E+00 0.  1.
<scales pt_clust_5="13000.00000" pt_clust_6="13000.00000" pt_clust_7="13000.00000" pt_clust_8="13000.00000" pt_clust_9="23.44958"></scales>
<clustering>
<clus scale="   23.450">  1  9  2 -1</clus>
<clus scale="   80.486">  5  6 -1 -1</clus>
<clus scale="   80.914">  2  5  1 -1</clus>
<clus scale="   92.252">  7  8 -1 -1</clus>
<clus scale="   80.914">  2  5  1 -1</clus>
</clustering>
</event>
<event>
 9    2  0.3402837E-005  0.1259032E+03  0.7546771E-02  0.1236526E+00
         -1   -1    0    0    0  501 -0.00000000000E+00  0.00000000000E+00  0.35134264474E+03  0.35134264474E+03  0.00000000000E+00 0.  1.
          2   -1    0    0  502    0  0.00000000000E+00 -0.00000000000E+00 -0.17157751987E+03  0.17157751987E+03  0.00000000000E+00 0. -1.
         24    2    1    2    0    0  0.21374214040E+02 -0.32788971358E+02  0.14169579501E+03  0.16767894461E+03  0.80663228749E+02 0.  0.
         23    2    1    2    0    0 -0.65888559739E+02  0.69916417716E+02 -0.12512473088E+03  0.18205843880E+03  0.90881621296E+02 0.  0.
        -13    1    3    3    0    0  0.54723018558E+01 -0.58860634893E+02  0.92601657923E+02  0.10986167429E+03  0.00000000000E+00 0.  1.
         14    1    3    3    0    0  0.15901912185E+02  0.26071663535E+02  0.49094137090E+02  0.57817270320E+02  0.00000000000E+00 0. -1.
        -11    1    4    4    0    0 -0.27819262082E+02 -0.19176458083E+02 -0.20767581232E+02  0.39660311617E+02  0.00000000000E+00 0.  1.
         11    1    4    4    0    0 -0.38069297658E+02  0.89092875798E+02 -0.10435714964E+03  0.14239812718E+03  0.00000000000E+00 0. -1.
         21    1    1    2  502  501  0.44514345699E+02 -0.37127446358E+02  0.16319406073E+03  0.17318278120E+03  0.00000000000E+00 0.  1.
<scales pt_clust_5="13000.00000" pt_clust_6="13000.00000" pt_clust_7="13000.00000" pt_clust_8="13000.00000" pt_clust_9="57.96528"></scales>
<clustering>
<clus scale="   57.965">  1  9  2 -1</clus>
<clus scale="   80.663">  5  6 -1 -1</clus>
<clus scale="   90.882">  7  8 -1 -1</clus>
<clus scale="  118.738">  1  5  2 -1</clus>
<clus scale="  125.903">  2  5  1 -1</clus>
</clustering>
</event>
<event>
 9    2  0.3402837E-005  0.1411762E+03  0.7546771E-02  0.1213816E+00
         -1   -1    0    0    0  501 -0.00000000000E+00  0.00000000000E+00  0.18784847348E+03  0.18784847348E+03  0.00000000000E+00 0.  1.
          2   -1    0    0  502    0  0.00000000000E+00 -0.00000000000E+00 -0.16888271489E+03  0.16888271489E+03  0.00000000000E+00 0. -1.
         24    2    1    2    0    0 -0.41607904716E+02  0.10369078827E+03  0.92653461544E+02  0.16610677403E+03  0.80770038589E+02 0.  0.
         23    2    1    2    0    0  0.62430361304E+02 -0.88118686562E+02 -0.82352455490E+02  0.16321742642E+03  0.90529268355E+02 0.  0.
        -11    1    3    3    0    0 -0.17686229413E+02  0.94048759127E+02  0.10086578628E+03  0.13903912631E+03  0.00000000000E+00 0.  1.
         12    1    3    3    0    0 -0.23921675303E+02  0.96420291456E+01 -0.82123247314E+01  0.27067647715E+02  0.00000000000E+00 0. -1.
        -13    1    4    4    0    0  0.84429488044E+02 -0.59582070963E+02 -0.71232284025E+02  0.12550856512E+03  0.00000000000E+00 0. -1.
         13    1    4    4    0    0 -0.21999126740E+02 -0.28536615599E+02 -0.11120171465E+02  0.37708861300E+02  0.00000000000E+00 0.  1.
         21    1    1    2  502  501 -0.20822456589E+02 -0.15572101711E+02  0.86647525370E+01  0.27406987916E+02  0.00000000000E+00 0. -1.
<scales pt_clust_5="13000.00000" pt_clust_6="13000.00000" pt_clust_7="13000.00000" pt_clust_8="13000.00000" pt_clust_9="26.00125"></scales>
<clustering>
<clus scale="   26.001">  1  9  2 -1</clus>
<clus scale="   80.770">  5  6 -1 -1</clus>
<clus scale="   90.529">  7  8 -1 -1</clus>
<clus scale="  135.126">  1  5  2 -1</clus>
<clus scale="  141.176">  2  5  1 -1</clus>
</clustering>
</event>
<event>
 9    2  0.3402837E-005  0.9391228E+02  0.7546771E-02  0.1300791E+00
          4   -1    0    0  502    0  0.00000000000E+00  0.00000000000E+00  0.12224641042E+03  0.12224641042E+03  0.00000000000E+00 0. -1.
         -3   -1    0    0    0  501 -0.00000000000E+00 -0.00000000000E+00 -0.15046439129E+03  0.15046439129E+03  0.00000000000E+00 0.  1.
         24    2    1    2    0    0 -0.15351260487E+02  0.82267060833E+01 -0.26586327456E+02  0.86248934470E+02  0.80179211758E+02 0.  0.
         23    2    1    2    0    0 -0.24488892774E+02 -0.17369573396E+02  0.58946627804E+02  0.11338274580E+03  0.92084386113E+02 0.  0.
        -11    1    3    3    0    0  0.23115348657E+02  0.72945814515E+01 -0.38912924241E+02  0.45844802705E+02  0.00000000000E+00 0.  1.
         12    1    3    3    0    0 -0.38466609144E+02  0.93212463173E+00  0.12326596785E+02  0.40404131765E+02  0.00000000000E+00 0. -1.
        -11    1    4    4    0    0  0.30747006809E+02 -0.24841480665E+02  0.34700995795E+02  0.52598827919E+02  0.00000000000E+00 0.  1.
         11    1    4    4    0    0 -0.55235899584E+02  0.74719072684E+01  0.24245632009E+02  0.60783917877E+02  0.00000000000E+00 0. -1.
         21    1    1    2  502  501  0.39840153261E+02  0.91428673129E+01 -0.60578281225E+02  0.73079121442E+02  0.00000000000E+00 0.  1.
<scales pt_clust_5="13000.00000" pt_clust_6="13000.00000" pt_clust_7="13000.00000" pt_clust_8="13000.00000" pt_clust_9="40.87579"></scales>
<clustering>
<clus scale="   40.876">  2  9  1 -1</clus>
<clus scale="   80.179">  5  6 -1 -1</clus>
<clus scale="   82.272">  2  5  1 -1</clus>
<clus scale="   92.084">  7  8 -1 -1</clus>
<clus scale="   93.912">  1  5  2 -1</clus>
</clustering>
</event>
<event>
 9    2  0.3402837E-005  0.1267955E+03  0.7546771E-02  0.1234519E+00
         -1   -1    0    0    0  501 -0.00000000000E+00  0.00000000000E+00  0.12080076123E+03  0.12080076123E+03  0.00000000000E+00 0.  1.
          2   -1    0    0  502    0  0.00000000000E+00 -0.00000000000E+00 -0.44381737542E+03  0.44381737542E+03  0.00000000000E+00 0. -1.
         24    2    1    2    0    0 -0.51162496446E+01  0.94126558366E+02  0.30000002153E+02  0.12890020805E+03  0.82639448851E+02 0.  0.
         23    2    1    2    0    0 -0.63235194267E+02 -0.66313055799E+02 -0.33612394811E+03  0.36001539859E+03  0.90750578850E+02 0.  0.
        -13    1    3    3    0    0 -0.32868507635E+01  0.91078200498E+02  0.53133533675E+02  0.10549509180E+03  0.00000000000E+00 0.  1.
         14    1    3    3    0    0 -0.18293988811E+01  0.30483578685E+01 -0.23133531521E+02  0.23405116248E+02  0.00000000000E+00 0. -1.
        -11    1    4    4    0    0  0.14022471047E+02 -0.39526255068E+02 -0.16664547597E+03  0.17184198903E+03  0.00000000000E+00 0.  1.
         11    1    4    4    0    0 -0.77257665313E+02 -0.26786800731E+02 -0.16947847215E+03  0.18817340956E+03  0.00000000000E+00 0. -1.
         21    1    1    2  502  501  0.68351443911E+02 -0.27813502568E+02 -0.16892668237E+02  0.75702530011E+02  0.00000000000E+00 0. -1.
<scales pt_clust_5="13000.00000" pt_clust_6="13000.00000" pt_clust_7="13000.00000" pt_clust_8="13000.00000" pt_clust_9="73.79370"></scales>
<clustering>
<clus scale="   73.794">  1  9  2 -1</clus>
<clus scale="   82.639">  5  6 -1 -1</clus>
<clus scale="   90.751">  7  8 -1 -1</clus>
<clus scale="  121.123">  1  5  2 -1</clus>
<clus scale="  126.795">  2  5  1 -1</clus>
</clustering>
</event>
<event>
 9    2  0.3402837E-005  0.9765348E+02  0.7546771E-02  0.1288854E+00
         -1   -1    0    0    0  501 -0.00000000000E+00  0.00000000000E+00  0.27865226302E+03  0.27865226302E+03  0.00000000000E+00 0.  1.
          2   -1    0    0  502    0  0.00000000000E+00 -0.00000000000E+00 -0.19513087047E+03  0.19513087047E+03  0.00000000000E+00 0. -1.
         23    2    1    2    0    0 -0.68451285634E+01  0.18969556229E+02  0.19120826727E+03  0.21292955881E+03  0.91496970964E+02 0.  0.
         24    2    1    2    0    0 -0.28021713596E+02 -0.22157492763E+02 -0.16776587253E+03  0.19131692535E+03  0.84738462460E+02 0.  0.
        -13    1    4    4    0    0  0.28173493232E+02 -0.21505663182E+02 -0.57269375931E+02  0.67349986557E+02  0.00000000000E+00 0.  1.
         14    1    4    4    0    0 -0.56195206828E+02 -0.65182958149E+00 -0.11049649660E+03  0.12396693879E+03  0.00000000000E+00 0. -1.
        -11    1    3    3    0    0 -0.26440997101E+02  0.50161846061E+02  0.10991444620E+03  0.12367911146E+03  0.00000000000E+00 0.  1.
         11    1    3    3    0    0  0.19595868538E+02 -0.31192289832E+02  0.81293821064E+02  0.89250447349E+02  0.00000000000E+00 0. -1.
         21    1    1    2  502  501  0.34866842160E+02  0.31879365346E+01  0.60078997813E+02  0.69536649328E+02  0.00000000000E+00 0.  1.
<scales pt_clust_5="13000.00000" pt_clust_6="13000.00000" pt_clust_7="13000.00000" pt_clust_8="13000.00000" pt_clust_9="35.01228"></scales>
<clustering>
<clus scale="   35.012">  1  9  2 -1</clus>
<clus scale="   84.738">  5  6 -1 -1</clus>
<clus scale="   91.352">  2  5  1 -1</clus>
<clus scale="   91.497">  7  8 -1 -1</clus>
<clus scale="   91.352">  2  5  1 -1</clus>
</clustering>
</event>
<event>
 9    2  0.3402837E-005  0.1316403E+03  0.7546771E-02  0.1240548E+00
         -1   -1    0    0    0  501 -0.00000000000E+00  0.00000000000E+00  0.65646061414E+02  0.65646061414E+02  0.00000000000E+00 0.  1.
          2   -1    0    0  502    0  0.00000000000E+00 -0.00000000000E+00 -0.53119606031E+03  0.53119606031E+03  0.00000000000E+00 0. -1.
         24    2    1    2    0    0  0.27959290495E+02 -0.42615903652E+02 -0.11650486123E+03  0.15078012190E+03  0.81014969616E+02 0.  0.
         23    2    1    2    0    0 -0.66248929105E+01 -0.81975726066E+02 -0.27002564318E+03  0.29699050279E+03  0.92334186018E+02 0.  0.
        -11    1    3    3    0    0  0.37535493942E+01  0.23758644962E+02 -0.20648192020E+02  0.31700318250E+02  0.00000000000E+00 0.  1.
         12    1    3    3    0    0  0.24205741101E+02 -0.66374548614E+02 -0.95856669207E+02  0.11907980365E+03  0.00000000000E+00 0. -1.
        -13    1    4    4    0    0 -0.13534178196E+01 -0.43082824421E+02 -0.24853176984E+03  0.25224195154E+03  0.00000000000E+00 0. -1.
         13    1    4    4    0    0 -0.52714750909E+01 -0.38892901645E+02 -0.21493873338E+02  0.44748551251E+02  0.00000000000E+00 0.  1.
         21    1    1    2  502  501 -0.21334397585E+02  0.12459162972E+03 -0.79019494489E+02  0.14907149702E+03  0.00000000000E+00 0.  1.
<scales pt_clust_5="13000.00000" pt_clust_6="13000.00000" pt_clust_7="13000.00000" pt_clust_8="13000.00000" pt_clust_9="93.82739"></scales>
<clustering>
<clus scale="   81.015">  5  6 -1 -1</clus>
<clus scale="   92.334">  7  8 -1 -1</clus>
<clus scale="   95.714">  1  5  2 -1</clus>
<clus scale="   93.827">  1  9  2 -1</clus>
<clus scale="  131.640">  2  5  1 -1</clus>
</clustering>
</event>
<event>
 9    2  0.3402837E-005  0.1027347E+03  0.7546771E-02  0.1281560E+00
          2   -1    0    0  502    0  0.00000000000E+00  0.00000000000E+00  0.26554555004E+03  0.26554555004E+03  0.00000000000E+00 0. -1.
         -1   -1    0    0    0  501 -0.00000000000E+00 -0.00000000000E+00 -0.15634219715E+03  0.15634219715E+03  0.00000000000E+00 0.  1.
         23    2    1    2    0    0 -0.16702494886E+02 -0.20830179521E+02 -0.12168974293E+03  0.15480778456E+03  0.91892257085E+02 0.  0.
         24    2    1    2    0    0  0.38640390850E+02  0.27140318445E+02  0.22629571154E+03  0.24379423578E+03  0.77435157684E+02 0.  0.
        -13    1    4    4    0    0  0.11768579698E+02 -0.25891662083E+02  0.47391960470E+02  0.55270928622E+02  0.00000000000E+00 0.  1.
         14    1    4    4    0    0  0.26871811152E+02  0.53031980528E+02  0.17890375107E+03  0.18852330716E+03  0.00000000000E+00 0. -1.
        -13    1    3    3    0    0 -0.17992009040E+02  0.31545691894E+02 -0.22752044321E+02  0.42854388190E+02  0.00000000000E+00 0. -1.
         13    1    3    3    0    0  0.12895141537E+01 -0.52375871414E+02 -0.98937698612E+02  0.11195339637E+03  0.00000000000E+00 0.  1.
         21    1    1    2  502  501 -0.21937895965E+02 -0.63101389248E+01  0.45973842802E+01  0.23285726848E+02  0.00000000000E+00 0. -1.
<scales pt_clust_5="13000.00000" pt_clust_6="13000.00000" pt_clust_7="13000.00000" pt_clust_8="13000.00000" pt_clust_9="22.82738"></scales>
<clustering>
<clus scale="   22.827">  2  9  1 -1</clus>
<clus scale="   77.435">  5  6 -1 -1</clus>
<clus scale="   90.036">  1  5  2 -1</clus>
<clus scale="   91.892">  7  8 -1 -1</clus>
<clus scale="   90.036">  1  5  2 -1</clus>
</clustering>
</event>
<event>
 9    2  0.3402837E-005  0.1093709E+03  0.7546771E-02  0.1269897E+00
          2   -1    0    0  502    0  0.00000000000E+00  0.00000000000E+00  0.16752812118E+02  0.16752812118E+02  0.00000000000E+00 0. -1.
         -1   -1    0    0    0  501 -0.00000000000E+00 -0.00000000000E+00 -0.79969764489E+03  0.79969764489E+03  0.00000000000E+00 0.  1.
         23    2    1    2    0    0 -0.39631170914E+02 -0.85143172734E+01 -0.39028506356E+03  0.40430292968E+03  0.97443854628E+02 0.  0.
         24    2    1    2    0    0  0.56909488910E+02 -0.10823505274E+02 -0.28337814182E+03  0.29983116281E+03  0.78991877643E+02 0.  0.
        -13    1    4    4    0    0  0.64655748311E+02 -0.31153636228E+02 -0.24908993490E+03  0.25922328312E+03  0.00000000000E+00 0.  1.
         14    1    4    4    0    0 -0.77462594010E+01  0.20330130953E+02 -0.34288206923E+02  0.40607879695E+02  0.00000000000E+00 0. -1.
        -13    1    3    3    0    0 -0.41695737879E+02  0.37238783388E+02 -0.26689824547E+03  0.27269018130E+03  0.00000000000E+00 0. -1.
         13    1    3    3    0    0  0.20645669648E+01 -0.45753100661E+02 -0.12338681809E+03  0.13161274838E+03  0.00000000000E+00 0.  1.
         21    1    1    2  502  501 -0.17278317996E+02  0.19337822548E+02 -0.10928162739E+03  0.11231636452E+03  0.00000000000E+00 0. -1.
<scales pt_clust_5="13000.00000" pt_clust_6="13000.00000" pt_clust_7="13000.00000" pt_clust_8="13000.00000" pt_clust_9="25.93244"></scales>
<clustering>
<clus scale="   25.932">  2  9  1 -1</clus>
<clus scale="   78.992">  5  6 -1 -1</clus>
<clus scale="   93.308">  1  5  2 -1</clus>
<clus scale="   97.444">  7  8 -1 -1</clus>
<clus scale="   93.308">  1  5  2 -1</clus>
</clustering>
</event>
<event>
 9    2  0.3402837E-005  0.1597549E+03  0.7546771E-02  0.1189505E+00
          2   -1    0    0  502    0  0.00000000000E+00  0.00000000000E+00  0.12914173604E+03  0.12914173604E+03  0.00000000000E+00 0. -1.
         -1   -1    0    0    0  501 -0.00000000000E+00 -0.00000000000E+00 -0.98822009503E+03  0.98822009503E+03  0.00000000000E+00 0.  1.
         23    2    1    2    0    0 -0.12617909512E+03 -0.17770774752E+03 -0.65727039289E+03  0.69823128792E+03  0.89562014788E+02 0.  0.
         24    2    1    2    0    0  0.11297504519E+03  0.56759425731E+02  0.31298290157E+02  0.15618307656E+03  0.86189194162E+02 0.  0.
        -13    1    4    4    0    0  0.57607095782E+02 -0.71248789337E+01 -0.14785453522E+02  0.59899507678E+02  0.00000000000E+00 0.  1.
         14    1    4    4    0    0  0.55367949413E+02  0.63884304665E+02  0.46083743679E+02  0.96283568879E+02  0.00000000000E+00 0. -1.
        -13    1    3    3    0    0 -0.95112287822E+02 -0.94235337237E+02 -0.27688939380E+03  0.30756199778E+03  0.00000000000E+00 0.  1.
         13    1    3    3    0    0 -0.31066807297E+02 -0.83472410281E+02 -0.38038099908E+03  0.39066929014E+03  0.00000000000E+00 0. -1.
         21    1    1    2  502  501  0.13204049923E+02  0.12094832179E+03 -0.23310625627E+03  0.26294746660E+03  0.00000000000E+00 0.  1.
<scales pt_clust_5="13000.00000" pt_clust_6="13000.00000" pt_clust_7="13000.00000" pt_clust_8="13000.00000" pt_clust_9="121.66694"></scales>
<clustering>
<clus scale="   86.189">  5  6 -1 -1</clus>
<clus scale="   89.562">  7  8 -1 -1</clus>
<clus scale="  121.667">  2  9  1 -1</clus>
<clus scale="  157.889">  1  5  2 -1</clus>
<clus scale="  157.889">  1  5  2 -1</clus>
</clustering>
</event>
<event>
 9    2  0.3402837E-005  0.1575996E+03  0.7546771E-02  0.1195329E+00
          2   -1    0    0  502    0  0.00000000000E+00  0.00000000000E+00  0.13062219231E+04  0.13062219231E+04  0.00000000000E+00 0. -1.
         -1   -1    0    0    0  501 -0.00000000000E+00 -0.00000000000E+00 -0.25798723901E+02  0.25798723901E+02  0.00000000000E+00 0.  1.
         23    2    1    2    0    0 -0.29852109410E+02 -0.13603058421E+03  0.46586499149E+03  0.49514255053E+03  0.93490570489E+02 0.  0.
         24    2    1    2    0    0  0.48315754190E+02  0.11227710933E+03  0.77233957735E+03  0.78503654463E+03  0.69522602757E+02 0.  0.
        -13    1    4    4    0    0  0.55385924829E+02  0.11872572962E+03  0.71476711410E+03  0.72667422339E+03  0.00000000000E+00 0.  1.
         14    1    4    4    0    0 -0.70701706393E+01 -0.64486202942E+01  0.57572463247E+02  0.58362321243E+02  0.00000000000E+00 0. -1.
        -13    1    3    3    0    0  0.23961625279E+02 -0.37838569880E+01  0.53019636189E+02  0.58305736265E+02  0.00000000000E+00 0.  1.
         13    1    3    3    0    0 -0.53813734689E+02 -0.13224672723E+03  0.41284535530E+03  0.43683681426E+03  0.00000000000E+00 0. -1.
         21    1    1    2  502  501 -0.18463644780E+02  0.23753474889E+02  0.42218630395E+02  0.51841551870E+02  0.00000000000E+00 0.  1.
<scales pt_clust_5="13000.00000" pt_clust_6="13000.00000" pt_clust_7="13000.00000" pt_clust_8="13000.00000" pt_clust_9="30.08544"></scales>
<clustering>
<clus scale="   30.085">  2  9  1 -1</clus>
<clus scale="   69.523">  5  6 -1 -1</clus>
<clus scale="   93.491">  7  8 -1 -1</clus>
<clus scale="  144.674">  1  5  2 -1</clus>
<clus scale="  144.674">  1  5  2 -1</clus>
</clustering>
</event>
<event>
 9    2  0.3402837E-005  0.1116477E+03  0.7546771E-02  0.1261610E+00
          2   -1    0    0  502    0  0.00000000000E+00  0.00000000000E+00  0.73534934205E+02  0.73534934205E+02  0.00000000000E+00 0. -1.
         -1   -1    0    0    0  501 -0.00000000000E+00 -0.00000000000E+00 -0.22509333480E+03  0.22509333480E+03  0.00000000000E+00 0.  1.
         24    2    1    2    0    0 -0.29332492644E+02  0.70792851217E+02 -0.11674614016E+03  0.16188353866E+03  0.81881597068E+02 0.  0.
         23    2    1    2    0    0  0.19911128482E+02 -0.52621685159E+02 -0.16863653634E+02  0.10952147072E+03  0.92439574580E+02 0.  0.
        -13    1    3    3    0    0 -0.38986849493E+02  0.35920132080E+02 -0.11384583461E+03  0.12558305769E+03  0.00000000000E+00 0.  1.
         14    1    3    3    0    0  0.96543568488E+01  0.34872719137E+02 -0.29003055548E+01  0.36300480968E+02  0.00000000000E+00 0. -1.
        -13    1    4    4    0    0 -0.25983073768E+00 -0.74802284871E+02 -0.24266259514E+02  0.78640324801E+02  0.00000000000E+00 0.  1.
         13    1    4    4    0    0  0.20170959220E+02  0.22180599713E+02  0.74026058798E+01  0.30881145919E+02  0.00000000000E+00 0. -1.
         21    1    1    2  502  501  0.94213641617E+01 -0.18171166059E+02 -0.17948606800E+02  0.27223259626E+02  0.00000000000E+00 0.  1.
<scales pt_clust_5="13000.00000" pt_clust_6="13000.00000" pt_clust_7="13000.00000" pt_clust_8="13000.00000" pt_clust_9="20.46835"></scales>
<clustering>
<clus scale="   20.468">  2  9  1 -1</clus>
<clus scale="   81.882">  5  6 -1 -1</clus>
<clus scale="   92.440">  7  8 -1 -1</clus>
<clus scale="  103.076">  2  5  1 -1</clus>
<clus scale="  111.648">  1  5  2 -1</clus>
</clustering>
</event>
<event>
 9    2  0.3402837E-005  0.8981656E+02  0.7546771E-02  0.1310547E+00
         -1   -1    0    0    0  501 -0.00000000000E+00  0.00000000000E+00  0.38160912372E+02  0.38160912372E+02  0.00000000000E+00 0.  1.
          2   -1    0    0  502    0  0.00000000000E+00 -0.00000000000E+00 -0.50274105165E+03  0.50274105165E+03  0.00000000000E+00 0. -1.
         23    2    1    2    0    0 -0.16158945442E+02  0.35087268004E+02 -0.64666303351E+02  0.11655973844E+03  0.88950626434E+02 0.  0.
         24    2    1    2    0    0 -0.36483373797E+01 -0.88694039204E+01 -0.37505507966E+03  0.38313952405E+03  0.77702029704E+02 0.  0.
        -11    1    4    4    0    0  0.24261516478E+02 -0.32998531151E+02 -0.17695277148E+03  0.18163096536E+03  0.00000000000E+00 0.  1.
         12    1    4    4    0    0 -0.27909853858E+02  0.24129127230E+02 -0.19810230817E+03  0.20150855869E+03  0.00000000000E+00 0. -1.
        -13    1    3    3    0    0  0.31087064852E+02 -0.67383236230E+01 -0.10792062461E+02  0.33589867796E+02  0.00000000000E+00 0.  1.
         13    1    3    3    0    0 -0.47246010294E+02  0.41825591627E+02 -0.53874240890E+02  0.82969870647E+02  0.00000000000E+00 0. -1.
         21    1    1    2  502  501  0.19807282822E+02 -0.26217864084E+02 -0.24858756264E+02  0.41202701524E+02  0.00000000000E+00 0.  1.
<scales pt_clust_5="13000.00000" pt_clust_6="13000.00000" pt_clust_7="13000.00000" pt_clust_8="13000.00000" pt_clust_9="32.85886"></scales>
<clustering>
<clus scale="   32.859">  1  9  2 -1</clus>
<clus scale="   77.702">  5  6 -1 -1</clus>
<clus scale="   78.692">  2  5  1 -1</clus>
<clus scale="   88.951">  7  8 -1 -1</clus>
<clus scale="   78.692">  2  5  1 -1</clus>
</clustering>
</event>
<event>
 9    2  0.3402837E-005  0.1007921E+03  0.7546771E-02  0.1284966E+00
         -1   -1    0    0    0  501 -0.00000000000E+00  0.00000000000E+00  0.32430600847E+03  0.32430600847E+03  0.00000000000E+00 0.  1.
          2   -1    0    0  502    0  0.00000000000E+00 -0.00000000000E+00 -0.10170184894E+03  0.10170184894E+03  0.00000000000E+00 0. -1.
         24    2    1    2    0    0  0.68010009361E+02  0.58038944963E+01  0.55838286185E+02  0.11847330297E+03  0.79113606599E+02 0.  0.
         23    2    1    2    0    0 -0.18152072511E+02 -0.33547982343E+02 -0.29055560754E+02  0.10356989493E+03  0.91801594043E+02 0.  0.
        -11    1    3    3    0    0  0.43600710057E+02 -0.31704250722E+02  0.49663002062E+02  0.73297989093E+02  0.00000000000E+00 0.  1.
         12    1    3    3    0    0  0.24409299304E+02  0.37508145219E+02  0.61752841231E+01  0.45175313881E+02  0.00000000000E+00 0. -1.
        -11    1    4    4    0    0  0.75734454491E+01 -0.47861818511E+02 -0.48284455408E+02  0.68406866477E+02  0.00000000000E+00 0.  1.
         11    1    4    4    0    0 -0.25725517960E+02  0.14313836168E+02  0.19228894654E+02  0.35163028450E+02  0.00000000000E+00 0. -1.
         21    1    1    2  502  501 -0.49857936850E+02  0.27744087846E+02  0.19582143410E+03  0.20396465951E+03  0.00000000000E+00 0.  1.
<scales pt_clust_5="13000.00000" pt_clust_6="13000.00000" pt_clust_7="13000.00000" pt_clust_8="13000.00000" pt_clust_9="57.05741"></scales>
<clustering>
<clus scale="   57.057">  1  9  2 -1</clus>
<clus scale="   79.114">  5  6 -1 -1</clus>
<clus scale="   89.389">  1  5  2 -1</clus>
<clus scale="   91.802">  7  8 -1 -1</clus>
<clus scale="  100.792">  2  5  1 -1</clus>
</clustering>
</event>
<event>
 9    2  0.3402837E-005  0.9488385E+02  0.7546771E-02  0.1304752E+00
          2   -1    0    0  502    0  0.00000000000E+00  0.00000000000E+00  0.54317413313E+03  0.54317413313E+03  0.00000000000E+00 0. -1.
         -1   -1    0    0    0  501 -0.00000000000E+00 -0.00000000000E+00 -0.62606538532E+02  0.62606538532E+02  0.00000000000E+00 0.  1.
         23    2    1    2    0    0  0.14228567417E+02  0.24961436896E+02 -0.13110302956E+02  0.97891079120E+02  0.92656666597E+02 0.  0.
         24    2    1    2    0    0 -0.19797993739E+02 -0.50619544798E+01  0.47254988417E+03  0.47833623639E+03  0.71306227520E+02 0.  0.
        -13    1    4    4    0    0 -0.46063564114E+02 -0.83980727395E+01  0.26505289032E+03  0.26915685804E+03  0.00000000000E+00 0.  1.
         14    1    4    4    0    0  0.26265570376E+02  0.33361182597E+01  0.20749699385E+03  0.20917937835E+03  0.00000000000E+00 0. -1.
        -13    1    3    3    0    0 -0.35655433163E+02  0.20361586476E+02 -0.22653735052E+02  0.46894518119E+02  0.00000000000E+00 0.  1.
         13    1    3    3    0    0  0.49884000580E+02  0.45998504206E+01  0.95434320954E+01  0.50996561000E+02  0.00000000000E+00 0. -1.
         21    1    1    2  502  501  0.55694263216E+01 -0.19899482417E+02  0.21128013392E+02  0.29553356153E+02  0.00000000000E+00 0.  1.
<scales pt_clust_5="13000.00000" pt_clust_6="13000.00000" pt_clust_7="13000.00000" pt_clust_8="13000.00000" pt_clust_9="20.66417"></scales>
<clustering>
<clus scale="   20.664">  2  9  1 -1</clus>
<clus scale="   71.306">  5  6 -1 -1</clus>
<clus scale="   74.177">  1  5  2 -1</clus>
<clus scale="   92.657">  7  8 -1 -1</clus>
<clus scale="   74.177">  1  5  2 -1</clus>
</clustering>
</event>
<event>
 9    2  0.3402837E-005  0.1784874E+03  0.7546771E-02  0.1177569E+00
         -1   -1    0    0    0  501 -0.00000000000E+00  0.00000000000E+00  0.39362230435E+02  0.39362230435E+02  0.00000000000E+00 0.  1.
          2   -1    0    0  502    0  0.00000000000E+00 -0.00000000000E+00 -0.18464663980E+04  0.18464663980E+04  0.00000000000E+00 0. -1.
         23    2    1    2    0    0  0.15546398071E+03 -0.21293216237E+02 -0.77440776959E+03  0.79550312790E+03  0.92170399553E+02 0.  0.
         24    2    1    2    0    0 -0.57368962285E+02 -0.11221891271E+03 -0.73422723559E+03  0.74895771923E+03  0.77225316417E+02 0.  0.
        -11    1    4    4    0    0  0.26066954680E+01 -0.67689596004E+02 -0.25052769584E+03  0.25952418510E+03  0.00000000000E+00 0.  1.
         12    1    4    4    0    0 -0.59975657753E+02 -0.44529316709E+02 -0.48369953975E+03  0.48943353413E+03  0.00000000000E+00 0. -1.
        -13    1    3    3    0    0  0.39362815660E+02 -0.23746954070E+02 -0.87429233549E+02  0.98778641230E+02  0.00000000000E+00 0.  1.
         13    1    3    3    0    0  0.11610116505E+03  0.24537378334E+01 -0.68697853604E+03  0.69672448667E+03  0.00000000000E+00 0. -1.
         21    1    1    2  502  501 -0.98095018424E+02  0.13351212895E+03 -0.29846916235E+03  0.34136778127E+03  0.00000000000E+00 0. -1.
<scales pt_clust_5="13000.00000" pt_clust_6="13000.00000" pt_clust_7="13000.00000" pt_clust_8="13000.00000" pt_clust_9="152.84751"></scales>
<clustering>
<clus scale="   77.225">  5  6 -1 -1</clus>
<clus scale="   92.170">  7  8 -1 -1</clus>
<clus scale="  147.811">  2  5  1 -1</clus>
<clus scale="  152.848">  1  9  2 -1</clus>
<clus scale="  147.811">  2  5  1 -1</clus>
</clustering>
</event>
<event>
 9    2  0.3402837E-005  0.1185967E+03  0.7546771E-02  0.1248708E+00
          2   -1    0    0  502    0  0.00000000000E+00  0.00000000000E+00  0.10612829133E+04  0.10612829133E+04  0.00000000000E+00 0. -1.
         -1   -1    0    0    0  501 -0.00000000000E+00 -0.00000000000E+00 -0.22484509763E+02  0.22484509763E+02  0.00000000000E+00 0.  1.
         23    2    1    2    0    0  0.83195918259E+02  0.27660681308E+02  0.40903608838E+03  0.42833990413E+03  0.92075391768E+02 0.  0.
         24    2    1    2    0    0 -0.58309670510E+02 -0.37528502605E+02  0.61603754221E+03  0.62534316060E+03  0.82118261700E+02 0.  0.
        -13    1    4    4    0    0 -0.38598417603E+02 -0.85446762647E+00  0.93609015585E+02  0.10125816389E+03  0.00000000000E+00 0.  1.
         14    1    4    4    0    0 -0.19711252907E+02 -0.36674034978E+02  0.52242852663E+03  0.52408499670E+03  0.00000000000E+00 0. -1.
        -13    1    3    3    0    0  0.95341980810E+02  0.36914828302E+01  0.35993885768E+03  0.37237038230E+03  0.00000000000E+00 0. -1.
         13    1    3    3    0    0 -0.12146062550E+02  0.23969198477E+02  0.49097230703E+02  0.55969521830E+02  0.00000000000E+00 0.  1.
         21    1    1    2  502  501 -0.24886247749E+02  0.98678212970E+01  0.13724772946E+02  0.30084358338E+02  0.00000000000E+00 0.  1.
<scales pt_clust_5="13000.00000" pt_clust_6="13000.00000" pt_clust_7="13000.00000" pt_clust_8="13000.00000" pt_clust_9="26.77124"></scales>
<clustering>
<clus scale="   26.771">  2  9  1 -1</clus>
<clus scale="   82.118">  5  6 -1 -1</clus>
<clus scale="   92.075">  7  8 -1 -1</clus>
<clus scale="  111.044">  1  5  2 -1</clus>
<clus scale="  111.044">  1  5  2 -1</clus>
</clustering>
</event>
<event>
 9    2  0.3402837E-005  0.2259867E+03  0.7546771E-02  0.1171007E+00
          2   -1    0    0  502    0  0.00000000000E+00  0.00000000000E+00  0.31258225721E+03  0.31258225721E+03  0.00000000000E+00 0. -1.
         -1   -1    0    0    0  501 -0.00000000000E+00 -0.00000000000E+00 -0.23816598568E+03  0.23816598568E+03  0.00000000000E+00 0.  1.
         24    2    1    2    0    0  0.18017711560E+02 -0.44704508662E+02 -0.12669348083E+02  0.85468785091E+02  0.69435364330E+02 0.  0.
         23    2    1    2    0    0  0.10862248570E+03  0.18857200446E+03  0.12964754394E+03  0.26894526997E+03  0.90359434077E+02 0.  0.
        -13    1    3    3    0    0  0.38447917705E+02 -0.11196553800E+02 -0.21195170025E+02  0.45308282082E+02  0.00000000000E+00 0.  1.
         14    1    3    3    0    0 -0.20430206145E+02 -0.33507954862E+02  0.85258219421E+01  0.40160503009E+02  0.00000000000E+00 0. -1.
        -11    1    4    4    0    0  0.50514712289E+02  0.46701187651E+02  0.98714927748E+00  0.68801973441E+02  0.00000000000E+00 0.  1.
         11    1    4    4    0    0  0.58107773409E+02  0.14187081681E+03  0.12866039466E+03  0.20014329653E+03  0.00000000000E+00 0. -1.
         21    1    1    2  502  501 -0.12664019726E+03 -0.14386749580E+03 -0.42561924330E+02  0.19633418783E+03  0.00000000000E+00 0.  1.
<scales pt_clust_5="13000.00000" pt_clust_6="13000.00000" pt_clust_7="13000.00000" pt_clust_8="13000.00000" pt_clust_9="207.13563"></scales>
<clustering>
<clus scale="   69.435">  5  6 -1 -1</clus>
<clus scale="   84.525">  2  5  1 -1</clus>
<clus scale="   90.359">  7  8 -1 -1</clus>
<clus scale="  207.136">  2  9  1 -1</clus>
<clus scale="  225.987">  1  5  2 -1</clus>
</clustering>
</event>
<event>
 9    2  0.3402837E-005  0.9489206E+02  0.7546771E-02  0.1297482E+00
          2   -1    0    0  502    0  0.00000000000E+00  0.00000000000E+00  0.16436866278E+03  0.16436866278E+03  0.00000000000E+00 0. -1.
         -1   -1    0    0    0  501 -0.00000000000E+00 -0.00000000000E+00 -0.16556339399E+03  0.16556339399E+03  0.00000000000E+00 0.  1.
         24    2    1    2    0    0  0.37611917346E+01 -0.53355494869E-01 -0.11730272724E+03  0.14259596051E+03  0.80990917544E+02 0.  0.
         23    2    1    2    0    0 -0.23753558883E+02  0.14246034259E+02  0.12824914301E+03  0.15997674092E+03  0.91528869221E+02 0.  0.
        -11    1    3    3    0    0  0.33685727435E+02  0.25052202590E+02 -0.62911825984E+02  0.75632261212E+02  0.00000000000E+00 0.  1.
         12    1    3    3    0    0 -0.29924535701E+02 -0.25105558085E+02 -0.54390901261E+02  0.66963699298E+02  0.00000000000E+00 0. -1.
        -13    1    4    4    0    0 -0.50079365695E+02  0.35119534269E+02  0.92721453183E+02  0.11107921694E+03  0.00000000000E+00 0. -1.
         13    1    4    4    0    0  0.26325806812E+02 -0.20873500010E+02  0.35527689827E+02  0.48897523980E+02  0.00000000000E+00 0.  1.
         21    1    1    2  502  501  0.19992367148E+02 -0.14192678764E+02 -0.12141146977E+02  0.27359355340E+02  0.00000000000E+00 0.  1.
<scales pt_clust_5="13000.00000" pt_clust_6="13000.00000" pt_clust_7="13000.00000" pt_clust_8="13000.00000" pt_clust_9="24.51789"></scales>
<clustering>
<clus scale="   24.518">  2  9  1 -1</clus>
<clus scale="   80.991">  5  6 -1 -1</clus>
<clus scale="   84.773">  2  5  1 -1</clus>
<clus scale="   91.529">  7  8 -1 -1</clus>
<clus scale="   94.892">  1  5  2 -1</clus>
</clustering>
</event>
<event>
 9    2  0.3402837E-005  0.9199605E+02  0.7546771E-02  0.1303579E+00
          2   -1    0    0  502    0  0.00000000000E+00  0.00000000000E+00  0.16727167739E+03  0.16727167739E+03  0.00000000000E+00 0. -1.
         -1   -1    0    0    0  501 -0.00000000000E+00 -0.00000000000E+00 -0.14212986691E+03  0.14212986691E+03  0.00000000000E+00 0.  1.
         24    2    1    2    0    0  0.14986363370E+02  0.84611185946E+01  0.43953878511E+01  0.83462234594E+02  0.81550251711E+02 0.  0.
         23    2    1    2    0    0  0.20802416678E+02 -0.15535673047E+02  0.10080031041E+03  0.13796481882E+03  0.90551040731E+02 0.  0.
        -11    1    3    3    0    0  0.41733293204E+02  0.23498323180E+02  0.16238322014E+02  0.50571949297E+02  0.00000000000E+00 0.  1.
         12    1    3    3    0    0 -0.26746929834E+02 -0.15037204585E+02 -0.11842934163E+02  0.32890285296E+02  0.00000000000E+00 0. -1.
        -13    1    4    4    0    0  0.64442500423E+01 -0.39355262920E+02  0.74627373824E+01  0.40571634516E+02  0.00000000000E+00 0.  1.
         13    1    4    4    0    0  0.14358166636E+02  0.23819589872E+02  0.93337573025E+02  0.97393184305E+02  0.00000000000E+00 0. -1.
         21    1    1    2  502  501 -0.35788780048E+02  0.70745544527E+01 -0.80053887784E+02  0.87974490890E+02  0.00000000000E+00 0.  1.
<scales pt_clust_5="13000.00000" pt_clust_6="13000.00000" pt_clust_7="13000.00000" pt_clust_8="13000.00000" pt_clust_9="36.48131"></scales>
<clustering>
<clus scale="   36.481">  2  9  1 -1</clus>
<clus scale="   81.550">  5  6 -1 -1</clus>
<clus scale="   83.152">  2  5  1 -1</clus>
<clus scale="   90.551">  7  8 -1 -1</clus>
<clus scale="   91.996">  1  5  2 -1</clus>
</clustering>
</event>
<event>
 9    2  0.3402837E-005  0.1337170E+03  0.7546771E-02  0.1225177E+00
         -1   -1    0    0    0  501 -0.00000000000E+00  0.00000000000E+00  0.51560680617E+02  0.51560680617E+02  0.00000000000E+00 0.  1.
          2   -1    0    0  502    0  0.00000000000E+00 -0.00000000000E+00 -0.41487344964E+03  0.41487344964E+03  0.00000000000E+00 0. -1.
         23    2    1    2    0    0 -0.95599501300E+02 -0.57620822569E+02 -0.16531028493E+03  0.21967215075E+03  0.92026842105E+02 0.  0.
         24    2    1    2    0    0  0.75390877729E+02  0.44867568657E+02 -0.18504793086E+03  0.21958010317E+03  0.79219958533E+02 0.  0.
        -11    1    4    4    0    0  0.43528667103E+02  0.60020575566E+01 -0.22352034505E+02  0.49298914807E+02  0.00000000000E+00 0.  1.
         12    1    4    4    0    0  0.31862210627E+02  0.38865511100E+02 -0.16269589635E+03  0.17028118836E+03  0.00000000000E+00 0. -1.
        -11    1    3    3    0    0 -0.56718529382E+02  0.17468466569E+01 -0.24137345959E+02  0.61665667259E+02  0.00000000000E+00 0.  1.
         11    1    3    3    0    0 -0.38880971917E+02 -0.59367669226E+02 -0.14117293897E+03  0.15800648349E+03  0.00000000000E+00 0. -1.
         21    1    1    2  502  501  0.20208623570E+02  0.12753253912E+02 -0.12954553234E+02  0.27181876341E+02  0.00000000000E+00 0. -1.
<scales pt_clust_5="13000.00000" pt_clust_6="13000.00000" pt_clust_7="13000.00000" pt_clust_8="13000.00000" pt_clust_9="23.89632"></scales>
<clustering>
<clus scale="   23.896">  1  9  2 -1</clus>
<clus scale="   79.220">  5  6 -1 -1</clus>
<clus scale="   92.027">  7  8 -1 -1</clus>
<clus scale="  125.248">  2  5  1 -1</clus>
<clus scale="  125.248">  2  5  1 -1</clus>
</clustering>
</event>
<event>
 9    2  0.3402837E-005  0.1678874E+03  0.7546771E-02  0.1181530E+00
         -1   -1    0    0    0  501 -0.00000000000E+00  0.00000000000E+00  0.53247896295E+03  0.53247896295E+03  0.00000000000E+00 0.  1.
          2   -1    0    0  502    0  0.00000000000E+00 -0.00000000000E+00 -0.63487677893E+02  0.63487677893E+02  0.00000000000E+00 0. -1.
         23    2    1    2    0    0  0.95111082288E+02 -0.11808036944E+03  0.27962695948E+03  0.33092083876E+03  0.91259374481E+02 0.  0.
         24    2    1    2    0    0 -0.76163626570E+02  0.11152597026E+03  0.13593941969E+03  0.20798279485E+03  0.80860231707E+02 0.  0.
        -13    1    4    4    0    0 -0.63972200493E+02  0.10318717351E+03  0.69442662840E+02  0.13986535895E+03  0.00000000000E+00 0.  1.
         14    1    4    4    0    0 -0.12191426077E+02  0.83387967526E+01  0.66496756854E+02  0.68117435897E+02  0.00000000000E+00 0. -1.
        -11    1    3    3    0    0  0.20349109395E+02 -0.83634960073E+02  0.19351400899E+03  0.21179368375E+03  0.00000000000E+00 0.  1.
         11    1    3    3    0    0  0.74761972893E+02 -0.34445409371E+02  0.86112950490E+02  0.11912715501E+03  0.00000000000E+00 0. -1.
         21    1    1    2  502  501 -0.18947455718E+02  0.65543991819E+01  0.53424905876E+02  0.57063007235E+02  0.00000000000E+00 0. -1.
<scales pt_clust_5="13000.00000" pt_clust_6="13000.00000" pt_clust_7="13000.00000" pt_clust_8="13000.00000" pt_clust_9="20.04910"></scales>
<clustering>
<clus scale="   20.049">  1  9  2 -1</clus>
<clus scale="   80.860">  5  6 -1 -1</clus>
<clus scale="   91.259">  7  8 -1 -1</clus>
<clus scale="  162.469">  2  5  1 -1</clus>
<clus scale="  162.469">  2  5  1 -1</clus>
</clustering>
</event>
<event>
 9    2  0.3402837E-005  0.1262342E+03  0.7546771E-02  0.1235524E+00
         -1   -1    0    0    0  501 -0.00000000000E+00  0.00000000000E+00  0.35850707200E+03  0.35850707200E+03  0.00000000000E+00 0.  1.
          2   -1    0    0  502    0  0.00000000000E+00 -0.00000000000E+00 -0.20179465113E+03  0.20179465113E+03  0.00000000000E+00 0. -1.
         23    2    1    2    0    0  0.76925140616E+02 -0.23452095284E+01  0.18314205752E+03  0.21775916438E+03  0.89191160837E+02 0.  0.
         24    2    1    2    0    0 -0.82696462612E+02  0.38368615217E+02 -0.16176243411E+03  0.20237851206E+03  0.80492990339E+02 0.  0.
        -11    1    4    4    0    0 -0.57748391822E+02  0.15534912206E+02 -0.31089615256E+02  0.67400107063E+02  0.00000000000E+00 0.  1.
         12    1    4    4    0    0 -0.24948070789E+02  0.22833703010E+02 -0.13067281885E+03  0.13497840500E+03  0.00000000000E+00 0. -1.
        -11    1    3    3    0    0  0.64091615071E+02  0.38489907218E+02  0.10967735820E+03  0.13273406112E+03  0.00000000000E+00 0.  1.
         11    1    3    3    0    0  0.12833525544E+02 -0.40835116746E+02  0.73464699323E+02  0.85025103259E+02  0.00000000000E+00 0. -1.
         21    1    1    2  502  501  0.57713219960E+01 -0.36023405688E+02  0.13533279746E+03  0.14016404668E+03  0.00000000000E+00 0. -1.
<scales pt_clust_5="13000.00000" pt_clust_6="13000.00000" pt_clust_7="13000.00000" pt_clust_8="13000.00000" pt_clust_9="36.48279"></scales>
<clustering>
<clus scale="   36.483">  1  9  2 -1</clus>
<clus scale="   80.493">  5  6 -1 -1</clus>
<clus scale="   89.191">  7  8 -1 -1</clus>
<clus scale="  120.246">  2  5  1 -1</clus>
<clus scale="  120.246">  2  5  1 -1</clus>
</clustering>
</event>
<event>
 9    2  0.3402837E-005  0.1595255E+03  0.7546771E-02  0.1191143E+00
         -1   -1    0    0    0  501 -0.00000000000E+00  0.00000000000E+00  0.52105734062E+02  0.52105734062E+02  0.00000000000E+00 0.  1.
          2   -1    0    0  502    0  0.00000000000E+00 -0.00000000000E+00 -0.73690881434E+03  0.73690881434E+03  0.00000000000E+00 0. -1.
         23    2    1    2    0    0 -0.94087048056E+02  0.18574916712E+02 -0.13541730333E+03  0.18964589620E+03  0.91816772779E+02 0.  0.
         24    2    1    2    0    0  0.13761374119E+03 -0.62219647468E+02 -0.46083625475E+03  0.49147771921E+03  0.79821478910E+02 0.  0.
        -11    1    4    4    0    0  0.12514077923E+03 -0.20080875864E+02 -0.33347629173E+03  0.35674906216E+03  0.00000000000E+00 0.  1.
         12    1    4    4    0    0  0.12472961960E+02 -0.42138771604E+02 -0.12735996302E+03  0.13472865706E+03  0.00000000000E+00 0. -1.
        -13    1    3    3    0    0 -0.51993862168E+02  0.29313693148E+02 -0.14873396740E+02  0.61513187527E+02  0.00000000000E+00 0.  1.
         13    1    3    3    0    0 -0.42093185889E+02 -0.10738776436E+02 -0.12054390659E+03  0.12813270868E+03  0.00000000000E+00 0. -1.
         21    1    1    2  502  501 -0.43526693137E+02  0.43644730756E+02 -0.88549522200E+02  0.10789093298E+03  0.00000000000E+00 0.  1.
<scales pt_clust_5="13000.00000" pt_clust_6="13000.00000" pt_clust_7="13000.00000" pt_clust_8="13000.00000" pt_clust_9="61.63956"></scales>
<clustering>
<clus scale="   61.640">  1  9  2 -1</clus>
<clus scale="   79.821">  5  6 -1 -1</clus>
<clus scale="   91.817">  7  8 -1 -1</clus>
<clus scale="  152.936">  2  5  1 -1</clus>
<clus scale="  152.936">  2  5  1 -1</clus>
</clustering>
</event>
<event>
 9    2  0.3402837E-005  0.1270311E+03  0.7546771E-02  0.1246320E+00
         -1   -1    0    0    0  501 -0.00000000000E+00  0.00000000000E+00  0.19210612620E+03  0.19210612620E+03  0.00000000000E+00 0.  1.
          2   -1    0    0  502    0  0.00000000000E+00 -0.00000000000E+00 -0.22263736968E+03  0.22263736968E+03  0.00000000000E+00 0. -1.
         24    2    1    2    0    0 -0.35677543112E+02 -0.36625631355E+02  0.50092253963E+02  0.10721601661E+03  0.79823031488E+02 0.  0.
         23    2    1    2    0    0 -0.77105840027E+02  0.30396137978E+02 -0.13415417182E+03  0.18252975449E+03  0.91926784380E+02 0.  0.
        -13    1    3    3    0    0 -0.32185644965E+02 -0.54210812785E+02  0.10715141020E+02  0.63949528628E+02  0.00000000000E+00 0.  1.
         14    1    3    3    0    0 -0.34918981475E+01  0.17585181430E+02  0.39377112944E+02  0.43266487983E+02  0.00000000000E+00 0. -1.
        -11    1    4    4    0    0  0.41245294863E+01  0.28451149249E+02 -0.79674370973E+02  0.84702331887E+02  0.00000000000E+00 0.  1.
         11    1    4    4    0    0 -0.81230369514E+02  0.19449887288E+01 -0.54479800845E+02  0.97827422600E+02  0.00000000000E+00 0. -1.
         21    1    1    2  502  501  0.11278338314E+03  0.62294933775E+01  0.53530674380E+02  0.12499772478E+03  0.00000000000E+00 0.  1.
<scales pt_clust_5="13000.00000" pt_clust_6="13000.00000" pt_clust_7="13000.00000" pt_clust_8="13000.00000" pt_clust_9="87.67191"></scales>
<clustering>
<clus scale="   79.823">  5  6 -1 -1</clus>
<clus scale="   91.927">  7  8 -1 -1</clus>
<clus scale="   94.795">  1  5  2 -1</clus>
<clus scale="   87.672">  1  9  2 -1</clus>
<clus scale="  127.031">  2  5  1 -1</clus>
</clustering>
</event>
<event>
 9    2  0.3402837E-005  0.1089639E+03  0.7546771E-02  0.1271693E+00
         -1   -1    0    0    0  501 -0.00000000000E+00  0.00000000000E+00  0.77092070315E+02  0.77092070315E+02  0.00000000000E+00 0.  1.
          2   -1    0    0  502    0  0.00000000000E+00 -0.00000000000E+00 -0.89500069160E+03  0.89500069160E+03  0.00000000000E+00 0. -1.
         23    2    1    2    0    0  0.36393159082E+02  0.34606248413E+01 -0.20885781699E+03  0.23158662543E+03  0.93136133733E+02 0.  0.
         24    2    1    2    0    0 -0.58921550836E+02  0.24090830811E+02 -0.66627699386E+03  0.67311587077E+03  0.71469053796E+02 0.  0.
        -11    1    4    4    0    0 -0.40011247298E+00  0.20497984750E+02 -0.49772637452E+02  0.53829758570E+02  0.00000000000E+00 0.  1.
         12    1    4    4    0    0 -0.58521438363E+02  0.35928460607E+01 -0.61650435641E+03  0.61928611220E+03  0.00000000000E+00 0. -1.
        -13    1    3    3    0    0  0.16728696432E+00  0.33644660933E+02 -0.16071430271E+03  0.16419828955E+03  0.00000000000E+00 0. -1.
         13    1    3    3    0    0  0.36225872118E+02 -0.30184036092E+02 -0.48143514274E+02  0.67388335876E+02  0.00000000000E+00 0.  1.
         21    1    1    2  502  501  0.22528391754E+02 -0.27551455652E+02  0.57226189557E+02  0.67390265727E+02  0.00000000000E+00 0.  1.
<scales pt_clust_5="13000.00000" pt_clust_6="13000.00000" pt_clust_7="13000.00000" pt_clust_8="13000.00000" pt_clust_9="35.58948"></scales>
<clustering>
<clus scale="   35.589">  1  9  2 -1</clus>
<clus scale="   71.469">  5  6 -1 -1</clus>
<clus scale="   91.141">  2  5  1 -1</clus>
<clus scale="   93.136">  7  8 -1 -1</clus>
<clus scale="   91.141">  2  5  1 -1</clus>
</clustering>
</event>
<event>
 9    2  0.3402837E-005  0.1136367E+03  0.7546771E-02  0.1257286E+00
         -1   -1    0    0    0  501 -0.00000000000E+00  0.00000000000E+00  0.17135860467E+03  0.17135860467E+03  0.00000000000E+00 0.  1.
          2   -1    0    0  502    0  0.00000000000E+00 -0.00000000000E+00 -0.10151724179E+03  0.10151724179E+03  0.00000000000E+00 0. -1.
         23    2    1    2    0    0 -0.62718987228E+02 -0.42371299309E+02  0.79981262530E+02  0.14317202983E+03  0.91499887458E+02 0.  0.
         24    2    1    2    0    0  0.32982776810E+02  0.43498276737E+02 -0.13524064667E+02  0.99754445013E+02  0.82389837538E+02 0.  0.
        -11    1    4    4    0    0 -0.26569765288E+02  0.23906530435E+02 -0.61675322241E+00  0.35747097917E+02  0.00000000000E+00 0.  1.
         12    1    4    4    0    0  0.59552542099E+02  0.19591746302E+02 -0.12907311444E+02  0.64007347096E+02  0.00000000000E+00 0. -1.
        -13    1    3    3    0    0 -0.39425695873E+02  0.49939560714E+01  0.81169181260E+02  0.90375666408E+02  0.00000000000E+00 0.  1.
         13    1    3    3    0    0 -0.23293291355E+02 -0.47365255380E+02 -0.11879187297E+01  0.52796363419E+02  0.00000000000E+00 0. -1.
         21    1    1    2  502  501  0.29736210418E+02 -0.11269774281E+01  0.33841650167E+01  0.29949371630E+02  0.00000000000E+00 0. -1.
<scales pt_clust_5="13000.00000" pt_clust_6="13000.00000" pt_clust_7="13000.00000" pt_clust_8="13000.00000" pt_clust_9="29.75756"></scales>
<clustering>
<clus scale="   29.758">  2  9  1 -1</clus>
<clus scale="   82.390">  5  6 -1 -1</clus>
<clus scale="   91.500">  7  8 -1 -1</clus>
<clus scale="  106.439">  2  5  1 -1</clus>
<clus scale="   29.758">  2  5  1 -1</clus>
</clustering>
</event>
<event>
 9    2  0.3402837E-005  0.8579983E+02  0.7546771E-02  0.1316718E+00
         -1   -1    0    0    0  501 -0.00000000000E+00  0.00000000000E+00  0.29273376090E+03  0.29273376090E+03  0.00000000000E+00 0.  1.
          2   -1    0    0  502    0  0.00000000000E+00 -0.00000000000E+00 -0.11798277686E+03  0.11798277686E+03  0.00000000000E+00 0. -1.
         24    2    1    2    0    0  0.56617596775E+02 -0.11246732601E+02  0.14020816458E+03  0.17177852822E+03  0.80730985898E+02 0.  0.
         23    2    1    2    0    0  0.48904760824E+01 -0.90175109613E+00 -0.74128562627E+02  0.11347766534E+03  0.85775327589E+02 0.  0.
        -13    1    3    3    0    0  0.12706851590E+02 -0.36157826530E+02  0.24370908882E+02  0.45417988688E+02  0.00000000000E+00 0.  1.
         14    1    3    3    0    0  0.43910745185E+02  0.24911093929E+02  0.11583725570E+03  0.12636053953E+03  0.00000000000E+00 0. -1.
        -13    1    4    4    0    0 -0.23526286819E+02 -0.24419383390E+02 -0.38749102890E+01  0.34129274625E+02  0.00000000000E+00 0.  1.
         13    1    4    4    0    0  0.28416762902E+02  0.23517632294E+02 -0.70253652338E+02  0.79348390717E+02  0.00000000000E+00 0. -1.
         21    1    1    2  502  501 -0.61508072857E+02  0.12148483697E+02  0.10867138209E+03  0.12546034420E+03  0.00000000000E+00 0.  1.
<scales pt_clust_5="13000.00000" pt_clust_6="13000.00000" pt_clust_7="13000.00000" pt_clust_8="13000.00000" pt_clust_9="62.69632"></scales>
<clustering>
<clus scale="   62.696">  1  9  2 -1</clus>
<clus scale="   80.731">  5  6 -1 -1</clus>
<clus scale="   80.757">  1  5  2 -1</clus>
<clus scale="   85.775">  7  8 -1 -1</clus>
<clus scale="   85.800">  2  5  1 -1</clus>
</clustering>
</event>
<event>
 9    2  0.3402837E-005  0.9226730E+02  0.7546771E-02  0.1303418E+00
          2   -1    0    0  502    0  0.00000000000E+00  0.00000000000E+00  0.29976719744E+03  0.29976719744E+03  0.00000000000E+00 0. -1.
         -1   -1    0    0    0  501 -0.00000000000E+00 -0.00000000000E+00 -0.11400770187E+03  0.11400770187E+03  0.00000000000E+00 0.  1.
         24    2    1    2    0    0  0.50162613099E+02  0.98347364198E+01  0.52106152558E+01  0.94107114750E+02  0.78841541981E+02 0.  0.
         23    2    1    2    0    0  0.10738990309E+02  0.32644418745E+02  0.21696836508E+03  0.23696432157E+03  0.88858506988E+02 0.  0.
        -11    1    3    3    0    0 -0.16382776038E+02  0.16438059005E+02 -0.10408527306E+02  0.25435065859E+02  0.00000000000E+00 0.  1.
         12    1    3    3    0    0  0.66545389137E+02 -0.66033225855E+01  0.15619142562E+02  0.68672048891E+02  0.00000000000E+00 0. -1.
        -11    1    4    4    0    0 -0.16553141971E+02  0.40943746941E+02  0.46516320738E+02  0.64141757208E+02  0.00000000000E+00 0.  1.
         11    1    4    4    0    0  0.27292132280E+02 -0.82993281966E+01  0.17045204434E+03  0.17282256436E+03  0.00000000000E+00 0. -1.
         21    1    1    2  502  501 -0.60901603408E+02 -0.42479155164E+02 -0.36419484766E+02  0.82703462997E+02  0.00000000000E+00 0.  1.
<scales pt_clust_5="13000.00000" pt_clust_6="13000.00000" pt_clust_7="13000.00000" pt_clust_8="13000.00000" pt_clust_9="74.25284"></scales>
<clustering>
<clus scale="   74.253">  2  9  1 -1</clus>
<clus scale="   78.842">  5  6 -1 -1</clus>
<clus scale="   82.664">  2  5  1 -1</clus>
<clus scale="   88.859">  7  8 -1 -1</clus>
<clus scale="   92.267">  1  5  2 -1</clus>
</clustering>
</event>
<event>
 9    2  0.3402837E-005  0.1069695E+03  0.7546771E-02  0.1271668E+00
         -1   -1    0    0    0  501 -0.00000000000E+00  0.00000000000E+00  0.35202589085E+02  0.35202589085E+02  0.00000000000E+00 0.  1.
          2   -1    0    0  502    0  0.00000000000E+00 -0.00000000000E+00 -0.50636156912E+03  0.50636156912E+03  0.00000000000E+00 0. -1.
         23    2    1    2    0    0  0.39272441047E+02  0.16003858527E+02 -0.80331475775E+02  0.12930285485E+03  0.92019748743E+02 0.  0.
         24    2    1    2    0    0 -0.58007342139E+02 -0.47386827990E+01 -0.36672230727E+03  0.37971961893E+03  0.79463397197E+02 0.  0.
        -11    1    4    4    0    0 -0.25690876616E+02  0.31774117491E+02 -0.91468327571E+02  0.10018019082E+03  0.00000000000E+00 0.  1.
         12    1    4    4    0    0 -0.32316465523E+02 -0.36512800290E+02 -0.27525397970E+03  0.27953942812E+03  0.00000000000E+00 0. -1.
        -13    1    3    3    0    0  0.16856831351E+02  0.44552294902E+02 -0.78995480353E+01  0.48285221377E+02  0.00000000000E+00 0.  1.
         13    1    3    3    0    0  0.22415609696E+02 -0.28548436376E+02 -0.72431927739E+02  0.81017633473E+02  0.00000000000E+00 0. -1.
         21    1    1    2  502  501  0.18734901092E+02 -0.11265175728E+02 -0.24105196983E+02  0.32541684417E+02  0.00000000000E+00 0. -1.
<scales pt_clust_5="13000.00000" pt_clust_6="13000.00000" pt_clust_7="13000.00000" pt_clust_8="13000.00000" pt_clust_9="21.86094"></scales>
<clustering>
<clus scale="   21.861">  1  9  2 -1</clus>
<clus scale="   79.463">  5  6 -1 -1</clus>
<clus scale="   92.020">  7  8 -1 -1</clus>
<clus scale="   96.381">  2  5  1 -1</clus>
<clus scale="   96.381">  2  5  1 -1</clus>
</clustering>
</event>
<event>
 9    2  0.3402837E-005  0.8049750E+02  0.7546771E-02  0.1332741E+00
          2   -1    0    0  502    0  0.00000000000E+00  0.00000000000E+00  0.19698735678E+03  0.19698735678E+03  0.00000000000E+00 0. -1.
         -1   -1    0    0    0  501 -0.00000000000E+00 -0.00000000000E+00 -0.12393626430E+03  0.12393626430E+03  0.00000000000E+00 0.  1.
         24    2    1    2    0    0  0.21546117034E+02 -0.13786308540E+02  0.17358966726E+02  0.85918338722E+02  0.80164391974E+02 0.  0.
         23    2    1    2    0    0 -0.16860517145E+01 -0.91659133395E+01  0.13291014409E+03  0.15203631805E+03  0.73233044899E+02 0.  0.
        -11    1    3    3    0    0 -0.28510952739E+02  0.34386673072E+01  0.16191627015E+02  0.32967675750E+02  0.00000000000E+00 0.  1.
         12    1    3    3    0    0  0.50057069773E+02 -0.17224975847E+02  0.11673397115E+01  0.52950662973E+02  0.00000000000E+00 0. -1.
        -13    1    4    4    0    0  0.22827003119E+02 -0.26672197557E+02  0.10593613833E+03  0.11160171861E+03  0.00000000000E+00 0. -1.
         13    1    4    4    0    0 -0.24513054833E+02  0.17506284217E+02  0.26974005765E+02  0.40434599434E+02  0.00000000000E+00 0.  1.
         21    1    1    2  502  501 -0.19860065319E+02  0.22952221880E+02 -0.77218018334E+02  0.82968964313E+02  0.00000000000E+00 0.  1.
<scales pt_clust_5="13000.00000" pt_clust_6="13000.00000" pt_clust_7="13000.00000" pt_clust_8="13000.00000" pt_clust_9="30.35172"></scales>
<clustering>
<clus scale="   30.352">  2  9  1 -1</clus>
<clus scale="   73.233">  7  8 -1 -1</clus>
<clus scale="   73.598">  1  7  2 -1</clus>
<clus scale="   80.164">  5  6 -1 -1</clus>
<clus scale="   73.598">  1  5  2 -1</clus>
</clustering>
</event>
<event>
 9    2  0.3402837E-005  0.1484085E+03  0.7546771E-02  0.1217732E+00
         -3   -1    0    0    0  501 -0.00000000000E+00  0.00000000000E+00  0.70157547717E+03  0.70157547717E+03  0.00000000000E+00 0.  1.
          4   -1    0    0  502    0  0.00000000000E+00 -0.00000000000E+00 -0.16445015556E+03  0.16445015556E+03  0.00000000000E+00 0. -1.
         23    2    1    2    0    0  0.14871262554E+01 -0.52392800105E+02  0.57284274516E+03  0.58276372453E+03  0.93367718719E+02 0.  0.
         24    2    1    2    0    0 -0.10497401707E+03  0.17991232391E+02 -0.74685890439E+02  0.16745367946E+03  0.10544915283E+03 0.  0.
        -11    1    4    4    0    0 -0.10319272071E+03  0.24281177985E+02 -0.14598075143E+02  0.10701129384E+03  0.00000000000E+00 0.  1.
         12    1    4    4    0    0 -0.17812963611E+01 -0.62899455941E+01 -0.60087815296E+02  0.60442385619E+02  0.00000000000E+00 0. -1.
        -13    1    3    3    0    0 -0.29333114331E+02 -0.66853061666E+02  0.39641818536E+03  0.40308453349E+03  0.00000000000E+00 0.  1.
         13    1    3    3    0    0  0.30820240586E+02  0.14460261561E+02  0.17642455980E+03  0.17967919104E+03  0.00000000000E+00 0. -1.
         21    1    1    2  502  501  0.10348689082E+03  0.34401567714E+02  0.38968466890E+02  0.11580822874E+03  0.00000000000E+00 0.  1.
<scales pt_clust_5="13000.00000" pt_clust_6="13000.00000" pt_clust_7="13000.00000" pt_clust_8="13000.00000" pt_clust_9="104.42964"></scales>
<clustering>
<clus scale="   93.368">  7  8 -1 -1</clus>
<clus scale="  105.449">  5  6 -1 -1</clus>
<clus scale="  107.074">  1  7  2 -1</clus>
<clus scale="  104.430">  1  9  2 -1</clus>
<clus scale="  148.408">  2  5  1 -1</clus>
</clustering>
</event>
<event>
 9    2  0.3402837E-005  0.9527888E+02  0.7546771E-02  0.1293347E+00
          2   -1    0    0  502    0  0.00000000000E+00  0.00000000000E+00  0.13176922391E+03  0.13176922391E+03  0.00000000000E+00 0. -1.
         -1   -1    0    0    0  501 -0.00000000000E+00 -0.00000000000E+00 -0.14246279351E+03  0.14246279351E+03  0.00000000000E+00 0.  1.
         23    2    1    2    0    0 -0.31527023818E+02 -0.22193834011E+02 -0.93998694656E+02  0.13467656544E+03  0.88405334584E+02 0.  0.
         24    2    1    2    0    0  0.24492729551E+02  0.10529289157E+01  0.78077453007E+02  0.11666991682E+03  0.83155146339E+02 0.  0.
        -11    1    4    4    0    0  0.21993033228E+02 -0.32690961159E+02  0.10003587717E+02  0.40650513149E+02  0.00000000000E+00 0.  1.
         12    1    4    4    0    0  0.24996963229E+01  0.33743890074E+02  0.68073865290E+02  0.76019403672E+02  0.00000000000E+00 0. -1.
        -13    1    3    3    0    0 -0.16133689069E+02  0.34284675771E+02 -0.38182458346E+02  0.53792518449E+02  0.00000000000E+00 0. -1.
         13    1    3    3    0    0 -0.15393334749E+02 -0.56478509783E+02 -0.55816236310E+02  0.80884046992E+02  0.00000000000E+00 0.  1.
         21    1    1    2  502  501  0.70342942671E+01  0.21140905096E+02  0.52276720502E+01  0.22885535151E+02  0.00000000000E+00 0. -1.
<scales pt_clust_5="13000.00000" pt_clust_6="13000.00000" pt_clust_7="13000.00000" pt_clust_8="13000.00000" pt_clust_9="22.28047"></scales>
<clustering>
<clus scale="   22.280">  1  9  2 -1</clus>
<clus scale="   83.155">  5  6 -1 -1</clus>
<clus scale="   88.405">  7  8 -1 -1</clus>
<clus scale="   90.429">  1  5  2 -1</clus>
<clus scale="   22.280">  1  5  2 -1</clus>
</clustering>
</event>
