<event>
 9    1  0.2333971E-005  0.1434742E+03  0.7546771E-02  0.1210416E+00
          1   -1    0    0  502    0  0.00000000000E+00  0.00000000000E+00  0.10075355766E+04  0.10075355766E+04  0.00000000000E+00 0. -1.
         -2   -1    0    0    0  501 -0.00000000000E+00 -0.00000000000E+00 -0.30528505947E+02  0.30528505947E+02  0.00000000000E+00 0.  1.
         23    2    1    2    0    0 -0.38025226048E+02  0.92520420022E+02  0.20159898196E+03  0.24280306052E+03  0.91133038648E+02 0.  0.
        -24    2    1    2    0    0  0.62850066155E+02 -0.96123458714E+02  0.72772626713E+03  0.74138328375E+03  0.82908403858E+02 0.  0.
         11    1    4    4    0    0  0.34721041595E+02 -0.10611010335E+03  0.55980578330E+03  0.57083046500E+03  0.00000000000E+00 0. -1.
        -12    1    4    4    0    0  0.28129024560E+02  0.99866446365E+01  0.16792048383E+03  0.17055281875E+03  0.00000000000E+00 0.  1.
        -11    1    3    3    0    0  0.21006694397E+02  0.68382097422E+02  0.10776430981E+03  0.12934658451E+03  0.00000000000E+00 0. -1.
         11    1    3    3    0    0 -0.59031920445E+02  0.24138322600E+02  0.93834672154E+02  0.11345647601E+03  0.00000000000E+00 0.  1.
         21    1    1    2  502  501 -0.24824840107E+02  0.36030386921E+01  0.47681821603E+02  0.53877738311E+02  0.00000000000E+00 0.  1.
<scales pt_clust_5="13000.00000" pt_clust_6="13000.00000" pt_clust_7="13000.00000" pt_clust_8="13000.00000" pt_clust_9="25.08495"></scales>
<clustering>
<clus scale="   25.085">  2  9  1 -1</clus>
<clus scale="   82.908">  5  6 -1 -1</clus>
<clus scale="   91.133">  7  8 -1 -1</clus>
<clus scale="  138.396">  1  5  2 -1</clus>
<clus scale="  138.396">  1  5  2 -1</clus>
</clustering>
</event>
<event>
 9    1  0.2333971E-005  0.1147859E+03  0.7546771E-02  0.1256133E+00
         -2   -1    0    0    0  501 -0.00000000000E+00  0.00000000000E+00  0.19781703546E+03  0.19781703546E+03  0.00000000000E+00 0.  1.
          1   -1    0    0  502    0  0.00000000000E+00 -0.00000000000E+00 -0.13178948331E+03  0.13178948331E+03  0.00000000000E+00 0. -1.
         23    2    1    2    0    0 -0.88881180450E+02  0.19887815286E+02 -0.65540730366E+00  0.12906232401E+03  0.91439950152E+02 0.  0.
        -24    2    1    2    0    0  0.37895826660E+02 -0.48760762582E+02 -0.12996679195E+02  0.10164020999E+03  0.79675046104E+02 0.  0.
         11    1    4    4    0    0  0.51476975811E+02 -0.18640558532E+01 -0.11578443445E+02  0.52795966659E+02  0.00000000000E+00 0. -1.
        -12    1    4    4    0    0 -0.13581149151E+02 -0.46896706729E+02 -0.14182357498E+01  0.48844243335E+02  0.00000000000E+00 0.  1.
        -13    1    3    3    0    0 -0.48281475961E+02  0.55626344659E+02 -0.94583546335E+01  0.74262046924E+02  0.00000000000E+00 0.  1.
         13    1    3    3    0    0 -0.40599704490E+02 -0.35738529373E+02  0.88029473299E+01  0.54800277081E+02  0.00000000000E+00 0. -1.
         21    1    1    2  502  501  0.50985353790E+02  0.28872947296E+02  0.79679638649E+02  0.98903984763E+02  0.00000000000E+00 0. -1.
<scales pt_clust_5="13000.00000" pt_clust_6="13000.00000" pt_clust_7="13000.00000" pt_clust_8="13000.00000" pt_clust_9="58.59312"></scales>
<clustering>
<clus scale="   58.593">  1  9  2 -1</clus>
<clus scale="   79.675">  5  6 -1 -1</clus>
<clus scale="   91.440">  7  8 -1 -1</clus>
<clus scale="  105.653">  2  5  1 -1</clus>
<clus scale="  105.653">  2  5  1 -1</clus>
</clustering>
</event>
<event>
 9    1  0.2333971E-005  0.1583274E+03  0.7546771E-02  0.1192254E+00
          3   -1    0    0  502    0  0.00000000000E+00  0.00000000000E+00  0.47005518206E+03  0.47005518206E+03  0.00000000000E+00 0. -1.
         -4   -1    0    0    0  501 -0.00000000000E+00 -0.00000000000E+00 -0.20659379534E+03  0.20659379534E+03  0.00000000000E+00 0.  1.
         23    2    1    2    0    0  0.85411559250E+02 -0.42287574711E+02 -0.11300623236E+03  0.17355524866E+03  0.90926576743E+02 0.  0.
        -24    2    1    2    0    0 -0.13413150423E+03 -0.25051732606E+01  0.40258604286E+03  0.43194462214E+03  0.80641790432E+02 0.  0.
         13    1    4    4    0    0 -0.22329048797E+02 -0.33537770502E+02  0.94319505305E+02  0.10256479684E+03  0.00000000000E+00 0. -1.
        -14    1    4    4    0    0 -0.11180245543E+03  0.31032597241E+02  0.30826653756E+03  0.32937982529E+03  0.00000000000E+00 0.  1.
        -11    1    3    3    0    0  0.93439800256E+02 -0.78879972594E+01 -0.65620520817E+02  0.11445204028E+03  0.00000000000E+00 0.  1.
         11    1    3    3    0    0 -0.80282410065E+01 -0.34399577451E+02 -0.47385711541E+02  0.59103208379E+02  0.00000000000E+00 0. -1.
         21    1    1    2  502  501  0.48719944977E+02  0.44792747971E+02 -0.26118423788E+02  0.71149106604E+02  0.00000000000E+00 0.  1.
<scales pt_clust_5="13000.00000" pt_clust_6="13000.00000" pt_clust_7="13000.00000" pt_clust_8="13000.00000" pt_clust_9="66.18174"></scales>
<clustering>
<clus scale="   66.182">  2  9  1 -1</clus>
<clus scale="   80.642">  5  6 -1 -1</clus>
<clus scale="   90.927">  7  8 -1 -1</clus>
<clus scale="  152.653">  1  5  2 -1</clus>
<clus scale="  152.653">  1  5  2 -1</clus>
</clustering>
</event>
<event>
 9    1  0.2333971E-005  0.8268000E+02  0.7546771E-02  0.1321698E+00
         -2   -1    0    0    0  501 -0.00000000000E+00  0.00000000000E+00  0.10344405747E+03  0.10344405747E+03  0.00000000000E+00 0.  1.
          1   -1    0    0  502    0  0.00000000000E+00 -0.00000000000E+00 -0.15518591734E+03  0.15518591734E+03  0.00000000000E+00 0. -1.
        -24    2    1    2    0    0  0.13698590059E+02  0.52804324552E+01  0.40208421751E+02  0.90609410521E+02  0.79861215610E+02 0.  0.
         23    2    1    2    0    0  0.50737054285E+01  0.27127613600E+02 -0.98655178126E+02  0.12997275010E+03  0.79990134966E+02 0.  0.
         11    1    3    3    0    0  0.45754782601E+02 -0.29232213322E+01  0.12687874843E+02  0.47571288839E+02  0.00000000000E+00 0. -1.
        -12    1    3    3    0    0 -0.32056192542E+02  0.82036537874E+01  0.27520546908E+02  0.43038121682E+02  0.00000000000E+00 0.  1.
        -13    1    4    4    0    0  0.30754059232E+02  0.20076006584E+02 -0.96502489746E+02  0.10325496950E+03  0.00000000000E+00 0. -1.
         13    1    4    4    0    0 -0.25680353804E+02  0.70516070166E+01 -0.21526883799E+01  0.26717780601E+02  0.00000000000E+00 0.  1.
         21    1    1    2  502  501 -0.18772295487E+02 -0.32408046056E+02  0.67048965051E+01  0.38047814184E+02  0.00000000000E+00 0.  1.
<scales pt_clust_5="13000.00000" pt_clust_6="13000.00000" pt_clust_7="13000.00000" pt_clust_8="13000.00000" pt_clust_9="37.45238"></scales>
<clustering>
<clus scale="   37.452">  1  9  2 -1</clus>
<clus scale="   79.861">  5  6 -1 -1</clus>
<clus scale="   79.990">  7  8 -1 -1</clus>
<clus scale="   82.555">  1  5  2 -1</clus>
<clus scale="   82.680">  2  5  1 -1</clus>
</clustering>
</event>
<event>
 9    1  0.2333971E-005  0.1193635E+03  0.7546771E-02  0.1248853E+00
         -2   -1    0    0    0  501 -0.00000000000E+00  0.00000000000E+00  0.22957545162E+03  0.22957545162E+03  0.00000000000E+00 0.  1.
          1   -1    0    0  502    0  0.00000000000E+00 -0.00000000000E+00 -0.16228244611E+03  0.16228244611E+03  0.00000000000E+00 0. -1.
         23    2    1    2    0    0 -0.79908299045E+02  0.22263792351E+01  0.14773921953E+03  0.19298044920E+03  0.94996230269E+02 0.  0.
        -24    2    1    2    0    0  0.35086131682E+02  0.51277750983E+02 -0.78904283667E+02  0.12906272096E+03  0.81060814067E+02 0.  0.
         13    1    4    4    0    0  0.53648375808E+02  0.12724706970E+02 -0.62223238770E+02  0.83137222935E+02  0.00000000000E+00 0. -1.
        -14    1    4    4    0    0 -0.18562244125E+02  0.38553044013E+02 -0.16681044897E+02  0.45925498021E+02  0.00000000000E+00 0.  1.
        -13    1    3    3    0    0 -0.33532368964E+02  0.29946875396E+02  0.11480532933E+02  0.46400837823E+02  0.00000000000E+00 0. -1.
         13    1    3    3    0    0 -0.46375930081E+02 -0.27720496161E+02  0.13625868659E+03  0.14657961137E+03  0.00000000000E+00 0.  1.
         21    1    1    2  502  501  0.44822167362E+02 -0.53504130218E+02 -0.15419303451E+01  0.69814727577E+02  0.00000000000E+00 0.  1.
<scales pt_clust_5="13000.00000" pt_clust_6="13000.00000" pt_clust_7="13000.00000" pt_clust_8="13000.00000" pt_clust_9="69.79770"></scales>
<clustering>
<clus scale="   69.798">  2  9  1 -1</clus>
<clus scale="   81.061">  5  6 -1 -1</clus>
<clus scale="   94.996">  7  8 -1 -1</clus>
<clus scale="  108.601">  2  5  1 -1</clus>
<clus scale="   69.798">  2  5  1 -1</clus>
</clustering>
</event>
<event>
 9    1  0.2333971E-005  0.1042328E+03  0.7546771E-02  0.1276990E+00
         -2   -1    0    0    0  501 -0.00000000000E+00  0.00000000000E+00  0.79530023126E+02  0.79530023126E+02  0.00000000000E+00 0.  1.
          1   -1    0    0  502    0  0.00000000000E+00 -0.00000000000E+00 -0.37063056528E+03  0.37063056528E+03  0.00000000000E+00 0. -1.
         23    2    1    2    0    0 -0.64310436657E+01  0.27308396480E+01  0.67596873845E+01  0.90947043515E+02  0.90425967193E+02 0.  0.
        -24    2    1    2    0    0  0.56638887927E+02  0.18833841430E+02 -0.28705129435E+03  0.30351169415E+03  0.78474363274E+02 0.  0.
         13    1    4    4    0    0  0.71360988842E+02  0.30326658261E+02 -0.20055313229E+03  0.21502012883E+03  0.00000000000E+00 0. -1.
        -14    1    4    4    0    0 -0.14722100915E+02 -0.11492816831E+02 -0.86498162058E+02  0.88491565324E+02  0.00000000000E+00 0.  1.
        -13    1    3    3    0    0  0.26811403835E+02  0.35167855914E+02  0.44082637831E+01  0.44441672502E+02  0.00000000000E+00 0. -1.
         13    1    3    3    0    0 -0.33242447501E+02 -0.32437016266E+02  0.23514236013E+01  0.46505371013E+02  0.00000000000E+00 0.  1.
         21    1    1    2  502  501 -0.50207844261E+02 -0.21564681078E+02 -0.10808935185E+02  0.55701850734E+02  0.00000000000E+00 0.  1.
<scales pt_clust_5="13000.00000" pt_clust_6="13000.00000" pt_clust_7="13000.00000" pt_clust_8="13000.00000" pt_clust_9="54.64305"></scales>
<clustering>
<clus scale="   54.643">  1  9  2 -1</clus>
<clus scale="   78.474">  5  6 -1 -1</clus>
<clus scale="   90.426">  7  8 -1 -1</clus>
<clus scale="   94.052">  2  5  1 -1</clus>
<clus scale="   94.052">  2  5  1 -1</clus>
</clustering>
</event>
<event>
 9    1  0.2333971E-005  0.9126416E+02  0.7546771E-02  0.1305828E+00
         -2   -1    0    0    0  501 -0.00000000000E+00  0.00000000000E+00  0.92752940276E+02  0.92752940276E+02  0.00000000000E+00 0.  1.
          1   -1    0    0  502    0  0.00000000000E+00 -0.00000000000E+00 -0.35257062949E+03  0.35257062949E+03  0.00000000000E+00 0. -1.
        -24    2    1    2    0    0  0.44455231436E+02 -0.25445610554E+02  0.15168412812E+02  0.96462429021E+02  0.80319193018E+02 0.  0.
         23    2    1    2    0    0  0.11909562083E+02  0.12686718232E+02 -0.27624497212E+03  0.29105660774E+03  0.89999298861E+02 0.  0.
         11    1    3    3    0    0  0.61301729962E+02 -0.14204206790E+02 -0.10468791940E+02  0.63790729668E+02  0.00000000000E+00 0. -1.
        -12    1    3    3    0    0 -0.16846498526E+02 -0.11241403764E+02  0.25637204752E+02  0.32671699354E+02  0.00000000000E+00 0.  1.
        -13    1    4    4    0    0  0.44898670026E+02  0.73603559716E+00 -0.22169293413E+03  0.22619502506E+03  0.00000000000E+00 0. -1.
         13    1    4    4    0    0 -0.32989107942E+02  0.11950682635E+02 -0.54552037996E+02  0.64861582680E+02  0.00000000000E+00 0.  1.
         21    1    1    2  502  501 -0.56364793519E+02  0.12758892322E+02  0.12588701027E+01  0.57804533003E+02  0.00000000000E+00 0.  1.
<scales pt_clust_5="13000.00000" pt_clust_6="13000.00000" pt_clust_7="13000.00000" pt_clust_8="13000.00000" pt_clust_9="57.79082"></scales>
<clustering>
<clus scale="   57.791">  1  9  2 -1</clus>
<clus scale="   80.319">  5  6 -1 -1</clus>
<clus scale="   81.734">  1  5  2 -1</clus>
<clus scale="   89.999">  7  8 -1 -1</clus>
<clus scale="   91.264">  2  5  1 -1</clus>
</clustering>
</event>
<event>
 9    1  0.2333971E-005  0.1103052E+03  0.7546771E-02  0.1265241E+00
          1   -1    0    0  502    0  0.00000000000E+00  0.00000000000E+00  0.14615939062E+03  0.14615939062E+03  0.00000000000E+00 0. -1.
         -2   -1    0    0    0  501 -0.00000000000E+00 -0.00000000000E+00 -0.11255369277E+03  0.11255369277E+03  0.00000000000E+00 0.  1.
        -24    2    1    2    0    0 -0.20139899444E+02  0.47976992362E+02 -0.23118841918E+02  0.97656984802E+02  0.79341026483E+02 0.  0.
         23    2    1    2    0    0  0.39743388083E+02 -0.68964581635E+02  0.45099063746E+02  0.13007340402E+03  0.92463584538E+02 0.  0.
         13    1    3    3    0    0  0.39513659520E+01  0.34952512122E+02  0.24401158428E+02  0.42810138159E+02  0.00000000000E+00 0. -1.
        -14    1    3    3    0    0 -0.24091265396E+02  0.13024480240E+02 -0.47520000345E+02  0.54846846643E+02  0.00000000000E+00 0.  1.
        -11    1    4    4    0    0 -0.10314651108E+02 -0.67870591238E+02  0.40706264769E+02  0.79811084280E+02  0.00000000000E+00 0.  1.
         11    1    4    4    0    0  0.50058039191E+02 -0.10939903975E+01  0.43927989764E+01  0.50262319738E+02  0.00000000000E+00 0. -1.
         21    1    1    2  502  501 -0.19603488639E+02  0.20987589273E+02  0.11625476014E+02  0.30982694571E+02  0.00000000000E+00 0.  1.
<scales pt_clust_5="13000.00000" pt_clust_6="13000.00000" pt_clust_7="13000.00000" pt_clust_8="13000.00000" pt_clust_9="28.71891"></scales>
<clustering>
<clus scale="   28.719">  1  9  2 -1</clus>
<clus scale="   79.341">  5  6 -1 -1</clus>
<clus scale="   92.464">  7  8 -1 -1</clus>
<clus scale="   99.563">  2  5  1 -1</clus>
<clus scale="   28.719">  1  5  2 -1</clus>
</clustering>
</event>
<event>
 9    1  0.2333971E-005  0.9443855E+02  0.7546771E-02  0.1298838E+00
         -2   -1    0    0    0  501 -0.00000000000E+00  0.00000000000E+00  0.16532167033E+03  0.16532167033E+03  0.00000000000E+00 0.  1.
          1   -1    0    0  502    0  0.00000000000E+00 -0.00000000000E+00 -0.10022125411E+03  0.10022125411E+03  0.00000000000E+00 0. -1.
        -24    2    1    2    0    0 -0.73764137700E+01 -0.52729149574E+01  0.72238305658E+02  0.10835621200E+03  0.80252605957E+02 0.  0.
         23    2    1    2    0    0  0.29542421201E+02 -0.64778806732E+01 -0.49374464053E+02  0.10806094203E+03  0.91239311170E+02 0.  0.
         11    1    3    3    0    0  0.34428914423E+02  0.32768887442E+01  0.48374731176E+02  0.59465979893E+02  0.00000000000E+00 0. -1.
        -12    1    3    3    0    0 -0.41805328193E+02 -0.85498037015E+01  0.23863574481E+02  0.48890232110E+02  0.00000000000E+00 0.  1.
        -11    1    4    4    0    0  0.37594230572E+02  0.31509683637E+02 -0.48847017049E+02  0.69225843511E+02  0.00000000000E+00 0. -1.
         11    1    4    4    0    0 -0.80518093713E+01 -0.37987564310E+02 -0.52744700322E+00  0.38835098516E+02  0.00000000000E+00 0.  1.
         21    1    1    2  502  501 -0.22166007431E+02  0.11750795631E+02  0.42236574615E+02  0.49125770412E+02  0.00000000000E+00 0.  1.
<scales pt_clust_5="13000.00000" pt_clust_6="13000.00000" pt_clust_7="13000.00000" pt_clust_8="13000.00000" pt_clust_9="25.08811"></scales>
<clustering>
<clus scale="   25.088">  1  9  2 -1</clus>
<clus scale="   80.253">  5  6 -1 -1</clus>
<clus scale="   83.872">  1  5  2 -1</clus>
<clus scale="   91.239">  7  8 -1 -1</clus>
<clus scale="   94.439">  2  5  1 -1</clus>
</clustering>
</event>
<event>
 9    1  0.2333971E-005  0.1891551E+03  0.7546771E-02  0.1160747E+00
          1   -1    0    0  502    0  0.00000000000E+00  0.00000000000E+00  0.58353012384E+03  0.58353012384E+03  0.00000000000E+00 0. -1.
         -2   -1    0    0    0  501 -0.00000000000E+00 -0.00000000000E+00 -0.10830731184E+03  0.10830731184E+03  0.00000000000E+00 0.  1.
        -24    2    1    2    0    0  0.98116108593E+02  0.13189330854E+03  0.20249820108E+02  0.18415066758E+03  0.80490978075E+02 0.  0.
         23    2    1    2    0    0 -0.12200055890E+03 -0.11001494146E+03  0.41512802999E+03  0.45633746526E+03  0.94473156001E+02 0.  0.
         11    1    3    3    0    0  0.26335805117E+02  0.80396908245E+02  0.40074026957E+02  0.93611778763E+02  0.00000000000E+00 0. -1.
        -12    1    3    3    0    0  0.71780303477E+02  0.51496400296E+02 -0.19824206849E+02  0.90538888815E+02  0.00000000000E+00 0.  1.
        -11    1    4    4    0    0 -0.54558311961E+02 -0.10506138805E+03  0.30418414849E+03  0.32640848772E+03  0.00000000000E+00 0. -1.
         11    1    4    4    0    0 -0.67442246939E+02 -0.49535534084E+01  0.11094388149E+03  0.12992897754E+03  0.00000000000E+00 0.  1.
         21    1    1    2  502  501  0.23884450307E+02 -0.21878367086E+02  0.39844961903E+02  0.51349302837E+02  0.00000000000E+00 0. -1.
<scales pt_clust_5="13000.00000" pt_clust_6="13000.00000" pt_clust_7="13000.00000" pt_clust_8="13000.00000" pt_clust_9="32.39027"></scales>
<clustering>
<clus scale="   32.390">  1  9  2 -1</clus>
<clus scale="   80.491">  5  6 -1 -1</clus>
<clus scale="   94.473">  7  8 -1 -1</clus>
<clus scale="  182.574">  2  5  1 -1</clus>
<clus scale="   32.390">  1  5  2 -1</clus>
</clustering>
</event>
<event>
 9    1  0.2333971E-005  0.2389974E+03  0.7546771E-02  0.1121556E+00
         -2   -1    0    0    0  501 -0.00000000000E+00  0.00000000000E+00  0.21439889136E+03  0.21439889136E+03  0.00000000000E+00 0.  1.
          1   -1    0    0  502    0  0.00000000000E+00 -0.00000000000E+00 -0.46632115026E+03  0.46632115026E+03  0.00000000000E+00 0. -1.
        -24    2    1    2    0    0  0.84357221907E+02 -0.21704800705E+03 -0.14616139194E+03  0.28461601010E+03  0.73601239507E+02 0.  0.
         23    2    1    2    0    0 -0.32423250703E+02  0.21068415853E+03 -0.18793855786E+03  0.29868324927E+03  0.91933127988E+02 0.  0.
         13    1    3    3    0    0  0.61845922521E+01 -0.76023037338E+02 -0.17308688838E+02  0.78213439361E+02  0.00000000000E+00 0. -1.
        -14    1    3    3    0    0  0.78172629655E+02 -0.14102496971E+03 -0.12885270310E+03  0.20640257074E+03  0.00000000000E+00 0.  1.
        -13    1    4    4    0    0  0.22931360077E+02  0.31289504290E+02 -0.60165165304E+02  0.71587201857E+02  0.00000000000E+00 0. -1.
         13    1    4    4    0    0 -0.55354610780E+02  0.17939465424E+03 -0.12777339256E+03  0.22709604741E+03  0.00000000000E+00 0.  1.
         21    1    1    2  502  501 -0.51933971204E+02  0.63638485184E+01  0.82177690902E+02  0.97420782254E+02  0.00000000000E+00 0.  1.
<scales pt_clust_5="13000.00000" pt_clust_6="13000.00000" pt_clust_7="13000.00000" pt_clust_8="13000.00000" pt_clust_9="52.32242"></scales>
<clustering>
<clus scale="   52.322">  1  9  2 -1</clus>
<clus scale="   73.601">  5  6 -1 -1</clus>
<clus scale="   91.933">  7  8 -1 -1</clus>
<clus scale="  232.562">  1  5  2 -1</clus>
<clus scale="  238.997">  2  5  1 -1</clus>
</clustering>
</event>
<event>
 9    1  0.2333971E-005  0.1779356E+03  0.7546771E-02  0.1171151E+00
         -2   -1    0    0    0  501 -0.00000000000E+00  0.00000000000E+00  0.36459569091E+02  0.36459569091E+02  0.00000000000E+00 0.  1.
          1   -1    0    0  502    0  0.00000000000E+00 -0.00000000000E+00 -0.11357035648E+04  0.11357035648E+04  0.00000000000E+00 0. -1.
         23    2    1    2    0    0 -0.12866792287E+03 -0.11667548831E+03 -0.50679604632E+03  0.54346476081E+03  0.91340624752E+02 0.  0.
        -24    2    1    2    0    0  0.10618661615E+03  0.90634022008E+02 -0.55469625652E+03  0.57762237643E+03  0.80433508919E+02 0.  0.
         13    1    4    4    0    0  0.75195823743E+02  0.48239360245E+02 -0.46648568557E+03  0.47496351715E+03  0.00000000000E+00 0. -1.
        -14    1    4    4    0    0  0.30990792410E+02  0.42394661763E+02 -0.88210570954E+02  0.10265885928E+03  0.00000000000E+00 0.  1.
        -13    1    3    3    0    0 -0.81221120801E+02 -0.16176679459E+02 -0.17628552725E+03  0.19476945998E+03  0.00000000000E+00 0.  1.
         13    1    3    3    0    0 -0.47446802069E+02 -0.10049880885E+03 -0.33051051907E+03  0.34869530083E+03  0.00000000000E+00 0. -1.
         21    1    1    2  502  501  0.22481306716E+02  0.26041466301E+02 -0.37751692838E+02  0.51075996622E+02  0.00000000000E+00 0.  1.
<scales pt_clust_5="13000.00000" pt_clust_6="13000.00000" pt_clust_7="13000.00000" pt_clust_8="13000.00000" pt_clust_9="34.40301"></scales>
<clustering>
<clus scale="   34.403">  1  9  2 -1</clus>
<clus scale="   80.434">  5  6 -1 -1</clus>
<clus scale="   91.341">  7  8 -1 -1</clus>
<clus scale="  172.591">  2  5  1 -1</clus>
<clus scale="  172.591">  2  5  1 -1</clus>
</clustering>
</event>
<event>
 9    1  0.2333971E-005  0.1342206E+03  0.7546771E-02  0.1224700E+00
          3   -1    0    0  502    0  0.00000000000E+00  0.00000000000E+00  0.21759126863E+02  0.21759126863E+02  0.00000000000E+00 0. -1.
         -4   -1    0    0    0  501 -0.00000000000E+00 -0.00000000000E+00 -0.98979322221E+03  0.98979322221E+03  0.00000000000E+00 0.  1.
        -24    2    1    2    0    0  0.63111132194E+02 -0.74009239450E+02 -0.41851030850E+03  0.43705564243E+03  0.80039825885E+02 0.  0.
         23    2    1    2    0    0 -0.80245185291E+02  0.54092654675E+02 -0.38482565454E+03  0.40771624942E+03  0.93682712394E+02 0.  0.
         11    1    3    3    0    0 -0.16623554100E+02 -0.26165009117E+02 -0.14146147685E+03  0.14481816076E+03  0.00000000000E+00 0. -1.
        -12    1    3    3    0    0  0.79734686294E+02 -0.47844230333E+02 -0.27704883166E+03  0.29223748168E+03  0.00000000000E+00 0.  1.
        -13    1    4    4    0    0 -0.22108662654E+02  0.57576323348E+01 -0.93183805705E+01  0.24673376561E+02  0.00000000000E+00 0. -1.
         13    1    4    4    0    0 -0.58136522637E+02  0.48335022340E+02 -0.37550727396E+03  0.38304287286E+03  0.00000000000E+00 0.  1.
         21    1    1    2  502  501  0.17134053096E+02  0.19916584775E+02 -0.16469813231E+03  0.16678045722E+03  0.00000000000E+00 0.  1.
<scales pt_clust_5="13000.00000" pt_clust_6="13000.00000" pt_clust_7="13000.00000" pt_clust_8="13000.00000" pt_clust_9="26.27254"></scales>
<clustering>
<clus scale="   26.273">  2  9  1 -1</clus>
<clus scale="   80.040">  5  6 -1 -1</clus>
<clus scale="   93.683">  7  8 -1 -1</clus>
<clus scale="  125.080">  2  5  1 -1</clus>
<clus scale="  134.221">  1  5  2 -1</clus>
</clustering>
</event>
<event>
 9    1  0.2333971E-005  0.3300053E+03  0.7546771E-02  0.1071281E+00
         -2   -1    0    0    0  501 -0.00000000000E+00  0.00000000000E+00  0.48013116944E+02  0.48013116944E+02  0.00000000000E+00 0.  1.
          1   -1    0    0  502    0  0.00000000000E+00 -0.00000000000E+00 -0.29195989243E+04  0.29195989243E+04  0.00000000000E+00 0. -1.
         23    2    1    2    0    0 -0.20331400847E+03 -0.25371112729E+03 -0.14304196562E+04  0.14697101294E+04  0.90782979880E+02 0.  0.
        -24    2    1    2    0    0  0.17549288792E+03  0.25620964061E+03 -0.14330343861E+04  0.14688092509E+04  0.85859945046E+02 0.  0.
         13    1    4    4    0    0  0.88400595182E+02  0.13500173819E+03 -0.93745997795E+03  0.95124725744E+03  0.00000000000E+00 0. -1.
        -14    1    4    4    0    0  0.87092292736E+02  0.12120790243E+03 -0.49557440811E+03  0.51756199343E+03  0.00000000000E+00 0.  1.
        -13    1    3    3    0    0 -0.92846212657E+02 -0.59353722374E+02 -0.37407173591E+03  0.38996531534E+03  0.00000000000E+00 0.  1.
         13    1    3    3    0    0 -0.11046779581E+03 -0.19435740492E+03 -0.10563479203E+04  0.10797448141E+04  0.00000000000E+00 0. -1.
         21    1    1    2  502  501  0.27821120552E+02 -0.24985133185E+01 -0.81317650500E+01  0.29092660937E+02  0.00000000000E+00 0.  1.
<scales pt_clust_5="13000.00000" pt_clust_6="13000.00000" pt_clust_7="13000.00000" pt_clust_8="13000.00000" pt_clust_9="27.93309"></scales>
<clustering>
<clus scale="   27.933">  1  9  2 -1</clus>
<clus scale="   85.860">  5  6 -1 -1</clus>
<clus scale="   90.783">  7  8 -1 -1</clus>
<clus scale="  328.685">  2  5  1 -1</clus>
<clus scale="  328.685">  2  5  1 -1</clus>
</clustering>
</event>
<event>
 9    1  0.2333971E-005  0.8942091E+02  0.7546771E-02  0.1309305E+00
          1   -1    0    0  502    0  0.00000000000E+00  0.00000000000E+00  0.29070017106E+03  0.29070017106E+03  0.00000000000E+00 0. -1.
         -2   -1    0    0    0  501 -0.00000000000E+00 -0.00000000000E+00 -0.85079085171E+02  0.85079085171E+02  0.00000000000E+00 0.  1.
        -24    2    1    2    0    0  0.11900488573E+02 -0.72681877012E+01 -0.43607656121E+02  0.92842457237E+02  0.80769090701E+02 0.  0.
         23    2    1    2    0    0  0.20183205902E+02  0.53970188311E+01  0.22480088249E+03  0.24256867983E+03  0.88699707181E+02 0.  0.
         11    1    3    3    0    0  0.84166999550E+01 -0.43707109072E+02 -0.30517133796E+02  0.53967098094E+02  0.00000000000E+00 0. -1.
        -12    1    3    3    0    0  0.34837886183E+01  0.36438921370E+02 -0.13090522324E+02  0.38875359143E+02  0.00000000000E+00 0.  1.
        -11    1    4    4    0    0 -0.31130246576E+02 -0.16593421799E+02  0.89741689292E+02  0.96426161885E+02  0.00000000000E+00 0. -1.
         11    1    4    4    0    0  0.51313452478E+02  0.21990440630E+02  0.13505919320E+03  0.14614251794E+03  0.00000000000E+00 0.  1.
         21    1    1    2  502  501 -0.32083694475E+02  0.18711688701E+01  0.24427859523E+02  0.40368119166E+02  0.00000000000E+00 0.  1.
<scales pt_clust_5="13000.00000" pt_clust_6="13000.00000" pt_clust_7="13000.00000" pt_clust_8="13000.00000" pt_clust_9="32.13821"></scales>
<clustering>
<clus scale="   32.138">  1  9  2 -1</clus>
<clus scale="   80.769">  5  6 -1 -1</clus>
<clus scale="   81.560">  2  5  1 -1</clus>
<clus scale="   88.700">  7  8 -1 -1</clus>
<clus scale="   32.138">  1  5  2 -1</clus>
</clustering>
</event>
<event>
 9    1  0.2333971E-005  0.9531167E+02  0.7546771E-02  0.1295296E+00
          3   -1    0    0  502    0  0.00000000000E+00  0.00000000000E+00  0.18815565352E+03  0.18815565352E+03  0.00000000000E+00 0. -1.
         -4   -1    0    0    0  501 -0.00000000000E+00 -0.00000000000E+00 -0.21029511443E+03  0.21029511443E+03  0.00000000000E+00 0.  1.
        -24    2    1    2    0    0  0.77901200959E+00  0.66607174553E+02 -0.12702676387E+03  0.16540879166E+03  0.82384143237E+02 0.  0.
         23    2    1    2    0    0  0.49467705110E+00 -0.24698519618E+02  0.14633504048E+03  0.17408544495E+03  0.91002947715E+02 0.  0.
         13    1    3    3    0    0  0.97120603733E+01  0.46744174853E+02 -0.13223040696E+02  0.49539790115E+02  0.00000000000E+00 0. -1.
        -14    1    3    3    0    0 -0.89330483637E+01  0.19862999700E+02 -0.11380372318E+03  0.11586900155E+03  0.00000000000E+00 0.  1.
        -11    1    4    4    0    0 -0.28700113014E+02  0.56545475562E+01  0.92536937218E+01  0.30680633022E+02  0.00000000000E+00 0.  1.
         11    1    4    4    0    0  0.29194790066E+02 -0.30353067174E+02  0.13708134676E+03  0.14340481193E+03  0.00000000000E+00 0. -1.
         21    1    1    2  502  501 -0.12736890607E+01 -0.41908654935E+02 -0.41447737516E+02  0.58956531339E+02  0.00000000000E+00 0. -1.
<scales pt_clust_5="13000.00000" pt_clust_6="13000.00000" pt_clust_7="13000.00000" pt_clust_8="13000.00000" pt_clust_9="41.92801"></scales>
<clustering>
<clus scale="   41.928">  2  9  1 -1</clus>
<clus scale="   82.384">  5  6 -1 -1</clus>
<clus scale="   87.120">  2  5  1 -1</clus>
<clus scale="   91.003">  7  8 -1 -1</clus>
<clus scale="   95.312">  1  5  2 -1</clus>
</clustering>
</event>
<event>
 9    1  0.2333971E-005  0.1571478E+03  0.7546771E-02  0.1193654E+00
          1   -1    0    0  502    0  0.00000000000E+00  0.00000000000E+00  0.16287296909E+03  0.16287296909E+03  0.00000000000E+00 0. -1.
         -2   -1    0    0    0  501 -0.00000000000E+00 -0.00000000000E+00 -0.93124390944E+03  0.93124390944E+03  0.00000000000E+00 0.  1.
         23    2    1    2    0    0  0.10623502419E+02 -0.11571529046E+03 -0.51062958097E+03  0.53158732210E+03  0.91321546220E+02 0.  0.
        -24    2    1    2    0    0 -0.10466965156E+03  0.79777568216E+02  0.10450231399E+03  0.18655525286E+03  0.81005755305E+02 0.  0.
         11    1    4    4    0    0 -0.11246993375E+03  0.71452972656E+02  0.11100190495E+03  0.17342559270E+03  0.00000000000E+00 0. -1.
        -12    1    4    4    0    0  0.78002821885E+01  0.83245955595E+01 -0.64995909595E+01  0.13129660167E+02  0.00000000000E+00 0.  1.
        -13    1    3    3    0    0  0.44806207020E+02 -0.69763976719E+02 -0.21443042725E+03  0.22990218956E+03  0.00000000000E+00 0.  1.
         13    1    3    3    0    0 -0.34182704601E+02 -0.45951313741E+02 -0.29619915372E+03  0.30168513254E+03  0.00000000000E+00 0. -1.
         21    1    1    2  502  501  0.94046149142E+02  0.35937722244E+02 -0.36224367338E+03  0.37597430358E+03  0.00000000000E+00 0.  1.
<scales pt_clust_5="13000.00000" pt_clust_6="13000.00000" pt_clust_7="13000.00000" pt_clust_8="13000.00000" pt_clust_9="100.67869"></scales>
<clustering>
<clus scale="   81.006">  5  6 -1 -1</clus>
<clus scale="   91.322">  7  8 -1 -1</clus>
<clus scale="  100.679">  2  9  1 -1</clus>
<clus scale="  151.386">  1  5  2 -1</clus>
<clus scale="  151.386">  1  5  2 -1</clus>
</clustering>
</event>
<event>
 9    1  0.3949388E-005  0.1031765E+03  0.7546771E-02  0.1278682E+00
          1   -1    0    0  502    0  0.00000000000E+00  0.00000000000E+00  0.60036003556E+02  0.60036003556E+02  0.00000000000E+00 0. -1.
         -2   -1    0    0    0  501 -0.00000000000E+00 -0.00000000000E+00 -0.12720453732E+04  0.12720453732E+04  0.00000000000E+00 0.  1.
        -24    2    1    2    0    0  0.11527529077E+02  0.27817973645E+02 -0.11498061716E+04  0.11529456760E+04  0.79515885103E+02 0.  0.
         23    2    1    2    0    0 -0.25854602319E+02 -0.43663390115E+02  0.97911863538E+01  0.10403887235E+03  0.90295445802E+02 0.  0.
         11    1    3    3    0    0  0.22185731686E+02  0.16291155000E+02 -0.12394770124E+03  0.12696708654E+03  0.00000000000E+00 0. -1.
        -12    1    3    3    0    0 -0.10658202609E+02  0.11526818645E+02 -0.10258584703E+04  0.10259785894E+04  0.00000000000E+00 0.  1.
        -13    1    4    4    0    0 -0.22905447736E+02 -0.14268079918E+02 -0.38746161350E+02  0.47217609637E+02  0.00000000000E+00 0.  1.
         13    1    4    4    0    0 -0.29491545830E+01 -0.29395310197E+02  0.48537347703E+02  0.56821262714E+02  0.00000000000E+00 0. -1.
         21    1    1    2  502  501  0.14327073242E+02  0.15845416470E+02 -0.71994384387E+02  0.75096828389E+02  0.00000000000E+00 0.  1.
<scales pt_clust_5="13000.00000" pt_clust_6="13000.00000" pt_clust_7="13000.00000" pt_clust_8="13000.00000" pt_clust_9="21.36217"></scales>
<clustering>
<clus scale="   21.362">  2  9  1 -1</clus>
<clus scale="   79.516">  5  6 -1 -1</clus>
<clus scale="   90.295">  7  8 -1 -1</clus>
<clus scale="   93.888">  2  5  1 -1</clus>
<clus scale="  103.176">  1  5  2 -1</clus>
</clustering>
</event>
<event>
 9    1  0.2333971E-005  0.1051722E+03  0.7546771E-02  0.1271028E+00
         -4   -1    0    0    0  501 -0.00000000000E+00  0.00000000000E+00  0.33886676502E+02  0.33886676502E+02  0.00000000000E+00 0.  1.
          3   -1    0    0  502    0  0.00000000000E+00 -0.00000000000E+00 -0.66291815729E+03  0.66291815729E+03  0.00000000000E+00 0. -1.
        -24    2    1    2    0    0 -0.43109012656E+02  0.20814061495E+02 -0.13994088094E+03  0.16819099338E+03  0.80082132626E+02 0.  0.
         23    2    1    2    0    0  0.80366175577E+02  0.33798012104E+02 -0.40678231771E+03  0.42304287812E+03  0.76761936713E+02 0.  0.
         11    1    3    3    0    0 -0.65998476687E+02  0.23912062711E+02 -0.10458761075E+03  0.12596092248E+03  0.00000000000E+00 0. -1.
        -12    1    3    3    0    0  0.22889464031E+02 -0.30980012158E+01 -0.35353270190E+02  0.42230070901E+02  0.00000000000E+00 0.  1.
        -13    1    4    4    0    0  0.65424768311E+02  0.84413989318E+01 -0.37048846796E+03  0.37631550913E+03  0.00000000000E+00 0.  1.
         13    1    4    4    0    0  0.14941407266E+02  0.25356613173E+02 -0.36293849754E+02  0.46727368989E+02  0.00000000000E+00 0. -1.
         21    1    1    2  502  501 -0.37257162921E+02 -0.54612073600E+02 -0.82308282138E+02  0.10557096230E+03  0.00000000000E+00 0. -1.
<scales pt_clust_5="13000.00000" pt_clust_6="13000.00000" pt_clust_7="13000.00000" pt_clust_8="13000.00000" pt_clust_9="66.11032"></scales>
<clustering>
<clus scale="   66.110">  1  9  2 -1</clus>
<clus scale="   76.762">  7  8 -1 -1</clus>
<clus scale="   80.082">  5  6 -1 -1</clus>
<clus scale="  102.667">  2  7  1 -1</clus>
<clus scale="  102.667">  2  5  1 -1</clus>
</clustering>
</event>
<event>
 9    1  0.2333971E-005  0.1147734E+03  0.7546771E-02  0.1256068E+00
          1   -1    0    0  502    0  0.00000000000E+00  0.00000000000E+00  0.24481751592E+03  0.24481751592E+03  0.00000000000E+00 0. -1.
         -2   -1    0    0    0  501 -0.00000000000E+00 -0.00000000000E+00 -0.38601485316E+03  0.38601485316E+03  0.00000000000E+00 0.  1.
         23    2    1    2    0    0 -0.35939716485E+02  0.65186951600E+02 -0.16799677625E+03  0.20554757848E+03  0.92118881375E+02 0.  0.
        -24    2    1    2    0    0  0.52460130470E+02 -0.43858383450E+02  0.21264172949E+03  0.23749451177E+03  0.80693958354E+02 0.  0.
         13    1    4    4    0    0  0.56355325000E+02  0.44293049693E+01  0.99891487645E+02  0.11477739630E+03  0.00000000000E+00 0. -1.
        -14    1    4    4    0    0 -0.38951945308E+01 -0.48287688419E+02  0.11275024184E+03  0.12271711547E+03  0.00000000000E+00 0.  1.
        -13    1    3    3    0    0 -0.11596380414E+02  0.75931567753E+02 -0.69729641316E+02  0.10374151482E+03  0.00000000000E+00 0. -1.
         13    1    3    3    0    0 -0.24343336071E+02 -0.10744616152E+02 -0.98267134939E+02  0.10180606365E+03  0.00000000000E+00 0.  1.
         21    1    1    2  502  501 -0.16520413985E+02 -0.21328568151E+02 -0.18584229047E+03  0.18779027883E+03  0.00000000000E+00 0.  1.
<scales pt_clust_5="13000.00000" pt_clust_6="13000.00000" pt_clust_7="13000.00000" pt_clust_8="13000.00000" pt_clust_9="26.97836"></scales>
<clustering>
<clus scale="   26.978">  2  9  1 -1</clus>
<clus scale="   80.694">  5  6 -1 -1</clus>
<clus scale="   92.119">  7  8 -1 -1</clus>
<clus scale="  105.823">  1  5  2 -1</clus>
<clus scale="  105.823">  1  5  2 -1</clus>
</clustering>
</event>
<event>
 9    1  0.2333971E-005  0.9169944E+02  0.7546771E-02  0.1304944E+00
          1   -1    0    0  502    0  0.00000000000E+00  0.00000000000E+00  0.42105268962E+02  0.42105268962E+02  0.00000000000E+00 0. -1.
         -2   -1    0    0    0  501 -0.00000000000E+00 -0.00000000000E+00 -0.43504920925E+03  0.43504920925E+03  0.00000000000E+00 0.  1.
         23    2    1    2    0    0 -0.17722979516E+01  0.10168738007E+02 -0.15083270331E+03  0.17629052296E+03  0.90671383709E+02 0.  0.
        -24    2    1    2    0    0 -0.12215540297E+02  0.18870339138E+02 -0.34275879816E+02  0.90544048194E+02  0.80734624556E+02 0.  0.
         13    1    4    4    0    0 -0.33344627358E+02 -0.19573742736E+02 -0.23934795501E+02  0.45473838787E+02  0.00000000000E+00 0. -1.
        -14    1    4    4    0    0  0.21129087061E+02  0.38444081874E+02 -0.10341084316E+02  0.45070209407E+02  0.00000000000E+00 0.  1.
        -11    1    3    3    0    0 -0.13053825535E+02  0.35531115896E+02 -0.20526270438E+02  0.43060310449E+02  0.00000000000E+00 0.  1.
         11    1    3    3    0    0  0.11281527583E+02 -0.25362377889E+02 -0.13030643288E+03  0.13323021251E+03  0.00000000000E+00 0. -1.
         21    1    1    2  502  501  0.13987838248E+02 -0.29039077145E+02 -0.20783535716E+03  0.21031990706E+03  0.00000000000E+00 0. -1.
<scales pt_clust_5="13000.00000" pt_clust_6="13000.00000" pt_clust_7="13000.00000" pt_clust_8="13000.00000" pt_clust_9="32.23240"></scales>
<clustering>
<clus scale="   32.232">  2  9  1 -1</clus>
<clus scale="   80.735">  5  6 -1 -1</clus>
<clus scale="   81.888">  1  5  2 -1</clus>
<clus scale="   90.671">  7  8 -1 -1</clus>
<clus scale="   81.888">  1  5  2 -1</clus>
</clustering>
</event>
<event>
 9    1  0.2333971E-005  0.1026308E+03  0.7546771E-02  0.1278140E+00
         -2   -1    0    0    0  501 -0.00000000000E+00  0.00000000000E+00  0.24870558793E+02  0.24870558793E+02  0.00000000000E+00 0.  1.
          1   -1    0    0  502    0  0.00000000000E+00 -0.00000000000E+00 -0.71084144061E+03  0.71084144061E+03  0.00000000000E+00 0. -1.
         23    2    1    2    0    0 -0.60033333360E+02 -0.22434336780E+02 -0.26028926584E+03  0.28311240561E+03  0.91075966740E+02 0.  0.
        -24    2    1    2    0    0  0.37277992771E+02  0.13883451278E+02 -0.41629838916E+03  0.42654257720E+03  0.83975129550E+02 0.  0.
         11    1    4    4    0    0 -0.25575466544E+02 -0.48259200611E+01 -0.15315251656E+03  0.15534827750E+03  0.00000000000E+00 0. -1.
        -12    1    4    4    0    0  0.62853459315E+02  0.18709371339E+02 -0.26314587260E+03  0.27119429970E+03  0.00000000000E+00 0.  1.
        -11    1    3    3    0    0  0.16554529575E+02 -0.27683053616E+02 -0.10569151919E+03  0.11050385123E+03  0.00000000000E+00 0. -1.
         11    1    3    3    0    0 -0.76587862935E+02  0.52487168365E+01 -0.15459774665E+03  0.17260855438E+03  0.00000000000E+00 0.  1.
         21    1    1    2  502  501  0.22755340589E+02  0.85508855022E+01 -0.93832268154E+01  0.26057016592E+02  0.00000000000E+00 0.  1.
<scales pt_clust_5="13000.00000" pt_clust_6="13000.00000" pt_clust_7="13000.00000" pt_clust_8="13000.00000" pt_clust_9="24.30891"></scales>
<clustering>
<clus scale="   24.309">  1  9  2 -1</clus>
<clus scale="   83.975">  5  6 -1 -1</clus>
<clus scale="   91.076">  7  8 -1 -1</clus>
<clus scale="   96.385">  2  5  1 -1</clus>
<clus scale="   96.385">  2  5  1 -1</clus>
</clustering>
</event>
<event>
 9    1  0.2333971E-005  0.1182947E+03  0.7546771E-02  0.1249615E+00
         -4   -1    0    0    0  501 -0.00000000000E+00  0.00000000000E+00  0.86140914032E+02  0.86140914032E+02  0.00000000000E+00 0.  1.
          3   -1    0    0  502    0  0.00000000000E+00 -0.00000000000E+00 -0.39452845007E+03  0.39452845007E+03  0.00000000000E+00 0. -1.
         23    2    1    2    0    0  0.38014465270E+01 -0.51206320104E+02  0.31913818442E+01  0.10416253234E+03  0.90571021918E+02 0.  0.
        -24    2    1    2    0    0  0.54799330456E+02  0.63619796951E+02 -0.29115695012E+03  0.31322016462E+03  0.79272042597E+02 0.  0.
         13    1    4    4    0    0  0.53579029063E+02  0.43608695460E+02 -0.28344106220E+03  0.29173835267E+03  0.00000000000E+00 0. -1.
        -14    1    4    4    0    0  0.12203013933E+01  0.20011101491E+02 -0.77158879209E+01  0.21481811953E+02  0.00000000000E+00 0.  1.
        -11    1    3    3    0    0 -0.28201181244E+02 -0.60728683918E+02 -0.11049949195E+02  0.67862957872E+02  0.00000000000E+00 0.  1.
         11    1    3    3    0    0  0.32002627771E+02  0.95223638146E+01  0.14241331039E+02  0.36299574469E+02  0.00000000000E+00 0. -1.
         21    1    1    2  502  501 -0.58600776983E+02 -0.12413476847E+02 -0.20421967757E+02  0.63286667139E+02  0.00000000000E+00 0.  1.
<scales pt_clust_5="13000.00000" pt_clust_6="13000.00000" pt_clust_7="13000.00000" pt_clust_8="13000.00000" pt_clust_9="59.90113"></scales>
<clustering>
<clus scale="   59.901">  1  9  2 -1</clus>
<clus scale="   79.272">  5  6 -1 -1</clus>
<clus scale="   90.571">  7  8 -1 -1</clus>
<clus scale="  109.884">  2  5  1 -1</clus>
<clus scale="  109.884">  2  5  1 -1</clus>
</clustering>
</event>
<event>
 9    1  0.2333971E-005  0.1100578E+03  0.7546771E-02  0.1264491E+00
         -2   -1    0    0    0  501 -0.00000000000E+00  0.00000000000E+00  0.82454347801E+03  0.82454347801E+03  0.00000000000E+00 0.  1.
          1   -1    0    0  502    0  0.00000000000E+00 -0.00000000000E+00 -0.57949366531E+02  0.57949366531E+02  0.00000000000E+00 0. -1.
        -24    2    1    2    0    0 -0.81033407341E+02 -0.34827143793E+02  0.56514829589E+03  0.57760448665E+03  0.80343037036E+02 0.  0.
         23    2    1    2    0    0  0.43211730873E+02  0.41930067932E+02  0.96540740851E+01  0.10927393396E+03  0.90676387301E+02 0.  0.
         13    1    3    3    0    0 -0.36110148306E+02 -0.24404836949E+02  0.87685911774E+02  0.97920161360E+02  0.00000000000E+00 0. -1.
        -14    1    3    3    0    0 -0.44923259035E+02 -0.10422306844E+02  0.47746238412E+03  0.47968432529E+03  0.00000000000E+00 0.  1.
        -13    1    4    4    0    0  0.68119048744E+02  0.15311861047E+02 -0.49709966659E+01  0.69995490558E+02  0.00000000000E+00 0. -1.
         13    1    4    4    0    0 -0.24907317871E+02  0.26618206885E+02  0.14625070751E+02  0.39278443398E+02  0.00000000000E+00 0.  1.
         21    1    1    2  502  501  0.37821676468E+02 -0.71029241394E+01  0.19179174151E+03  0.19561442394E+03  0.00000000000E+00 0. -1.
<scales pt_clust_5="13000.00000" pt_clust_6="13000.00000" pt_clust_7="13000.00000" pt_clust_8="13000.00000" pt_clust_9="38.48286"></scales>
<clustering>
<clus scale="   38.483">  1  9  2 -1</clus>
<clus scale="   80.343">  5  6 -1 -1</clus>
<clus scale="   90.676">  7  8 -1 -1</clus>
<clus scale="  101.713">  1  5  2 -1</clus>
<clus scale="  110.058">  2  5  1 -1</clus>
</clustering>
</event>
<event>
 9    1  0.2333971E-005  0.1144581E+03  0.7546771E-02  0.1255359E+00
         -2   -1    0    0    0  501 -0.00000000000E+00  0.00000000000E+00  0.10858772065E+03  0.10858772065E+03  0.00000000000E+00 0.  1.
          1   -1    0    0  502    0  0.00000000000E+00 -0.00000000000E+00 -0.42823565782E+03  0.42823565782E+03  0.00000000000E+00 0. -1.
        -24    2    1    2    0    0  0.98858076428E+02  0.46428062754E+02 -0.52727786691E+02  0.14689638201E+03  0.82884517692E+02 0.  0.
         23    2    1    2    0    0 -0.62068142851E+02 -0.61410469472E+01 -0.30439375394E+03  0.32373927998E+03  0.90892228217E+02 0.  0.
         11    1    3    3    0    0  0.87724804533E+02  0.64178802607E+02 -0.23955877946E+02  0.11130338774E+03  0.00000000000E+00 0. -1.
        -12    1    3    3    0    0  0.11133271895E+02 -0.17750739854E+02 -0.28771908744E+02  0.35592994272E+02  0.00000000000E+00 0.  1.
        -13    1    4    4    0    0 -0.57253563646E+02  0.28696557407E+02 -0.11998398955E+03  0.13600595835E+03  0.00000000000E+00 0.  1.
         13    1    4    4    0    0 -0.48145792047E+01 -0.34837604354E+02 -0.18440976439E+03  0.18773332163E+03  0.00000000000E+00 0. -1.
         21    1    1    2  502  501 -0.36789933578E+02 -0.40287015807E+02  0.37473603466E+02  0.66187716473E+02  0.00000000000E+00 0.  1.
<scales pt_clust_5="13000.00000" pt_clust_6="13000.00000" pt_clust_7="13000.00000" pt_clust_8="13000.00000" pt_clust_9="54.55770"></scales>
<clustering>
<clus scale="   54.558">  1  9  2 -1</clus>
<clus scale="   82.885">  5  6 -1 -1</clus>
<clus scale="   90.892">  7  8 -1 -1</clus>
<clus scale="  108.209">  1  5  2 -1</clus>
<clus scale="  114.458">  2  5  1 -1</clus>
</clustering>
</event>
<event>
 9    1  0.2333971E-005  0.1070640E+03  0.7546771E-02  0.1268012E+00
         -2   -1    0    0    0  501 -0.00000000000E+00  0.00000000000E+00  0.19461545187E+03  0.19461545187E+03  0.00000000000E+00 0.  1.
          1   -1    0    0  502    0  0.00000000000E+00 -0.00000000000E+00 -0.13496856822E+03  0.13496856822E+03  0.00000000000E+00 0. -1.
         23    2    1    2    0    0 -0.10242371510E+02  0.72369802751E+02  0.12351881246E+03  0.16780429872E+03  0.86943033731E+02 0.  0.
        -24    2    1    2    0    0 -0.77408124600E+01 -0.60584696564E+02 -0.83953431807E+02  0.13235948350E+03  0.82100112813E+02 0.  0.
         13    1    4    4    0    0 -0.18156867105E+02 -0.77774321443E+02 -0.77404235293E+02  0.11122019844E+03  0.00000000000E+00 0. -1.
        -14    1    4    4    0    0  0.10416054644E+02  0.17189624879E+02 -0.65491965142E+01  0.21139285060E+02  0.00000000000E+00 0.  1.
        -13    1    3    3    0    0  0.25910716309E+02  0.42127391203E+02  0.10696830335E+03  0.11784863271E+03  0.00000000000E+00 0.  1.
         13    1    3    3    0    0 -0.36153087818E+02  0.30242411548E+02  0.16550509101E+02  0.49955666010E+02  0.00000000000E+00 0. -1.
         21    1    1    2  502  501  0.17983183970E+02 -0.11785106187E+02  0.20081503003E+02  0.29420237871E+02  0.00000000000E+00 0. -1.
<scales pt_clust_5="13000.00000" pt_clust_6="13000.00000" pt_clust_7="13000.00000" pt_clust_8="13000.00000" pt_clust_9="21.50078"></scales>
<clustering>
<clus scale="   21.501">  1  9  2 -1</clus>
<clus scale="   82.100">  5  6 -1 -1</clus>
<clus scale="   86.943">  7  8 -1 -1</clus>
<clus scale="  103.170">  2  5  1 -1</clus>
<clus scale="  103.170">  2  5  1 -1</clus>
</clustering>
</event>
<event>
 9    1  0.2333971E-005  0.1051303E+03  0.7546771E-02  0.1276442E+00
          1   -1    0    0  502    0  0.00000000000E+00  0.00000000000E+00  0.12612865100E+03  0.12612865100E+03  0.00000000000E+00 0. -1.
         -2   -1    0    0    0  501 -0.00000000000E+00 -0.00000000000E+00 -0.13644603906E+03  0.13644603906E+03  0.00000000000E+00 0.  1.
         23    2    1    2    0    0  0.44911489759E+02  0.17084842711E+02 -0.61791391853E+02  0.11952863786E+03  0.90332637509E+02 0.  0.
        -24    2    1    2    0    0 -0.70805448323E+02 -0.10612084835E+02  0.52177170331E+02  0.11634608726E+03  0.75418346981E+02 0.  0.
         13    1    4    4    0    0 -0.81702680364E+02 -0.23900446735E+02  0.34978088110E+02  0.92032744068E+02  0.00000000000E+00 0. -1.
        -14    1    4    4    0    0  0.10897232041E+02  0.13288361901E+02  0.17199082221E+02  0.24313343197E+02  0.00000000000E+00 0.  1.
        -11    1    3    3    0    0  0.21495185421E+02  0.17240039954E+02 -0.83296191324E+02  0.87735497166E+02  0.00000000000E+00 0.  1.
         11    1    3    3    0    0  0.23416304338E+02 -0.15519724264E+00  0.21504799471E+02  0.31793140696E+02  0.00000000000E+00 0. -1.
         21    1    1    2  502  501  0.25893958564E+02 -0.64727578765E+01 -0.70316653524E+00  0.26699964940E+02  0.00000000000E+00 0. -1.
<scales pt_clust_5="13000.00000" pt_clust_6="13000.00000" pt_clust_7="13000.00000" pt_clust_8="13000.00000" pt_clust_9="26.69070"></scales>
<clustering>
<clus scale="   26.691">  1  9  2 -1</clus>
<clus scale="   75.418">  5  6 -1 -1</clus>
<clus scale="   90.333">  7  8 -1 -1</clus>
<clus scale="   92.630">  1  5  2 -1</clus>
<clus scale="   26.691">  1  5  2 -1</clus>
</clustering>
</event>
<event>
 9    1  0.2333971E-005  0.9756959E+02  0.7546771E-02  0.1289113E+00
          1   -1    0    0  502    0  0.00000000000E+00  0.00000000000E+00  0.98400378191E+02  0.98400378191E+02  0.00000000000E+00 0. -1.
         -2   -1    0    0    0  501 -0.00000000000E+00 -0.00000000000E+00 -0.12152789985E+03  0.12152789985E+03  0.00000000000E+00 0.  1.
         23    2    1    2    0    0  0.28338009729E+02  0.24631129218E+02 -0.87714356353E+01  0.95849346358E+02  0.87752058621E+02 0.  0.
        -24    2    1    2    0    0 -0.16792257637E+02 -0.46944495934E+02  0.81023828802E+00  0.94732584063E+02  0.80547131433E+02 0.  0.
         11    1    4    4    0    0 -0.33296373034E+02  0.38445712863E+01 -0.18084565071E+02  0.38085176636E+02  0.00000000000E+00 0. -1.
        -12    1    4    4    0    0  0.16504115397E+02 -0.50789067221E+02  0.18894803359E+02  0.56647407427E+02  0.00000000000E+00 0.  1.
        -13    1    3    3    0    0  0.53703749121E-01  0.28941447900E+02 -0.42627002048E+02  0.51523505260E+02  0.00000000000E+00 0.  1.
         13    1    3    3    0    0  0.28284305980E+02 -0.43103186822E+01  0.33855566413E+02  0.44325841098E+02  0.00000000000E+00 0. -1.
         21    1    1    2  502  501 -0.11545752092E+02  0.22313366717E+02 -0.15166324315E+02  0.29346347624E+02  0.00000000000E+00 0. -1.
<scales pt_clust_5="13000.00000" pt_clust_6="13000.00000" pt_clust_7="13000.00000" pt_clust_8="13000.00000" pt_clust_9="25.12351"></scales>
<clustering>
<clus scale="   25.124">  2  9  1 -1</clus>
<clus scale="   80.547">  5  6 -1 -1</clus>
<clus scale="   87.752">  7  8 -1 -1</clus>
<clus scale="   91.144">  1  5  2 -1</clus>
<clus scale="   91.144">  1  5  2 -1</clus>
</clustering>
</event>
<event>
 9    1  0.2333971E-005  0.9160163E+02  0.7546771E-02  0.1300293E+00
          1   -1    0    0  502    0  0.00000000000E+00  0.00000000000E+00  0.49636853980E+03  0.49636853980E+03  0.00000000000E+00 0. -1.
         -2   -1    0    0    0  501 -0.00000000000E+00 -0.00000000000E+00 -0.71311606628E+02  0.71311606628E+02  0.00000000000E+00 0.  1.
        -24    2    1    2    0    0  0.33585828117E+01 -0.14677965102E+02 -0.22332326769E+00  0.92389480718E+02  0.91153955131E+02 0.  0.
         23    2    1    2    0    0 -0.60826438252E+00 -0.11334521715E+02  0.43736544327E+03  0.44647633833E+03  0.89015438832E+02 0.  0.
         11    1    3    3    0    0  0.58448980583E+01 -0.44121832512E+02  0.27129613499E+02  0.52124033479E+02  0.00000000000E+00 0. -1.
        -12    1    3    3    0    0 -0.24863152466E+01  0.29443867410E+02 -0.27352936767E+02  0.40265447239E+02  0.00000000000E+00 0.  1.
        -11    1    4    4    0    0  0.34777644508E+02  0.21780512619E+02  0.21678739732E+03  0.22063692104E+03  0.00000000000E+00 0.  1.
         11    1    4    4    0    0 -0.35385908890E+02 -0.33115034334E+02  0.22057804595E+03  0.22583941729E+03  0.00000000000E+00 0. -1.
         21    1    1    2  502  501 -0.27503184292E+01  0.26012486817E+02 -0.12085186830E+02  0.28814327384E+02  0.00000000000E+00 0.  1.
<scales pt_clust_5="13000.00000" pt_clust_6="13000.00000" pt_clust_7="13000.00000" pt_clust_8="13000.00000" pt_clust_9="26.15748"></scales>
<clustering>
<clus scale="   26.157">  2  9  1 -1</clus>
<clus scale="   89.015">  7  8 -1 -1</clus>
<clus scale="   89.474">  1  7  2 -1</clus>
<clus scale="   91.154">  5  6 -1 -1</clus>
<clus scale="   89.474">  1  5  2 -1</clus>
</clustering>
</event>
<event>
 9    1  0.2333971E-005  0.1137074E+03  0.7546771E-02  0.1260821E+00
         -2   -1    0    0    0  501 -0.00000000000E+00  0.00000000000E+00  0.18023670977E+03  0.18023670977E+03  0.00000000000E+00 0.  1.
          1   -1    0    0  502    0  0.00000000000E+00 -0.00000000000E+00 -0.24668295346E+03  0.24668295346E+03  0.00000000000E+00 0. -1.
        -24    2    1    2    0    0  0.87322190982E+02  0.13440492815E+01  0.77781768851E+02  0.13776814970E+03  0.72822304274E+02 0.  0.
         23    2    1    2    0    0 -0.64337943961E+02 -0.43939539747E+01 -0.19970418158E+03  0.22902512281E+03  0.91717331356E+02 0.  0.
         13    1    3    3    0    0  0.58228464421E+02  0.92693763151E+01  0.52222535948E+01  0.59192460151E+02  0.00000000000E+00 0. -1.
        -14    1    3    3    0    0  0.29093726560E+02 -0.79253270336E+01  0.72559515257E+02  0.78575689549E+02  0.00000000000E+00 0.  1.
        -11    1    4    4    0    0 -0.16786342535E+01 -0.37272170594E+02 -0.10024019072E+03  0.10695853565E+03  0.00000000000E+00 0. -1.
         11    1    4    4    0    0 -0.62659309708E+02  0.32878216619E+02 -0.99463990865E+02  0.12206658716E+03  0.00000000000E+00 0.  1.
         21    1    1    2  502  501 -0.22984247020E+02  0.30499046932E+01  0.55476169046E+02  0.60126390726E+02  0.00000000000E+00 0.  1.
<scales pt_clust_5="13000.00000" pt_clust_6="13000.00000" pt_clust_7="13000.00000" pt_clust_8="13000.00000" pt_clust_9="23.18572"></scales>
<clustering>
<clus scale="   23.186">  1  9  2 -1</clus>
<clus scale="   72.822">  5  6 -1 -1</clus>
<clus scale="   91.717">  7  8 -1 -1</clus>
<clus scale="   99.098">  1  5  2 -1</clus>
<clus scale="  113.707">  2  5  1 -1</clus>
</clustering>
</event>
<event>
 9    1  0.2333971E-005  0.1235053E+03  0.7546771E-02  0.1242453E+00
         -2   -1    0    0    0  501 -0.00000000000E+00  0.00000000000E+00  0.54482630432E+03  0.54482630432E+03  0.00000000000E+00 0.  1.
          1   -1    0    0  502    0  0.00000000000E+00 -0.00000000000E+00 -0.15614259294E+03  0.15614259294E+03  0.00000000000E+00 0. -1.
         23    2    1    2    0    0  0.43360575679E+02 -0.63804228249E+02  0.19256988013E+03  0.21733683287E+03  0.64815284644E+02 0.  0.
        -24    2    1    2    0    0 -0.88824480171E+02  0.32093947200E+02 -0.11309223346E+03  0.16949690401E+03  0.83782680037E+02 0.  0.
         11    1    4    4    0    0 -0.79149209515E+02  0.51828655640E+02 -0.11318442516E+03  0.14751786675E+03  0.00000000000E+00 0. -1.
        -12    1    4    4    0    0 -0.96752706555E+01 -0.19734708440E+02  0.92191694022E-01  0.21979037258E+02  0.00000000000E+00 0.  1.
        -11    1    3    3    0    0  0.28058163097E+02 -0.35312155859E+01  0.11225229269E+03  0.11575969598E+03  0.00000000000E+00 0. -1.
         11    1    3    3    0    0  0.15302412582E+02 -0.60273012664E+02  0.80317587443E+02  0.10157713689E+03  0.00000000000E+00 0.  1.
         21    1    1    2  502  501  0.45463904492E+02  0.31710281050E+02  0.30920606471E+03  0.31413516038E+03  0.00000000000E+00 0.  1.
<scales pt_clust_5="13000.00000" pt_clust_6="13000.00000" pt_clust_7="13000.00000" pt_clust_8="13000.00000" pt_clust_9="55.43021"></scales>
<clustering>
<clus scale="   55.430">  1  9  2 -1</clus>
<clus scale="   64.815">  7  8 -1 -1</clus>
<clus scale="   83.783">  5  6 -1 -1</clus>
<clus scale="  111.513">  1  7  2 -1</clus>
<clus scale="  123.505">  2  5  1 -1</clus>
</clustering>
</event>
<event>
 9    1  0.2333971E-005  0.9379057E+02  0.7546771E-02  0.1297950E+00
          1   -1    0    0  502    0  0.00000000000E+00  0.00000000000E+00  0.32970771073E+03  0.32970771073E+03  0.00000000000E+00 0. -1.
         -2   -1    0    0    0  501 -0.00000000000E+00 -0.00000000000E+00 -0.40723996423E+02  0.40723996423E+02  0.00000000000E+00 0.  1.
        -24    2    1    2    0    0 -0.44529497365E+02 -0.12868922747E+02  0.77728980046E+02  0.12033310060E+03  0.79308104584E+02 0.  0.
         23    2    1    2    0    0  0.21284693537E+02  0.25440351572E+02  0.20165766836E+03  0.22198339000E+03  0.86663490368E+02 0.  0.
         13    1    3    3    0    0  0.21838785639E+01  0.27250055809E+02  0.10817024632E+02  0.29399708997E+02  0.00000000000E+00 0. -1.
        -14    1    3    3    0    0 -0.46713375929E+02 -0.40118978557E+02  0.66911955414E+02  0.90933391603E+02  0.00000000000E+00 0.  1.
        -11    1    4    4    0    0 -0.24926158866E+02 -0.14089012151E+02  0.39403441888E+02  0.48707749813E+02  0.00000000000E+00 0.  1.
         11    1    4    4    0    0  0.46210852403E+02  0.39529363723E+02  0.16225422647E+03  0.17327564019E+03  0.00000000000E+00 0. -1.
         21    1    1    2  502  501  0.23244803828E+02 -0.12571428825E+02  0.95970659030E+01  0.28115216550E+02  0.00000000000E+00 0.  1.
<scales pt_clust_5="13000.00000" pt_clust_6="13000.00000" pt_clust_7="13000.00000" pt_clust_8="13000.00000" pt_clust_9="26.42653"></scales>
<clustering>
<clus scale="   26.427">  2  9  1 -1</clus>
<clus scale="   79.308">  5  6 -1 -1</clus>
<clus scale="   86.663">  7  8 -1 -1</clus>
<clus scale="   87.040">  2  5  1 -1</clus>
<clus scale="   93.791">  1  5  2 -1</clus>
</clustering>
</event>
<event>
 9    1  0.2333971E-005  0.1059588E+03  0.7546771E-02  0.1272824E+00
          3   -1    0    0  502    0  0.00000000000E+00  0.00000000000E+00  0.18916653362E+03  0.18916653362E+03  0.00000000000E+00 0. -1.
         -4   -1    0    0    0  501 -0.00000000000E+00 -0.00000000000E+00 -0.20545085903E+03  0.20545085903E+03  0.00000000000E+00 0.  1.
         23    2    1    2    0    0  0.15933327501E+02  0.51910690089E+02 -0.10418899594E+03  0.14845598236E+03  0.90748229465E+02 0.  0.
        -24    2    1    2    0    0 -0.56526748586E+02 -0.12560067050E+02  0.13860089310E+03  0.17022456580E+03  0.80082249235E+02 0.  0.
         13    1    4    4    0    0 -0.98780060531E+01  0.20255944069E+02  0.97119919952E+02  0.99700336635E+02  0.00000000000E+00 0. -1.
        -14    1    4    4    0    0 -0.46648742533E+02 -0.32816011119E+02  0.41480973153E+02  0.70524229165E+02  0.00000000000E+00 0.  1.
        -13    1    3    3    0    0 -0.14385127405E+02 -0.13956717937E+02 -0.60655490743E+02  0.63881221210E+02  0.00000000000E+00 0.  1.
         13    1    3    3    0    0  0.30318454906E+02  0.65867408026E+02 -0.43533505201E+02  0.84574761146E+02  0.00000000000E+00 0. -1.
         21    1    1    2  502  501  0.40593421085E+02 -0.39350623038E+02 -0.50696222575E+02  0.75936844497E+02  0.00000000000E+00 0.  1.
<scales pt_clust_5="13000.00000" pt_clust_6="13000.00000" pt_clust_7="13000.00000" pt_clust_8="13000.00000" pt_clust_9="56.53581"></scales>
<clustering>
<clus scale="   56.536">  2  9  1 -1</clus>
<clus scale="   80.082">  5  6 -1 -1</clus>
<clus scale="   90.748">  7  8 -1 -1</clus>
<clus scale="   96.980">  1  5  2 -1</clus>
<clus scale="   96.980">  1  5  2 -1</clus>
</clustering>
</event>
<event>
 9    1  0.2333971E-005  0.1131834E+03  0.7546771E-02  0.1259711E+00
          1   -1    0    0  502    0  0.00000000000E+00  0.00000000000E+00  0.63584105386E+03  0.63584105386E+03  0.00000000000E+00 0. -1.
         -2   -1    0    0    0  501 -0.00000000000E+00 -0.00000000000E+00 -0.53257870975E+02  0.53257870975E+02  0.00000000000E+00 0.  1.
         23    2    1    2    0    0 -0.14339735638E+02  0.12712209534E+02  0.72453934177E+02  0.12030725889E+03  0.94111825374E+02 0.  0.
        -24    2    1    2    0    0  0.73030845199E+02 -0.14886583468E+02  0.49638396832E+03  0.50847328585E+03  0.81196820761E+02 0.  0.
         13    1    4    4    0    0  0.80821304743E+02  0.71783172329E+01  0.44012884855E+03  0.44754554502E+03  0.00000000000E+00 0. -1.
        -14    1    4    4    0    0 -0.77904595434E+01 -0.22064900701E+02  0.56255119768E+02  0.60927740833E+02  0.00000000000E+00 0.  1.
        -11    1    3    3    0    0  0.38121558086E+02  0.18560751040E+02  0.40314240756E+02  0.58506347329E+02  0.00000000000E+00 0. -1.
         11    1    3    3    0    0 -0.52461293724E+02 -0.58485415061E+01  0.32139693421E+02  0.61800911564E+02  0.00000000000E+00 0.  1.
         21    1    1    2  502  501 -0.58691109561E+02  0.21743739345E+01  0.13745280385E+02  0.60318380088E+02  0.00000000000E+00 0.  1.
<scales pt_clust_5="13000.00000" pt_clust_6="13000.00000" pt_clust_7="13000.00000" pt_clust_8="13000.00000" pt_clust_9="58.73137"></scales>
<clustering>
<clus scale="   58.731">  2  9  1 -1</clus>
<clus scale="   81.197">  5  6 -1 -1</clus>
<clus scale="   94.112">  7  8 -1 -1</clus>
<clus scale="  102.696">  1  5  2 -1</clus>
<clus scale="  102.696">  1  5  2 -1</clus>
</clustering>
</event>
<event>
 9    1  0.2333971E-005  0.2378452E+03  0.7546771E-02  0.1121755E+00
          1   -1    0    0  502    0  0.00000000000E+00  0.00000000000E+00  0.58235990696E+03  0.58235990696E+03  0.00000000000E+00 0. -1.
         -2   -1    0    0    0  501 -0.00000000000E+00 -0.00000000000E+00 -0.23004501650E+03  0.23004501650E+03  0.00000000000E+00 0.  1.
        -24    2    1    2    0    0 -0.16272743466E+03 -0.21000521923E+03 -0.70653038508E+02  0.28675879925E+03  0.81586438808E+02 0.  0.
         23    2    1    2    0    0  0.12645830899E+03  0.17074203165E+03  0.41026891030E+03  0.47070695375E+03  0.89999512570E+02 0.  0.
         11    1    3    3    0    0 -0.35860088855E+02 -0.85223424567E+02  0.67453546840E+01  0.92706406884E+02  0.00000000000E+00 0. -1.
        -12    1    3    3    0    0 -0.12686734581E+03 -0.12478179467E+03 -0.77398393192E+02  0.19405239236E+03  0.00000000000E+00 0.  1.
        -13    1    4    4    0    0  0.14073326367E+03  0.15164177700E+03  0.36604447092E+03  0.42046359501E+03  0.00000000000E+00 0. -1.
         13    1    4    4    0    0 -0.14274954684E+02  0.19100254652E+02  0.44224439382E+02  0.50243358742E+02  0.00000000000E+00 0.  1.
         21    1    1    2  502  501  0.36269125677E+02  0.39263187581E+02  0.12699018664E+02  0.54939170466E+02  0.00000000000E+00 0. -1.
<scales pt_clust_5="13000.00000" pt_clust_6="13000.00000" pt_clust_7="13000.00000" pt_clust_8="13000.00000" pt_clust_9="53.45136"></scales>
<clustering>
<clus scale="   53.451">  2  9  1 -1</clus>
<clus scale="   81.586">  5  6 -1 -1</clus>
<clus scale="   90.000">  7  8 -1 -1</clus>
<clus scale="  234.791">  2  5  1 -1</clus>
<clus scale="  237.845">  1  5  2 -1</clus>
</clustering>
</event>
<event>
 9    1  0.2333971E-005  0.1548634E+03  0.7546771E-02  0.1196429E+00
          1   -1    0    0  502    0  0.00000000000E+00  0.00000000000E+00  0.24658338135E+03  0.24658338135E+03  0.00000000000E+00 0. -1.
         -2   -1    0    0    0  501 -0.00000000000E+00 -0.00000000000E+00 -0.20615317658E+03  0.20615317658E+03  0.00000000000E+00 0.  1.
         23    2    1    2    0    0  0.14162928899E+03  0.56491341843E+02 -0.11105463292E+03  0.20957877200E+03  0.91323616752E+02 0.  0.
        -24    2    1    2    0    0 -0.10786800054E+03 -0.52953111724E+02  0.15104152535E+03  0.20920870354E+03  0.80716799215E+02 0.  0.
         11    1    4    4    0    0 -0.10692112380E+03 -0.26095108307E+02  0.14433575988E+03  0.18151003545E+03  0.00000000000E+00 0. -1.
        -12    1    4    4    0    0 -0.94687674702E+00 -0.26858003418E+02  0.67057654682E+01  0.27698668085E+02  0.00000000000E+00 0.  1.
        -13    1    3    3    0    0  0.11864294838E+03  0.74440028293E+02 -0.11355020717E+03  0.18030839293E+03  0.00000000000E+00 0.  1.
         13    1    3    3    0    0  0.22986340612E+02 -0.17948686450E+02  0.24955742528E+01  0.29270379069E+02  0.00000000000E+00 0. -1.
         21    1    1    2  502  501 -0.33761288447E+02 -0.35382301185E+01  0.44331234176E+00  0.33949082400E+02  0.00000000000E+00 0. -1.
<scales pt_clust_5="13000.00000" pt_clust_6="13000.00000" pt_clust_7="13000.00000" pt_clust_8="13000.00000" pt_clust_9="33.94619"></scales>
<clustering>
<clus scale="   33.946">  2  9  1 -1</clus>
<clus scale="   80.717">  5  6 -1 -1</clus>
<clus scale="   91.324">  7  8 -1 -1</clus>
<clus scale="  148.855">  1  5  2 -1</clus>
<clus scale="  148.855">  1  5  2 -1</clus>
</clustering>
</event>
<event>
 9    1  0.2333971E-005  0.1168007E+03  0.7546771E-02  0.1253853E+00
         -2   -1    0    0    0  501 -0.00000000000E+00  0.00000000000E+00  0.15574389520E+03  0.15574389520E+03  0.00000000000E+00 0.  1.
          1   -1    0    0  502    0  0.00000000000E+00 -0.00000000000E+00 -0.12792143736E+03  0.12792143736E+03  0.00000000000E+00 0. -1.
         23    2    1    2    0    0  0.39399827130E+02 -0.23986992117E+02  0.59030000731E+02  0.12126412465E+03  0.95355779962E+02 0.  0.
        -24    2    1    2    0    0 -0.73307544988E+02  0.21100390309E+02 -0.52133989386E+02  0.12245146493E+03  0.80356616355E+02 0.  0.
         11    1    4    4    0    0 -0.42528944734E+02 -0.23784194285E+02 -0.24972620536E+01  0.48791754997E+02  0.00000000000E+00 0. -1.
        -12    1    4    4    0    0 -0.30778600254E+02  0.44884584594E+02 -0.49636727332E+02  0.73659709937E+02  0.00000000000E+00 0.  1.
        -13    1    3    3    0    0  0.54361096406E+02  0.20970608786E+02  0.36915593361E+02  0.68975765806E+02  0.00000000000E+00 0.  1.
         13    1    3    3    0    0 -0.14961269276E+02 -0.44957600903E+02  0.22114407370E+02  0.52288358845E+02  0.00000000000E+00 0. -1.
         21    1    1    2  502  501  0.33907717858E+02  0.28866018079E+01  0.20926446494E+02  0.39949742968E+02  0.00000000000E+00 0.  1.
<scales pt_clust_5="13000.00000" pt_clust_6="13000.00000" pt_clust_7="13000.00000" pt_clust_8="13000.00000" pt_clust_9="34.03037"></scales>
<clustering>
<clus scale="   34.030">  1  9  2 -1</clus>
<clus scale="   80.357">  5  6 -1 -1</clus>
<clus scale="   95.356">  7  8 -1 -1</clus>
<clus scale="  104.914">  2  5  1 -1</clus>
<clus scale="  104.914">  2  5  1 -1</clus>
</clustering>
</event>
<event>
 9    1  0.2333971E-005  0.1189168E+03  0.7546771E-02  0.1249330E+00
          3   -1    0    0  502    0  0.00000000000E+00  0.00000000000E+00  0.16977887212E+03  0.16977887212E+03  0.00000000000E+00 0. -1.
         -4   -1    0    0    0  501 -0.00000000000E+00 -0.00000000000E+00 -0.17088413545E+03  0.17088413545E+03  0.00000000000E+00 0.  1.
        -24    2    1    2    0    0 -0.37283799388E+02  0.76505504685E+02 -0.90175592415E+02  0.14706940672E+03  0.79086022677E+02 0.  0.
         23    2    1    2    0    0  0.60364075998E+02 -0.43091398076E+02  0.95779879708E+02  0.15243270000E+03  0.92527036123E+02 0.  0.
         11    1    3    3    0    0 -0.30432117064E+02 -0.56261461031E+01 -0.40021940263E+02  0.50591728290E+02  0.00000000000E+00 0. -1.
        -12    1    3    3    0    0 -0.68516823243E+01  0.82131650788E+02 -0.50153652152E+02  0.96477678434E+02  0.00000000000E+00 0.  1.
        -11    1    4    4    0    0  0.83136404522E+02 -0.23004857623E+02  0.82253049893E+02  0.11919081109E+03  0.00000000000E+00 0. -1.
         11    1    4    4    0    0 -0.22772328523E+02 -0.20086540453E+02  0.13526829814E+02  0.33241888914E+02  0.00000000000E+00 0.  1.
         21    1    1    2  502  501 -0.23080276610E+02 -0.33414106609E+02 -0.67095506197E+01  0.41160900845E+02  0.00000000000E+00 0. -1.
<scales pt_clust_5="13000.00000" pt_clust_6="13000.00000" pt_clust_7="13000.00000" pt_clust_8="13000.00000" pt_clust_9="40.61036"></scales>
<clustering>
<clus scale="   40.610">  2  9  1 -1</clus>
<clus scale="   79.086">  5  6 -1 -1</clus>
<clus scale="   92.527">  7  8 -1 -1</clus>
<clus scale="  108.787">  2  5  1 -1</clus>
<clus scale="  118.917">  1  5  2 -1</clus>
</clustering>
</event>
<event>
 9    1  0.2500485E-005  0.9469768E+02  0.7546771E-02  0.1298681E+00
          1   -1    0    0  502    0  0.00000000000E+00  0.00000000000E+00  0.21390152432E+03  0.21390152432E+03  0.00000000000E+00 0. -1.
         -2   -1    0    0    0  501 -0.00000000000E+00 -0.00000000000E+00 -0.18554785706E+03  0.18554785706E+03  0.00000000000E+00 0.  1.
        -24    2    1    2    0    0  0.40546258905E+02 -0.29143829902E+01 -0.14571954116E+03  0.17090848366E+03  0.79517497272E+02 0.  0.
         23    2    1    2    0    0 -0.19689082784E+02 -0.15036621432E+02  0.17718658954E+03  0.20084697244E+03  0.91272443061E+02 0.  0.
         11    1    3    3    0    0 -0.10976783722E+02 -0.18424595180E+02 -0.77261616456E+01  0.22795812383E+02  0.00000000000E+00 0. -1.
        -12    1    3    3    0    0  0.51523042628E+02  0.15510212189E+02 -0.13799337951E+03  0.14811267128E+03  0.00000000000E+00 0.  1.
        -11    1    4    4    0    0  0.32866181173E+02 -0.24296909132E+02  0.68524015079E+02  0.79787632505E+02  0.00000000000E+00 0.  1.
         11    1    4    4    0    0 -0.52555263957E+02  0.92602877004E+01  0.10866257446E+03  0.12105933993E+03  0.00000000000E+00 0. -1.
         21    1    1    2  502  501 -0.20857176121E+02  0.17951004422E+02 -0.31133811133E+01  0.27693925281E+02  0.00000000000E+00 0. -1.
<scales pt_clust_5="13000.00000" pt_clust_6="13000.00000" pt_clust_7="13000.00000" pt_clust_8="13000.00000" pt_clust_9="27.51836"></scales>
<clustering>
<clus scale="   27.518">  2  9  1 -1</clus>
<clus scale="   79.517">  5  6 -1 -1</clus>
<clus scale="   83.427">  2  5  1 -1</clus>
<clus scale="   91.272">  7  8 -1 -1</clus>
<clus scale="   94.698">  1  5  2 -1</clus>
</clustering>
</event>
<event>
 9    1  0.2333971E-005  0.1505943E+03  0.7546771E-02  0.1218546E+00
          1   -1    0    0  502    0  0.00000000000E+00  0.00000000000E+00  0.50053411025E+03  0.50053411025E+03  0.00000000000E+00 0. -1.
         -2   -1    0    0    0  501 -0.00000000000E+00 -0.00000000000E+00 -0.98869995635E+02  0.98869995635E+02  0.00000000000E+00 0.  1.
         23    2    1    2    0    0  0.41753903094E+02  0.13213694243E+02  0.48633135716E+02  0.11186151690E+03  0.90718393578E+02 0.  0.
        -24    2    1    2    0    0 -0.31239927337E+01  0.12340297967E+03  0.30292692557E+03  0.33698760991E+03  0.80980690727E+02 0.  0.
         11    1    4    4    0    0 -0.93318526383E+01  0.71564837439E+02  0.25865576106E+03  0.26853568136E+03  0.00000000000E+00 0. -1.
        -12    1    4    4    0    0  0.62078599046E+01  0.51838142236E+02  0.44271164511E+02  0.68451928550E+02  0.00000000000E+00 0.  1.
        -13    1    3    3    0    0  0.12052506005E+02  0.50862449505E+02  0.19730595223E+02  0.55870815804E+02  0.00000000000E+00 0. -1.
         13    1    3    3    0    0  0.29701397088E+02 -0.37648755262E+02  0.28902540493E+02  0.55990701092E+02  0.00000000000E+00 0.  1.
         21    1    1    2  502  501 -0.38629910360E+02 -0.13661667392E+03  0.50104053325E+02  0.15055497908E+03  0.00000000000E+00 0.  1.
<scales pt_clust_5="13000.00000" pt_clust_6="13000.00000" pt_clust_7="13000.00000" pt_clust_8="13000.00000" pt_clust_9="126.96761"></scales>
<clustering>
<clus scale="   80.981">  5  6 -1 -1</clus>
<clus scale="   90.718">  7  8 -1 -1</clus>
<clus scale="  100.736">  2  7  1 -1</clus>
<clus scale="  126.968">  2  9  1 -1</clus>
<clus scale="  150.594">  1  5  2 -1</clus>
</clustering>
</event>
<event>
 9    1  0.2333971E-005  0.9309932E+02  0.7546771E-02  0.1300592E+00
         -4   -1    0    0    0  501 -0.00000000000E+00  0.00000000000E+00  0.18113258356E+03  0.18113258356E+03  0.00000000000E+00 0.  1.
          3   -1    0    0  502    0  0.00000000000E+00 -0.00000000000E+00 -0.27829619984E+03  0.27829619984E+03  0.00000000000E+00 0. -1.
        -24    2    1    2    0    0 -0.62862553799E+02 -0.62557111202E+01  0.10471482693E+03  0.14630026684E+03  0.80297811347E+02 0.  0.
         23    2    1    2    0    0  0.18902564682E+02 -0.17737179049E+02 -0.23529816238E+03  0.25292040206E+03  0.89059474989E+02 0.  0.
         13    1    3    3    0    0 -0.45886493463E+02 -0.24459436808E+02  0.16367622028E+02  0.54513607312E+02  0.00000000000E+00 0. -1.
        -14    1    3    3    0    0 -0.16976060335E+02  0.18203725688E+02  0.88347204903E+02  0.91786659529E+02  0.00000000000E+00 0.  1.
        -11    1    4    4    0    0  0.62545326728E+01 -0.51724899044E+02 -0.17465968035E+03  0.18226515931E+03  0.00000000000E+00 0. -1.
         11    1    4    4    0    0  0.12648032009E+02  0.33987719995E+02 -0.60638482033E+02  0.70655242746E+02  0.00000000000E+00 0.  1.
         21    1    1    2  502  501  0.43959989117E+02  0.23992890169E+02  0.33419719173E+02  0.60208114498E+02  0.00000000000E+00 0.  1.
<scales pt_clust_5="13000.00000" pt_clust_6="13000.00000" pt_clust_7="13000.00000" pt_clust_8="13000.00000" pt_clust_9="50.08133"></scales>
<clustering>
<clus scale="   50.081">  1  9  2 -1</clus>
<clus scale="   80.298">  5  6 -1 -1</clus>
<clus scale="   84.756">  1  5  2 -1</clus>
<clus scale="   89.059">  7  8 -1 -1</clus>
<clus scale="   93.099">  2  5  1 -1</clus>
</clustering>
</event>
<event>
 9    1  0.2333971E-005  0.1066029E+03  0.7546771E-02  0.1272980E+00
         -2   -1    0    0    0  501 -0.00000000000E+00  0.00000000000E+00  0.33691994196E+02  0.33691994196E+02  0.00000000000E+00 0.  1.
          1   -1    0    0  502    0  0.00000000000E+00 -0.00000000000E+00 -0.71324448539E+03  0.71324448539E+03  0.00000000000E+00 0. -1.
         23    2    1    2    0    0  0.34320857093E+02  0.64127866858E+02 -0.17784391338E+03  0.21396049525E+03  0.94129333686E+02 0.  0.
        -24    2    1    2    0    0 -0.40730711950E+02 -0.22404975916E+02 -0.47263062319E+03  0.48171768440E+03  0.80692302263E+02 0.  0.
         13    1    4    4    0    0 -0.48847412413E+02  0.17832660888E+02 -0.27374340775E+03  0.27863870294E+03  0.00000000000E+00 0. -1.
        -14    1    4    4    0    0  0.81167004635E+01 -0.40237636804E+02 -0.19888721544E+03  0.20307898145E+03  0.00000000000E+00 0.  1.
        -11    1    3    3    0    0  0.28570621689E+02 -0.60607151014E+01 -0.82855349127E+01  0.30358899520E+02  0.00000000000E+00 0.  1.
         11    1    3    3    0    0  0.57502354040E+01  0.70188581959E+02 -0.16955837847E+03  0.18360159573E+03  0.00000000000E+00 0. -1.
         21    1    1    2  502  501  0.64098548564E+01 -0.41722890942E+02 -0.29077954629E+02  0.51258299945E+02  0.00000000000E+00 0.  1.
<scales pt_clust_5="13000.00000" pt_clust_6="13000.00000" pt_clust_7="13000.00000" pt_clust_8="13000.00000" pt_clust_9="42.21239"></scales>
<clustering>
<clus scale="   42.212">  1  9  2 -1</clus>
<clus scale="   80.692">  5  6 -1 -1</clus>
<clus scale="   94.129">  7  8 -1 -1</clus>
<clus scale="   94.948">  2  5  1 -1</clus>
<clus scale="   94.948">  2  5  1 -1</clus>
</clustering>
</event>
<event>
 9    1  0.2333971E-005  0.1088722E+03  0.7546771E-02  0.1267671E+00
          1   -1    0    0  502    0  0.00000000000E+00  0.00000000000E+00  0.18934237490E+03  0.18934237490E+03  0.00000000000E+00 0. -1.
         -2   -1    0    0    0  501 -0.00000000000E+00 -0.00000000000E+00 -0.86011442987E+02  0.86011442987E+02  0.00000000000E+00 0.  1.
        -24    2    1    2    0    0 -0.11786466072E+02  0.43948153786E+02  0.26652020045E+02  0.95121948440E+02  0.79167505322E+02 0.  0.
         23    2    1    2    0    0  0.27670733474E+02 -0.64414538797E+02  0.94293787658E+02  0.14890350027E+03  0.91466013922E+02 0.  0.
         13    1    3    3    0    0 -0.32987134969E+02 -0.18821663228E+01  0.29845476314E+02  0.44524668218E+02  0.00000000000E+00 0. -1.
        -14    1    3    3    0    0  0.21200668897E+02  0.45830320109E+02 -0.31934562684E+01  0.50597280222E+02  0.00000000000E+00 0.  1.
        -11    1    4    4    0    0  0.26445711318E+02  0.79873990855E+01 -0.28149628336E+01  0.27768655117E+02  0.00000000000E+00 0.  1.
         11    1    4    4    0    0  0.12250221556E+01 -0.72401937883E+02  0.97108750492E+02  0.12113484515E+03  0.00000000000E+00 0. -1.
         21    1    1    2  502  501 -0.15884267402E+02  0.20466385011E+02 -0.17614875788E+02  0.31328369178E+02  0.00000000000E+00 0. -1.
<scales pt_clust_5="13000.00000" pt_clust_6="13000.00000" pt_clust_7="13000.00000" pt_clust_8="13000.00000" pt_clust_9="25.90720"></scales>
<clustering>
<clus scale="   25.907">  2  9  1 -1</clus>
<clus scale="   79.168">  5  6 -1 -1</clus>
<clus scale="   91.466">  7  8 -1 -1</clus>
<clus scale="   98.765">  2  5  1 -1</clus>
<clus scale="  108.872">  1  5  2 -1</clus>
</clustering>
</event>
<event>
 9    1  0.2333971E-005  0.8744379E+02  0.7546771E-02  0.1312506E+00
          1   -1    0    0  502    0  0.00000000000E+00  0.00000000000E+00  0.20243018249E+03  0.20243018249E+03  0.00000000000E+00 0. -1.
         -2   -1    0    0    0  501 -0.00000000000E+00 -0.00000000000E+00 -0.93072356353E+02  0.93072356353E+02  0.00000000000E+00 0.  1.
         23    2    1    2    0    0  0.54980568435E+02 -0.10089363158E+02 -0.19524721258E+01  0.10278789074E+03  0.86237347947E+02 0.  0.
        -24    2    1    2    0    0  0.53207200708E+01 -0.18046449489E+02  0.90677798981E+02  0.12304708481E+03  0.81019364668E+02 0.  0.
         11    1    4    4    0    0 -0.16187636545E+02  0.26997796524E+02  0.47850758184E+02  0.57276658884E+02  0.00000000000E+00 0. -1.
        -12    1    4    4    0    0  0.21508356616E+02 -0.45044246013E+02  0.42827040797E+02  0.65770425927E+02  0.00000000000E+00 0.  1.
        -11    1    3    3    0    0  0.51938213334E+02  0.23111278984E+02  0.22814691371E+02  0.61255361911E+02  0.00000000000E+00 0.  1.
         11    1    3    3    0    0  0.30423551014E+01 -0.33200642142E+02 -0.24767163496E+02  0.41532528828E+02  0.00000000000E+00 0. -1.
         21    1    1    2  502  501 -0.60301288506E+02  0.28135812647E+02  0.20632499284E+02  0.69667563295E+02  0.00000000000E+00 0.  1.
<scales pt_clust_5="13000.00000" pt_clust_6="13000.00000" pt_clust_7="13000.00000" pt_clust_8="13000.00000" pt_clust_9="66.54224"></scales>
<clustering>
<clus scale="   66.542">  2  9  1 -1</clus>
<clus scale="   81.019">  5  6 -1 -1</clus>
<clus scale="   82.302">  1  5  2 -1</clus>
<clus scale="   86.237">  7  8 -1 -1</clus>
<clus scale="   82.302">  1  5  2 -1</clus>
</clustering>
</event>
<event>
 9    1  0.2333971E-005  0.9368211E+02  0.7546771E-02  0.1301021E+00
          1   -1    0    0  502    0  0.00000000000E+00  0.00000000000E+00  0.86602380203E+02  0.86602380203E+02  0.00000000000E+00 0. -1.
         -2   -1    0    0    0  501 -0.00000000000E+00 -0.00000000000E+00 -0.24011681862E+03  0.24011681862E+03  0.00000000000E+00 0.  1.
         23    2    1    2    0    0  0.42264329970E+02 -0.24207383240E+02 -0.12281726080E+03  0.16066940186E+03  0.91423772364E+02 0.  0.
        -24    2    1    2    0    0 -0.70795962216E+01 -0.24273733127E+02  0.21525982870E+02  0.86578779448E+02  0.79957378081E+02 0.  0.
         11    1    4    4    0    0 -0.41545464109E+02 -0.23783781651E+02  0.20548865574E+02  0.52095582673E+02  0.00000000000E+00 0. -1.
        -12    1    4    4    0    0  0.34465867887E+02 -0.48995147680E+00  0.97711729660E+00  0.34483196776E+02  0.00000000000E+00 0.  1.
        -11    1    3    3    0    0  0.40239384310E+02 -0.34170885577E+01 -0.13186137131E+03  0.13790687360E+03  0.00000000000E+00 0.  1.
         11    1    3    3    0    0  0.20249456600E+01 -0.20790294682E+02  0.90441105077E+01  0.22762528260E+02  0.00000000000E+00 0. -1.
         21    1    1    2  502  501 -0.35184733749E+02  0.48481116367E+02 -0.52223160488E+02  0.79471017512E+02  0.00000000000E+00 0. -1.
<scales pt_clust_5="13000.00000" pt_clust_6="13000.00000" pt_clust_7="13000.00000" pt_clust_8="13000.00000" pt_clust_9="59.90312"></scales>
<clustering>
<clus scale="   59.903">  2  9  1 -1</clus>
<clus scale="   79.957">  5  6 -1 -1</clus>
<clus scale="   82.530">  1  5  2 -1</clus>
<clus scale="   91.424">  7  8 -1 -1</clus>
<clus scale="   82.530">  1  5  2 -1</clus>
</clustering>
</event>
<event>
 9    1  0.2333971E-005  0.1024111E+03  0.7546771E-02  0.1280733E+00
          1   -1    0    0  502    0  0.00000000000E+00  0.00000000000E+00  0.18633691884E+03  0.18633691884E+03  0.00000000000E+00 0. -1.
         -2   -1    0    0    0  501 -0.00000000000E+00 -0.00000000000E+00 -0.42735343084E+03  0.42735343084E+03  0.00000000000E+00 0.  1.
         23    2    1    2    0    0  0.25728780345E+02 -0.45674681031E+02 -0.12680318322E+03  0.16520636481E+03  0.92010592196E+02 0.  0.
        -24    2    1    2    0    0 -0.43783537835E+02 -0.21117818547E+02  0.14903907753E+03  0.17629096199E+03  0.80640536965E+02 0.  0.
         11    1    4    4    0    0 -0.32434457704E+02 -0.23261002147E+02  0.15717483729E+03  0.16216349079E+03  0.00000000000E+00 0. -1.
        -12    1    4    4    0    0 -0.11349080132E+02  0.21431836004E+01 -0.81357597561E+01  0.14127471203E+02  0.00000000000E+00 0.  1.
        -11    1    3    3    0    0 -0.30897772841E+02 -0.57765938666E+01 -0.65721611807E+02  0.72851710081E+02  0.00000000000E+00 0. -1.
         11    1    3    3    0    0  0.56626553186E+02 -0.39898087165E+02 -0.61081571409E+02  0.92354654734E+02  0.00000000000E+00 0.  1.
         21    1    1    2  502  501  0.18054757490E+02  0.66792499578E+02 -0.26325240632E+03  0.27219302287E+03  0.00000000000E+00 0.  1.
<scales pt_clust_5="13000.00000" pt_clust_6="13000.00000" pt_clust_7="13000.00000" pt_clust_8="13000.00000" pt_clust_9="69.18968"></scales>
<clustering>
<clus scale="   69.190">  2  9  1 -1</clus>
<clus scale="   80.641">  5  6 -1 -1</clus>
<clus scale="   92.011">  7  8 -1 -1</clus>
<clus scale="   92.331">  1  5  2 -1</clus>
<clus scale="   92.331">  1  5  2 -1</clus>
</clustering>
</event>
<event>
 9    1  0.2333971E-005  0.1057868E+03  0.7546771E-02  0.1268616E+00
         -2   -1    0    0    0  501 -0.00000000000E+00  0.00000000000E+00  0.17002973563E+03  0.17002973563E+03  0.00000000000E+00 0.  1.
          1   -1    0    0  502    0  0.00000000000E+00 -0.00000000000E+00 -0.25349861561E+03  0.25349861561E+03  0.00000000000E+00 0. -1.
        -24    2    1    2    0    0 -0.78100372337E+02 -0.42240093243E+02 -0.10237268414E+03  0.15852133903E+03  0.82249345490E+02 0.  0.
         23    2    1    2    0    0 -0.27600245260E+02  0.47409898349E+02 -0.68949666537E+02  0.12746581925E+03  0.92108667132E+02 0.  0.
         13    1    3    3    0    0 -0.88907639946E+02 -0.29543393176E+02 -0.10598882339E+03  0.14146028136E+03  0.00000000000E+00 0. -1.
        -14    1    3    3    0    0  0.10807267609E+02 -0.12696700067E+02  0.36161392418E+01  0.17061057668E+02  0.00000000000E+00 0.  1.
        -11    1    4    4    0    0 -0.56270446922E+02  0.58316228684E+01 -0.33278371818E+02  0.65633993120E+02  0.00000000000E+00 0. -1.
         11    1    4    4    0    0  0.28670201662E+02  0.41578275481E+02 -0.35671294719E+02  0.61831826127E+02  0.00000000000E+00 0.  1.
         21    1    1    2  502  501  0.10570061760E+03 -0.51698051067E+01  0.87853470708E+02  0.13754119296E+03  0.00000000000E+00 0.  1.
<scales pt_clust_5="13000.00000" pt_clust_6="13000.00000" pt_clust_7="13000.00000" pt_clust_8="13000.00000" pt_clust_9="105.82697"></scales>
<clustering>
<clus scale="   82.249">  5  6 -1 -1</clus>
<clus scale="   92.109">  7  8 -1 -1</clus>
<clus scale="  105.827">  1  9  2 -1</clus>
<clus scale="  105.827">  1  5  2 -1</clus>
<clus scale="  105.747">  2  5  1 -1</clus>
</clustering>
</event>
<event>
 9    1  0.2333971E-005  0.1564712E+03  0.7546771E-02  0.1195351E+00
         -2   -1    0    0    0  501 -0.00000000000E+00  0.00000000000E+00  0.52537704343E+02  0.52537704343E+02  0.00000000000E+00 0.  1.
          1   -1    0    0  502    0  0.00000000000E+00 -0.00000000000E+00 -0.10601532753E+04  0.10601532753E+04  0.00000000000E+00 0. -1.
         23    2    1    2    0    0 -0.42860896346E+01 -0.14283113516E+03 -0.12440531435E+03  0.21190441971E+03  0.94908888524E+02 0.  0.
        -24    2    1    2    0    0  0.52847046420E+00  0.12176163898E+03 -0.84056616925E+03  0.85307323309E+03  0.79726282478E+02 0.  0.
         13    1    4    4    0    0 -0.33235582715E+02  0.98680669093E+02 -0.56991288794E+03  0.57934720009E+03  0.00000000000E+00 0. -1.
        -14    1    4    4    0    0  0.33764053180E+02  0.23080969884E+02 -0.27065328131E+03  0.27372603300E+03  0.00000000000E+00 0.  1.
        -13    1    3    3    0    0 -0.37079115407E+02 -0.20814182363E+02 -0.48538887115E+02  0.64529950792E+02  0.00000000000E+00 0. -1.
         13    1    3    3    0    0  0.32793025773E+02 -0.12201695280E+03 -0.75866427236E+02  0.14737446892E+03  0.00000000000E+00 0.  1.
         21    1    1    2  502  501  0.37576191704E+01  0.21069496181E+02 -0.42644087311E+02  0.47713326794E+02  0.00000000000E+00 0. -1.
<scales pt_clust_5="13000.00000" pt_clust_6="13000.00000" pt_clust_7="13000.00000" pt_clust_8="13000.00000" pt_clust_9="21.40195"></scales>
<clustering>
<clus scale="   21.402">  1  9  2 -1</clus>
<clus scale="   79.726">  5  6 -1 -1</clus>
<clus scale="   94.909">  7  8 -1 -1</clus>
<clus scale="  147.756">  2  5  1 -1</clus>
<clus scale="  147.756">  2  5  1 -1</clus>
</clustering>
</event>
<event>
 9    1  0.2333971E-005  0.1084900E+03  0.7546771E-02  0.1266778E+00
          1   -1    0    0  502    0  0.00000000000E+00  0.00000000000E+00  0.33197574726E+03  0.33197574726E+03  0.00000000000E+00 0. -1.
         -2   -1    0    0    0  501 -0.00000000000E+00 -0.00000000000E+00 -0.72962858190E+02  0.72962858190E+02  0.00000000000E+00 0.  1.
         23    2    1    2    0    0  0.22868201030E+02  0.37650565696E+02  0.32311217233E+01  0.98828330007E+02  0.88408590922E+02 0.  0.
        -24    2    1    2    0    0 -0.40058315269E+02 -0.53505839485E+02  0.26200353659E+03  0.28191109886E+03  0.79752561058E+02 0.  0.
         11    1    4    4    0    0 -0.46295570123E+02 -0.41093824202E+02  0.26071179231E+03  0.26796011056E+03  0.00000000000E+00 0. -1.
        -12    1    4    4    0    0  0.62372548540E+01 -0.12412015283E+02  0.12917442836E+01  0.13950988309E+02  0.00000000000E+00 0.  1.
        -11    1    3    3    0    0 -0.21646873335E+02  0.20311100001E+02  0.31528794196E+02  0.43303496070E+02  0.00000000000E+00 0. -1.
         11    1    3    3    0    0  0.44515074366E+02  0.17339465695E+02 -0.28297672473E+02  0.55524833937E+02  0.00000000000E+00 0.  1.
         21    1    1    2  502  501  0.17190114239E+02  0.15855273789E+02 -0.62217692459E+01  0.24199176577E+02  0.00000000000E+00 0.  1.
<scales pt_clust_5="13000.00000" pt_clust_6="13000.00000" pt_clust_7="13000.00000" pt_clust_8="13000.00000" pt_clust_9="23.38567"></scales>
<clustering>
<clus scale="   23.386">  2  9  1 -1</clus>
<clus scale="   79.753">  5  6 -1 -1</clus>
<clus scale="   88.409">  7  8 -1 -1</clus>
<clus scale="  101.560">  1  5  2 -1</clus>
<clus scale="  101.560">  1  5  2 -1</clus>
</clustering>
</event>
<event>
 9    1  0.2333971E-005  0.9147724E+02  0.7546771E-02  0.1305363E+00
          1   -1    0    0  502    0  0.00000000000E+00  0.00000000000E+00  0.51024821681E+03  0.51024821681E+03  0.00000000000E+00 0. -1.
         -2   -1    0    0    0  501 -0.00000000000E+00 -0.00000000000E+00 -0.25075979377E+03  0.25075979377E+03  0.00000000000E+00 0.  1.
         23    2    1    2    0    0  0.26634832463E+02 -0.18912715867E+02 -0.16930086547E+03  0.19420947574E+03  0.89372435887E+02 0.  0.
        -24    2    1    2    0    0 -0.42958432239E+01  0.18935351132E+02  0.49251675789E+03  0.49926912416E+03  0.79497797094E+02 0.  0.
         11    1    4    4    0    0 -0.37848647624E+02 -0.54908223006E+01  0.18072536982E+03  0.18472771463E+03  0.00000000000E+00 0. -1.
        -12    1    4    4    0    0  0.33552804400E+02  0.24426173433E+02  0.31179138807E+03  0.31454140953E+03  0.00000000000E+00 0.  1.
        -11    1    3    3    0    0 -0.23099616733E+02 -0.31435942234E+02 -0.10466129392E+03  0.11169510823E+03  0.00000000000E+00 0.  1.
         11    1    3    3    0    0  0.49734449196E+02  0.12523226367E+02 -0.64639571549E+02  0.82514367509E+02  0.00000000000E+00 0. -1.
         21    1    1    2  502  501 -0.22338989239E+02 -0.22635265474E-01 -0.63727469383E+02  0.67529410678E+02  0.00000000000E+00 0.  1.
<scales pt_clust_5="13000.00000" pt_clust_6="13000.00000" pt_clust_7="13000.00000" pt_clust_8="13000.00000" pt_clust_9="22.33900"></scales>
<clustering>
<clus scale="   22.339">  2  9  1 -1</clus>
<clus scale="   79.498">  5  6 -1 -1</clus>
<clus scale="   81.857">  1  5  2 -1</clus>
<clus scale="   89.372">  7  8 -1 -1</clus>
<clus scale="   81.857">  1  5  2 -1</clus>
</clustering>
</event>
<event>
 9    1  0.2333971E-005  0.2238477E+03  0.7546771E-02  0.1131699E+00
         -2   -1    0    0    0  501 -0.00000000000E+00  0.00000000000E+00  0.23041857867E+03  0.23041857867E+03  0.00000000000E+00 0.  1.
          1   -1    0    0  502    0  0.00000000000E+00 -0.00000000000E+00 -0.46031103614E+03  0.46031103614E+03  0.00000000000E+00 0. -1.
         23    2    1    2    0    0  0.34086033896E+02 -0.18021024974E+03  0.94480465231E+02  0.22496083786E+03  0.89684047865E+02 0.  0.
        -24    2    1    2    0    0 -0.40874934714E+02  0.20544685144E+03 -0.35841270702E+03  0.42285395253E+03  0.80415344050E+02 0.  0.
         13    1    4    4    0    0 -0.15590789553E+02  0.19151940510E+03 -0.28266798787E+03  0.34179518226E+03  0.00000000000E+00 0. -1.
        -14    1    4    4    0    0 -0.25284145161E+02  0.13927446339E+02 -0.75744719148E+02  0.81058770265E+02  0.00000000000E+00 0.  1.
        -13    1    3    3    0    0  0.58453071353E+02 -0.14956149182E+03  0.93453045429E+02  0.18579255390E+03  0.00000000000E+00 0.  1.
         13    1    3    3    0    0 -0.24367037457E+02 -0.30648757918E+02  0.10274198018E+01  0.39168283953E+02  0.00000000000E+00 0. -1.
         21    1    1    2  502  501  0.67889008179E+01 -0.25236601698E+02  0.34039784311E+02  0.42914824426E+02  0.00000000000E+00 0.  1.
<scales pt_clust_5="13000.00000" pt_clust_6="13000.00000" pt_clust_7="13000.00000" pt_clust_8="13000.00000" pt_clust_9="26.13379"></scales>
<clustering>
<clus scale="   26.134">  1  9  2 -1</clus>
<clus scale="   80.415">  5  6 -1 -1</clus>
<clus scale="   89.684">  7  8 -1 -1</clus>
<clus scale="  220.298">  2  5  1 -1</clus>
<clus scale="  220.298">  2  5  1 -1</clus>
</clustering>
</event>
<event>
 9    1  0.2333971E-005  0.9672626E+02  0.7546771E-02  0.1297183E+00
          1   -1    0    0  502    0  0.00000000000E+00  0.00000000000E+00  0.22765893139E+03  0.22765893139E+03  0.00000000000E+00 0. -1.
         -2   -1    0    0    0  501 -0.00000000000E+00 -0.00000000000E+00 -0.95482014115E+02  0.95482014115E+02  0.00000000000E+00 0.  1.
        -24    2    1    2    0    0 -0.17698352468E+02 -0.63586184519E+01  0.45364546391E+02  0.93442338434E+02  0.79497577536E+02 0.  0.
         23    2    1    2    0    0  0.60424666966E+01 -0.15191748890E+02  0.14037834678E+03  0.17079536625E+03  0.95904516318E+02 0.  0.
         13    1    3    3    0    0 -0.42146930359E+02 -0.25981155543E+02  0.21193321727E+02  0.53856671526E+02  0.00000000000E+00 0. -1.
        -14    1    3    3    0    0  0.24448577892E+02  0.19622537091E+02  0.24171224664E+02  0.39585666908E+02  0.00000000000E+00 0.  1.
        -13    1    4    4    0    0  0.22144986180E+02  0.29950205494E+02  0.22427376060E+02  0.43478758250E+02  0.00000000000E+00 0.  1.
         13    1    4    4    0    0 -0.16102519484E+02 -0.45141954384E+02  0.11795097072E+03  0.12731660800E+03  0.00000000000E+00 0. -1.
         21    1    1    2  502  501  0.11655885771E+02  0.21550367342E+02 -0.53565975894E+02  0.58903240820E+02  0.00000000000E+00 0.  1.
<scales pt_clust_5="13000.00000" pt_clust_6="13000.00000" pt_clust_7="13000.00000" pt_clust_8="13000.00000" pt_clust_9="24.50057"></scales>
<clustering>
<clus scale="   24.501">  2  9  1 -1</clus>
<clus scale="   79.498">  5  6 -1 -1</clus>
<clus scale="   80.487">  2  5  1 -1</clus>
<clus scale="   95.905">  7  8 -1 -1</clus>
<clus scale="   96.726">  1  5  2 -1</clus>
</clustering>
</event>
<event>
 9    1  0.2333971E-005  0.1977493E+03  0.7546771E-02  0.1152706E+00
         -2   -1    0    0    0  501 -0.00000000000E+00  0.00000000000E+00  0.30137654974E+03  0.30137654974E+03  0.00000000000E+00 0.  1.
          1   -1    0    0  502    0  0.00000000000E+00 -0.00000000000E+00 -0.35227889559E+03  0.35227889559E+03  0.00000000000E+00 0. -1.
        -24    2    1    2    0    0  0.13402755383E+03  0.85112957576E+02  0.22279363833E+03  0.28499038455E+03  0.79843054001E+02 0.  0.
         23    2    1    2    0    0 -0.16142478957E+03 -0.74780215500E+02 -0.27432511221E+03  0.33937735197E+03  0.90954255118E+02 0.  0.
         13    1    3    3    0    0  0.13144227559E+03  0.48127273412E+02  0.16563354511E+03  0.21685888851E+03  0.00000000000E+00 0. -1.
        -14    1    3    3    0    0  0.25852782463E+01  0.36985684164E+02  0.57160093214E+02  0.68131496042E+02  0.00000000000E+00 0.  1.
        -13    1    4    4    0    0 -0.15006277099E+03 -0.41189681197E+02 -0.17639334631E+03  0.23522337830E+03  0.00000000000E+00 0.  1.
         13    1    4    4    0    0 -0.11362018588E+02 -0.33590534303E+02 -0.97931765896E+02  0.10415397368E+03  0.00000000000E+00 0. -1.
         21    1    1    2  502  501  0.27397235741E+02 -0.10332742076E+02  0.62912803678E+00  0.29287708806E+02  0.00000000000E+00 0.  1.
<scales pt_clust_5="13000.00000" pt_clust_6="13000.00000" pt_clust_7="13000.00000" pt_clust_8="13000.00000" pt_clust_9="29.28095"></scales>
<clustering>
<clus scale="   29.281">  1  9  2 -1</clus>
<clus scale="   79.843">  5  6 -1 -1</clus>
<clus scale="   90.954">  7  8 -1 -1</clus>
<clus scale="  192.891">  1  5  2 -1</clus>
<clus scale="  197.749">  2  5  1 -1</clus>
</clustering>
</event>
<event>
 9    1  0.2333971E-005  0.1129638E+03  0.7546771E-02  0.1259270E+00
          1   -1    0    0  502    0  0.00000000000E+00  0.00000000000E+00  0.67405654536E+03  0.67405654536E+03  0.00000000000E+00 0. -1.
         -2   -1    0    0    0  501 -0.00000000000E+00 -0.00000000000E+00 -0.97204002045E+02  0.97204002045E+02  0.00000000000E+00 0.  1.
         23    2    1    2    0    0 -0.11371039213E+02  0.61842401339E+02 -0.31776200079E+02  0.11557938285E+03  0.91624689422E+02 0.  0.
        -24    2    1    2    0    0 -0.14462143528E+02 -0.64954312010E+02  0.61893531791E+03  0.62769433199E+03  0.80566931287E+02 0.  0.
         11    1    4    4    0    0 -0.47431507102E+02 -0.45477745313E+02  0.36095147815E+03  0.36688409991E+03  0.00000000000E+00 0. -1.
        -12    1    4    4    0    0  0.32969363574E+02 -0.19476566697E+02  0.25798383976E+03  0.26081023209E+03  0.00000000000E+00 0.  1.
        -13    1    3    3    0    0 -0.24853260917E+02  0.21406193860E+02 -0.57207978683E+02  0.65944389744E+02  0.00000000000E+00 0.  1.
         13    1    3    3    0    0  0.13482221705E+02  0.40436207479E+02  0.25431778603E+02  0.49634993103E+02  0.00000000000E+00 0. -1.
         21    1    1    2  502  501  0.25833182740E+02  0.31119106710E+01 -0.10306574519E+02  0.27986832562E+02  0.00000000000E+00 0. -1.
<scales pt_clust_5="13000.00000" pt_clust_6="13000.00000" pt_clust_7="13000.00000" pt_clust_8="13000.00000" pt_clust_9="26.01994"></scales>
<clustering>
<clus scale="   26.020">  2  9  1 -1</clus>
<clus scale="   80.567">  5  6 -1 -1</clus>
<clus scale="   91.625">  7  8 -1 -1</clus>
<clus scale="  104.196">  1  5  2 -1</clus>
<clus scale="  104.196">  1  5  2 -1</clus>
</clustering>
</event>
<event>
 9    1  0.2333971E-005  0.1143397E+03  0.7546771E-02  0.1254473E+00
          1   -1    0    0  502    0  0.00000000000E+00  0.00000000000E+00  0.38322599742E+03  0.38322599742E+03  0.00000000000E+00 0. -1.
         -2   -1    0    0    0  501 -0.00000000000E+00 -0.00000000000E+00 -0.64433751415E+02  0.64433751415E+02  0.00000000000E+00 0.  1.
        -24    2    1    2    0    0  0.25074966879E+02  0.48808651992E+02  0.11637328034E+02  0.10434083895E+03  0.87980365968E+02 0.  0.
         23    2    1    2    0    0 -0.50645476164E+01 -0.70562723804E+02  0.27933835291E+03  0.30273051485E+03  0.92796021376E+02 0.  0.
         11    1    3    3    0    0  0.41407413590E+02 -0.97286232296E+01  0.39534179264E+00  0.42536764161E+02  0.00000000000E+00 0. -1.
        -12    1    3    3    0    0 -0.16332446711E+02  0.58537275222E+02  0.11241986241E+02  0.61804074790E+02  0.00000000000E+00 0.  1.
        -13    1    4    4    0    0 -0.39832229012E+02 -0.72529506370E+01  0.65291485542E+02  0.76825710835E+02  0.00000000000E+00 0.  1.
         13    1    4    4    0    0  0.34767681396E+02 -0.63309773167E+02  0.21404686737E+03  0.22590480402E+03  0.00000000000E+00 0. -1.
         21    1    1    2  502  501 -0.20010419263E+02  0.21754071811E+02  0.27816565058E+02  0.40588395030E+02  0.00000000000E+00 0.  1.
<scales pt_clust_5="13000.00000" pt_clust_6="13000.00000" pt_clust_7="13000.00000" pt_clust_8="13000.00000" pt_clust_9="29.55768"></scales>
<clustering>
<clus scale="   29.558">  2  9  1 -1</clus>
<clus scale="   87.980">  5  6 -1 -1</clus>
<clus scale="   92.796">  7  8 -1 -1</clus>
<clus scale="  110.467">  2  5  1 -1</clus>
<clus scale="  114.340">  1  5  2 -1</clus>
</clustering>
</event>
<event>
 9    1  0.2333971E-005  0.1098657E+03  0.7546771E-02  0.1264709E+00
          1   -1    0    0  502    0  0.00000000000E+00  0.00000000000E+00  0.33121365873E+03  0.33121365873E+03  0.00000000000E+00 0. -1.
         -2   -1    0    0    0  501 -0.00000000000E+00 -0.00000000000E+00 -0.11253347948E+03  0.11253347948E+03  0.00000000000E+00 0.  1.
         23    2    1    2    0    0  0.43211138887E+02  0.17785590670E+02 -0.65157943713E+02  0.12164382895E+03  0.91477503970E+02 0.  0.
        -24    2    1    2    0    0 -0.41809464992E+02 -0.46736847106E+02  0.27194126954E+03  0.29077161508E+03  0.81631573661E+02 0.  0.
         11    1    4    4    0    0 -0.56690589375E+02 -0.34264132209E+02  0.25924088374E+03  0.26756997119E+03  0.00000000000E+00 0. -1.
        -12    1    4    4    0    0  0.14881124383E+02 -0.12472714898E+02  0.12700385795E+02  0.23201643889E+02  0.00000000000E+00 0.  1.
        -13    1    3    3    0    0  0.66583706226E+02  0.39949876590E+01 -0.66871765468E+02  0.94452013626E+02  0.00000000000E+00 0.  1.
         13    1    3    3    0    0 -0.23372567339E+02  0.13790603011E+02  0.17138217547E+01  0.27191815321E+02  0.00000000000E+00 0. -1.
         21    1    1    2  502  501 -0.14016738945E+01  0.28951256436E+02  0.11896853425E+02  0.31331694182E+02  0.00000000000E+00 0.  1.
<scales pt_clust_5="13000.00000" pt_clust_6="13000.00000" pt_clust_7="13000.00000" pt_clust_8="13000.00000" pt_clust_9="28.98517"></scales>
<clustering>
<clus scale="   28.985">  2  9  1 -1</clus>
<clus scale="   81.632">  5  6 -1 -1</clus>
<clus scale="   91.478">  7  8 -1 -1</clus>
<clus scale="  101.814">  1  5  2 -1</clus>
<clus scale="  101.814">  1  5  2 -1</clus>
</clustering>
</event>
<event>
 9    1  0.2333971E-005  0.1019981E+03  0.7546771E-02  0.1276869E+00
         -2   -1    0    0    0  501 -0.00000000000E+00  0.00000000000E+00  0.48191272667E+03  0.48191272667E+03  0.00000000000E+00 0.  1.
          1   -1    0    0  502    0  0.00000000000E+00 -0.00000000000E+00 -0.88495264502E+02  0.88495264502E+02  0.00000000000E+00 0. -1.
         23    2    1    2    0    0 -0.20852476105E+02 -0.16634821296E+02  0.34799807503E+03  0.35860491304E+03  0.82360672630E+02 0.  0.
        -24    2    1    2    0    0  0.27108760161E+02  0.57528088624E+02 -0.45193699569E+02  0.11219317960E+03  0.80625512147E+02 0.  0.
         13    1    4    4    0    0 -0.88599363968E+01  0.55346586163E+02 -0.50894871101E+02  0.75710177501E+02  0.00000000000E+00 0. -1.
        -14    1    4    4    0    0  0.35968696557E+02  0.21815024604E+01  0.57011715321E+01  0.36483002095E+02  0.00000000000E+00 0.  1.
        -13    1    3    3    0    0  0.30301782055E+02  0.12148752918E+01  0.16464649745E+03  0.16741607761E+03  0.00000000000E+00 0. -1.
         13    1    3    3    0    0 -0.51154258160E+02 -0.17849696588E+02  0.18335157757E+03  0.19118883543E+03  0.00000000000E+00 0.  1.
         21    1    1    2  502  501 -0.62562840552E+01 -0.40893267328E+02  0.90613086708E+02  0.99609898533E+02  0.00000000000E+00 0.  1.
<scales pt_clust_5="13000.00000" pt_clust_6="13000.00000" pt_clust_7="13000.00000" pt_clust_8="13000.00000" pt_clust_9="41.36908"></scales>
<clustering>
<clus scale="   41.369">  1  9  2 -1</clus>
<clus scale="   80.626">  5  6 -1 -1</clus>
<clus scale="   82.361">  7  8 -1 -1</clus>
<clus scale="  100.602">  2  5  1 -1</clus>
<clus scale="  100.602">  2  5  1 -1</clus>
</clustering>
</event>
<event>
 9    1  0.2333971E-005  0.1405877E+03  0.7546771E-02  0.1214288E+00
          1   -1    0    0  502    0  0.00000000000E+00  0.00000000000E+00  0.27191605314E+03  0.27191605314E+03  0.00000000000E+00 0. -1.
         -2   -1    0    0    0  501 -0.00000000000E+00 -0.00000000000E+00 -0.24765479360E+03  0.24765479360E+03  0.00000000000E+00 0.  1.
        -24    2    1    2    0    0 -0.34914594572E+02  0.12982909541E+03 -0.15737810307E+03  0.22214108904E+03  0.80648454335E+02 0.  0.
         23    2    1    2    0    0  0.40911105164E+02 -0.97977062668E+02  0.21184935645E+03  0.25312226559E+03  0.88980380847E+02 0.  0.
         13    1    3    3    0    0 -0.30079747176E+02  0.89879665683E+02 -0.49342187797E+02  0.10685409206E+03  0.00000000000E+00 0. -1.
        -14    1    3    3    0    0 -0.48348473959E+01  0.39949429730E+02 -0.10803591527E+03  0.11528699698E+03  0.00000000000E+00 0.  1.
        -13    1    4    4    0    0  0.56807050690E+01 -0.10042642950E+03  0.17652810446E+03  0.20317457965E+03  0.00000000000E+00 0.  1.
         13    1    4    4    0    0  0.35230400095E+02  0.24493668300E+01  0.35321251981E+02  0.49947685935E+02  0.00000000000E+00 0. -1.
         21    1    1    2  502  501 -0.59965105925E+01 -0.31852032745E+02 -0.30209993843E+02  0.44307492112E+02  0.00000000000E+00 0. -1.
<scales pt_clust_5="13000.00000" pt_clust_6="13000.00000" pt_clust_7="13000.00000" pt_clust_8="13000.00000" pt_clust_9="32.41157"></scales>
<clustering>
<clus scale="   32.412">  2  9  1 -1</clus>
<clus scale="   80.648">  5  6 -1 -1</clus>
<clus scale="   88.980">  7  8 -1 -1</clus>
<clus scale="  135.468">  2  5  1 -1</clus>
<clus scale="  140.588">  1  5  2 -1</clus>
</clustering>
</event>
<event>
 9    1  0.2333971E-005  0.1030356E+03  0.7546771E-02  0.1280728E+00
          1   -1    0    0  502    0  0.00000000000E+00  0.00000000000E+00  0.33405969703E+03  0.33405969703E+03  0.00000000000E+00 0. -1.
         -2   -1    0    0    0  501 -0.00000000000E+00 -0.00000000000E+00 -0.37086384458E+03  0.37086384458E+03  0.00000000000E+00 0.  1.
         23    2    1    2    0    0 -0.63487257106E+02 -0.18616459700E+02 -0.28654937941E+03  0.30862408205E+03  0.93600602535E+02 0.  0.
        -24    2    1    2    0    0  0.37734469981E+02  0.19780043616E+02  0.31415807367E+03  0.32691953335E+03  0.79786876662E+02 0.  0.
         11    1    4    4    0    0  0.72031182964E+01  0.48105510641E+02  0.17890217660E+03  0.18539690898E+03  0.00000000000E+00 0. -1.
        -12    1    4    4    0    0  0.30531351684E+02 -0.28325467026E+02  0.13525589706E+03  0.14152262437E+03  0.00000000000E+00 0.  1.
        -13    1    3    3    0    0 -0.39182205754E+02  0.31609306105E+02 -0.78770550065E+02  0.93483651178E+02  0.00000000000E+00 0. -1.
         13    1    3    3    0    0 -0.24305051352E+02 -0.50225765805E+02 -0.20777882935E+03  0.21514043088E+03  0.00000000000E+00 0.  1.
         21    1    1    2  502  501  0.25752787125E+02 -0.11635839156E+01 -0.64412841799E+02  0.69379926210E+02  0.00000000000E+00 0. -1.
<scales pt_clust_5="13000.00000" pt_clust_6="13000.00000" pt_clust_7="13000.00000" pt_clust_8="13000.00000" pt_clust_9="25.77906"></scales>
<clustering>
<clus scale="   25.779">  2  9  1 -1</clus>
<clus scale="   79.787">  5  6 -1 -1</clus>
<clus scale="   90.671">  1  5  2 -1</clus>
<clus scale="   93.601">  7  8 -1 -1</clus>
<clus scale="   90.671">  1  5  2 -1</clus>
</clustering>
</event>
<event>
 9    1  0.2333971E-005  0.1860897E+03  0.7546771E-02  0.1163863E+00
         -2   -1    0    0    0  501 -0.00000000000E+00  0.00000000000E+00  0.72507851864E+02  0.72507851864E+02  0.00000000000E+00 0.  1.
          1   -1    0    0  502    0  0.00000000000E+00 -0.00000000000E+00 -0.64483397726E+03  0.64483397726E+03  0.00000000000E+00 0. -1.
        -24    2    1    2    0    0  0.70381834918E+02 -0.15286064785E+03 -0.12668104666E+03  0.22246481741E+03  0.71571831433E+02 0.  0.
         23    2    1    2    0    0 -0.36608367819E+02  0.15077299178E+03 -0.34384677685E+03  0.38760213276E+03  0.89062560741E+02 0.  0.
         11    1    3    3    0    0  0.39331472230E+02 -0.85391544223E+02 -0.11291243073E+03  0.14692820541E+03  0.00000000000E+00 0. -1.
        -12    1    3    3    0    0  0.31050362688E+02 -0.67469103625E+02 -0.13768615929E+02  0.75536611994E+02  0.00000000000E+00 0.  1.
        -11    1    4    4    0    0 -0.97571528737E+01  0.21909471220E+02 -0.55768875930E+01  0.24623741320E+02  0.00000000000E+00 0.  1.
         11    1    4    4    0    0 -0.26851214946E+02  0.12886352056E+03 -0.33826988926E+03  0.36297839144E+03  0.00000000000E+00 0. -1.
         21    1    1    2  502  501 -0.33773467099E+02  0.20876560667E+01 -0.10179830189E+03  0.10727487895E+03  0.00000000000E+00 0. -1.
<scales pt_clust_5="13000.00000" pt_clust_6="13000.00000" pt_clust_7="13000.00000" pt_clust_8="13000.00000" pt_clust_9="33.83793"></scales>
<clustering>
<clus scale="   33.838">  2  9  1 -1</clus>
<clus scale="   71.572">  5  6 -1 -1</clus>
<clus scale="   89.063">  7  8 -1 -1</clus>
<clus scale="  178.381">  1  5  2 -1</clus>
<clus scale="   33.838">  2  5  1 -1</clus>
</clustering>
</event>
<event>
 9    1  0.2333971E-005  0.9654136E+02  0.7546771E-02  0.1288524E+00
         -2   -1    0    0    0  501 -0.00000000000E+00  0.00000000000E+00  0.18709167984E+03  0.18709167984E+03  0.00000000000E+00 0.  1.
          1   -1    0    0  502    0  0.00000000000E+00 -0.00000000000E+00 -0.19019377435E+03  0.19019377435E+03  0.00000000000E+00 0. -1.
         23    2    1    2    0    0 -0.22684499321E+01 -0.46499885787E+02 -0.75110148606E+02  0.12612608048E+03  0.89993713720E+02 0.  0.
        -24    2    1    2    0    0 -0.15483978447E+02  0.22595909831E+02 -0.63576592506E+02  0.11234386603E+03  0.88480689361E+02 0.  0.
         13    1    4    4    0    0  0.29494348626E+02  0.18897117297E+02 -0.56764452217E+02  0.66702478804E+02  0.00000000000E+00 0. -1.
        -14    1    4    4    0    0 -0.44978327073E+02  0.36987925340E+01 -0.68121402881E+01  0.45641387225E+02  0.00000000000E+00 0.  1.
        -13    1    3    3    0    0  0.42638532093E+02 -0.16947573969E+02 -0.46089070259E+02  0.65034353074E+02  0.00000000000E+00 0.  1.
         13    1    3    3    0    0 -0.44906982025E+02 -0.29552311818E+02 -0.29021078348E+02  0.61091727401E+02  0.00000000000E+00 0. -1.
         21    1    1    2  502  501  0.17752428379E+02  0.23903975956E+02  0.13558464661E+03  0.13881550769E+03  0.00000000000E+00 0.  1.
<scales pt_clust_5="13000.00000" pt_clust_6="13000.00000" pt_clust_7="13000.00000" pt_clust_8="13000.00000" pt_clust_9="29.77497"></scales>
<clustering>
<clus scale="   29.775">  1  9  2 -1</clus>
<clus scale="   88.481">  5  6 -1 -1</clus>
<clus scale="   89.994">  7  8 -1 -1</clus>
<clus scale="   95.133">  2  5  1 -1</clus>
<clus scale="   95.133">  2  5  1 -1</clus>
</clustering>
</event>
<event>
 9    1  0.2333971E-005  0.1259979E+03  0.7546771E-02  0.1235191E+00
          1   -1    0    0  502    0  0.00000000000E+00  0.00000000000E+00  0.18168628801E+03  0.18168628801E+03  0.00000000000E+00 0. -1.
         -2   -1    0    0    0  501 -0.00000000000E+00 -0.00000000000E+00 -0.17339001076E+03  0.17339001076E+03  0.00000000000E+00 0.  1.
         23    2    1    2    0    0  0.21195123565E+02 -0.73040309661E+02 -0.60511810273E+02  0.13268417813E+03  0.90328798532E+02 0.  0.
        -24    2    1    2    0    0 -0.82435599233E+02  0.52027410052E+02  0.86570224003E+02  0.15525471451E+03  0.84303874627E+02 0.  0.
         13    1    4    4    0    0 -0.41775709734E+02  0.19796159582E+02  0.92124618307E+02  0.10307299916E+03  0.00000000000E+00 0. -1.
        -14    1    4    4    0    0 -0.40659889498E+02  0.32231250470E+02 -0.55543943048E+01  0.52181715351E+02  0.00000000000E+00 0.  1.
        -11    1    3    3    0    0  0.41952210171E+02 -0.10829074153E+02  0.17992393357E+00  0.43327695044E+02  0.00000000000E+00 0.  1.
         11    1    3    3    0    0 -0.20757086606E+02 -0.62211235508E+02 -0.60691734207E+02  0.89356483082E+02  0.00000000000E+00 0. -1.
         21    1    1    2  502  501  0.61240475668E+02  0.21012899609E+02 -0.17762136475E+02  0.67137406132E+02  0.00000000000E+00 0.  1.
<scales pt_clust_5="13000.00000" pt_clust_6="13000.00000" pt_clust_7="13000.00000" pt_clust_8="13000.00000" pt_clust_9="64.74518"></scales>
<clustering>
<clus scale="   64.745">  2  9  1 -1</clus>
<clus scale="   84.304">  5  6 -1 -1</clus>
<clus scale="   90.329">  7  8 -1 -1</clus>
<clus scale="  121.751">  1  5  2 -1</clus>
<clus scale="  121.751">  1  5  2 -1</clus>
</clustering>
</event>
<event>
 9    1  0.2333971E-005  0.1030105E+03  0.7546771E-02  0.1280907E+00
         -2   -1    0    0    0  501 -0.00000000000E+00  0.00000000000E+00  0.32552020697E+03  0.32552020697E+03  0.00000000000E+00 0.  1.
          1   -1    0    0  502    0  0.00000000000E+00 -0.00000000000E+00 -0.78806976761E+02  0.78806976761E+02  0.00000000000E+00 0. -1.
        -24    2    1    2    0    0 -0.33979367551E+02  0.47385597885E+02  0.19886350100E+03  0.22223241201E+03  0.80253103440E+02 0.  0.
         23    2    1    2    0    0  0.31634274945E+02 -0.22768817807E+02 -0.25163946392E+02  0.10500727503E+03  0.94202745163E+02 0.  0.
         11    1    3    3    0    0  0.20835492147E+02  0.58372661102E+00  0.18014961497E+02  0.27549905762E+02  0.00000000000E+00 0. -1.
        -12    1    3    3    0    0 -0.54814859699E+02  0.46801871274E+02  0.18084853950E+03  0.19468250624E+03  0.00000000000E+00 0.  1.
        -13    1    4    4    0    0 -0.11744078377E+02  0.17208578747E+02 -0.39179722070E+02  0.44374645699E+02  0.00000000000E+00 0. -1.
         13    1    4    4    0    0  0.43378353321E+02 -0.39977396554E+02  0.14015775678E+02  0.60632629334E+02  0.00000000000E+00 0.  1.
         21    1    1    2  502  501  0.23450926069E+01 -0.24616780079E+02  0.73013675603E+02  0.77087496689E+02  0.00000000000E+00 0. -1.
<scales pt_clust_5="13000.00000" pt_clust_6="13000.00000" pt_clust_7="13000.00000" pt_clust_8="13000.00000" pt_clust_9="24.72823"></scales>
<clustering>
<clus scale="   24.728">  1  9  2 -1</clus>
<clus scale="   80.253">  5  6 -1 -1</clus>
<clus scale="   90.430">  1  5  2 -1</clus>
<clus scale="   94.203">  7  8 -1 -1</clus>
<clus scale="  103.010">  2  5  1 -1</clus>
</clustering>
</event>
<event>
 9    1  0.2333971E-005  0.1117951E+03  0.7546771E-02  0.1262575E+00
          1   -1    0    0  502    0  0.00000000000E+00  0.00000000000E+00  0.12284385843E+03  0.12284385843E+03  0.00000000000E+00 0. -1.
         -2   -1    0    0    0  501 -0.00000000000E+00 -0.00000000000E+00 -0.12356687029E+03  0.12356687029E+03  0.00000000000E+00 0.  1.
        -24    2    1    2    0    0  0.74252370553E+01 -0.47316496981E+02 -0.18174640748E+02  0.95531142440E+02  0.80634338701E+02 0.  0.
         23    2    1    2    0    0 -0.69794469382E+01  0.69692767193E+02  0.35046930303E+02  0.12241046566E+03  0.94075715785E+02 0.  0.
         13    1    3    3    0    0 -0.18191723022E+02 -0.98327570120E+01  0.25297192328E+02  0.32673687221E+02  0.00000000000E+00 0. -1.
        -14    1    3    3    0    0  0.25616960077E+02 -0.37483739969E+02 -0.43471833075E+02  0.62857455219E+02  0.00000000000E+00 0.  1.
        -13    1    4    4    0    0 -0.15379116274E+02  0.50227831076E+02 -0.25403987803E+02  0.58349934261E+02  0.00000000000E+00 0.  1.
         13    1    4    4    0    0  0.83996693357E+01  0.19464936117E+02  0.60450918106E+02  0.64060531397E+02  0.00000000000E+00 0. -1.
         21    1    1    2  502  501 -0.44579011704E+00 -0.22376270212E+02 -0.17595301418E+02  0.28469120629E+02  0.00000000000E+00 0.  1.
<scales pt_clust_5="13000.00000" pt_clust_6="13000.00000" pt_clust_7="13000.00000" pt_clust_8="13000.00000" pt_clust_9="22.38071"></scales>
<clustering>
<clus scale="   22.381">  2  9  1 -1</clus>
<clus scale="   80.634">  5  6 -1 -1</clus>
<clus scale="   94.076">  7  8 -1 -1</clus>
<clus scale="  100.746">  2  5  1 -1</clus>
<clus scale="  111.795">  1  5  2 -1</clus>
</clustering>
</event>
<event>
 9    1  0.2333971E-005  0.9288187E+02  0.7546771E-02  0.1301364E+00
          1   -1    0    0  502    0  0.00000000000E+00  0.00000000000E+00  0.63422790169E+03  0.63422790169E+03  0.00000000000E+00 0. -1.
         -2   -1    0    0    0  501 -0.00000000000E+00 -0.00000000000E+00 -0.18170670994E+02  0.18170670994E+02  0.00000000000E+00 0.  1.
        -24    2    1    2    0    0  0.30499912493E+02 -0.17659337643E+02  0.21633497864E+03  0.23376898711E+03  0.81271270959E+02 0.  0.
         23    2    1    2    0    0 -0.92909627192E+01  0.10030562626E+02  0.37125571702E+03  0.38232033915E+03  0.90283443303E+02 0.  0.
         11    1    3    3    0    0  0.42284437285E+02  0.11153286544E+02  0.18302715710E+03  0.18817892994E+03  0.00000000000E+00 0. -1.
        -12    1    3    3    0    0 -0.11784524791E+02 -0.28812624187E+02  0.33307821544E+02  0.45590057174E+02  0.00000000000E+00 0.  1.
        -11    1    4    4    0    0 -0.10865581443E+01  0.49695957443E+02  0.17467918445E+03  0.18161411365E+03  0.00000000000E+00 0. -1.
         11    1    4    4    0    0 -0.82044045749E+01 -0.39665394817E+02  0.19657653257E+03  0.20070622551E+03  0.00000000000E+00 0.  1.
         21    1    1    2  502  501 -0.21208949774E+02  0.76287750172E+01  0.28466535038E+02  0.36309246424E+02  0.00000000000E+00 0.  1.
<scales pt_clust_5="13000.00000" pt_clust_6="13000.00000" pt_clust_7="13000.00000" pt_clust_8="13000.00000" pt_clust_9="22.53925"></scales>
<clustering>
<clus scale="   22.539">  2  9  1 -1</clus>
<clus scale="   81.271">  5  6 -1 -1</clus>
<clus scale="   84.148">  2  5  1 -1</clus>
<clus scale="   90.283">  7  8 -1 -1</clus>
<clus scale="   92.882">  1  5  2 -1</clus>
</clustering>
</event>
<event>
 9    1  0.2333971E-005  0.1581362E+03  0.7546771E-02  0.1192757E+00
         -2   -1    0    0    0  501 -0.00000000000E+00  0.00000000000E+00  0.18833624427E+03  0.18833624427E+03  0.00000000000E+00 0.  1.
          1   -1    0    0  502    0  0.00000000000E+00 -0.00000000000E+00 -0.20751868656E+03  0.20751868656E+03  0.00000000000E+00 0. -1.
        -24    2    1    2    0    0 -0.95887103916E+02 -0.96129973242E+02  0.91117450291E+02  0.18247314576E+03  0.80986114392E+02 0.  0.
         23    2    1    2    0    0  0.59611944421E+02  0.87396409318E+02 -0.10528127063E+03  0.17573409056E+03  0.92771808003E+02 0.  0.
         11    1    3    3    0    0 -0.50672460091E+02 -0.92604894170E+01  0.44581682541E+01  0.51704256499E+02  0.00000000000E+00 0. -1.
        -12    1    3    3    0    0 -0.45214643825E+02 -0.86869483825E+02  0.86659282037E+02  0.13076888926E+03  0.00000000000E+00 0.  1.
        -13    1    4    4    0    0  0.57120252940E+02  0.98288312876E+01 -0.22258620787E+02  0.62086837733E+02  0.00000000000E+00 0.  1.
         13    1    4    4    0    0  0.24916914809E+01  0.77567578030E+02 -0.83022649848E+02  0.11364725283E+03  0.00000000000E+00 0. -1.
         21    1    1    2  502  501  0.36275159496E+02  0.87335639248E+01 -0.50186219512E+01  0.37647694505E+02  0.00000000000E+00 0.  1.
<scales pt_clust_5="13000.00000" pt_clust_6="13000.00000" pt_clust_7="13000.00000" pt_clust_8="13000.00000" pt_clust_9="37.31169"></scales>
<clustering>
<clus scale="   37.312">  2  9  1 -1</clus>
<clus scale="   80.986">  5  6 -1 -1</clus>
<clus scale="   92.772">  7  8 -1 -1</clus>
<clus scale="  151.523">  1  5  2 -1</clus>
<clus scale="   37.312">  2  5  1 -1</clus>
</clustering>
</event>
<event>
 9    1  0.2333971E-005  0.1006325E+03  0.7546771E-02  0.1288765E+00
          1   -1    0    0  502    0  0.00000000000E+00  0.00000000000E+00  0.91743226423E+02  0.91743226423E+02  0.00000000000E+00 0. -1.
         -2   -1    0    0    0  501 -0.00000000000E+00 -0.00000000000E+00 -0.19590878575E+03  0.19590878575E+03  0.00000000000E+00 0.  1.
        -24    2    1    2    0    0 -0.17821912094E+02  0.17905347269E+02 -0.10190841911E+03  0.13170387439E+03  0.79513285889E+02 0.  0.
         23    2    1    2    0    0 -0.16052574191E+01 -0.28026845817E+02  0.39611275017E+02  0.10869537233E+03  0.97249935324E+02 0.  0.
         11    1    3    3    0    0 -0.20287946050E+02  0.13477516563E+02  0.48419853017E+01  0.24833224303E+02  0.00000000000E+00 0. -1.
        -12    1    3    3    0    0  0.24660339555E+01  0.44278307052E+01 -0.10675040441E+03  0.10687065009E+03  0.00000000000E+00 0.  1.
        -13    1    4    4    0    0 -0.10533781919E+02 -0.63266266026E+02  0.31470436738E+02  0.71442070007E+02  0.00000000000E+00 0. -1.
         13    1    4    4    0    0  0.89285245000E+01  0.35239420209E+02  0.81408382793E+01  0.37253302328E+02  0.00000000000E+00 0.  1.
         21    1    1    2  502  501  0.19427169514E+02  0.10121498548E+02 -0.41868415230E+02  0.47252765443E+02  0.00000000000E+00 0. -1.
<scales pt_clust_5="13000.00000" pt_clust_6="13000.00000" pt_clust_7="13000.00000" pt_clust_8="13000.00000" pt_clust_9="21.90570"></scales>
<clustering>
<clus scale="   21.906">  2  9  1 -1</clus>
<clus scale="   79.513">  5  6 -1 -1</clus>
<clus scale="   83.616">  2  5  1 -1</clus>
<clus scale="   97.250">  7  8 -1 -1</clus>
<clus scale="  100.633">  1  5  2 -1</clus>
</clustering>
</event>
<event>
 9    1  0.2333971E-005  0.9398561E+02  0.7546771E-02  0.1301446E+00
          1   -1    0    0  502    0  0.00000000000E+00  0.00000000000E+00  0.26796235946E+03  0.26796235946E+03  0.00000000000E+00 0. -1.
         -2   -1    0    0    0  501 -0.00000000000E+00 -0.00000000000E+00 -0.87418092440E+02  0.87418092440E+02  0.00000000000E+00 0.  1.
        -24    2    1    2    0    0  0.24804709027E+02  0.71222536039E+01  0.53494771730E+02  0.97238586325E+02  0.76991246136E+02 0.  0.
         23    2    1    2    0    0 -0.10996981806E+02 -0.26899656346E+02  0.17799773968E+03  0.20177234725E+03  0.90467450854E+02 0.  0.
         13    1    3    3    0    0 -0.22250136822E+02 -0.91405894771E+01  0.38224617832E+02  0.45163484952E+02  0.00000000000E+00 0. -1.
        -14    1    3    3    0    0  0.47054845849E+02  0.16262843081E+02  0.15270153898E+02  0.52075101373E+02  0.00000000000E+00 0.  1.
        -13    1    4    4    0    0  0.46295413493E+01 -0.57256963886E+02  0.83980039640E+02  0.10174693914E+03  0.00000000000E+00 0.  1.
         13    1    4    4    0    0 -0.15626523155E+02  0.30357307540E+02  0.94017700041E+02  0.10002540811E+03  0.00000000000E+00 0. -1.
         21    1    1    2  502  501 -0.13807727221E+02  0.19777402742E+02 -0.50948244387E+02  0.56369518326E+02  0.00000000000E+00 0.  1.
<scales pt_clust_5="13000.00000" pt_clust_6="13000.00000" pt_clust_7="13000.00000" pt_clust_8="13000.00000" pt_clust_9="24.12051"></scales>
<clustering>
<clus scale="   24.121">  2  9  1 -1</clus>
<clus scale="   76.991">  5  6 -1 -1</clus>
<clus scale="   81.096">  2  5  1 -1</clus>
<clus scale="   90.467">  7  8 -1 -1</clus>
<clus scale="   93.986">  1  5  2 -1</clus>
</clustering>
</event>
<event>
 9    1  0.2333971E-005  0.1596716E+03  0.7546771E-02  0.1192876E+00
          1   -1    0    0  502    0  0.00000000000E+00  0.00000000000E+00  0.25819960408E+03  0.25819960408E+03  0.00000000000E+00 0. -1.
         -2   -1    0    0    0  501 -0.00000000000E+00 -0.00000000000E+00 -0.15566654317E+03  0.15566654317E+03  0.00000000000E+00 0.  1.
         23    2    1    2    0    0 -0.20351440871E+02  0.10583356384E+03 -0.59660451473E+02  0.16008995832E+03  0.10224725377E+03 0.  0.
        -24    2    1    2    0    0  0.40268516960E+02 -0.12009769716E+03  0.17113931031E+03  0.22769587605E+03  0.80695341366E+02 0.  0.
         11    1    4    4    0    0  0.20293001422E+02 -0.78735579114E+02  0.16142614903E+03  0.18074705784E+03  0.00000000000E+00 0. -1.
        -12    1    4    4    0    0  0.19975515538E+02 -0.41362118043E+02  0.97131612769E+01  0.46948818217E+02  0.00000000000E+00 0.  1.
        -13    1    3    3    0    0 -0.60524198476E+02  0.45989605591E+02 -0.36949927848E+02  0.84519344482E+02  0.00000000000E+00 0.  1.
         13    1    3    3    0    0  0.40172757605E+02  0.59843958252E+02 -0.22710523625E+02  0.75570613840E+02  0.00000000000E+00 0. -1.
         21    1    1    2  502  501 -0.19917076089E+02  0.14264133314E+02 -0.89457979205E+01  0.26080312873E+02  0.00000000000E+00 0.  1.
<scales pt_clust_5="13000.00000" pt_clust_6="13000.00000" pt_clust_7="13000.00000" pt_clust_8="13000.00000" pt_clust_9="24.49807"></scales>
<clustering>
<clus scale="   24.498">  2  9  1 -1</clus>
<clus scale="   80.695">  5  6 -1 -1</clus>
<clus scale="  102.247">  7  8 -1 -1</clus>
<clus scale="  146.807">  1  5  2 -1</clus>
<clus scale="  146.807">  1  5  2 -1</clus>
</clustering>
</event>
<event>
 9    1  0.2333971E-005  0.9757985E+02  0.7546771E-02  0.1292990E+00
          1   -1    0    0  502    0  0.00000000000E+00  0.00000000000E+00  0.13970194661E+03  0.13970194661E+03  0.00000000000E+00 0. -1.
         -2   -1    0    0    0  501 -0.00000000000E+00 -0.00000000000E+00 -0.18541916162E+03  0.18541916162E+03  0.00000000000E+00 0.  1.
         23    2    1    2    0    0  0.63188419056E+01  0.10214838367E+02 -0.26467843224E+02  0.95945027612E+02  0.91436485675E+02 0.  0.
        -24    2    1    2    0    0 -0.42449313980E+02  0.10225809501E+02  0.81191669994E+02  0.12049473920E+03  0.77591130047E+02 0.  0.
         13    1    4    4    0    0 -0.53276971874E+02  0.31855720402E+02  0.43838701167E+02  0.75993778525E+02  0.00000000000E+00 0. -1.
        -14    1    4    4    0    0  0.10827657895E+02 -0.21629910902E+02  0.37352968827E+02  0.44500960678E+02  0.00000000000E+00 0.  1.
        -11    1    3    3    0    0  0.17886005411E+02 -0.35409063345E+02 -0.28480014406E+02  0.48834641159E+02  0.00000000000E+00 0.  1.
         11    1    3    3    0    0 -0.11567163505E+02  0.45623901712E+02  0.20121711821E+01  0.47110386454E+02  0.00000000000E+00 0. -1.
         21    1    1    2  502  501  0.36130472074E+02 -0.20440647868E+02 -0.10044104178E+03  0.10868134141E+03  0.00000000000E+00 0.  1.
<scales pt_clust_5="13000.00000" pt_clust_6="13000.00000" pt_clust_7="13000.00000" pt_clust_8="13000.00000" pt_clust_9="41.51182"></scales>
<clustering>
<clus scale="   41.512">  2  9  1 -1</clus>
<clus scale="   77.591">  5  6 -1 -1</clus>
<clus scale="   84.744">  1  5  2 -1</clus>
<clus scale="   91.436">  7  8 -1 -1</clus>
<clus scale="   84.744">  1  5  2 -1</clus>
</clustering>
</event>
<event>
 9    1  0.2333971E-005  0.1444433E+03  0.7546771E-02  0.1212362E+00
         -2   -1    0    0    0  501 -0.00000000000E+00  0.00000000000E+00  0.14538265883E+03  0.14538265883E+03  0.00000000000E+00 0.  1.
          1   -1    0    0  502    0  0.00000000000E+00 -0.00000000000E+00 -0.36537994512E+03  0.36537994512E+03  0.00000000000E+00 0. -1.
         23    2    1    2    0    0  0.10799427080E+02 -0.92717513808E+02 -0.18064471389E+02  0.13175880231E+03  0.91218922743E+02 0.  0.
        -24    2    1    2    0    0 -0.39268538787E+02  0.85129975962E+02 -0.26907283562E+03  0.30568365820E+03  0.11069406974E+03 0.  0.
         11    1    4    4    0    0 -0.70951597215E+02  0.41094882344E+02 -0.21021144061E+03  0.22563636291E+03  0.00000000000E+00 0. -1.
        -12    1    4    4    0    0  0.31683058428E+02  0.44035093618E+02 -0.58861395012E+02  0.80047295295E+02  0.00000000000E+00 0.  1.
        -13    1    3    3    0    0  0.45203388381E+02 -0.65403236001E+02 -0.31956206112E+02  0.85686222402E+02  0.00000000000E+00 0. -1.
         13    1    3    3    0    0 -0.34403961301E+02 -0.27314277808E+02  0.13891734723E+02  0.46072579904E+02  0.00000000000E+00 0.  1.
         21    1    1    2  502  501  0.28469111707E+02  0.75875378463E+01  0.67140020719E+02  0.73320143441E+02  0.00000000000E+00 0. -1.
<scales pt_clust_5="13000.00000" pt_clust_6="13000.00000" pt_clust_7="13000.00000" pt_clust_8="13000.00000" pt_clust_9="29.46288"></scales>
<clustering>
<clus scale="   29.463">  1  9  2 -1</clus>
<clus scale="   91.219">  7  8 -1 -1</clus>
<clus scale="  110.694">  5  6 -1 -1</clus>
<clus scale="  130.121">  1  7  2 -1</clus>
<clus scale="  144.443">  2  5  1 -1</clus>
</clustering>
</event>
<event>
 9    1  0.2333971E-005  0.1405529E+03  0.7546771E-02  0.1217360E+00
         -2   -1    0    0    0  501 -0.00000000000E+00  0.00000000000E+00  0.97718206006E+02  0.97718206006E+02  0.00000000000E+00 0.  1.
          1   -1    0    0  502    0  0.00000000000E+00 -0.00000000000E+00 -0.49200694216E+03  0.49200694216E+03  0.00000000000E+00 0. -1.
         23    2    1    2    0    0 -0.68820637746E+02 -0.76982812673E+02  0.23576289860E+02  0.14223772355E+03  0.94937321062E+02 0.  0.
        -24    2    1    2    0    0  0.87081671793E+02  0.64265036557E+02 -0.39260702709E+03  0.41382477909E+03  0.73467391318E+02 0.  0.
         11    1    4    4    0    0  0.54886698982E+02  0.61721097568E+02 -0.35391776396E+03  0.36342788453E+03  0.00000000000E+00 0. -1.
        -12    1    4    4    0    0  0.32194972811E+02  0.25439389888E+01 -0.38689263127E+02  0.50396894559E+02  0.00000000000E+00 0.  1.
        -11    1    3    3    0    0 -0.60656295026E+02 -0.53797706490E+02  0.58180686572E+02  0.99791641132E+02  0.00000000000E+00 0.  1.
         11    1    3    3    0    0 -0.81643427204E+01 -0.23185106183E+02 -0.34604396713E+02  0.42446082418E+02  0.00000000000E+00 0. -1.
         21    1    1    2  502  501 -0.18261034047E+02  0.12717776116E+02 -0.25257998928E+02  0.33662645524E+02  0.00000000000E+00 0. -1.
<scales pt_clust_5="13000.00000" pt_clust_6="13000.00000" pt_clust_7="13000.00000" pt_clust_8="13000.00000" pt_clust_9="22.25325"></scales>
<clustering>
<clus scale="   22.253">  2  9  1 -1</clus>
<clus scale="   73.467">  5  6 -1 -1</clus>
<clus scale="   94.937">  7  8 -1 -1</clus>
<clus scale="  127.041">  2  5  1 -1</clus>
<clus scale="   22.253">  2  5  1 -1</clus>
</clustering>
</event>
<event>
 9    1  0.2333971E-005  0.1034053E+03  0.7546771E-02  0.1277443E+00
         -2   -1    0    0    0  501 -0.00000000000E+00  0.00000000000E+00  0.65065713983E+02  0.65065713983E+02  0.00000000000E+00 0.  1.
          1   -1    0    0  502    0  0.00000000000E+00 -0.00000000000E+00 -0.55895941910E+03  0.55895941910E+03  0.00000000000E+00 0. -1.
        -24    2    1    2    0    0 -0.12437351447E+02  0.16610670936E+02 -0.11576463984E+03  0.14252573055E+03  0.80507949502E+02 0.  0.
         23    2    1    2    0    0  0.53482637312E+02 -0.44139216533E+02 -0.40818998562E+03  0.42365309542E+03  0.89745294963E+02 0.  0.
         13    1    3    3    0    0 -0.35442595251E+02  0.22447023771E+01 -0.10890526021E+03  0.11454943016E+03  0.00000000000E+00 0. -1.
        -14    1    3    3    0    0  0.23005243804E+02  0.14365968559E+02 -0.68593796243E+01  0.27976300397E+02  0.00000000000E+00 0.  1.
        -11    1    4    4    0    0  0.65608726378E+02  0.20073215558E+01 -0.22941790902E+03  0.23862336704E+03  0.00000000000E+00 0.  1.
         11    1    4    4    0    0 -0.12126089066E+02 -0.46146538088E+02 -0.17877207660E+03  0.18502972838E+03  0.00000000000E+00 0. -1.
         21    1    1    2  502  501 -0.41045285864E+02  0.27528545597E+02  0.30060920342E+02  0.57846307109E+02  0.00000000000E+00 0.  1.
<scales pt_clust_5="13000.00000" pt_clust_6="13000.00000" pt_clust_7="13000.00000" pt_clust_8="13000.00000" pt_clust_9="49.42202"></scales>
<clustering>
<clus scale="   49.422">  1  9  2 -1</clus>
<clus scale="   80.508">  5  6 -1 -1</clus>
<clus scale="   89.745">  7  8 -1 -1</clus>
<clus scale="   95.499">  1  5  2 -1</clus>
<clus scale="  103.405">  2  5  1 -1</clus>
</clustering>
</event>
<event>
 9    1  0.2333971E-005  0.1841729E+03  0.7546771E-02  0.1179235E+00
          1   -1    0    0  502    0  0.00000000000E+00  0.00000000000E+00  0.15444359232E+03  0.15444359232E+03  0.00000000000E+00 0. -1.
         -2   -1    0    0    0  501 -0.00000000000E+00 -0.00000000000E+00 -0.13160738887E+04  0.13160738887E+04  0.00000000000E+00 0.  1.
        -24    2    1    2    0    0  0.10239898083E+03 -0.56871914211E+02 -0.10271804452E+03  0.17597905287E+03  0.81839259995E+02 0.  0.
         23    2    1    2    0    0  0.73869267465E+02  0.55310258298E+02  0.73170692376E+02  0.14881388588E+03  0.90971034182E+02 0.  0.
         13    1    3    3    0    0  0.59268549206E+02 -0.12735664474E+02 -0.55553020199E+01  0.60875442135E+02  0.00000000000E+00 0. -1.
        -14    1    3    3    0    0  0.43130431622E+02 -0.44136249737E+02 -0.97162742502E+02  0.11510361073E+03  0.00000000000E+00 0.  1.
        -13    1    4    4    0    0 -0.11723178921E+02  0.18468269142E+02 -0.98689998980E+01  0.23998063424E+02  0.00000000000E+00 0.  1.
         13    1    4    4    0    0  0.85592446386E+02  0.36841989156E+02  0.83039692274E+02  0.12481582246E+03  0.00000000000E+00 0. -1.
         21    1    1    2  502  501 -0.17626824829E+03  0.15616559130E+01 -0.11320829443E+04  0.11457245423E+04  0.00000000000E+00 0.  1.
<scales pt_clust_5="13000.00000" pt_clust_6="13000.00000" pt_clust_7="13000.00000" pt_clust_8="13000.00000" pt_clust_9="164.99089"></scales>
<clustering>
<clus scale="   81.839">  5  6 -1 -1</clus>
<clus scale="   90.971">  7  8 -1 -1</clus>
<clus scale="  129.582">  1  7  2 -1</clus>
<clus scale="  164.991">  2  9  1 -1</clus>
<clus scale="  129.582">  1  5  2 -1</clus>
</clustering>
</event>
<event>
 9    1  0.2333971E-005  0.9468959E+02  0.7546771E-02  0.1297550E+00
          1   -1    0    0  502    0  0.00000000000E+00  0.00000000000E+00  0.41185191241E+03  0.41185191241E+03  0.00000000000E+00 0. -1.
         -2   -1    0    0    0  501 -0.00000000000E+00 -0.00000000000E+00 -0.53582785020E+02  0.53582785020E+02  0.00000000000E+00 0.  1.
        -24    2    1    2    0    0  0.12418618799E+02  0.20150724259E+02 -0.85368918186E+00  0.84704661960E+02  0.81325747408E+02 0.  0.
         23    2    1    2    0    0 -0.33642980938E+02 -0.25058438539E+02  0.32581208386E+03  0.34092847618E+03  0.91208203452E+02 0.  0.
         11    1    3    3    0    0  0.22455099570E+02  0.38193037375E+01  0.36324740413E+02  0.42875463191E+02  0.00000000000E+00 0. -1.
        -12    1    3    3    0    0 -0.10036480771E+02  0.16331420521E+02 -0.37178429595E+02  0.41829198769E+02  0.00000000000E+00 0.  1.
        -13    1    4    4    0    0 -0.16830332269E+02  0.32123041211E+02  0.77525404196E+02  0.85588189353E+02  0.00000000000E+00 0.  1.
         13    1    4    4    0    0 -0.16812648669E+02 -0.57181479750E+02  0.24828667966E+03  0.25534028683E+03  0.00000000000E+00 0. -1.
         21    1    1    2  502  501  0.21224362139E+02  0.49077142804E+01  0.33310732711E+02  0.39801559284E+02  0.00000000000E+00 0.  1.
<scales pt_clust_5="13000.00000" pt_clust_6="13000.00000" pt_clust_7="13000.00000" pt_clust_8="13000.00000" pt_clust_9="21.78438"></scales>
<clustering>
<clus scale="   21.784">  1  9  2 -1</clus>
<clus scale="   81.326">  5  6 -1 -1</clus>
<clus scale="   85.212">  2  5  1 -1</clus>
<clus scale="   91.208">  7  8 -1 -1</clus>
<clus scale="   21.784">  1  5  2 -1</clus>
</clustering>
</event>
<event>
 9    1  0.2333971E-005  0.1066087E+03  0.7546771E-02  0.1270940E+00
          1   -1    0    0  502    0  0.00000000000E+00  0.00000000000E+00  0.40238497348E+03  0.40238497348E+03  0.00000000000E+00 0. -1.
         -2   -1    0    0    0  501 -0.00000000000E+00 -0.00000000000E+00 -0.62431157481E+02  0.62431157481E+02  0.00000000000E+00 0.  1.
        -24    2    1    2    0    0 -0.13902785399E+02  0.58327431580E+02  0.27375858267E+00  0.10097987011E+03  0.81249507733E+02 0.  0.
         23    2    1    2    0    0  0.10332340596E+02 -0.30941445876E+02  0.30283475353E+03  0.31778936402E+03  0.90648009387E+02 0.  0.
         11    1    3    3    0    0  0.17879202837E+02  0.12520172993E+02  0.30542488805E+02  0.37540168463E+02  0.00000000000E+00 0. -1.
        -12    1    3    3    0    0 -0.31781988236E+02  0.45807258588E+02 -0.30268730222E+02  0.63439701645E+02  0.00000000000E+00 0.  1.
        -11    1    4    4    0    0 -0.85289303863E+01 -0.56191304662E+02  0.12679017409E+03  0.13894586579E+03  0.00000000000E+00 0. -1.
         11    1    4    4    0    0  0.18861270982E+02  0.25249858786E+02  0.17604457944E+03  0.17884349824E+03  0.00000000000E+00 0.  1.
         21    1    1    2  502  501  0.35704448027E+01 -0.27385985704E+02  0.36845303883E+02  0.46046896826E+02  0.00000000000E+00 0. -1.
<scales pt_clust_5="13000.00000" pt_clust_6="13000.00000" pt_clust_7="13000.00000" pt_clust_8="13000.00000" pt_clust_9="27.61775"></scales>
<clustering>
<clus scale="   27.618">  1  9  2 -1</clus>
<clus scale="   81.250">  5  6 -1 -1</clus>
<clus scale="   90.648">  7  8 -1 -1</clus>
<clus scale="   98.741">  2  5  1 -1</clus>
<clus scale="   27.618">  1  5  2 -1</clus>
</clustering>
</event>
<event>
 9    1  0.2333971E-005  0.1061467E+03  0.7546771E-02  0.1275361E+00
         -2   -1    0    0    0  501 -0.00000000000E+00  0.00000000000E+00  0.29688216395E+03  0.29688216395E+03  0.00000000000E+00 0.  1.
          1   -1    0    0  502    0  0.00000000000E+00 -0.00000000000E+00 -0.23759271195E+03  0.23759271195E+03  0.00000000000E+00 0. -1.
         23    2    1    2    0    0 -0.10913035796E+03  0.25955793514E+02  0.22684659061E+03  0.26875179015E+03  0.90471049480E+02 0.  0.
        -24    2    1    2    0    0  0.41907859749E+02 -0.33140464897E+02 -0.17563183946E+03  0.19763722406E+03  0.73207719409E+02 0.  0.
         11    1    4    4    0    0  0.37856859528E+02 -0.32966014518E+02 -0.18270971350E+03  0.18948018191E+03  0.00000000000E+00 0. -1.
        -12    1    4    4    0    0  0.40510002203E+01 -0.17445037953E+00  0.70778740459E+01  0.81570421557E+01  0.00000000000E+00 0.  1.
        -11    1    3    3    0    0 -0.71715806078E+02  0.52565338809E+02  0.19037537407E+03  0.21011676454E+03  0.00000000000E+00 0.  1.
         11    1    3    3    0    0 -0.37414551883E+02 -0.26609545296E+02  0.36471216532E+02  0.58635025614E+02  0.00000000000E+00 0. -1.
         21    1    1    2  502  501  0.67222498212E+02  0.71846713835E+01  0.80747008465E+01  0.68085861694E+02  0.00000000000E+00 0. -1.
<scales pt_clust_5="13000.00000" pt_clust_6="13000.00000" pt_clust_7="13000.00000" pt_clust_8="13000.00000" pt_clust_9="67.60535"></scales>
<clustering>
<clus scale="   67.605">  1  9  2 -1</clus>
<clus scale="   73.208">  5  6 -1 -1</clus>
<clus scale="   90.471">  7  8 -1 -1</clus>
<clus scale="   91.878">  2  5  1 -1</clus>
<clus scale="   91.878">  2  5  1 -1</clus>
</clustering>
</event>
<event>
 9    1  0.2333971E-005  0.2874021E+03  0.7546771E-02  0.1092114E+00
          1   -1    0    0  502    0  0.00000000000E+00  0.00000000000E+00  0.21949491362E+03  0.21949491362E+03  0.00000000000E+00 0. -1.
         -2   -1    0    0    0  501 -0.00000000000E+00 -0.00000000000E+00 -0.57174967530E+03  0.57174967530E+03  0.00000000000E+00 0.  1.
        -24    2    1    2    0    0  0.21635692560E+03  0.13047399100E+03 -0.36383336288E+03  0.44998365659E+03  0.79226218330E+02 0.  0.
         23    2    1    2    0    0 -0.23666761551E+03 -0.14857972080E+03  0.46414054473E+02  0.29705855253E+03  0.89454041331E+02 0.  0.
         11    1    3    3    0    0  0.15788133652E+03  0.12763869306E+03 -0.30927507663E+03  0.36995841038E+03  0.00000000000E+00 0. -1.
        -12    1    3    3    0    0  0.58475589075E+02  0.28352979445E+01 -0.54558286252E+02  0.80025246209E+02  0.00000000000E+00 0.  1.
        -13    1    4    4    0    0 -0.14156692498E+03 -0.58707031707E+02  0.61923612369E+02  0.16529441488E+03  0.00000000000E+00 0. -1.
         13    1    4    4    0    0 -0.95100690530E+02 -0.89872689091E+02 -0.15509557895E+02  0.13176413765E+03  0.00000000000E+00 0.  1.
         21    1    1    2  502  501  0.20310689918E+02  0.18105729795E+02 -0.34835453267E+02  0.44202379808E+02  0.00000000000E+00 0.  1.
<scales pt_clust_5="13000.00000" pt_clust_6="13000.00000" pt_clust_7="13000.00000" pt_clust_8="13000.00000" pt_clust_9="27.20922"></scales>
<clustering>
<clus scale="   27.209">  2  9  1 -1</clus>
<clus scale="   79.226">  5  6 -1 -1</clus>
<clus scale="   89.454">  7  8 -1 -1</clus>
<clus scale="  284.385">  2  5  1 -1</clus>
<clus scale="  287.402">  1  5  2 -1</clus>
</clustering>
</event>
<event>
 9    1  0.2333971E-005  0.2381746E+03  0.7546771E-02  0.1121110E+00
          1   -1    0    0  502    0  0.00000000000E+00  0.00000000000E+00  0.29213863347E+03  0.29213863347E+03  0.00000000000E+00 0. -1.
         -2   -1    0    0    0  501 -0.00000000000E+00 -0.00000000000E+00 -0.67071402690E+03  0.67071402690E+03  0.00000000000E+00 0.  1.
        -24    2    1    2    0    0 -0.28609660734E+03  0.61512061895E+02 -0.31636434017E+03  0.43938706838E+03  0.85671451723E+02 0.  0.
         23    2    1    2    0    0  0.20893199667E+03 -0.32806195028E+02  0.16544807365E+03  0.28137659595E+03  0.84088631862E+02 0.  0.
         13    1    3    3    0    0 -0.57099660944E+02  0.41732273222E+02 -0.10832677096E+03  0.12937017900E+03  0.00000000000E+00 0. -1.
        -14    1    3    3    0    0 -0.22899694639E+03  0.19779788673E+02 -0.20803756921E+03  0.31001688938E+03  0.00000000000E+00 0.  1.
        -11    1    4    4    0    0  0.11759874801E+03 -0.58645748009E+02  0.81283616031E+02  0.15451801037E+03  0.00000000000E+00 0.  1.
         11    1    4    4    0    0  0.91333248662E+02  0.25839552981E+02  0.84164457623E+02  0.12685858558E+03  0.00000000000E+00 0. -1.
         21    1    1    2  502  501  0.77164610671E+02 -0.28705866867E+02 -0.22765912692E+03  0.24208899603E+03  0.00000000000E+00 0.  1.
<scales pt_clust_5="13000.00000" pt_clust_6="13000.00000" pt_clust_7="13000.00000" pt_clust_8="13000.00000" pt_clust_9="82.33106"></scales>
<clustering>
<clus scale="   82.331">  2  9  1 -1</clus>
<clus scale="   84.089">  7  8 -1 -1</clus>
<clus scale="   85.671">  5  6 -1 -1</clus>
<clus scale="  237.610">  1  7  2 -1</clus>
<clus scale="  237.610">  1  5  2 -1</clus>
</clustering>
</event>
<event>
 9    1  0.2333971E-005  0.1922419E+03  0.7546771E-02  0.1157201E+00
         -2   -1    0    0    0  501 -0.00000000000E+00  0.00000000000E+00  0.44938461756E+02  0.44938461756E+02  0.00000000000E+00 0.  1.
          1   -1    0    0  502    0  0.00000000000E+00 -0.00000000000E+00 -0.10372331315E+04  0.10372331315E+04  0.00000000000E+00 0. -1.
        -24    2    1    2    0    0 -0.12849639575E+02 -0.18298613846E+03 -0.45048271803E+03  0.49370041178E+03  0.84595373703E+02 0.  0.
         23    2    1    2    0    0  0.24759243649E+02  0.15674989309E+03 -0.52264647105E+03  0.55386634236E+03  0.91788029588E+02 0.  0.
         13    1    3    3    0    0 -0.39473723882E+02 -0.16279764285E+03 -0.35494699283E+03  0.39249027391E+03  0.00000000000E+00 0. -1.
        -14    1    3    3    0    0  0.26624084308E+02 -0.20188495609E+02 -0.95535725199E+02  0.10121013788E+03  0.00000000000E+00 0.  1.
        -11    1    4    4    0    0  0.49222963363E+02  0.49296272182E+02 -0.25684727540E+03  0.26612693485E+03  0.00000000000E+00 0.  1.
         11    1    4    4    0    0 -0.24463719714E+02  0.10745362091E+03 -0.26579919564E+03  0.28773940751E+03  0.00000000000E+00 0. -1.
         21    1    1    2  502  501 -0.11909604075E+02  0.26236245363E+02 -0.19165480660E+02  0.34604839096E+02  0.00000000000E+00 0.  1.
<scales pt_clust_5="13000.00000" pt_clust_6="13000.00000" pt_clust_7="13000.00000" pt_clust_8="13000.00000" pt_clust_9="28.81283"></scales>
<clustering>
<clus scale="   28.813">  1  9  2 -1</clus>
<clus scale="   84.595">  5  6 -1 -1</clus>
<clus scale="   91.788">  7  8 -1 -1</clus>
<clus scale="  188.913">  1  5  2 -1</clus>
<clus scale="  192.242">  2  5  1 -1</clus>
</clustering>
</event>
<event>
 9    1  0.2333971E-005  0.8990519E+02  0.7546771E-02  0.1310759E+00
          3   -1    0    0  502    0  0.00000000000E+00  0.00000000000E+00  0.18568873633E+03  0.18568873633E+03  0.00000000000E+00 0. -1.
         -4   -1    0    0    0  501 -0.00000000000E+00 -0.00000000000E+00 -0.61198072543E+02  0.61198072543E+02  0.00000000000E+00 0.  1.
        -24    2    1    2    0    0 -0.26052038635E+02 -0.83116186569E+01  0.13643050132E+02  0.83243056089E+02  0.77430496888E+02 0.  0.
         23    2    1    2    0    0  0.22075806456E+01  0.21291059251E+01  0.10585934336E+03  0.13851081660E+03  0.89272835927E+02 0.  0.
         11    1    3    3    0    0  0.20617871536E+02 -0.15754970414E+02 -0.12965745062E+02  0.29007348456E+02  0.00000000000E+00 0. -1.
        -12    1    3    3    0    0 -0.46669910171E+02  0.74433517576E+01  0.26608795194E+02  0.54235707633E+02  0.00000000000E+00 0.  1.
        -13    1    4    4    0    0  0.92911074760E+01  0.27874828880E+02  0.48359941315E-01  0.29382530557E+02  0.00000000000E+00 0.  1.
         13    1    4    4    0    0 -0.70835268304E+01 -0.25745722955E+02  0.10581098342E+03  0.10912828604E+03  0.00000000000E+00 0. -1.
         21    1    1    2  502  501  0.23844457990E+02  0.61825127317E+01  0.49882702913E+01  0.25132936179E+02  0.00000000000E+00 0. -1.
<scales pt_clust_5="13000.00000" pt_clust_6="13000.00000" pt_clust_7="13000.00000" pt_clust_8="13000.00000" pt_clust_9="24.63294"></scales>
<clustering>
<clus scale="   24.633">  2  9  1 -1</clus>
<clus scale="   77.430">  5  6 -1 -1</clus>
<clus scale="   78.159">  2  5  1 -1</clus>
<clus scale="   89.273">  7  8 -1 -1</clus>
<clus scale="   89.905">  1  5  2 -1</clus>
</clustering>
</event>
<event>
 9    1  0.2333971E-005  0.1288519E+03  0.7546771E-02  0.1231273E+00
         -2   -1    0    0    0  501 -0.00000000000E+00  0.00000000000E+00  0.62794760840E+02  0.62794760840E+02  0.00000000000E+00 0.  1.
          1   -1    0    0  502    0  0.00000000000E+00 -0.00000000000E+00 -0.31685400917E+03  0.31685400917E+03  0.00000000000E+00 0. -1.
        -24    2    1    2    0    0  0.50258072215E+02  0.65255114211E+02 -0.90230874897E+02  0.14630486163E+03  0.80494707883E+02 0.  0.
         23    2    1    2    0    0 -0.51497131679E+02 -0.90648051638E+02 -0.15416596828E+03  0.20614650754E+03  0.88657842047E+02 0.  0.
         13    1    3    3    0    0  0.38336226143E+02  0.45994480081E+02 -0.10384948276E+03  0.11987440720E+03  0.00000000000E+00 0. -1.
        -14    1    3    3    0    0  0.11921846072E+02  0.19260634130E+02  0.13618607863E+02  0.26430454422E+02  0.00000000000E+00 0.  1.
        -11    1    4    4    0    0 -0.66451483411E+02 -0.63617450431E+02 -0.14857985945E+03  0.17475398216E+03  0.00000000000E+00 0. -1.
         11    1    4    4    0    0  0.14954351732E+02 -0.27030601207E+02 -0.55861088250E+01  0.31392525370E+02  0.00000000000E+00 0.  1.
         21    1    1    2  502  501  0.12390594647E+01  0.25392937427E+02 -0.96624051520E+01  0.27197400847E+02  0.00000000000E+00 0.  1.
<scales pt_clust_5="13000.00000" pt_clust_6="13000.00000" pt_clust_7="13000.00000" pt_clust_8="13000.00000" pt_clust_9="25.42315"></scales>
<clustering>
<clus scale="   25.423">  1  9  2 -1</clus>
<clus scale="   80.495">  5  6 -1 -1</clus>
<clus scale="   88.658">  7  8 -1 -1</clus>
<clus scale="  123.377">  1  5  2 -1</clus>
<clus scale="  128.852">  2  5  1 -1</clus>
</clustering>
</event>
<event>
 9    1  0.2333971E-005  0.1088980E+03  0.7546771E-02  0.1266904E+00
         -2   -1    0    0    0  501 -0.00000000000E+00  0.00000000000E+00  0.49834842152E+02  0.49834842152E+02  0.00000000000E+00 0.  1.
          1   -1    0    0  502    0  0.00000000000E+00 -0.00000000000E+00 -0.47105745244E+03  0.47105745244E+03  0.00000000000E+00 0. -1.
         23    2    1    2    0    0  0.39885876969E+02  0.46670422132E+02 -0.10771133915E+03  0.15365597866E+03  0.90771227333E+02 0.  0.
        -24    2    1    2    0    0 -0.60656762609E+02 -0.15732583871E+02 -0.31390721681E+03  0.32997056357E+03  0.80100405796E+02 0.  0.
         13    1    4    4    0    0 -0.78098471519E+02 -0.13514424247E+02 -0.28765401813E+03  0.29837366684E+03  0.00000000000E+00 0. -1.
        -14    1    4    4    0    0  0.17441708910E+02 -0.22181596235E+01 -0.26253198678E+02  0.31596896725E+02  0.00000000000E+00 0.  1.
        -11    1    3    3    0    0 -0.18531714878E+02 -0.12508532378E+02 -0.42344073596E+02  0.47884323189E+02  0.00000000000E+00 0. -1.
         11    1    3    3    0    0  0.58417591847E+02  0.59178954510E+02 -0.65367265556E+02  0.10577165547E+03  0.00000000000E+00 0.  1.
         21    1    1    2  502  501  0.20770885639E+02 -0.30937838262E+02  0.39594567596E+00  0.37265752368E+02  0.00000000000E+00 0. -1.
<scales pt_clust_5="13000.00000" pt_clust_6="13000.00000" pt_clust_7="13000.00000" pt_clust_8="13000.00000" pt_clust_9="37.26365"></scales>
<clustering>
<clus scale="   37.264">  1  9  2 -1</clus>
<clus scale="   80.100">  5  6 -1 -1</clus>
<clus scale="   90.771">  7  8 -1 -1</clus>
<clus scale="  100.177">  2  5  1 -1</clus>
<clus scale="  100.177">  2  5  1 -1</clus>
</clustering>
</event>
<event>
 9    1  0.2333971E-005  0.3431554E+03  0.7546771E-02  0.1066141E+00
         -2   -1    0    0    0  501 -0.00000000000E+00  0.00000000000E+00  0.26068042722E+03  0.26068042722E+03  0.00000000000E+00 0.  1.
          1   -1    0    0  502    0  0.00000000000E+00 -0.00000000000E+00 -0.10210668739E+04  0.10210668739E+04  0.00000000000E+00 0. -1.
        -24    2    1    2    0    0  0.26483570802E+03  0.14959629840E+03  0.62590853679E+02  0.31778421065E+03  0.67469880970E+02 0.  0.
         23    2    1    2    0    0 -0.22214547279E+03 -0.25505006588E+03 -0.75180261232E+03  0.82976625937E+03  0.94370175970E+02 0.  0.
         11    1    3    3    0    0  0.19193029834E+03  0.79350169041E+02  0.61266384653E+02  0.21653465920E+03  0.00000000000E+00 0. -1.
        -12    1    3    3    0    0  0.72905409686E+02  0.70246129361E+02  0.13244690260E+01  0.10124955145E+03  0.00000000000E+00 0.  1.
        -11    1    4    4    0    0 -0.13112046055E+03 -0.15790572918E+03 -0.34177923016E+03  0.39867259330E+03  0.00000000000E+00 0.  1.
         11    1    4    4    0    0 -0.91025012242E+02 -0.97144336701E+02 -0.41002338216E+03  0.43109366607E+03  0.00000000000E+00 0. -1.
         21    1    1    2  502  501 -0.42690235235E+02  0.10545376747E+03 -0.71174688026E+02  0.13419683109E+03  0.00000000000E+00 0.  1.
<scales pt_clust_5="13000.00000" pt_clust_6="13000.00000" pt_clust_7="13000.00000" pt_clust_8="13000.00000" pt_clust_9="113.76710"></scales>
<clustering>
<clus scale="   67.470">  5  6 -1 -1</clus>
<clus scale="   94.370">  7  8 -1 -1</clus>
<clus scale="  113.767">  1  9  2 -1</clus>
<clus scale="  336.752">  1  5  2 -1</clus>
<clus scale="  343.155">  2  5  1 -1</clus>
</clustering>
</event>
<event>
 9    1  0.2333971E-005  0.9066742E+02  0.7546771E-02  0.1307732E+00
          1   -1    0    0  502    0  0.00000000000E+00  0.00000000000E+00  0.73046521751E+02  0.73046521751E+02  0.00000000000E+00 0. -1.
         -2   -1    0    0    0  501 -0.00000000000E+00 -0.00000000000E+00 -0.35178161805E+03  0.35178161805E+03  0.00000000000E+00 0.  1.
        -24    2    1    2    0    0 -0.30093062167E+02 -0.19485605227E+02 -0.18524708607E+03  0.20512699690E+03  0.80469377787E+02 0.  0.
         23    2    1    2    0    0 -0.78375447592E+01 -0.55302083382E+01  0.23570434314E+02  0.94133625960E+02  0.90628714271E+02 0.  0.
         11    1    3    3    0    0 -0.56586075179E+02 -0.23180280080E+02 -0.12243393477E+03  0.13685531657E+03  0.00000000000E+00 0. -1.
        -12    1    3    3    0    0  0.26493013011E+02  0.36946748528E+01 -0.62813151295E+02  0.68271680339E+02  0.00000000000E+00 0.  1.
        -13    1    4    4    0    0 -0.52582012077E+00 -0.45973380790E+02  0.26259324066E+02  0.52946957689E+02  0.00000000000E+00 0. -1.
         13    1    4    4    0    0 -0.73117246384E+01  0.40443172452E+02 -0.26888897526E+01  0.41186668271E+02  0.00000000000E+00 0.  1.
         21    1    1    2  502  501  0.37930606926E+02  0.25015813565E+02 -0.11705844455E+03  0.12556751694E+03  0.00000000000E+00 0.  1.
<scales pt_clust_5="13000.00000" pt_clust_6="13000.00000" pt_clust_7="13000.00000" pt_clust_8="13000.00000" pt_clust_9="45.43701"></scales>
<clustering>
<clus scale="   45.437">  2  9  1 -1</clus>
<clus scale="   80.469">  5  6 -1 -1</clus>
<clus scale="   80.513">  2  5  1 -1</clus>
<clus scale="   90.629">  7  8 -1 -1</clus>
<clus scale="   90.667">  1  5  2 -1</clus>
</clustering>
</event>
<event>
 9    1  0.2333971E-005  0.9091256E+02  0.7546771E-02  0.1305752E+00
          1   -1    0    0  502    0  0.00000000000E+00  0.00000000000E+00  0.17413664482E+03  0.17413664482E+03  0.00000000000E+00 0. -1.
         -2   -1    0    0    0  501 -0.00000000000E+00 -0.00000000000E+00 -0.17297511648E+03  0.17297511648E+03  0.00000000000E+00 0.  1.
        -24    2    1    2    0    0 -0.17749064736E+02  0.48586623450E+02 -0.17059041665E+02  0.99103869219E+02  0.82794182854E+02 0.  0.
         23    2    1    2    0    0 -0.53293249491E+01  0.13214768395E+02  0.10460303789E+03  0.13931587369E+03  0.90907014684E+02 0.  0.
         11    1    3    3    0    0 -0.17269075100E+02  0.52497615769E+02  0.22266053888E+02  0.59581857742E+02  0.00000000000E+00 0. -1.
        -12    1    3    3    0    0 -0.47998963580E+00 -0.39109923194E+01 -0.39325095553E+02  0.39522011477E+02  0.00000000000E+00 0.  1.
        -13    1    4    4    0    0 -0.42854706216E+02  0.21354650894E+02  0.81440175340E+02  0.94472478104E+02  0.00000000000E+00 0. -1.
         13    1    4    4    0    0  0.37525381267E+02 -0.81398824988E+01  0.23162862546E+02  0.44843395586E+02  0.00000000000E+00 0.  1.
         21    1    1    2  502  501  0.23078389685E+02 -0.61801391845E+02 -0.86382467885E+02  0.10869201839E+03  0.00000000000E+00 0.  1.
<scales pt_clust_5="13000.00000" pt_clust_6="13000.00000" pt_clust_7="13000.00000" pt_clust_8="13000.00000" pt_clust_9="65.96987"></scales>
<clustering>
<clus scale="   65.970">  2  9  1 -1</clus>
<clus scale="   82.794">  5  6 -1 -1</clus>
<clus scale="   82.800">  2  5  1 -1</clus>
<clus scale="   90.907">  7  8 -1 -1</clus>
<clus scale="   90.913">  1  5  2 -1</clus>
</clustering>
</event>
<event>
 9    1  0.2333971E-005  0.2385590E+03  0.7546771E-02  0.1121142E+00
         -2   -1    0    0    0  501 -0.00000000000E+00  0.00000000000E+00  0.20500786842E+03  0.20500786842E+03  0.00000000000E+00 0.  1.
          1   -1    0    0  502    0  0.00000000000E+00 -0.00000000000E+00 -0.66972738915E+03  0.66972738915E+03  0.00000000000E+00 0. -1.
        -24    2    1    2    0    0 -0.10468443416E+03  0.11800974589E+03  0.84557907654E+02  0.19629759700E+03  0.80607542819E+02 0.  0.
         23    2    1    2    0    0  0.11903869433E+03 -0.20314431022E+03 -0.53494458596E+03  0.59091983838E+03  0.87078836863E+02 0.  0.
         11    1    3    3    0    0 -0.53907936973E+02  0.15189421108E+02  0.53588763082E+02  0.77514770921E+02  0.00000000000E+00 0. -1.
        -12    1    3    3    0    0 -0.50776497187E+02  0.10282032478E+03  0.30969144572E+02  0.11878282608E+03  0.00000000000E+00 0.  1.
        -13    1    4    4    0    0  0.75581327352E+02 -0.14368040274E+03 -0.45054844553E+03  0.47890551986E+03  0.00000000000E+00 0. -1.
         13    1    4    4    0    0  0.43457366976E+02 -0.59463907475E+02 -0.84396140424E+02  0.11201431853E+03  0.00000000000E+00 0.  1.
         21    1    1    2  502  501 -0.14354260168E+02  0.85134564325E+02 -0.14332842432E+02  0.87517822184E+02  0.00000000000E+00 0.  1.
<scales pt_clust_5="13000.00000" pt_clust_6="13000.00000" pt_clust_7="13000.00000" pt_clust_8="13000.00000" pt_clust_9="86.33620"></scales>
<clustering>
<clus scale="   80.608">  5  6 -1 -1</clus>
<clus scale="   86.336">  1  9  2 -1</clus>
<clus scale="   87.079">  7  8 -1 -1</clus>
<clus scale="  236.274">  1  5  2 -1</clus>
<clus scale="  238.559">  2  5  1 -1</clus>
</clustering>
</event>
<event>
 9    1  0.2333971E-005  0.9878106E+02  0.7546771E-02  0.1298714E+00
         -4   -1    0    0    0  501 -0.00000000000E+00  0.00000000000E+00  0.40713938399E+03  0.40713938399E+03  0.00000000000E+00 0.  1.
          3   -1    0    0  502    0  0.00000000000E+00 -0.00000000000E+00 -0.64842936071E+02  0.64842936071E+02  0.00000000000E+00 0. -1.
         23    2    1    2    0    0  0.26429783520E+02  0.30173796538E+02  0.33550083485E+03  0.35149790449E+03  0.96855434629E+02 0.  0.
        -24    2    1    2    0    0 -0.16496106238E+02 -0.74796665534E+01 -0.27544981954E+02  0.78140845267E+02  0.70846303611E+02 0.  0.
         11    1    4    4    0    0 -0.47464774104E+01 -0.33472383891E+02 -0.34996277885E+02  0.48658699089E+02  0.00000000000E+00 0. -1.
        -12    1    4    4    0    0 -0.11749628828E+02  0.25992717338E+02  0.74512959309E+01  0.29482146178E+02  0.00000000000E+00 0.  1.
        -11    1    3    3    0    0 -0.12025730989E+02 -0.30620372048E+02  0.10510754270E+03  0.11013546624E+03  0.00000000000E+00 0. -1.
         11    1    3    3    0    0  0.38455514508E+02  0.60794168586E+02  0.23039329215E+03  0.24136243825E+03  0.00000000000E+00 0.  1.
         21    1    1    2  502  501 -0.99336772815E+01 -0.22694129985E+02  0.34340595018E+02  0.42343570306E+02  0.00000000000E+00 0.  1.
<scales pt_clust_5="13000.00000" pt_clust_6="13000.00000" pt_clust_7="13000.00000" pt_clust_8="13000.00000" pt_clust_9="24.77300"></scales>
<clustering>
<clus scale="   24.773">  1  9  2 -1</clus>
<clus scale="   70.846">  5  6 -1 -1</clus>
<clus scale="   73.457">  2  5  1 -1</clus>
<clus scale="   96.855">  7  8 -1 -1</clus>
<clus scale="   73.457">  2  5  1 -1</clus>
</clustering>
</event>
<event>
 9    1  0.2333971E-005  0.3271043E+03  0.7546771E-02  0.1072642E+00
         -2   -1    0    0    0  501 -0.00000000000E+00  0.00000000000E+00  0.20902700195E+03  0.20902700195E+03  0.00000000000E+00 0.  1.
          1   -1    0    0  502    0  0.00000000000E+00 -0.00000000000E+00 -0.62626068652E+03  0.62626068652E+03  0.00000000000E+00 0. -1.
         23    2    1    2    0    0  0.53451379657E+02  0.29826852268E+03 -0.11415294829E+03  0.33668076475E+03  0.92205640486E+02 0.  0.
        -24    2    1    2    0    0 -0.97172609999E+02 -0.30692507555E+03 -0.30821498365E+03  0.45374221168E+03  0.85088191802E+02 0.  0.
         13    1    4    4    0    0 -0.10155103450E+03 -0.25257543287E+03 -0.28605532295E+03  0.39488556531E+03  0.00000000000E+00 0. -1.
        -14    1    4    4    0    0  0.43784245057E+01 -0.54349642681E+02 -0.22159660693E+02  0.58856646377E+02  0.00000000000E+00 0.  1.
        -11    1    3    3    0    0  0.99226541926E+01  0.15465983076E+03 -0.12604685538E+02  0.15548955082E+03  0.00000000000E+00 0.  1.
         11    1    3    3    0    0  0.43528725464E+02  0.14360869192E+03 -0.10154826275E+03  0.18119121392E+03  0.00000000000E+00 0. -1.
         21    1    1    2  502  501  0.43721230342E+02  0.86565528660E+01  0.51342473689E+01  0.44864712037E+02  0.00000000000E+00 0.  1.
<scales pt_clust_5="13000.00000" pt_clust_6="13000.00000" pt_clust_7="13000.00000" pt_clust_8="13000.00000" pt_clust_9="44.56997"></scales>
<clustering>
<clus scale="   44.570">  1  9  2 -1</clus>
<clus scale="   85.088">  5  6 -1 -1</clus>
<clus scale="   92.206">  7  8 -1 -1</clus>
<clus scale="  325.170">  2  5  1 -1</clus>
<clus scale="  325.170">  2  5  1 -1</clus>
</clustering>
</event>
<event>
 9    1  0.2333971E-005  0.9905202E+02  0.7546771E-02  0.1284726E+00
         -2   -1    0    0    0  501 -0.00000000000E+00  0.00000000000E+00  0.43044218103E+02  0.43044218103E+02  0.00000000000E+00 0.  1.
          1   -1    0    0  502    0  0.00000000000E+00 -0.00000000000E+00 -0.45217961459E+03  0.45217961459E+03  0.00000000000E+00 0. -1.
        -24    2    1    2    0    0  0.33685140461E+02 -0.81736033546E+01 -0.40305935260E+02  0.94361577306E+02  0.77961800742E+02 0.  0.
         23    2    1    2    0    0 -0.50339631223E+02  0.30821243815E+02 -0.35527787365E+03  0.36965435243E+03  0.83294328880E+02 0.  0.
         11    1    3    3    0    0 -0.65996743850E+01 -0.23827253068E+02 -0.44533056714E+02  0.50936105377E+02  0.00000000000E+00 0. -1.
        -12    1    3    3    0    0  0.40284814846E+02  0.15653649713E+02  0.42271214534E+01  0.43425471929E+02  0.00000000000E+00 0.  1.
        -13    1    4    4    0    0 -0.27460112790E+02 -0.18515347914E+02 -0.52807534996E+02  0.62333872454E+02  0.00000000000E+00 0.  1.
         13    1    4    4    0    0 -0.22879518433E+02  0.49336591730E+02 -0.30247033865E+03  0.30732047997E+03  0.00000000000E+00 0. -1.
         21    1    1    2  502  501  0.16654490763E+02 -0.22647640461E+02 -0.13551587577E+02  0.31207902955E+02  0.00000000000E+00 0.  1.
<scales pt_clust_5="13000.00000" pt_clust_6="13000.00000" pt_clust_7="13000.00000" pt_clust_8="13000.00000" pt_clust_9="28.11206"></scales>
<clustering>
<clus scale="   28.112">  1  9  2 -1</clus>
<clus scale="   77.962">  5  6 -1 -1</clus>
<clus scale="   83.294">  7  8 -1 -1</clus>
<clus scale="   94.612">  1  5  2 -1</clus>
<clus scale="   99.052">  2  5  1 -1</clus>
</clustering>
</event>
<event>
 9    1  0.2333971E-005  0.1572576E+03  0.7546771E-02  0.1195745E+00
          1   -1    0    0  502    0  0.00000000000E+00  0.00000000000E+00  0.16699976966E+03  0.16699976966E+03  0.00000000000E+00 0. -1.
         -2   -1    0    0    0  501 -0.00000000000E+00 -0.00000000000E+00 -0.19025251566E+03  0.19025251566E+03  0.00000000000E+00 0.  1.
        -24    2    1    2    0    0 -0.28787217160E+02  0.12791602862E+03 -0.85555244044E+02  0.17043549286E+03  0.67359804002E+02 0.  0.
         23    2    1    2    0    0  0.61170731284E+01 -0.11954774464E+03  0.60501648182E+02  0.16258444492E+03  0.91892167583E+02 0.  0.
         13    1    3    3    0    0 -0.12971653925E+02  0.11532675509E+03 -0.43799417900E+02  0.12404399725E+03  0.00000000000E+00 0. -1.
        -14    1    3    3    0    0 -0.15815563234E+02  0.12589273526E+02 -0.41755826144E+02  0.46391495614E+02  0.00000000000E+00 0.  1.
        -11    1    4    4    0    0 -0.39768526447E+02 -0.75681367593E+02  0.21773158347E+02  0.88222874137E+02  0.00000000000E+00 0. -1.
         11    1    4    4    0    0  0.45885599576E+02 -0.43866377051E+02  0.38728489835E+02  0.74361570780E+02  0.00000000000E+00 0.  1.
         21    1    1    2  502  501  0.22670144031E+02 -0.83682839714E+01  0.18008498639E+01  0.24232347539E+02  0.00000000000E+00 0. -1.
<scales pt_clust_5="13000.00000" pt_clust_6="13000.00000" pt_clust_7="13000.00000" pt_clust_8="13000.00000" pt_clust_9="24.16534"></scales>
<clustering>
<clus scale="   24.165">  1  9  2 -1</clus>
<clus scale="   67.360">  5  6 -1 -1</clus>
<clus scale="   91.892">  7  8 -1 -1</clus>
<clus scale="  144.302">  2  5  1 -1</clus>
<clus scale="   24.165">  1  5  2 -1</clus>
</clustering>
</event>
<event>
 9    1  0.2333971E-005  0.9764405E+02  0.7546771E-02  0.1291624E+00
          1   -1    0    0  502    0  0.00000000000E+00  0.00000000000E+00  0.95446184111E+02  0.95446184111E+02  0.00000000000E+00 0. -1.
         -2   -1    0    0    0  501 -0.00000000000E+00 -0.00000000000E+00 -0.23557970074E+03  0.23557970074E+03  0.00000000000E+00 0.  1.
        -24    2    1    2    0    0 -0.18894373989E+02 -0.41037057534E+02 -0.93426881023E+02  0.13255233221E+03  0.82465151525E+02 0.  0.
         23    2    1    2    0    0  0.26768359923E+02  0.10361243611E+01  0.37789010791E+02  0.10465677073E+03  0.93847811249E+02 0.  0.
         13    1    3    3    0    0 -0.15941311651E+02 -0.41742766376E+02 -0.60132101291E+01  0.45085947456E+02  0.00000000000E+00 0. -1.
        -14    1    3    3    0    0 -0.29530623380E+01  0.70570884224E+00 -0.87413670894E+02  0.87466384750E+02  0.00000000000E+00 0.  1.
        -13    1    4    4    0    0 -0.18195802359E+02  0.31112839371E+02 -0.40488889849E+01  0.36269677407E+02  0.00000000000E+00 0.  1.
         13    1    4    4    0    0  0.44964162281E+02 -0.30076715010E+02  0.41837899776E+02  0.68387093322E+02  0.00000000000E+00 0. -1.
         21    1    1    2  502  501 -0.78739859335E+01  0.40000933173E+02 -0.84495646398E+02  0.93816781918E+02  0.00000000000E+00 0. -1.
<scales pt_clust_5="13000.00000" pt_clust_6="13000.00000" pt_clust_7="13000.00000" pt_clust_8="13000.00000" pt_clust_9="40.76855"></scales>
<clustering>
<clus scale="   40.769">  2  9  1 -1</clus>
<clus scale="   82.465">  5  6 -1 -1</clus>
<clus scale="   86.761">  2  5  1 -1</clus>
<clus scale="   93.848">  7  8 -1 -1</clus>
<clus scale="   97.644">  1  5  2 -1</clus>
</clustering>
</event>
<event>
 9    1  0.2333971E-005  0.1253861E+03  0.7546771E-02  0.1236191E+00
         -2   -1    0    0    0  501 -0.00000000000E+00  0.00000000000E+00  0.11224660362E+03  0.11224660362E+03  0.00000000000E+00 0.  1.
          1   -1    0    0  502    0  0.00000000000E+00 -0.00000000000E+00 -0.30155508020E+03  0.30155508020E+03  0.00000000000E+00 0. -1.
        -24    2    1    2    0    0  0.52272615312E+02  0.24416073261E+02  0.35404677362E+02  0.10710170075E+03  0.82998266123E+02 0.  0.
         23    2    1    2    0    0 -0.96995172182E+02 -0.16360048923E+01 -0.21977925055E+03  0.25626802881E+03  0.89216835179E+02 0.  0.
         11    1    3    3    0    0  0.11313445451E+02  0.34730618727E+02 -0.16585939238E+02  0.40116122763E+02  0.00000000000E+00 0. -1.
        -12    1    3    3    0    0  0.40959169861E+02 -0.10314545466E+02  0.51990616600E+02  0.66985577987E+02  0.00000000000E+00 0.  1.
        -11    1    4    4    0    0 -0.33447245750E+02  0.42389056204E+02 -0.79629325829E+02  0.96210081936E+02  0.00000000000E+00 0.  1.
         11    1    4    4    0    0 -0.63547926432E+02 -0.44025061096E+02 -0.14014992472E+03  0.16005794688E+03  0.00000000000E+00 0. -1.
         21    1    1    2  502  501  0.44722556869E+02 -0.22780068369E+02 -0.49339033966E+01  0.50431954261E+02  0.00000000000E+00 0.  1.
<scales pt_clust_5="13000.00000" pt_clust_6="13000.00000" pt_clust_7="13000.00000" pt_clust_8="13000.00000" pt_clust_9="50.19002"></scales>
<clustering>
<clus scale="   50.190">  1  9  2 -1</clus>
<clus scale="   82.998">  5  6 -1 -1</clus>
<clus scale="   89.217">  7  8 -1 -1</clus>
<clus scale="  121.040">  1  5  2 -1</clus>
<clus scale="  125.386">  2  5  1 -1</clus>
</clustering>
</event>
<event>
 9    1  0.2333971E-005  0.1174276E+03  0.7546771E-02  0.1251329E+00
         -2   -1    0    0    0  501 -0.00000000000E+00  0.00000000000E+00  0.75804241796E+02  0.75804241796E+02  0.00000000000E+00 0.  1.
          1   -1    0    0  502    0  0.00000000000E+00 -0.00000000000E+00 -0.52812914084E+03  0.52812914084E+03  0.00000000000E+00 0. -1.
         23    2    1    2    0    0 -0.28026101524E+02  0.57996917222E+02 -0.80734795676E+02  0.13868667273E+03  0.92556907822E+02 0.  0.
        -24    2    1    2    0    0  0.13563463544E+02 -0.73481775620E+02 -0.40827176624E+03  0.42288525186E+03  0.81009642868E+02 0.  0.
         11    1    4    4    0    0  0.36457755023E+02 -0.62162070581E+02 -0.36947026528E+03  0.37643268701E+03  0.00000000000E+00 0. -1.
        -12    1    4    4    0    0 -0.22894291479E+02 -0.11319705039E+02 -0.38801500960E+02  0.46452564851E+02  0.00000000000E+00 0.  1.
        -11    1    3    3    0    0  0.19402965057E+02  0.11544238016E+02 -0.67255644934E+02  0.70944106590E+02  0.00000000000E+00 0. -1.
         11    1    3    3    0    0 -0.47429066582E+02  0.46452679207E+02 -0.13479150742E+02  0.67742566138E+02  0.00000000000E+00 0.  1.
         21    1    1    2  502  501  0.14462637981E+02  0.15484858398E+02  0.36681662874E+02  0.42361458050E+02  0.00000000000E+00 0. -1.
<scales pt_clust_5="13000.00000" pt_clust_6="13000.00000" pt_clust_7="13000.00000" pt_clust_8="13000.00000" pt_clust_9="21.18841"></scales>
<clustering>
<clus scale="   21.188">  1  9  2 -1</clus>
<clus scale="   81.010">  5  6 -1 -1</clus>
<clus scale="   92.557">  7  8 -1 -1</clus>
<clus scale="  108.559">  2  5  1 -1</clus>
<clus scale="  108.559">  2  5  1 -1</clus>
</clustering>
</event>
<event>
 9    1  0.2333971E-005  0.9409309E+02  0.7546771E-02  0.1300384E+00
         -2   -1    0    0    0  501 -0.00000000000E+00  0.00000000000E+00  0.85261766207E+02  0.85261766207E+02  0.00000000000E+00 0.  1.
          1   -1    0    0  502    0  0.00000000000E+00 -0.00000000000E+00 -0.15280464820E+03  0.15280464820E+03  0.00000000000E+00 0. -1.
         23    2    1    2    0    0 -0.15307394287E+01 -0.56076684019E+01 -0.48924980519E+01  0.92754920615E+02  0.92443223943E+02 0.  0.
        -24    2    1    2    0    0 -0.17512185801E+02  0.15662607783E+02 -0.81305176286E+02  0.11682051127E+03  0.80526431865E+02 0.  0.
         11    1    4    4    0    0 -0.21233433530E+02  0.42770120069E+02 -0.74724423654E+02  0.88678528183E+02  0.00000000000E+00 0. -1.
        -12    1    4    4    0    0  0.37212477289E+01 -0.27107512287E+02 -0.65807526321E+01  0.28141983090E+02  0.00000000000E+00 0.  1.
        -13    1    3    3    0    0 -0.25423655767E+01 -0.32979740425E+02  0.32520799299E+02  0.46386736124E+02  0.00000000000E+00 0.  1.
         13    1    3    3    0    0  0.10116261480E+01  0.27372072023E+02 -0.37413297351E+02  0.46368184491E+02  0.00000000000E+00 0. -1.
         21    1    1    2  502  501  0.19042925230E+02 -0.10054939381E+02  0.18654792348E+02  0.28490982517E+02  0.00000000000E+00 0. -1.
<scales pt_clust_5="13000.00000" pt_clust_6="13000.00000" pt_clust_7="13000.00000" pt_clust_8="13000.00000" pt_clust_9="21.53450"></scales>
<clustering>
<clus scale="   21.535">  1  9  2 -1</clus>
<clus scale="   80.526">  5  6 -1 -1</clus>
<clus scale="   82.415">  2  5  1 -1</clus>
<clus scale="   92.443">  7  8 -1 -1</clus>
<clus scale="   82.415">  2  5  1 -1</clus>
</clustering>
</event>
<event>
 9    1  0.2333971E-005  0.9587020E+02  0.7546771E-02  0.1296038E+00
          1   -1    0    0  502    0  0.00000000000E+00  0.00000000000E+00  0.22110673410E+03  0.22110673410E+03  0.00000000000E+00 0. -1.
         -2   -1    0    0    0  501 -0.00000000000E+00 -0.00000000000E+00 -0.10196094366E+03  0.10196094366E+03  0.00000000000E+00 0.  1.
         23    2    1    2    0    0 -0.12707497772E+02  0.74978349320E+01 -0.45072844320E+02  0.10389426699E+03  0.92437867723E+02 0.  0.
        -24    2    1    2    0    0 -0.31009546538E+02  0.64752458150E+01  0.14616415310E+03  0.16985413202E+03  0.80516741910E+02 0.  0.
         11    1    4    4    0    0 -0.41169335356E+02  0.24042106989E+02  0.14110259226E+03  0.14893917760E+03  0.00000000000E+00 0. -1.
        -12    1    4    4    0    0  0.10159788818E+02 -0.17566861174E+02  0.50615608460E+01  0.20914954423E+02  0.00000000000E+00 0.  1.
        -11    1    3    3    0    0 -0.22649985320E+02 -0.35173054872E+02 -0.11438469970E+01  0.41850615408E+02  0.00000000000E+00 0.  1.
         11    1    3    3    0    0  0.99424875479E+01  0.42670889805E+02 -0.43928997323E+02  0.62043651578E+02  0.00000000000E+00 0. -1.
         21    1    1    2  502  501  0.43717044310E+02 -0.13973080747E+02  0.18054481652E+02  0.49319278751E+02  0.00000000000E+00 0. -1.
<scales pt_clust_5="13000.00000" pt_clust_6="13000.00000" pt_clust_7="13000.00000" pt_clust_8="13000.00000" pt_clust_9="45.89583"></scales>
<clustering>
<clus scale="   45.896">  2  9  1 -1</clus>
<clus scale="   80.517">  5  6 -1 -1</clus>
<clus scale="   84.435">  1  5  2 -1</clus>
<clus scale="   92.438">  7  8 -1 -1</clus>
<clus scale="   84.435">  1  5  2 -1</clus>
</clustering>
</event>
<event>
 9    1  0.2333971E-005  0.2017771E+03  0.7546771E-02  0.1175854E+00
         -2   -1    0    0    0  501 -0.00000000000E+00  0.00000000000E+00  0.58505408817E+03  0.58505408817E+03  0.00000000000E+00 0.  1.
          1   -1    0    0  502    0  0.00000000000E+00 -0.00000000000E+00 -0.41170015960E+03  0.41170015960E+03  0.00000000000E+00 0. -1.
         23    2    1    2    0    0  0.23993760834E+03  0.21891132143E+02 -0.28464681253E+03  0.38500423056E+03  0.95682663519E+02 0.  0.
        -24    2    1    2    0    0 -0.68157462803E+02  0.10143925469E+02 -0.15091019283E+02  0.10741830390E+03  0.81009963519E+02 0.  0.
         11    1    4    4    0    0  0.45725944354E+01  0.25705376747E+02  0.11367322967E+02  0.28476148704E+02  0.00000000000E+00 0. -1.
        -12    1    4    4    0    0 -0.72730057239E+02 -0.15561451278E+02 -0.26458342250E+02  0.78942155193E+02  0.00000000000E+00 0.  1.
        -13    1    3    3    0    0  0.15316785689E+02 -0.25346503913E+02 -0.29391808383E+02  0.41724424315E+02  0.00000000000E+00 0.  1.
         13    1    3    3    0    0  0.22462082265E+03  0.47237636056E+02 -0.25525500415E+03  0.34327980624E+03  0.00000000000E+00 0. -1.
         21    1    1    2  502  501 -0.17178014554E+03 -0.32035057612E+02  0.47309176038E+03  0.50433171332E+03  0.00000000000E+00 0.  1.
<scales pt_clust_5="13000.00000" pt_clust_6="13000.00000" pt_clust_7="13000.00000" pt_clust_8="13000.00000" pt_clust_9="177.64805"></scales>
<clustering>
<clus scale="   81.010">  5  6 -1 -1</clus>
<clus scale="   95.683">  7  8 -1 -1</clus>
<clus scale="  106.353">  2  5  1 -1</clus>
<clus scale="  177.648">  1  9  2 -1</clus>
<clus scale="  106.353">  2  5  1 -1</clus>
</clustering>
</event>
<event>
 9    1  0.2333971E-005  0.1451934E+03  0.7546771E-02  0.1230299E+00
          1   -1    0    0  502    0  0.00000000000E+00  0.00000000000E+00  0.21365759890E+03  0.21365759890E+03  0.00000000000E+00 0. -1.
         -2   -1    0    0    0  501 -0.00000000000E+00 -0.00000000000E+00 -0.90538200836E+03  0.90538200836E+03  0.00000000000E+00 0.  1.
         23    2    1    2    0    0 -0.69361148973E+02  0.12913554121E+03  0.12716484597E+03  0.21265402452E+03  0.86970564593E+02 0.  0.
        -24    2    1    2    0    0  0.12057720636E+01 -0.35808584713E+02 -0.91647678103E+01  0.88455987922E+02  0.80353968196E+02 0.  0.
         11    1    4    4    0    0  0.33492917742E+02  0.33229456310E+01 -0.15997775569E+02  0.37265886944E+02  0.00000000000E+00 0. -1.
        -12    1    4    4    0    0 -0.32287145679E+02 -0.39131530344E+02  0.68330077587E+01  0.51190100979E+02  0.00000000000E+00 0.  1.
        -11    1    3    3    0    0 -0.44543579212E+02  0.13431429372E+03  0.12187371237E+03  0.18675562030E+03  0.00000000000E+00 0. -1.
         11    1    3    3    0    0 -0.24817569761E+02 -0.51787525173E+01  0.52911336025E+01  0.25898404222E+02  0.00000000000E+00 0.  1.
         21    1    1    2  502  501  0.68155376909E+02 -0.93326956492E+02 -0.80972448763E+03  0.81792959482E+03  0.00000000000E+00 0.  1.
<scales pt_clust_5="13000.00000" pt_clust_6="13000.00000" pt_clust_7="13000.00000" pt_clust_8="13000.00000" pt_clust_9="116.26368"></scales>
<clustering>
<clus scale="   80.354">  5  6 -1 -1</clus>
<clus scale="   86.971">  7  8 -1 -1</clus>
<clus scale="   87.980">  1  5  2 -1</clus>
<clus scale="  116.264">  2  9  1 -1</clus>
<clus scale="   87.980">  1  5  2 -1</clus>
</clustering>
</event>
<event>
 9    1  0.2333971E-005  0.1084458E+03  0.7546771E-02  0.1264724E+00
         -2   -1    0    0    0  501 -0.00000000000E+00  0.00000000000E+00  0.17295411638E+03  0.17295411638E+03  0.00000000000E+00 0.  1.
          1   -1    0    0  502    0  0.00000000000E+00 -0.00000000000E+00 -0.18692211357E+03  0.18692211357E+03  0.00000000000E+00 0. -1.
        -24    2    1    2    0    0 -0.70196460047E+02  0.87492967695E+02  0.58853912885E+02  0.15391603282E+03  0.87428826478E+02 0.  0.
         23    2    1    2    0    0  0.38055154531E+02 -0.30327209223E+02 -0.91643409973E+02  0.13773090487E+03  0.90572364219E+02 0.  0.
         11    1    3    3    0    0 -0.49470144288E+02  0.10074290764E+03  0.63395334902E+02  0.12890072576E+03  0.00000000000E+00 0. -1.
        -12    1    3    3    0    0 -0.20726315759E+02 -0.13249939942E+02 -0.45414220169E+01  0.25015307061E+02  0.00000000000E+00 0.  1.
        -13    1    4    4    0    0 -0.12427481706E+02 -0.42593087539E+02 -0.18631075479E+02  0.48122036337E+02  0.00000000000E+00 0.  1.
         13    1    4    4    0    0  0.50482636237E+02  0.12265878316E+02 -0.73012334493E+02  0.89608868537E+02  0.00000000000E+00 0. -1.
         21    1    1    2  502  501  0.32141305516E+02 -0.57165758472E+02  0.18821499898E+02  0.68229292246E+02  0.00000000000E+00 0.  1.
<scales pt_clust_5="13000.00000" pt_clust_6="13000.00000" pt_clust_7="13000.00000" pt_clust_8="13000.00000" pt_clust_9="65.58191"></scales>
<clustering>
<clus scale="   65.582">  1  9  2 -1</clus>
<clus scale="   87.429">  5  6 -1 -1</clus>
<clus scale="   90.572">  7  8 -1 -1</clus>
<clus scale="  105.835">  1  5  2 -1</clus>
<clus scale="  108.446">  2  5  1 -1</clus>
</clustering>
</event>
<event>
 9    1  0.2333971E-005  0.1066509E+03  0.7546771E-02  0.1268842E+00
          1   -1    0    0  502    0  0.00000000000E+00  0.00000000000E+00  0.32049220259E+03  0.32049220259E+03  0.00000000000E+00 0. -1.
         -2   -1    0    0    0  501 -0.00000000000E+00 -0.00000000000E+00 -0.80595131634E+02  0.80595131634E+02  0.00000000000E+00 0.  1.
        -24    2    1    2    0    0  0.38170969764E+02  0.68604003370E+02  0.31443738530E+02  0.12081372398E+03  0.86276966786E+02 0.  0.
         23    2    1    2    0    0 -0.42053556454E+02  0.16308097971E+02  0.12660437717E+03  0.16227195386E+03  0.90934388549E+02 0.  0.
         11    1    3    3    0    0  0.46202919253E+02  0.29718651035E+02  0.52398115548E+02  0.75917524195E+02  0.00000000000E+00 0. -1.
        -12    1    3    3    0    0 -0.80319494888E+01  0.38885352335E+02 -0.20954377018E+02  0.44896199784E+02  0.00000000000E+00 0.  1.
        -13    1    4    4    0    0 -0.45832376256E+02 -0.63225779364E+01  0.13098280856E+03  0.13891392243E+03  0.00000000000E+00 0. -1.
         13    1    4    4    0    0  0.37788198023E+01  0.22630675907E+02 -0.43784313889E+01  0.23358031435E+02  0.00000000000E+00 0.  1.
         21    1    1    2  502  501  0.38825866893E+01 -0.84912101341E+02  0.81848955254E+02  0.11800165638E+03  0.00000000000E+00 0. -1.
<scales pt_clust_5="13000.00000" pt_clust_6="13000.00000" pt_clust_7="13000.00000" pt_clust_8="13000.00000" pt_clust_9="85.00082"></scales>
<clustering>
<clus scale="   85.001">  1  9  2 -1</clus>
<clus scale="   86.277">  5  6 -1 -1</clus>
<clus scale="   90.934">  7  8 -1 -1</clus>
<clus scale="  102.709">  2  5  1 -1</clus>
<clus scale="   85.001">  1  5  2 -1</clus>
</clustering>
</event>
<event>
 9    1  0.2333971E-005  0.9884552E+02  0.7546771E-02  0.1287352E+00
         -2   -1    0    0    0  501 -0.00000000000E+00  0.00000000000E+00  0.12188204480E+03  0.12188204480E+03  0.00000000000E+00 0.  1.
          1   -1    0    0  502    0  0.00000000000E+00 -0.00000000000E+00 -0.18456851394E+03  0.18456851394E+03  0.00000000000E+00 0. -1.
         23    2    1    2    0    0 -0.27195623181E+02  0.32419409583E+02  0.41595546395E+02  0.10691843925E+03  0.88942358488E+02 0.  0.
        -24    2    1    2    0    0  0.46191493928E+02  0.22211764297E+01 -0.12471301713E+03  0.15505471926E+03  0.79687148196E+02 0.  0.
         11    1    4    4    0    0  0.33336869968E+02  0.86245315325E+01 -0.13373350589E+03  0.13809554678E+03  0.00000000000E+00 0. -1.
        -12    1    4    4    0    0  0.12854623961E+02 -0.64033551028E+01  0.90204887599E+01  0.16959172480E+02  0.00000000000E+00 0.  1.
        -11    1    3    3    0    0  0.29613106120E+01  0.42087433457E+02 -0.12700575452E+02  0.44061616316E+02  0.00000000000E+00 0. -1.
         11    1    3    3    0    0 -0.30156933793E+02 -0.96680238737E+01  0.54296121847E+02  0.62856822932E+02  0.00000000000E+00 0.  1.
         21    1    1    2  502  501 -0.18995870747E+02 -0.34640586013E+02  0.20431001593E+02  0.44477400226E+02  0.00000000000E+00 0. -1.
<scales pt_clust_5="13000.00000" pt_clust_6="13000.00000" pt_clust_7="13000.00000" pt_clust_8="13000.00000" pt_clust_9="39.50713"></scales>
<clustering>
<clus scale="   39.507">  1  9  2 -1</clus>
<clus scale="   79.687">  5  6 -1 -1</clus>
<clus scale="   88.942">  7  8 -1 -1</clus>
<clus scale="   90.608">  2  5  1 -1</clus>
<clus scale="   90.608">  2  5  1 -1</clus>
</clustering>
</event>
<event>
 9    1  0.2333971E-005  0.5167569E+03  0.7546771E-02  0.1052046E+00
         -2   -1    0    0    0  501 -0.00000000000E+00  0.00000000000E+00  0.20556028537E+03  0.20556028537E+03  0.00000000000E+00 0.  1.
          1   -1    0    0  502    0  0.00000000000E+00 -0.00000000000E+00 -0.18590640159E+04  0.18590640159E+04  0.00000000000E+00 0. -1.
        -24    2    1    2    0    0 -0.38120300920E+02  0.11648031589E+03 -0.48653682860E+02  0.15427148578E+03  0.80073023772E+02 0.  0.
         23    2    1    2    0    0 -0.99854235822E+02  0.44121955082E+03 -0.67823515228E+03  0.82008620659E+03  0.88842017094E+02 0.  0.
         11    1    3    3    0    0 -0.46772621214E+02  0.12219061260E+03 -0.55206880968E+02  0.14200712520E+03  0.00000000000E+00 0. -1.
        -12    1    3    3    0    0  0.86523202942E+01 -0.57102967037E+01  0.65531981080E+01  0.12264360577E+02  0.00000000000E+00 0.  1.
        -13    1    4    4    0    0 -0.24123198142E+02  0.68199592466E+02 -0.17302481906E+03  0.18753853234E+03  0.00000000000E+00 0.  1.
         13    1    4    4    0    0 -0.75731037680E+02  0.37301995836E+03 -0.50521033322E+03  0.63254767425E+03  0.00000000000E+00 0. -1.
         21    1    1    2  502  501  0.13797453674E+03 -0.55769986672E+03 -0.92661489533E+03  0.10902666089E+04  0.00000000000E+00 0.  1.
<scales pt_clust_5="13000.00000" pt_clust_6="13000.00000" pt_clust_7="13000.00000" pt_clust_8="13000.00000" pt_clust_9="509.06262"></scales>
<clustering>
<clus scale="   80.073">  5  6 -1 -1</clus>
<clus scale="   88.842">  7  8 -1 -1</clus>
<clus scale="  146.398">  1  5  2 -1</clus>
<clus scale="  509.063">  1  9  2 -1</clus>
<clus scale="  516.757">  2  5  1 -1</clus>
</clustering>
</event>
<event>
 9    1  0.2333971E-005  0.1353573E+03  0.7546771E-02  0.1223211E+00
         -2   -1    0    0    0  501 -0.00000000000E+00  0.00000000000E+00  0.52653235858E+02  0.52653235858E+02  0.00000000000E+00 0.  1.
          1   -1    0    0  502    0  0.00000000000E+00 -0.00000000000E+00 -0.88756701141E+03  0.88756701141E+03  0.00000000000E+00 0. -1.
        -24    2    1    2    0    0  0.62008699957E+02  0.20661970867E+02 -0.51546886636E+02  0.11626069481E+03  0.81163241223E+02 0.  0.
         23    2    1    2    0    0 -0.10095930041E+03 -0.16194602874E+02 -0.76992965256E+03  0.78251481849E+03  0.95303335564E+02 0.  0.
         13    1    3    3    0    0  0.13411501317E+02  0.32152881498E+02  0.10713412363E+02  0.36447954136E+02  0.00000000000E+00 0. -1.
        -14    1    3    3    0    0  0.48597198640E+02 -0.11490910631E+02 -0.62260298999E+02  0.79812740676E+02  0.00000000000E+00 0.  1.
        -13    1    4    4    0    0 -0.98643079196E+02 -0.46427050404E+02 -0.62650436829E+03  0.63591953230E+03  0.00000000000E+00 0. -1.
         13    1    4    4    0    0 -0.23162212136E+01  0.30232447530E+02 -0.14342528427E+03  0.14659528619E+03  0.00000000000E+00 0.  1.
         21    1    1    2  502  501  0.38950600452E+02 -0.44673679927E+01 -0.13437236358E+02  0.41444733964E+02  0.00000000000E+00 0.  1.
<scales pt_clust_5="13000.00000" pt_clust_6="13000.00000" pt_clust_7="13000.00000" pt_clust_8="13000.00000" pt_clust_9="39.20595"></scales>
<clustering>
<clus scale="   39.206">  1  9  2 -1</clus>
<clus scale="   81.163">  5  6 -1 -1</clus>
<clus scale="   95.303">  7  8 -1 -1</clus>
<clus scale="  125.803">  1  5  2 -1</clus>
<clus scale="  135.357">  2  5  1 -1</clus>
</clustering>
</event>
<event>
 9    1  0.2333971E-005  0.1630012E+03  0.7546771E-02  0.1186079E+00
         -2   -1    0    0    0  501 -0.00000000000E+00  0.00000000000E+00  0.18333145797E+03  0.18333145797E+03  0.00000000000E+00 0.  1.
          1   -1    0    0  502    0  0.00000000000E+00 -0.00000000000E+00 -0.68772942005E+03  0.68772942005E+03  0.00000000000E+00 0. -1.
        -24    2    1    2    0    0  0.27005446861E+02  0.16991567571E+03  0.10558727824E+03  0.21840375330E+03  0.83372028389E+02 0.  0.
         23    2    1    2    0    0 -0.33625922989E+02 -0.13388012588E+03 -0.58994946734E+03  0.61089800890E+03  0.78111538598E+02 0.  0.
         13    1    3    3    0    0 -0.22443724237E+02  0.11038271354E+03  0.50704025552E+02  0.12352717278E+03  0.00000000000E+00 0. -1.
        -14    1    3    3    0    0  0.49449171098E+02  0.59532962167E+02  0.54883252685E+02  0.94876580524E+02  0.00000000000E+00 0.  1.
        -13    1    4    4    0    0 -0.44615259360E+02 -0.98461996256E+02 -0.52583609004E+03  0.53683226400E+03  0.00000000000E+00 0. -1.
         13    1    4    4    0    0  0.10989336371E+02 -0.35418129627E+02 -0.64113377298E+02  0.74065744908E+02  0.00000000000E+00 0.  1.
         21    1    1    2  502  501  0.66204761277E+01 -0.36035549826E+02 -0.20035772974E+02  0.41759115820E+02  0.00000000000E+00 0.  1.
<scales pt_clust_5="13000.00000" pt_clust_6="13000.00000" pt_clust_7="13000.00000" pt_clust_8="13000.00000" pt_clust_9="36.63866"></scales>
<clustering>
<clus scale="   36.639">  1  9  2 -1</clus>
<clus scale="   78.112">  7  8 -1 -1</clus>
<clus scale="   83.372">  5  6 -1 -1</clus>
<clus scale="  160.374">  2  7  1 -1</clus>
<clus scale="  160.374">  2  5  1 -1</clus>
</clustering>
</event>
<event>
 9    1  0.2333971E-005  0.9875703E+02  0.7546771E-02  0.1287199E+00
         -2   -1    0    0    0  501 -0.00000000000E+00  0.00000000000E+00  0.89079720768E+02  0.89079720768E+02  0.00000000000E+00 0.  1.
          1   -1    0    0  502    0  0.00000000000E+00 -0.00000000000E+00 -0.30700378765E+03  0.30700378765E+03  0.00000000000E+00 0. -1.
         23    2    1    2    0    0  0.81213958061E+01 -0.24785068288E+02  0.39136861705E+02  0.10085969949E+03  0.89222913863E+02 0.  0.
        -24    2    1    2    0    0 -0.63531148740E-01  0.44320285243E+02 -0.25814215989E+03  0.27406434424E+03  0.80682081992E+02 0.  0.
         13    1    4    4    0    0 -0.90874529774E+01  0.66806276376E+02 -0.20067924482E+03  0.21170219571E+03  0.00000000000E+00 0. -1.
        -14    1    4    4    0    0  0.90239218287E+01 -0.22485991133E+02 -0.57462915064E+02  0.62362148536E+02  0.00000000000E+00 0.  1.
        -13    1    3    3    0    0 -0.17723250381E+02 -0.47095992595E+02  0.43401427501E+02  0.66451712030E+02  0.00000000000E+00 0.  1.
         13    1    3    3    0    0  0.25844646187E+02  0.22310924306E+02 -0.42645657961E+01  0.34407987465E+02  0.00000000000E+00 0. -1.
         21    1    1    2  502  501 -0.80578646574E+01 -0.19535216955E+02  0.10812313023E+01  0.21159464677E+02  0.00000000000E+00 0.  1.
<scales pt_clust_5="13000.00000" pt_clust_6="13000.00000" pt_clust_7="13000.00000" pt_clust_8="13000.00000" pt_clust_9="21.13182"></scales>
<clustering>
<clus scale="   21.132">  1  9  2 -1</clus>
<clus scale="   80.682">  5  6 -1 -1</clus>
<clus scale="   89.223">  7  8 -1 -1</clus>
<clus scale="   91.114">  2  5  1 -1</clus>
<clus scale="   91.114">  2  5  1 -1</clus>
</clustering>
</event>
<event>
 9    1  0.2333971E-005  0.1434079E+03  0.7546771E-02  0.1209570E+00
          1   -1    0    0  502    0  0.00000000000E+00  0.00000000000E+00  0.14765856492E+03  0.14765856492E+03  0.00000000000E+00 0. -1.
         -2   -1    0    0    0  501 -0.00000000000E+00 -0.00000000000E+00 -0.29136999680E+03  0.29136999680E+03  0.00000000000E+00 0.  1.
        -24    2    1    2    0    0  0.11141167189E+03 -0.20227114525E+02 -0.20218482649E+03  0.24514728714E+03  0.79979944601E+02 0.  0.
         23    2    1    2    0    0 -0.12794916625E+03  0.37209067317E+02  0.63211963456E+02  0.16970836669E+03  0.83962334211E+02 0.  0.
         11    1    3    3    0    0  0.62674534151E+02  0.28605156928E+02 -0.88331038091E+02  0.11202108964E+03  0.00000000000E+00 0. -1.
        -12    1    3    3    0    0  0.48737137736E+02 -0.48832271453E+02 -0.11385378840E+03  0.13312619751E+03  0.00000000000E+00 0.  1.
        -13    1    4    4    0    0 -0.24115161558E+02  0.10450029706E+02  0.56450484050E+02  0.62268782606E+02  0.00000000000E+00 0. -1.
         13    1    4    4    0    0 -0.10383400469E+03  0.26759037611E+02  0.67614794057E+01  0.10743958409E+03  0.00000000000E+00 0.  1.
         21    1    1    2  502  501  0.16537494366E+02 -0.16981952793E+02 -0.47385688516E+01  0.24172907879E+02  0.00000000000E+00 0. -1.
<scales pt_clust_5="13000.00000" pt_clust_6="13000.00000" pt_clust_7="13000.00000" pt_clust_8="13000.00000" pt_clust_9="23.70391"></scales>
<clustering>
<clus scale="   23.704">  1  9  2 -1</clus>
<clus scale="   79.980">  5  6 -1 -1</clus>
<clus scale="   83.962">  7  8 -1 -1</clus>
<clus scale="  141.113">  2  5  1 -1</clus>
<clus scale="   23.704">  1  5  2 -1</clus>
</clustering>
</event>
<event>
 9    1  0.2333971E-005  0.1014804E+03  0.7546771E-02  0.1281058E+00
         -2   -1    0    0    0  501 -0.00000000000E+00  0.00000000000E+00  0.70763681499E+02  0.70763681499E+02  0.00000000000E+00 0.  1.
          1   -1    0    0  502    0  0.00000000000E+00 -0.00000000000E+00 -0.66786144100E+03  0.66786144100E+03  0.00000000000E+00 0. -1.
         23    2    1    2    0    0 -0.24249364656E+02  0.19727620211E+01 -0.57089948087E+02  0.10842971480E+03  0.88914663601E+02 0.  0.
        -24    2    1    2    0    0 -0.43754076436E+02 -0.41945785187E+02 -0.54198114255E+03  0.55128910493E+03  0.80636531620E+02 0.  0.
         13    1    4    4    0    0 -0.75364157870E+01 -0.59407044928E+02 -0.28974317623E+03  0.29586669756E+03  0.00000000000E+00 0. -1.
        -14    1    4    4    0    0 -0.36217660649E+02  0.17461259742E+02 -0.25223796631E+03  0.25542240737E+03  0.00000000000E+00 0.  1.
        -11    1    3    3    0    0  0.24698581268E+02 -0.25147205732E+02 -0.14530110993E+02  0.38125136043E+02  0.00000000000E+00 0.  1.
         11    1    3    3    0    0 -0.48947945924E+02  0.27119967753E+02 -0.42559837094E+02  0.70304578760E+02  0.00000000000E+00 0. -1.
         21    1    1    2  502  501  0.68003441092E+02  0.39973023166E+02  0.19733311344E+01  0.78906302772E+02  0.00000000000E+00 0.  1.
<scales pt_clust_5="13000.00000" pt_clust_6="13000.00000" pt_clust_7="13000.00000" pt_clust_8="13000.00000" pt_clust_9="78.88162"></scales>
<clustering>
<clus scale="   78.882">  1  9  2 -1</clus>
<clus scale="   80.637">  5  6 -1 -1</clus>
<clus scale="   88.915">  7  8 -1 -1</clus>
<clus scale="   94.312">  2  5  1 -1</clus>
<clus scale="   94.312">  2  5  1 -1</clus>
</clustering>
</event>
<event>
 9    1  0.2333971E-005  0.2517802E+03  0.7546771E-02  0.1113681E+00
         -2   -1    0    0    0  501 -0.00000000000E+00  0.00000000000E+00  0.43134013349E+03  0.43134013349E+03  0.00000000000E+00 0.  1.
          1   -1    0    0  502    0  0.00000000000E+00 -0.00000000000E+00 -0.10182589330E+04  0.10182589330E+04  0.00000000000E+00 0. -1.
        -24    2    1    2    0    0 -0.21219174599E+02  0.33548756625E+03  0.29146906237E+03  0.45127606699E+03  0.75456701750E+02 0.  0.
         23    2    1    2    0    0  0.44526447524E+02 -0.22099373297E+03 -0.83953304660E+03  0.87518988654E+03  0.10159117397E+03 0.  0.
         11    1    3    3    0    0 -0.16137003509E+02  0.66967538388E+02  0.25941215272E+02  0.73607069835E+02  0.00000000000E+00 0. -1.
        -12    1    3    3    0    0 -0.50821710900E+01  0.26852002786E+03  0.26552784710E+03  0.37766899716E+03  0.00000000000E+00 0.  1.
        -13    1    4    4    0    0  0.55449770695E+02 -0.17049944683E+03 -0.75602458693E+03  0.77699286643E+03  0.00000000000E+00 0. -1.
         13    1    4    4    0    0 -0.10923323171E+02 -0.50494286144E+02 -0.83508459662E+02  0.98197020105E+02  0.00000000000E+00 0.  1.
         21    1    1    2  502  501 -0.23307272925E+02 -0.11449383328E+03 -0.38854815237E+02  0.12313311292E+03  0.00000000000E+00 0.  1.
<scales pt_clust_5="13000.00000" pt_clust_6="13000.00000" pt_clust_7="13000.00000" pt_clust_8="13000.00000" pt_clust_9="116.84206"></scales>
<clustering>
<clus scale="   75.457">  5  6 -1 -1</clus>
<clus scale="  101.591">  7  8 -1 -1</clus>
<clus scale="  116.842">  1  9  2 -1</clus>
<clus scale="  242.417">  1  5  2 -1</clus>
<clus scale="  251.780">  2  5  1 -1</clus>
</clustering>
</event>
<event>
 9    1  0.2333971E-005  0.1048267E+03  0.7546771E-02  0.1271461E+00
          1   -1    0    0  502    0  0.00000000000E+00  0.00000000000E+00  0.29849509257E+03  0.29849509257E+03  0.00000000000E+00 0. -1.
         -2   -1    0    0    0  501 -0.00000000000E+00 -0.00000000000E+00 -0.13324817202E+03  0.13324817202E+03  0.00000000000E+00 0.  1.
        -24    2    1    2    0    0 -0.45225768204E+02  0.63558627828E+02 -0.63612720253E+02  0.12979296877E+03  0.81942463246E+02 0.  0.
         23    2    1    2    0    0  0.45458942028E+02 -0.40072334718E+02  0.24975144933E+03  0.27051579253E+03  0.84443473074E+02 0.  0.
         13    1    3    3    0    0  0.36358901683E+01  0.59047027041E+02 -0.15689610836E+02  0.61204043885E+02  0.00000000000E+00 0. -1.
        -14    1    3    3    0    0 -0.48861658372E+02  0.45116007878E+01 -0.47923109418E+02  0.68588924884E+02  0.00000000000E+00 0.  1.
        -11    1    4    4    0    0  0.25649752527E+02 -0.58166691021E+02  0.10083188475E+03  0.11919875306E+03  0.00000000000E+00 0.  1.
         11    1    4    4    0    0  0.19809189500E+02  0.18094356303E+02  0.14891956457E+03  0.15131703946E+03  0.00000000000E+00 0. -1.
         21    1    1    2  502  501 -0.23317382414E+00 -0.23486293110E+02 -0.20891808527E+02  0.31434503299E+02  0.00000000000E+00 0. -1.
<scales pt_clust_5="13000.00000" pt_clust_6="13000.00000" pt_clust_7="13000.00000" pt_clust_8="13000.00000" pt_clust_9="23.48745"></scales>
<clustering>
<clus scale="   23.487">  2  9  1 -1</clus>
<clus scale="   81.942">  5  6 -1 -1</clus>
<clus scale="   84.443">  7  8 -1 -1</clus>
<clus scale="  102.823">  2  5  1 -1</clus>
<clus scale="  104.827">  1  5  2 -1</clus>
</clustering>
</event>
<event>
 9    1  0.2333971E-005  0.1075345E+03  0.7546771E-02  0.1269083E+00
         -2   -1    0    0    0  501 -0.00000000000E+00  0.00000000000E+00  0.34435882929E+02  0.34435882929E+02  0.00000000000E+00 0.  1.
          1   -1    0    0  502    0  0.00000000000E+00 -0.00000000000E+00 -0.63410918188E+03  0.63410918188E+03  0.00000000000E+00 0. -1.
        -24    2    1    2    0    0  0.45203396531E+02  0.26189872937E+01 -0.14891780543E+03  0.17651676010E+03  0.83255316159E+02 0.  0.
         23    2    1    2    0    0 -0.46975732235E+02  0.47274314276E+02 -0.41565777380E+03  0.43100099406E+03  0.92460217150E+02 0.  0.
         13    1    3    3    0    0  0.10212142805E+02  0.25753861583E+02 -0.70644884745E+01  0.28591191729E+02  0.00000000000E+00 0. -1.
        -14    1    3    3    0    0  0.34991253726E+02 -0.23134874289E+02 -0.14185331696E+03  0.14792556837E+03  0.00000000000E+00 0.  1.
        -13    1    4    4    0    0 -0.66825803436E+02  0.58693513995E+02 -0.29217057222E+03  0.30540834936E+03  0.00000000000E+00 0.  1.
         13    1    4    4    0    0  0.19850071201E+02 -0.11419199720E+02 -0.12348720158E+03  0.12559264470E+03  0.00000000000E+00 0. -1.
         21    1    1    2  502  501  0.17723357033E+01 -0.49893301569E+02 -0.35097719724E+02  0.61027310650E+02  0.00000000000E+00 0.  1.
<scales pt_clust_5="13000.00000" pt_clust_6="13000.00000" pt_clust_7="13000.00000" pt_clust_8="13000.00000" pt_clust_9="49.92477"></scales>
<clustering>
<clus scale="   49.925">  1  9  2 -1</clus>
<clus scale="   83.255">  5  6 -1 -1</clus>
<clus scale="   92.460">  7  8 -1 -1</clus>
<clus scale="   99.731">  1  5  2 -1</clus>
<clus scale="  107.535">  2  5  1 -1</clus>
</clustering>
</event>
<event>
 9    1  0.2333971E-005  0.1333799E+03  0.7546771E-02  0.1224971E+00
         -2   -1    0    0    0  501 -0.00000000000E+00  0.00000000000E+00  0.10176288659E+03  0.10176288659E+03  0.00000000000E+00 0.  1.
          1   -1    0    0  502    0  0.00000000000E+00 -0.00000000000E+00 -0.34290837262E+03  0.34290837262E+03  0.00000000000E+00 0. -1.
        -24    2    1    2    0    0  0.12520125684E+02  0.81732532010E+02  0.23013777387E+02  0.11638885567E+03  0.78611522301E+02 0.  0.
         23    2    1    2    0    0 -0.51560396692E+02 -0.91212963821E+02 -0.25073465747E+03  0.28592391687E+03  0.88917593927E+02 0.  0.
         11    1    3    3    0    0  0.20458438603E+02 -0.89472233260E+01 -0.64240797839E+00  0.22338603433E+02  0.00000000000E+00 0. -1.
        -12    1    3    3    0    0 -0.79383129184E+01  0.90679755336E+02  0.23656185365E+02  0.94050252237E+02  0.00000000000E+00 0.  1.
        -13    1    4    4    0    0 -0.27116263536E+02  0.43343842243E+01 -0.11444178257E+03  0.11769027246E+03  0.00000000000E+00 0.  1.
         13    1    4    4    0    0 -0.24444133156E+02 -0.95547348045E+02 -0.13629287490E+03  0.16823364441E+03  0.00000000000E+00 0. -1.
         21    1    1    2  502  501  0.39040271007E+02  0.94804318108E+01 -0.13424605945E+02  0.42358486663E+02  0.00000000000E+00 0.  1.
<scales pt_clust_5="13000.00000" pt_clust_6="13000.00000" pt_clust_7="13000.00000" pt_clust_8="13000.00000" pt_clust_9="40.17488"></scales>
<clustering>
<clus scale="   40.175">  1  9  2 -1</clus>
<clus scale="   78.612">  5  6 -1 -1</clus>
<clus scale="   88.918">  7  8 -1 -1</clus>
<clus scale="  126.742">  1  5  2 -1</clus>
<clus scale="  133.380">  2  5  1 -1</clus>
</clustering>
</event>
<event>
 9    1  0.2333971E-005  0.1035086E+03  0.7546771E-02  0.1279803E+00
          1   -1    0    0  502    0  0.00000000000E+00  0.00000000000E+00  0.40020552586E+03  0.40020552586E+03  0.00000000000E+00 0. -1.
         -2   -1    0    0    0  501 -0.00000000000E+00 -0.00000000000E+00 -0.35752201910E+02  0.35752201910E+02  0.00000000000E+00 0.  1.
        -24    2    1    2    0    0  0.15887735540E+01  0.38442782216E+02  0.92147480218E+02  0.12584355797E+03  0.76583753284E+02 0.  0.
         23    2    1    2    0    0 -0.22124239196E+02 -0.52536408738E+02  0.26197261601E+03  0.28314916928E+03  0.91072741928E+02 0.  0.
         13    1    3    3    0    0 -0.26877105532E+02  0.96547643338E+01  0.77825078621E+02  0.82899554513E+02  0.00000000000E+00 0. -1.
        -14    1    3    3    0    0  0.28465879086E+02  0.28788017882E+02  0.14322401596E+02  0.42944003460E+02  0.00000000000E+00 0.  1.
        -13    1    4    4    0    0 -0.47168000175E+01  0.21030410278E+02  0.12366468265E+03  0.12552880185E+03  0.00000000000E+00 0.  1.
         13    1    4    4    0    0 -0.17407439178E+02 -0.73566819016E+02  0.13830793336E+03  0.15762036743E+03  0.00000000000E+00 0. -1.
         21    1    1    2  502  501  0.20535465642E+02  0.14093626522E+02  0.10333227722E+02  0.26965000516E+02  0.00000000000E+00 0.  1.
<scales pt_clust_5="13000.00000" pt_clust_6="13000.00000" pt_clust_7="13000.00000" pt_clust_8="13000.00000" pt_clust_9="24.90654"></scales>
<clustering>
<clus scale="   24.907">  2  9  1 -1</clus>
<clus scale="   76.584">  5  6 -1 -1</clus>
<clus scale="   91.021">  2  5  1 -1</clus>
<clus scale="   91.073">  7  8 -1 -1</clus>
<clus scale="  103.509">  1  5  2 -1</clus>
</clustering>
</event>
<event>
 9    1  0.2333971E-005  0.1038166E+03  0.7546771E-02  0.1276591E+00
          1   -1    0    0  502    0  0.00000000000E+00  0.00000000000E+00  0.75579298003E+02  0.75579298003E+02  0.00000000000E+00 0. -1.
         -2   -1    0    0    0  501 -0.00000000000E+00 -0.00000000000E+00 -0.54096885583E+03  0.54096885583E+03  0.00000000000E+00 0.  1.
        -24    2    1    2    0    0 -0.60488762814E+02 -0.35690181703E+02 -0.28015022347E+03  0.30019031800E+03  0.81837643006E+02 0.  0.
         23    2    1    2    0    0  0.44854323062E+02  0.15238884624E+02  0.24169464662E+02  0.10537267909E+03  0.90967601789E+02 0.  0.
         13    1    3    3    0    0 -0.48400503160E+02  0.18616902880E+02 -0.14724417052E+03  0.15610907575E+03  0.00000000000E+00 0. -1.
        -14    1    3    3    0    0 -0.12088259654E+02 -0.54307084583E+02 -0.13290605295E+03  0.14408124225E+03  0.00000000000E+00 0.  1.
        -11    1    4    4    0    0 -0.25967036771E+02  0.47424285658E+01  0.20959533836E+02  0.33705781195E+02  0.00000000000E+00 0. -1.
         11    1    4    4    0    0  0.70821359833E+02  0.10496456058E+02  0.32099308264E+01  0.71666897897E+02  0.00000000000E+00 0.  1.
         21    1    1    2  502  501  0.15634439753E+02  0.20451297079E+02 -0.20940879902E+03  0.21098515674E+03  0.00000000000E+00 0. -1.
<scales pt_clust_5="13000.00000" pt_clust_6="13000.00000" pt_clust_7="13000.00000" pt_clust_8="13000.00000" pt_clust_9="25.74279"></scales>
<clustering>
<clus scale="   25.743">  2  9  1 -1</clus>
<clus scale="   81.838">  5  6 -1 -1</clus>
<clus scale="   90.968">  7  8 -1 -1</clus>
<clus scale="   95.918">  2  5  1 -1</clus>
<clus scale="  103.817">  1  5  2 -1</clus>
</clustering>
</event>
<event>
 9    1  0.2333971E-005  0.9419243E+02  0.7546771E-02  0.1294596E+00
         -2   -1    0    0    0  501 -0.00000000000E+00  0.00000000000E+00  0.28535635630E+02  0.28535635630E+02  0.00000000000E+00 0.  1.
          1   -1    0    0  502    0  0.00000000000E+00 -0.00000000000E+00 -0.72405692858E+03  0.72405692858E+03  0.00000000000E+00 0. -1.
         23    2    1    2    0    0 -0.16748416033E+02 -0.50727749860E+02 -0.14957425195E+03  0.18353960047E+03  0.91981052672E+02 0.  0.
        -24    2    1    2    0    0  0.17409965666E+02  0.24718010815E+00 -0.46394611013E+03  0.47275717860E+03  0.89163831309E+02 0.  0.
         11    1    4    4    0    0  0.48295426833E+02  0.21277217638E+02 -0.30003692835E+03  0.30464294939E+03  0.00000000000E+00 0. -1.
        -12    1    4    4    0    0 -0.30885461166E+02 -0.21030037530E+02 -0.16390918179E+03  0.16811422921E+03  0.00000000000E+00 0.  1.
        -11    1    3    3    0    0  0.28007586395E+02 -0.60503618746E+01 -0.97488584213E+02  0.10161228187E+03  0.00000000000E+00 0. -1.
         11    1    3    3    0    0 -0.44756002428E+02 -0.44677387985E+02 -0.52085667734E+02  0.81927318605E+02  0.00000000000E+00 0.  1.
         21    1    1    2  502  501 -0.66154963309E+00  0.50480569752E+02 -0.82000930872E+02  0.96295785132E+02  0.00000000000E+00 0. -1.
<scales pt_clust_5="13000.00000" pt_clust_6="13000.00000" pt_clust_7="13000.00000" pt_clust_8="13000.00000" pt_clust_9="50.48490"></scales>
<clustering>
<clus scale="   50.485">  1  9  2 -1</clus>
<clus scale="   89.164">  5  6 -1 -1</clus>
<clus scale="   91.443">  2  5  1 -1</clus>
<clus scale="   91.981">  7  8 -1 -1</clus>
<clus scale="   91.443">  2  5  1 -1</clus>
</clustering>
</event>
<event>
 9    1  0.2333971E-005  0.9410825E+02  0.7546771E-02  0.1299513E+00
         -2   -1    0    0    0  501 -0.00000000000E+00  0.00000000000E+00  0.46071404850E+03  0.46071404850E+03  0.00000000000E+00 0.  1.
          1   -1    0    0  502    0  0.00000000000E+00 -0.00000000000E+00 -0.50577769611E+02  0.50577769611E+02  0.00000000000E+00 0. -1.
        -24    2    1    2    0    0 -0.38997922235E+02 -0.28492599034E+02  0.33972423676E+03  0.35262599188E+03  0.81239565275E+02 0.  0.
         23    2    1    2    0    0  0.87867652836E+01  0.13391502562E+02  0.16062896436E+02  0.94676868151E+02  0.91919275106E+02 0.  0.
         11    1    3    3    0    0 -0.18018242864E+02  0.28008684761E+02  0.98132083191E+02  0.10362938410E+03  0.00000000000E+00 0. -1.
        -12    1    3    3    0    0 -0.20979679371E+02 -0.56501283795E+02  0.24159215357E+03  0.24899660778E+03  0.00000000000E+00 0.  1.
        -11    1    4    4    0    0 -0.33661445952E+02 -0.44667183853E+01  0.31288159367E+02  0.46173514413E+02  0.00000000000E+00 0.  1.
         11    1    4    4    0    0  0.42448211235E+02  0.17858220947E+02 -0.15225262932E+02  0.48503353738E+02  0.00000000000E+00 0. -1.
         21    1    1    2  502  501  0.30211156951E+02  0.15101096472E+02  0.54349145693E+02  0.63988958083E+02  0.00000000000E+00 0. -1.
<scales pt_clust_5="13000.00000" pt_clust_6="13000.00000" pt_clust_7="13000.00000" pt_clust_8="13000.00000" pt_clust_9="33.77510"></scales>
<clustering>
<clus scale="   33.775">  1  9  2 -1</clus>
<clus scale="   81.240">  5  6 -1 -1</clus>
<clus scale="   83.708">  1  5  2 -1</clus>
<clus scale="   91.919">  7  8 -1 -1</clus>
<clus scale="   94.108">  2  5  1 -1</clus>
</clustering>
</event>
<event>
 9    1  0.2333971E-005  0.1030315E+03  0.7546771E-02  0.1276238E+00
          1   -1    0    0  502    0  0.00000000000E+00  0.00000000000E+00  0.83037808774E+03  0.83037808774E+03  0.00000000000E+00 0. -1.
         -2   -1    0    0    0  501 -0.00000000000E+00 -0.00000000000E+00 -0.50452377211E+02  0.50452377211E+02  0.00000000000E+00 0.  1.
         23    2    1    2    0    0  0.37814331175E+02 -0.90880805325E+02  0.43023197965E+03  0.44998577907E+03  0.87740530176E+02 0.  0.
        -24    2    1    2    0    0 -0.36262426539E+02  0.80805593336E+01  0.33459424489E+03  0.34666461923E+03  0.82721161105E+02 0.  0.
         11    1    4    4    0    0 -0.45650155931E+02  0.25180703507E+02  0.31399751060E+03  0.31829615333E+03  0.00000000000E+00 0. -1.
        -12    1    4    4    0    0  0.93877293915E+01 -0.17100144173E+02  0.20596734299E+02  0.28368465902E+02  0.00000000000E+00 0.  1.
        -13    1    3    3    0    0  0.61812365218E+02 -0.41089218279E+02  0.28746517009E+03  0.29689276914E+03  0.00000000000E+00 0.  1.
         13    1    3    3    0    0 -0.23998034043E+02 -0.49791587046E+02  0.14276680956E+03  0.15309300993E+03  0.00000000000E+00 0. -1.
         21    1    1    2  502  501 -0.15519046363E+01  0.82800245991E+02  0.15099485991E+02  0.84180066651E+02  0.00000000000E+00 0.  1.
<scales pt_clust_5="13000.00000" pt_clust_6="13000.00000" pt_clust_7="13000.00000" pt_clust_8="13000.00000" pt_clust_9="82.81479"></scales>
<clustering>
<clus scale="   82.721">  5  6 -1 -1</clus>
<clus scale="   82.815">  2  9  1 -1</clus>
<clus scale="   87.741">  7  8 -1 -1</clus>
<clus scale="   98.792">  1  5  2 -1</clus>
<clus scale="   98.792">  1  5  2 -1</clus>
</clustering>
</event>
<event>
 9    1  0.2333971E-005  0.9779529E+02  0.7546771E-02  0.1290610E+00
         -4   -1    0    0    0  501 -0.00000000000E+00  0.00000000000E+00  0.55430810639E+03  0.55430810639E+03  0.00000000000E+00 0.  1.
          3   -1    0    0  502    0  0.00000000000E+00 -0.00000000000E+00 -0.39253883157E+03  0.39253883157E+03  0.00000000000E+00 0. -1.
         23    2    1    2    0    0  0.17479911080E+02 -0.48007822807E+02  0.11973430569E+03  0.15883848994E+03  0.91011337683E+02 0.  0.
        -24    2    1    2    0    0 -0.35688523635E+02 -0.94602111609E+01 -0.36549091276E+03  0.37604792454E+03  0.80406889800E+02 0.  0.
         13    1    4    4    0    0 -0.22465772804E+02 -0.41044215173E+02 -0.28122867344E+03  0.28509455504E+03  0.00000000000E+00 0. -1.
        -14    1    4    4    0    0 -0.13222750831E+02  0.31584004012E+02 -0.84262239317E+02  0.90953369501E+02  0.00000000000E+00 0.  1.
        -11    1    3    3    0    0  0.16007442523E+02 -0.74089859413E+02  0.10273256815E+03  0.12766959717E+03  0.00000000000E+00 0.  1.
         11    1    3    3    0    0  0.14724685567E+01  0.26082036606E+02  0.17001737543E+02  0.31168892773E+02  0.00000000000E+00 0. -1.
         21    1    1    2  502  501  0.18208612555E+02  0.57468033968E+02  0.40752588189E+03  0.41196052349E+03  0.00000000000E+00 0.  1.
<scales pt_clust_5="13000.00000" pt_clust_6="13000.00000" pt_clust_7="13000.00000" pt_clust_8="13000.00000" pt_clust_9="60.28373"></scales>
<clustering>
<clus scale="   60.284">  1  9  2 -1</clus>
<clus scale="   80.407">  5  6 -1 -1</clus>
<clus scale="   88.012">  2  5  1 -1</clus>
<clus scale="   91.011">  7  8 -1 -1</clus>
<clus scale="   88.012">  2  5  1 -1</clus>
</clustering>
</event>
<event>
 9    1  0.2333971E-005  0.1777552E+03  0.7546771E-02  0.1171787E+00
          1   -1    0    0  502    0  0.00000000000E+00  0.00000000000E+00  0.56218836018E+03  0.56218836018E+03  0.00000000000E+00 0. -1.
         -2   -1    0    0    0  501 -0.00000000000E+00 -0.00000000000E+00 -0.35743672633E+03  0.35743672633E+03  0.00000000000E+00 0.  1.
         23    2    1    2    0    0 -0.87600295655E+02 -0.19113142154E+03 -0.22066182116E+03  0.31878043664E+03  0.93403936572E+02 0.  0.
        -24    2    1    2    0    0  0.11526699283E+03  0.94538287137E+02  0.46360928811E+03  0.49335231799E+03  0.78987152530E+02 0.  0.
         13    1    4    4    0    0  0.43901998690E+02  0.66115753953E+02  0.14177114570E+03  0.16247380146E+03  0.00000000000E+00 0. -1.
        -14    1    4    4    0    0  0.71364994144E+02  0.28422533184E+02  0.32183814242E+03  0.33087851652E+03  0.00000000000E+00 0.  1.
        -11    1    3    3    0    0  0.71550406856E+01 -0.56669064734E+02 -0.22875635696E+02  0.61529441843E+02  0.00000000000E+00 0. -1.
         11    1    3    3    0    0 -0.94755336340E+02 -0.13446235680E+03 -0.19778618546E+03  0.25725099479E+03  0.00000000000E+00 0.  1.
         21    1    1    2  502  501 -0.27666697180E+02  0.96593134400E+02 -0.38195833103E+02  0.10749233188E+03  0.00000000000E+00 0.  1.
<scales pt_clust_5="13000.00000" pt_clust_6="13000.00000" pt_clust_7="13000.00000" pt_clust_8="13000.00000" pt_clust_9="100.47726"></scales>
<clustering>
<clus scale="   78.987">  5  6 -1 -1</clus>
<clus scale="   93.404">  7  8 -1 -1</clus>
<clus scale="  100.477">  2  9  1 -1</clus>
<clus scale="  170.621">  1  5  2 -1</clus>
<clus scale="  170.621">  1  5  2 -1</clus>
</clustering>
</event>
<event>
 9    1  0.2333971E-005  0.9141263E+02  0.7546771E-02  0.1306487E+00
         -2   -1    0    0    0  501 -0.00000000000E+00  0.00000000000E+00  0.46054924807E+02  0.46054924807E+02  0.00000000000E+00 0.  1.
          1   -1    0    0  502    0  0.00000000000E+00 -0.00000000000E+00 -0.35120533216E+03  0.35120533216E+03  0.00000000000E+00 0. -1.
         23    2    1    2    0    0  0.21732071586E+02  0.23299083391E+01 -0.38189658054E+02  0.10142818248E+03  0.91386622715E+02 0.  0.
        -24    2    1    2    0    0  0.33853925624E+01  0.29144005022E+01 -0.25524355727E+03  0.26762423214E+03  0.80333688368E+02 0.  0.
         11    1    4    4    0    0  0.19083642256E+02 -0.27812458947E+02 -0.19747884180E+03  0.20033874122E+03  0.00000000000E+00 0. -1.
        -12    1    4    4    0    0 -0.15698249693E+02  0.30726859449E+02 -0.57764715473E+02  0.67285490923E+02  0.00000000000E+00 0.  1.
        -11    1    3    3    0    0  0.25764048633E+02 -0.38218029708E+02 -0.39438193297E+02  0.60661149736E+02  0.00000000000E+00 0. -1.
         11    1    3    3    0    0 -0.40319770461E+01  0.40547938047E+02  0.12485352430E+01  0.40767032747E+02  0.00000000000E+00 0.  1.
         21    1    1    2  502  501 -0.25117464149E+02 -0.52443088413E+01 -0.11717192021E+02  0.28207842338E+02  0.00000000000E+00 0.  1.
<scales pt_clust_5="13000.00000" pt_clust_6="13000.00000" pt_clust_7="13000.00000" pt_clust_8="13000.00000" pt_clust_9="25.65911"></scales>
<clustering>
<clus scale="   25.659">  1  9  2 -1</clus>
<clus scale="   80.334">  5  6 -1 -1</clus>
<clus scale="   80.363">  2  5  1 -1</clus>
<clus scale="   91.387">  7  8 -1 -1</clus>
<clus scale="   80.363">  2  5  1 -1</clus>
</clustering>
</event>
<event>
 9    1  0.2333971E-005  0.1279221E+03  0.7546771E-02  0.1236859E+00
         -2   -1    0    0    0  501 -0.00000000000E+00  0.00000000000E+00  0.40193541457E+03  0.40193541457E+03  0.00000000000E+00 0.  1.
          1   -1    0    0  502    0  0.00000000000E+00 -0.00000000000E+00 -0.14155047532E+03  0.14155047532E+03  0.00000000000E+00 0. -1.
        -24    2    1    2    0    0 -0.48981048694E+02 -0.61579493403E+02  0.17640768557E+03  0.20919319384E+03  0.80317766913E+02 0.  0.
         23    2    1    2    0    0 -0.63961092701E+01 -0.77282861637E+02 -0.53748943710E+02  0.13102467417E+03  0.90911854977E+02 0.  0.
         13    1    3    3    0    0 -0.15246386037E+02 -0.43870397348E+02  0.24360813291E+02  0.52445336064E+02  0.00000000000E+00 0. -1.
        -14    1    3    3    0    0 -0.33734662656E+02 -0.17709096055E+02  0.15204687228E+03  0.15674785777E+03  0.00000000000E+00 0.  1.
        -13    1    4    4    0    0 -0.46106785891E+02 -0.45436375702E+02 -0.13484821497E+02  0.66122162343E+02  0.00000000000E+00 0. -1.
         13    1    4    4    0    0  0.39710676621E+02 -0.31846485935E+02 -0.40264122213E+02  0.64902511828E+02  0.00000000000E+00 0.  1.
         21    1    1    2  502  501  0.55377157964E+02  0.13886235504E+03  0.13772619739E+03  0.20326802188E+03  0.00000000000E+00 0. -1.
<scales pt_clust_5="13000.00000" pt_clust_6="13000.00000" pt_clust_7="13000.00000" pt_clust_8="13000.00000" pt_clust_9="89.99504"></scales>
<clustering>
<clus scale="   80.318">  5  6 -1 -1</clus>
<clus scale="   90.912">  7  8 -1 -1</clus>
<clus scale="  112.437">  1  5  2 -1</clus>
<clus scale="   89.995">  1  9  2 -1</clus>
<clus scale="  127.922">  2  5  1 -1</clus>
</clustering>
</event>
<event>
 9    1  0.2333971E-005  0.1427252E+03  0.7546771E-02  0.1211369E+00
         -2   -1    0    0    0  501 -0.00000000000E+00  0.00000000000E+00  0.16502949010E+03  0.16502949010E+03  0.00000000000E+00 0.  1.
          1   -1    0    0  502    0  0.00000000000E+00 -0.00000000000E+00 -0.28945464115E+03  0.28945464115E+03  0.00000000000E+00 0. -1.
        -24    2    1    2    0    0  0.73264015756E+02  0.79947720866E+02 -0.22824492567E+02  0.13692856756E+03  0.80431468200E+02 0.  0.
         23    2    1    2    0    0 -0.90691897885E+02 -0.68853753303E+02 -0.18329305911E+03  0.23329136303E+03  0.88671612475E+02 0.  0.
         13    1    3    3    0    0  0.65938355520E+02  0.93532757844E+02 -0.67407158634E+01  0.11463717010E+03  0.00000000000E+00 0. -1.
        -14    1    3    3    0    0  0.73256602360E+01 -0.13585036978E+02 -0.16083776704E+02  0.22291397459E+02  0.00000000000E+00 0.  1.
        -13    1    4    4    0    0 -0.51190176216E+02 -0.85066647386E+02 -0.14624014932E+03  0.17675675351E+03  0.00000000000E+00 0.  1.
         13    1    4    4    0    0 -0.39501721669E+02  0.16212894082E+02 -0.37052909798E+02  0.56534609523E+02  0.00000000000E+00 0. -1.
         21    1    1    2  502  501  0.17427882129E+02 -0.11093967563E+02  0.81692400630E+02  0.84264200658E+02  0.00000000000E+00 0.  1.
<scales pt_clust_5="13000.00000" pt_clust_6="13000.00000" pt_clust_7="13000.00000" pt_clust_8="13000.00000" pt_clust_9="20.65931"></scales>
<clustering>
<clus scale="   20.659">  1  9  2 -1</clus>
<clus scale="   80.431">  5  6 -1 -1</clus>
<clus scale="   88.672">  7  8 -1 -1</clus>
<clus scale="  137.757">  1  5  2 -1</clus>
<clus scale="  142.725">  2  5  1 -1</clus>
</clustering>
</event>
<event>
 9    1  0.2333971E-005  0.1006604E+03  0.7546771E-02  0.1289435E+00
          1   -1    0    0  502    0  0.00000000000E+00  0.00000000000E+00  0.45719070588E+03  0.45719070588E+03  0.00000000000E+00 0. -1.
         -2   -1    0    0    0  501 -0.00000000000E+00 -0.00000000000E+00 -0.65898128166E+02  0.65898128166E+02  0.00000000000E+00 0.  1.
         23    2    1    2    0    0 -0.90321866451E+00  0.19479587266E+02 -0.59333480354E+01  0.95554106793E+02  0.93354767323E+02 0.  0.
        -24    2    1    2    0    0  0.31102541532E+02 -0.24848406006E+02  0.38590721194E+03  0.39484013139E+03  0.73413498491E+02 0.  0.
         13    1    4    4    0    0  0.50726126016E+02 -0.13881290659E+02  0.17481878582E+03  0.18255803999E+03  0.00000000000E+00 0. -1.
        -14    1    4    4    0    0 -0.19623584484E+02 -0.10967115348E+02  0.21108842612E+03  0.21228209140E+03  0.00000000000E+00 0.  1.
        -13    1    3    3    0    0  0.24935226411E+02  0.32539119146E+02  0.28976326039E+02  0.50201466728E+02  0.00000000000E+00 0. -1.
         13    1    3    3    0    0 -0.25838445076E+02 -0.13059531880E+02 -0.34909674074E+02  0.45352640064E+02  0.00000000000E+00 0.  1.
         21    1    1    2  502  501 -0.30199322867E+02  0.53688187399E+01  0.11318713811E+02  0.32694595863E+02  0.00000000000E+00 0.  1.
<scales pt_clust_5="13000.00000" pt_clust_6="13000.00000" pt_clust_7="13000.00000" pt_clust_8="13000.00000" pt_clust_9="30.67284"></scales>
<clustering>
<clus scale="   30.673">  2  9  1 -1</clus>
<clus scale="   73.413">  5  6 -1 -1</clus>
<clus scale="   82.504">  1  5  2 -1</clus>
<clus scale="   93.355">  7  8 -1 -1</clus>
<clus scale="   82.504">  1  5  2 -1</clus>
</clustering>
</event>
<event>
 9    1  0.2333971E-005  0.1812340E+03  0.7546771E-02  0.1167703E+00
          1   -1    0    0  502    0  0.00000000000E+00  0.00000000000E+00  0.72411611204E+03  0.72411611204E+03  0.00000000000E+00 0. -1.
         -2   -1    0    0    0  501 -0.00000000000E+00 -0.00000000000E+00 -0.57727391236E+02  0.57727391236E+02  0.00000000000E+00 0.  1.
         23    2    1    2    0    0  0.93770140570E+02  0.10314122026E+03  0.17173333803E+03  0.23909324692E+03  0.90787062681E+02 0.  0.
        -24    2    1    2    0    0 -0.10834289931E+03 -0.12559634057E+03  0.47457519487E+03  0.50928666911E+03  0.81478040941E+02 0.  0.
         13    1    4    4    0    0 -0.59779653089E+02 -0.28645493300E+02  0.26688293580E+03  0.27499213195E+03  0.00000000000E+00 0. -1.
        -14    1    4    4    0    0 -0.48563246218E+02 -0.96950847270E+02  0.20769225907E+03  0.23429453717E+03  0.00000000000E+00 0.  1.
        -13    1    3    3    0    0  0.35935937089E+02  0.87970595396E+02  0.14554078840E+03  0.17381696786E+03  0.00000000000E+00 0. -1.
         13    1    3    3    0    0  0.57834203482E+02  0.15170624866E+02  0.26192549634E+02  0.65276279057E+02  0.00000000000E+00 0.  1.
         21    1    1    2  502  501  0.14572758737E+02  0.22455120308E+02  0.20080187906E+02  0.33463587249E+02  0.00000000000E+00 0.  1.
<scales pt_clust_5="13000.00000" pt_clust_6="13000.00000" pt_clust_7="13000.00000" pt_clust_8="13000.00000" pt_clust_9="26.76934"></scales>
<clustering>
<clus scale="   26.769">  2  9  1 -1</clus>
<clus scale="   81.478">  5  6 -1 -1</clus>
<clus scale="   90.787">  7  8 -1 -1</clus>
<clus scale="  176.754">  1  5  2 -1</clus>
<clus scale="  176.754">  1  5  2 -1</clus>
</clustering>
</event>
<event>
 9    1  0.2333971E-005  0.1530636E+03  0.7546771E-02  0.1198072E+00
         -2   -1    0    0    0  501 -0.00000000000E+00  0.00000000000E+00  0.40316488567E+02  0.40316488567E+02  0.00000000000E+00 0.  1.
          1   -1    0    0  502    0  0.00000000000E+00 -0.00000000000E+00 -0.10494581981E+04  0.10494581981E+04  0.00000000000E+00 0. -1.
         23    2    1    2    0    0  0.86896567430E+02 -0.10578358196E+03 -0.38209984974E+03  0.41606689813E+03  0.91488736513E+02 0.  0.
        -24    2    1    2    0    0 -0.91273721002E+02  0.72871636907E+02 -0.62398875018E+03  0.64036596676E+03  0.84056192098E+02 0.  0.
         13    1    4    4    0    0 -0.95490745196E+02  0.86484028132E+02 -0.57959733971E+03  0.59374324901E+03  0.00000000000E+00 0. -1.
        -14    1    4    4    0    0  0.42170241932E+01 -0.13612391226E+02 -0.44391410467E+02  0.46622717759E+02  0.00000000000E+00 0.  1.
        -13    1    3    3    0    0  0.19051035822E+02 -0.88880710962E+02 -0.25910748059E+03  0.27458952865E+03  0.00000000000E+00 0. -1.
         13    1    3    3    0    0  0.67845531608E+02 -0.16902871001E+02 -0.12299236915E+03  0.14147736949E+03  0.00000000000E+00 0.  1.
         21    1    1    2  502  501  0.43771535725E+01  0.32911945056E+02 -0.30531096214E+01  0.33341821773E+02  0.00000000000E+00 0.  1.
<scales pt_clust_5="13000.00000" pt_clust_6="13000.00000" pt_clust_7="13000.00000" pt_clust_8="13000.00000" pt_clust_9="33.20174"></scales>
<clustering>
<clus scale="   33.202">  1  9  2 -1</clus>
<clus scale="   84.056">  5  6 -1 -1</clus>
<clus scale="   91.489">  7  8 -1 -1</clus>
<clus scale="  148.740">  2  5  1 -1</clus>
<clus scale="  148.740">  2  5  1 -1</clus>
</clustering>
</event>
<event>
 9    1  0.2333971E-005  0.9470764E+02  0.7546771E-02  0.1299462E+00
          1   -1    0    0  502    0  0.00000000000E+00  0.00000000000E+00  0.40463283386E+03  0.40463283386E+03  0.00000000000E+00 0. -1.
         -2   -1    0    0    0  501 -0.00000000000E+00 -0.00000000000E+00 -0.91501487850E+02  0.91501487850E+02  0.00000000000E+00 0.  1.
         23    2    1    2    0    0 -0.17069286018E+02 -0.10818381375E+02  0.54098129448E+02  0.10802408673E+03  0.91291827692E+02 0.  0.
        -24    2    1    2    0    0 -0.34395001197E+02 -0.35229105513E+01  0.30553323540E+03  0.31728299965E+03  0.78246513803E+02 0.  0.
         13    1    4    4    0    0 -0.53220305122E+02  0.16759751302E+02  0.16897053895E+03  0.17794474753E+03  0.00000000000E+00 0. -1.
        -14    1    4    4    0    0  0.18825303925E+02 -0.20282661853E+02  0.13656269645E+03  0.13933825212E+03  0.00000000000E+00 0.  1.
        -11    1    3    3    0    0  0.25748356015E+02 -0.15420990389E+02 -0.92662075619E+01  0.31410943708E+02  0.00000000000E+00 0.  1.
         11    1    3    3    0    0 -0.42817642033E+02  0.46026090142E+01  0.63364337010E+02  0.76613143022E+02  0.00000000000E+00 0. -1.
         21    1    1    2  502  501  0.51464287215E+02  0.14341291926E+02 -0.46500018842E+02  0.70827235334E+02  0.00000000000E+00 0.  1.
<scales pt_clust_5="13000.00000" pt_clust_6="13000.00000" pt_clust_7="13000.00000" pt_clust_8="13000.00000" pt_clust_9="53.42514"></scales>
<clustering>
<clus scale="   53.425">  2  9  1 -1</clus>
<clus scale="   78.247">  5  6 -1 -1</clus>
<clus scale="   82.206">  1  5  2 -1</clus>
<clus scale="   91.292">  7  8 -1 -1</clus>
<clus scale="   82.206">  1  5  2 -1</clus>
</clustering>
</event>
<event>
 9    1  0.2333971E-005  0.1015910E+03  0.7546771E-02  0.1281293E+00
          3   -1    0    0  502    0  0.00000000000E+00  0.00000000000E+00  0.15540926379E+03  0.15540926379E+03  0.00000000000E+00 0. -1.
         -4   -1    0    0    0  501 -0.00000000000E+00 -0.00000000000E+00 -0.16556549898E+03  0.16556549898E+03  0.00000000000E+00 0.  1.
        -24    2    1    2    0    0 -0.20457877808E+02  0.26564546051E+01 -0.11468390044E+03  0.14265058429E+03  0.82287366360E+02 0.  0.
         23    2    1    2    0    0  0.48292256408E+02 -0.34646543066E+01  0.10891510194E+03  0.15013454528E+03  0.91289300557E+02 0.  0.
         11    1    3    3    0    0 -0.45988739845E+01 -0.32731177451E+02 -0.16204619558E+02  0.36811266132E+02  0.00000000000E+00 0. -1.
        -12    1    3    3    0    0 -0.15859003823E+02  0.35387632056E+02 -0.98479280886E+02  0.10583931816E+03  0.00000000000E+00 0.  1.
        -13    1    4    4    0    0  0.46271125033E+01 -0.42582765392E+02  0.60356662975E+02  0.74011004885E+02  0.00000000000E+00 0. -1.
         13    1    4    4    0    0  0.43665143905E+02  0.39118111085E+02  0.48558438968E+02  0.76123540394E+02  0.00000000000E+00 0.  1.
         21    1    1    2  502  501 -0.27834378601E+02  0.80819970153E+00 -0.43874366880E+01  0.28189633193E+02  0.00000000000E+00 0.  1.
<scales pt_clust_5="13000.00000" pt_clust_6="13000.00000" pt_clust_7="13000.00000" pt_clust_8="13000.00000" pt_clust_9="27.84611"></scales>
<clustering>
<clus scale="   27.846">  2  9  1 -1</clus>
<clus scale="   82.287">  5  6 -1 -1</clus>
<clus scale="   91.289">  7  8 -1 -1</clus>
<clus scale="   93.585">  2  5  1 -1</clus>
<clus scale="  101.591">  1  5  2 -1</clus>
</clustering>
</event>
<event>
 9    1  0.2333971E-005  0.1489809E+03  0.7546771E-02  0.1208118E+00
          1   -1    0    0  502    0  0.00000000000E+00  0.00000000000E+00  0.22470106021E+03  0.22470106021E+03  0.00000000000E+00 0. -1.
         -2   -1    0    0    0  501 -0.00000000000E+00 -0.00000000000E+00 -0.19841874300E+03  0.19841874300E+03  0.00000000000E+00 0.  1.
        -24    2    1    2    0    0  0.10325625673E+03  0.30940002545E+01 -0.55124375253E+02  0.14186985406E+03  0.80105751065E+02 0.  0.
         23    2    1    2    0    0 -0.99444234985E+02  0.26220443881E+02  0.14680213531E+03  0.20948343823E+03  0.10842405826E+03 0.  0.
         13    1    3    3    0    0  0.41371464820E+02 -0.36046313307E+02 -0.97616405565E+01  0.55733512636E+02  0.00000000000E+00 0. -1.
        -14    1    3    3    0    0  0.61884791910E+02  0.39140313562E+02 -0.45362734696E+02  0.86136341428E+02  0.00000000000E+00 0.  1.
        -13    1    4    4    0    0 -0.84003121661E+02  0.63174284471E+02  0.82025500616E+02  0.13332553176E+03  0.00000000000E+00 0. -1.
         13    1    4    4    0    0 -0.15441113324E+02 -0.36953840590E+02  0.64776634695E+02  0.76157906467E+02  0.00000000000E+00 0.  1.
         21    1    1    2  502  501 -0.38120217448E+01 -0.29314444136E+02 -0.65395442844E+02  0.71766510919E+02  0.00000000000E+00 0.  1.
<scales pt_clust_5="13000.00000" pt_clust_6="13000.00000" pt_clust_7="13000.00000" pt_clust_8="13000.00000" pt_clust_9="29.56126"></scales>
<clustering>
<clus scale="   29.561">  2  9  1 -1</clus>
<clus scale="   80.106">  5  6 -1 -1</clus>
<clus scale="  108.424">  7  8 -1 -1</clus>
<clus scale="  129.832">  2  5  1 -1</clus>
<clus scale="  148.981">  1  5  2 -1</clus>
</clustering>
</event>
<event>
 9    1  0.2333971E-005  0.1312647E+03  0.7546771E-02  0.1228261E+00
         -2   -1    0    0    0  501 -0.00000000000E+00  0.00000000000E+00  0.32134413298E+03  0.32134413298E+03  0.00000000000E+00 0.  1.
          1   -1    0    0  502    0  0.00000000000E+00 -0.00000000000E+00 -0.77299517283E+02  0.77299517283E+02  0.00000000000E+00 0. -1.
        -24    2    1    2    0    0 -0.72712115998E+01 -0.11281015275E+03  0.18442851051E+03  0.23021143582E+03  0.78768195449E+02 0.  0.
         23    2    1    2    0    0  0.18117319098E+02  0.87655496128E+02  0.34339371558E+02  0.13115879146E+03  0.89508172174E+02 0.  0.
         11    1    3    3    0    0 -0.35046592309E+02 -0.36242982717E+02  0.39830110185E+02  0.64251498862E+02  0.00000000000E+00 0. -1.
        -12    1    3    3    0    0  0.27775380709E+02 -0.76567170031E+02  0.14459840032E+03  0.16595993696E+03  0.00000000000E+00 0.  1.
        -13    1    4    4    0    0  0.19579909422E+02  0.26202357367E+02  0.56938826458E+02  0.65665564363E+02  0.00000000000E+00 0.  1.
         13    1    4    4    0    0 -0.14625903248E+01  0.61453138761E+02 -0.22599454900E+02  0.65493227099E+02  0.00000000000E+00 0. -1.
         21    1    1    2  502  501 -0.10846107498E+02  0.25154656620E+02  0.25276733635E+02  0.37273422982E+02  0.00000000000E+00 0. -1.
<scales pt_clust_5="13000.00000" pt_clust_6="13000.00000" pt_clust_7="13000.00000" pt_clust_8="13000.00000" pt_clust_9="27.39333"></scales>
<clustering>
<clus scale="   27.393">  1  9  2 -1</clus>
<clus scale="   78.768">  5  6 -1 -1</clus>
<clus scale="   89.508">  7  8 -1 -1</clus>
<clus scale="  124.190">  1  5  2 -1</clus>
<clus scale="  131.265">  2  5  1 -1</clus>
</clustering>
</event>
<event>
 9    1  0.2333971E-005  0.5927610E+03  0.7546771E-02  0.9921126E-01
          1   -1    0    0  502    0  0.00000000000E+00  0.00000000000E+00  0.15508285519E+04  0.15508285519E+04  0.00000000000E+00 0. -1.
         -2   -1    0    0    0  501 -0.00000000000E+00 -0.00000000000E+00 -0.32715157953E+03  0.32715157953E+03  0.00000000000E+00 0.  1.
        -24    2    1    2    0    0  0.31084483993E+03  0.50639952097E+03  0.19247729839E+03  0.63007777208E+03  0.82978907722E+02 0.  0.
         23    2    1    2    0    0 -0.28459572463E+03 -0.50879834663E+03  0.10573259758E+04  0.12107896383E+04  0.90569558587E+02 0.  0.
         11    1    3    3    0    0  0.12222114334E+03  0.16186791016E+03  0.10188592056E+03  0.22698010712E+03  0.00000000000E+00 0. -1.
        -12    1    3    3    0    0  0.18862369660E+03  0.34453161081E+03  0.90591377832E+02  0.40309766497E+03  0.00000000000E+00 0.  1.
        -11    1    4    4    0    0 -0.51815781373E+02 -0.87635115635E+02  0.26368900648E+03  0.28266000925E+03  0.00000000000E+00 0. -1.
         11    1    4    4    0    0 -0.23277994326E+03 -0.42116323100E+03  0.79363696935E+03  0.92812962901E+03  0.00000000000E+00 0.  1.
         21    1    1    2  502  501 -0.26249115297E+02  0.23988256610E+01 -0.26126301844E+02  0.37112721087E+02  0.00000000000E+00 0.  1.
<scales pt_clust_5="13000.00000" pt_clust_6="13000.00000" pt_clust_7="13000.00000" pt_clust_8="13000.00000" pt_clust_9="26.35850"></scales>
<clustering>
<clus scale="   26.358">  2  9  1 -1</clus>
<clus scale="   82.979">  5  6 -1 -1</clus>
<clus scale="   90.570">  7  8 -1 -1</clus>
<clus scale="  591.649">  2  5  1 -1</clus>
<clus scale="  592.761">  1  5  2 -1</clus>
</clustering>
</event>
<event>
 9    1  0.2333971E-005  0.1057642E+03  0.7546771E-02  0.1271247E+00
         -4   -1    0    0    0  501 -0.00000000000E+00  0.00000000000E+00  0.15604758370E+03  0.15604758370E+03  0.00000000000E+00 0.  1.
          3   -1    0    0  502    0  0.00000000000E+00 -0.00000000000E+00 -0.21709286501E+03  0.21709286501E+03  0.00000000000E+00 0. -1.
        -24    2    1    2    0    0 -0.30482918706E+02  0.32407174701E+02  0.70423030076E+02  0.11637027155E+03  0.81260098632E+02 0.  0.
         23    2    1    2    0    0  0.59387226332E+02 -0.39516391053E+02 -0.17557296683E+03  0.20356096190E+03  0.74315615563E+02 0.  0.
         13    1    3    3    0    0  0.94648276050E+01  0.39498212496E+02  0.63251005597E+02  0.75169019289E+02  0.00000000000E+00 0. -1.
        -14    1    3    3    0    0 -0.39947746311E+02 -0.70910377951E+01  0.71720244793E+01  0.41201252256E+02  0.00000000000E+00 0.  1.
        -11    1    4    4    0    0  0.37146847415E+02 -0.48275786990E+02 -0.59852861725E+02  0.85397921164E+02  0.00000000000E+00 0.  1.
         11    1    4    4    0    0  0.22240378917E+02  0.87593959367E+01 -0.11572010510E+03  0.11816304074E+03  0.00000000000E+00 0. -1.
         21    1    1    2  502  501 -0.28904307626E+02  0.71092163527E+01  0.44104655441E+02  0.53209215255E+02  0.00000000000E+00 0.  1.
<scales pt_clust_5="13000.00000" pt_clust_6="13000.00000" pt_clust_7="13000.00000" pt_clust_8="13000.00000" pt_clust_9="29.76575"></scales>
<clustering>
<clus scale="   29.766">  1  9  2 -1</clus>
<clus scale="   74.316">  7  8 -1 -1</clus>
<clus scale="   81.260">  5  6 -1 -1</clus>
<clus scale="  100.527">  2  7  1 -1</clus>
<clus scale="  100.527">  2  5  1 -1</clus>
</clustering>
</event>
<event>
 9    1  0.2333971E-005  0.9864140E+02  0.7546771E-02  0.1287049E+00
          3   -1    0    0  502    0  0.00000000000E+00  0.00000000000E+00  0.93868988928E+02  0.93868988928E+02  0.00000000000E+00 0. -1.
         -4   -1    0    0    0  501 -0.00000000000E+00 -0.00000000000E+00 -0.17748502562E+03  0.17748502562E+03  0.00000000000E+00 0.  1.
        -24    2    1    2    0    0 -0.17402414273E+02  0.16035282257E+02 -0.36665960268E+02  0.92299797234E+02  0.81331947152E+02 0.  0.
         23    2    1    2    0    0  0.34415328424E+02 -0.43230593212E+02  0.18227851959E+02  0.10640997092E+03  0.89092807253E+02 0.  0.
         13    1    3    3    0    0 -0.16330211207E+02  0.27421106001E+02  0.17869951661E+02  0.36577698461E+02  0.00000000000E+00 0. -1.
        -14    1    3    3    0    0 -0.10722030660E+01 -0.11385823744E+02 -0.54535911928E+02  0.55722098772E+02  0.00000000000E+00 0.  1.
        -11    1    4    4    0    0 -0.29303156131E+02 -0.19762711594E+02  0.15100542474E+02  0.38435219679E+02  0.00000000000E+00 0.  1.
         11    1    4    4    0    0  0.63718484555E+02 -0.23467881619E+02  0.31273094858E+01  0.67974751241E+02  0.00000000000E+00 0. -1.
         21    1    1    2  502  501 -0.17012914151E+02  0.27195310955E+02 -0.65177928388E+02  0.72644246399E+02  0.00000000000E+00 0. -1.
<scales pt_clust_5="13000.00000" pt_clust_6="13000.00000" pt_clust_7="13000.00000" pt_clust_8="13000.00000" pt_clust_9="32.07841"></scales>
<clustering>
<clus scale="   32.078">  2  9  1 -1</clus>
<clus scale="   81.332">  5  6 -1 -1</clus>
<clus scale="   89.093">  7  8 -1 -1</clus>
<clus scale="   91.692">  2  5  1 -1</clus>
<clus scale="   98.641">  1  5  2 -1</clus>
</clustering>
</event>
<event>
 9    1  0.2333971E-005  0.2121189E+03  0.7546771E-02  0.1140851E+00
          1   -1    0    0  502    0  0.00000000000E+00  0.00000000000E+00  0.50675169717E+03  0.50675169717E+03  0.00000000000E+00 0. -1.
         -2   -1    0    0    0  501 -0.00000000000E+00 -0.00000000000E+00 -0.16292038711E+03  0.16292038711E+03  0.00000000000E+00 0.  1.
         23    2    1    2    0    0 -0.23898005741E+02 -0.16352190980E+03  0.14361998592E+03  0.23750286157E+03  0.92034663232E+02 0.  0.
        -24    2    1    2    0    0  0.51159428514E+02  0.20904684528E+03  0.26350314925E+03  0.34957648667E+03  0.80323967288E+02 0.  0.
         13    1    4    4    0    0  0.91707855689E+01  0.16408692063E+03  0.21825370223E+03  0.27320925930E+03  0.00000000000E+00 0. -1.
        -14    1    4    4    0    0  0.41988642945E+02  0.44959924649E+02  0.45249447025E+02  0.76367227375E+02  0.00000000000E+00 0.  1.
        -13    1    3    3    0    0  0.31443833917E+02 -0.41520291256E+02  0.21908370493E+02  0.56503327115E+02  0.00000000000E+00 0. -1.
         13    1    3    3    0    0 -0.55341839658E+02 -0.12200161854E+03  0.12171161542E+03  0.18099953445E+03  0.00000000000E+00 0.  1.
         21    1    1    2  502  501 -0.27261422772E+02 -0.45524935481E+02 -0.63291825107E+02  0.82592736046E+02  0.00000000000E+00 0.  1.
<scales pt_clust_5="13000.00000" pt_clust_6="13000.00000" pt_clust_7="13000.00000" pt_clust_8="13000.00000" pt_clust_9="53.06322"></scales>
<clustering>
<clus scale="   53.063">  2  9  1 -1</clus>
<clus scale="   80.324">  5  6 -1 -1</clus>
<clus scale="   92.035">  7  8 -1 -1</clus>
<clus scale="  207.306">  1  5  2 -1</clus>
<clus scale="  207.306">  1  5  2 -1</clus>
</clustering>
</event>
<event>
 9    1  0.2333971E-005  0.1003133E+03  0.7546771E-02  0.1284050E+00
          1   -1    0    0  502    0  0.00000000000E+00  0.00000000000E+00  0.38234325478E+02  0.38234325478E+02  0.00000000000E+00 0. -1.
         -2   -1    0    0    0  501 -0.00000000000E+00 -0.00000000000E+00 -0.49069159377E+03  0.49069159377E+03  0.00000000000E+00 0.  1.
         23    2    1    2    0    0  0.30569151371E+02 -0.85322268624E+01 -0.19299879417E+03  0.21506560652E+03  0.89428231812E+02 0.  0.
        -24    2    1    2    0    0 -0.45442590276E+02 -0.34611900424E+02 -0.74973738573E+02  0.12381491669E+03  0.80287355532E+02 0.  0.
         13    1    4    4    0    0 -0.35244505564E+02  0.14275004105E+02 -0.57503849319E+01  0.38458001008E+02  0.00000000000E+00 0. -1.
        -14    1    4    4    0    0 -0.10198084712E+02 -0.48886904528E+02 -0.69223353641E+02  0.85356915686E+02  0.00000000000E+00 0.  1.
        -13    1    3    3    0    0  0.33137456434E+02 -0.41847006025E+02 -0.15757020503E+03  0.16636595939E+03  0.00000000000E+00 0.  1.
         13    1    3    3    0    0 -0.25683050630E+01  0.33314779162E+02 -0.35428589144E+02  0.48699647127E+02  0.00000000000E+00 0. -1.
         21    1    1    2  502  501  0.14873438906E+02  0.43144127286E+02 -0.18448473554E+03  0.19004539603E+03  0.00000000000E+00 0. -1.
<scales pt_clust_5="13000.00000" pt_clust_6="13000.00000" pt_clust_7="13000.00000" pt_clust_8="13000.00000" pt_clust_9="45.63589"></scales>
<clustering>
<clus scale="   45.636">  2  9  1 -1</clus>
<clus scale="   80.287">  5  6 -1 -1</clus>
<clus scale="   89.428">  7  8 -1 -1</clus>
<clus scale="   92.257">  1  5  2 -1</clus>
<clus scale="   92.257">  1  5  2 -1</clus>
</clustering>
</event>
<event>
 9    1  0.2333971E-005  0.1148323E+03  0.7546771E-02  0.1257322E+00
         -2   -1    0    0    0  501 -0.00000000000E+00  0.00000000000E+00  0.19404842720E+03  0.19404842720E+03  0.00000000000E+00 0.  1.
          1   -1    0    0  502    0  0.00000000000E+00 -0.00000000000E+00 -0.46070588672E+03  0.46070588672E+03  0.00000000000E+00 0. -1.
        -24    2    1    2    0    0 -0.24638970190E+02 -0.50158391478E+02  0.13362885429E+03  0.16589416064E+03  0.80878048620E+02 0.  0.
         23    2    1    2    0    0  0.49500693503E+02  0.41405271264E+02 -0.43230533064E+03  0.44738799589E+03  0.95411764602E+02 0.  0.
         11    1    3    3    0    0 -0.11691430193E+02  0.22017221283E+02  0.31632515457E+02  0.40274850802E+02  0.00000000000E+00 0. -1.
        -12    1    3    3    0    0 -0.12947539997E+02 -0.72175612761E+02  0.10199633883E+03  0.12561930984E+03  0.00000000000E+00 0.  1.
        -13    1    4    4    0    0  0.47769700424E+02  0.70975914626E+02 -0.32390563618E+03  0.33501400849E+03  0.00000000000E+00 0. -1.
         13    1    4    4    0    0  0.17309930796E+01 -0.29570643363E+02 -0.10839969446E+03  0.11237398740E+03  0.00000000000E+00 0.  1.
         21    1    1    2  502  501 -0.24861723313E+02  0.87531202144E+01  0.32019016837E+02  0.41472157393E+02  0.00000000000E+00 0. -1.
<scales pt_clust_5="13000.00000" pt_clust_6="13000.00000" pt_clust_7="13000.00000" pt_clust_8="13000.00000" pt_clust_9="26.35759"></scales>
<clustering>
<clus scale="   26.358">  1  9  2 -1</clus>
<clus scale="   80.878">  5  6 -1 -1</clus>
<clus scale="   95.412">  7  8 -1 -1</clus>
<clus scale="  103.074">  1  5  2 -1</clus>
<clus scale="  114.832">  2  5  1 -1</clus>
</clustering>
</event>
<event>
 9    1  0.2333971E-005  0.9193511E+02  0.7546771E-02  0.1305423E+00
         -2   -1    0    0    0  501 -0.00000000000E+00  0.00000000000E+00  0.66182107463E+02  0.66182107463E+02  0.00000000000E+00 0.  1.
          1   -1    0    0  502    0  0.00000000000E+00 -0.00000000000E+00 -0.42839627171E+03  0.42839627171E+03  0.00000000000E+00 0. -1.
        -24    2    1    2    0    0 -0.19880520506E+02 -0.43249297884E+02 -0.29755666352E+02  0.98148055114E+02  0.80510273751E+02 0.  0.
         23    2    1    2    0    0 -0.56472167737E+01 -0.56724973506E+01 -0.32838845635E+03  0.34109884425E+03  0.91898721440E+02 0.  0.
         13    1    3    3    0    0 -0.36600452704E+02 -0.39592915240E+02 -0.48672740050E+02  0.72637646571E+02  0.00000000000E+00 0. -1.
        -14    1    3    3    0    0  0.16719932198E+02 -0.36563826440E+01  0.18917073698E+02  0.25510408543E+02  0.00000000000E+00 0.  1.
        -13    1    4    4    0    0  0.23893089668E+02  0.34356043355E+02 -0.17037558245E+03  0.17543960939E+03  0.00000000000E+00 0. -1.
         13    1    4    4    0    0 -0.29540306441E+02 -0.40028540706E+02 -0.15801287390E+03  0.16565923486E+03  0.00000000000E+00 0.  1.
         21    1    1    2  502  501  0.25527737279E+02  0.48921795234E+02 -0.40700415454E+01  0.55331479808E+02  0.00000000000E+00 0. -1.
<scales pt_clust_5="13000.00000" pt_clust_6="13000.00000" pt_clust_7="13000.00000" pt_clust_8="13000.00000" pt_clust_9="55.18159"></scales>
<clustering>
<clus scale="   55.182">  1  9  2 -1</clus>
<clus scale="   80.510">  5  6 -1 -1</clus>
<clus scale="   80.552">  1  5  2 -1</clus>
<clus scale="   91.899">  7  8 -1 -1</clus>
<clus scale="   91.935">  2  5  1 -1</clus>
</clustering>
</event>
<event>
 9    1  0.2333971E-005  0.1250000E+03  0.7546771E-02  0.1238101E+00
         -2   -1    0    0    0  501 -0.00000000000E+00  0.00000000000E+00  0.22292878873E+03  0.22292878873E+03  0.00000000000E+00 0.  1.
          1   -1    0    0  502    0  0.00000000000E+00 -0.00000000000E+00 -0.36067316256E+03  0.36067316256E+03  0.00000000000E+00 0. -1.
        -24    2    1    2    0    0  0.64029449004E+02 -0.24223437031E+02  0.79226920583E+02  0.13240444723E+03  0.81040036159E+02 0.  0.
         23    2    1    2    0    0 -0.28819973370E+02  0.85135461061E+02 -0.30944845408E+03  0.33499936765E+03  0.91583803161E+02 0.  0.
         13    1    3    3    0    0  0.47757856683E+02  0.24554119827E+02  0.31551140132E+02  0.62283160798E+02  0.00000000000E+00 0. -1.
        -14    1    3    3    0    0  0.16271592321E+02 -0.48777556858E+02  0.47675780451E+02  0.70121286435E+02  0.00000000000E+00 0.  1.
        -11    1    4    4    0    0 -0.59889174741E+01  0.99451593154E+02 -0.21851396803E+03  0.24015586759E+03  0.00000000000E+00 0. -1.
         11    1    4    4    0    0 -0.22831055896E+02 -0.14316132094E+02 -0.90934486043E+02  0.94843500059E+02  0.00000000000E+00 0.  1.
         21    1    1    2  502  501 -0.35209475634E+02 -0.60912024030E+02  0.92477159659E+02  0.11619813641E+03  0.00000000000E+00 0.  1.
<scales pt_clust_5="13000.00000" pt_clust_6="13000.00000" pt_clust_7="13000.00000" pt_clust_8="13000.00000" pt_clust_9="70.35611"></scales>
<clustering>
<clus scale="   70.356">  1  9  2 -1</clus>
<clus scale="   81.040">  5  6 -1 -1</clus>
<clus scale="   91.584">  7  8 -1 -1</clus>
<clus scale="  117.494">  1  5  2 -1</clus>
<clus scale="  125.000">  2  5  1 -1</clus>
</clustering>
</event>
<event>
 9    1  0.2333971E-005  0.1097086E+03  0.7546771E-02  0.1272224E+00
          1   -1    0    0  502    0  0.00000000000E+00  0.00000000000E+00  0.47420136906E+02  0.47420136906E+02  0.00000000000E+00 0. -1.
         -2   -1    0    0    0  501 -0.00000000000E+00 -0.00000000000E+00 -0.30057661545E+03  0.30057661545E+03  0.00000000000E+00 0.  1.
        -24    2    1    2    0    0  0.47449990034E+02 -0.28774228235E+02 -0.12654848353E+03  0.15084674576E+03  0.60504249921E+02 0.  0.
         23    2    1    2    0    0 -0.46752732425E+02  0.55152690826E+02 -0.68753982014E+02  0.13356230120E+03  0.88792685311E+02 0.  0.
         11    1    3    3    0    0  0.58092584864E+02 -0.11457482845E+02 -0.75845573399E+02  0.96221480625E+02  0.00000000000E+00 0. -1.
        -12    1    3    3    0    0 -0.10642594830E+02 -0.17316745390E+02 -0.50702910128E+02  0.54625265135E+02  0.00000000000E+00 0.  1.
        -13    1    4    4    0    0 -0.16456460915E+02  0.31814437634E+02  0.17014239641E+02  0.39654229262E+02  0.00000000000E+00 0. -1.
         13    1    4    4    0    0 -0.30296271510E+02  0.23338253192E+02 -0.85768221655E+02  0.93908071939E+02  0.00000000000E+00 0.  1.
         21    1    1    2  502  501 -0.69725760944E+00 -0.26378462591E+02 -0.57854012999E+02  0.63587705392E+02  0.00000000000E+00 0. -1.
<scales pt_clust_5="13000.00000" pt_clust_6="13000.00000" pt_clust_7="13000.00000" pt_clust_8="13000.00000" pt_clust_9="26.38768"></scales>
<clustering>
<clus scale="   26.388">  2  9  1 -1</clus>
<clus scale="   60.504">  5  6 -1 -1</clus>
<clus scale="   88.389">  2  5  1 -1</clus>
<clus scale="   88.793">  7  8 -1 -1</clus>
<clus scale="  109.709">  1  5  2 -1</clus>
</clustering>
</event>
<event>
 9    1  0.2333971E-005  0.9159176E+02  0.7546771E-02  0.1305060E+00
          1   -1    0    0  502    0  0.00000000000E+00  0.00000000000E+00  0.45902935387E+03  0.45902935387E+03  0.00000000000E+00 0. -1.
         -2   -1    0    0    0  501 -0.00000000000E+00 -0.00000000000E+00 -0.55032964286E+02  0.55032964286E+02  0.00000000000E+00 0.  1.
        -24    2    1    2    0    0 -0.40211517159E+02  0.68515337280E+01  0.61669942609E+01  0.90795701937E+02  0.80882124387E+02 0.  0.
         23    2    1    2    0    0  0.84197829171E+01  0.75642591032E+01  0.36164049701E+03  0.37298574699E+03  0.90589224642E+02 0.  0.
         11    1    3    3    0    0 -0.10506214082E+02 -0.35966098029E+02 -0.40608470954E+01  0.37688608635E+02  0.00000000000E+00 0. -1.
        -12    1    3    3    0    0 -0.29705303077E+02  0.42817631757E+02  0.10227841356E+02  0.53107093301E+02  0.00000000000E+00 0.  1.
        -11    1    4    4    0    0 -0.29307604539E+02 -0.24660013450E+02  0.10938531058E+03  0.11589736027E+03  0.00000000000E+00 0.  1.
         11    1    4    4    0    0  0.37727387456E+02  0.32224272553E+02  0.25225518643E+03  0.25708838672E+03  0.00000000000E+00 0. -1.
         21    1    1    2  502  501  0.31791734242E+02 -0.14415792831E+02  0.36188898312E+02  0.50280869226E+02  0.00000000000E+00 0. -1.
<scales pt_clust_5="13000.00000" pt_clust_6="13000.00000" pt_clust_7="13000.00000" pt_clust_8="13000.00000" pt_clust_9="34.90744"></scales>
<clustering>
<clus scale="   34.907">  2  9  1 -1</clus>
<clus scale="   80.882">  5  6 -1 -1</clus>
<clus scale="   82.003">  2  5  1 -1</clus>
<clus scale="   90.589">  7  8 -1 -1</clus>
<clus scale="   91.592">  1  5  2 -1</clus>
</clustering>
</event>
<event>
 9    1  0.2333971E-005  0.1574708E+03  0.7546771E-02  0.1195639E+00
          1   -1    0    0  502    0  0.00000000000E+00  0.00000000000E+00  0.20731510607E+03  0.20731510607E+03  0.00000000000E+00 0. -1.
         -2   -1    0    0    0  501 -0.00000000000E+00 -0.00000000000E+00 -0.45977500039E+03  0.45977500039E+03  0.00000000000E+00 0.  1.
         23    2    1    2    0    0 -0.25581273645E+02  0.43371211059E+02 -0.31629710795E+03  0.33616830369E+03  0.10212641382E+03 0.  0.
        -24    2    1    2    0    0  0.88126149924E+02 -0.90796014857E+02  0.15171243744E+03  0.21309553862E+03  0.79893117922E+02 0.  0.
         13    1    4    4    0    0  0.40753751275E+02 -0.37698040523E+02  0.12555611331E+03  0.13728200207E+03  0.00000000000E+00 0. -1.
        -14    1    4    4    0    0  0.47372398650E+02 -0.53097974334E+02  0.26156324125E+02  0.75813536548E+02  0.00000000000E+00 0.  1.
        -13    1    3    3    0    0 -0.57629262403E+02  0.30178686069E+00 -0.19885971727E+03  0.20704204914E+03  0.00000000000E+00 0.  1.
         13    1    3    3    0    0  0.32047988758E+02  0.43069424198E+02 -0.11743739068E+03  0.12912625455E+03  0.00000000000E+00 0. -1.
         21    1    1    2  502  501 -0.62544876279E+02  0.47424803798E+02 -0.87875223804E+02  0.11782626415E+03  0.00000000000E+00 0.  1.
<scales pt_clust_5="13000.00000" pt_clust_6="13000.00000" pt_clust_7="13000.00000" pt_clust_8="13000.00000" pt_clust_9="78.49187"></scales>
<clustering>
<clus scale="   78.492">  2  9  1 -1</clus>
<clus scale="   79.893">  5  6 -1 -1</clus>
<clus scale="  102.126">  7  8 -1 -1</clus>
<clus scale="  144.049">  1  5  2 -1</clus>
<clus scale="  144.049">  1  5  2 -1</clus>
</clustering>
</event>
<event>
 9    1  0.2333971E-005  0.2440329E+03  0.7546771E-02  0.1135203E+00
         -2   -1    0    0    0  501 -0.00000000000E+00  0.00000000000E+00  0.16716402122E+03  0.16716402122E+03  0.00000000000E+00 0.  1.
          1   -1    0    0  502    0  0.00000000000E+00 -0.00000000000E+00 -0.68982056040E+03  0.68982056040E+03  0.00000000000E+00 0. -1.
         23    2    1    2    0    0  0.12131436774E+03 -0.34055284760E+02 -0.26001349740E+02  0.15824359016E+03  0.92130480292E+02 0.  0.
        -24    2    1    2    0    0  0.69490300133E+02  0.20625271195E+03 -0.19775406880E+03  0.30453260096E+03  0.79147648888E+02 0.  0.
         13    1    4    4    0    0 -0.16828022475E+02  0.26861784922E+02 -0.18852031053E+02  0.36880033954E+02  0.00000000000E+00 0. -1.
        -14    1    4    4    0    0  0.86318322608E+02  0.17939092703E+03 -0.17890203774E+03  0.26765256701E+03  0.00000000000E+00 0.  1.
        -13    1    3    3    0    0  0.56570379119E+02 -0.45044266109E+02 -0.50447476603E+02  0.88171092761E+02  0.00000000000E+00 0. -1.
         13    1    3    3    0    0  0.64743988617E+02  0.10988981349E+02  0.24446126863E+02  0.70072497398E+02  0.00000000000E+00 0.  1.
         21    1    1    2  502  501 -0.19080466787E+03 -0.17219742719E+03 -0.29890112065E+03  0.39420839050E+03  0.00000000000E+00 0. -1.
<scales pt_clust_5="13000.00000" pt_clust_6="13000.00000" pt_clust_7="13000.00000" pt_clust_8="13000.00000" pt_clust_9="230.84135"></scales>
<clustering>
<clus scale="   79.148">  5  6 -1 -1</clus>
<clus scale="   92.130">  7  8 -1 -1</clus>
<clus scale="  156.093">  1  7  2 -1</clus>
<clus scale="  230.841">  2  9  1 -1</clus>
<clus scale="  230.841">  2  5  1 -1</clus>
</clustering>
</event>
<event>
 9    1  0.2333971E-005  0.9307795E+02  0.7546771E-02  0.1301310E+00
         -2   -1    0    0    0  501 -0.00000000000E+00  0.00000000000E+00  0.89080123567E+02  0.89080123567E+02  0.00000000000E+00 0.  1.
          1   -1    0    0  502    0  0.00000000000E+00 -0.00000000000E+00 -0.33160584724E+03  0.33160584724E+03  0.00000000000E+00 0. -1.
         23    2    1    2    0    0 -0.86011912161E+01 -0.31741907977E+02 -0.22426482255E+02  0.99649611175E+02  0.91354084138E+02 0.  0.
        -24    2    1    2    0    0  0.12286014827E+02  0.10328031868E+02 -0.26140252108E+03  0.27436631650E+03  0.81780090516E+02 0.  0.
         13    1    4    4    0    0  0.34069217175E+02  0.34458728563E+02 -0.18691301660E+03  0.19309218344E+03  0.00000000000E+00 0. -1.
        -14    1    4    4    0    0 -0.21783202348E+02 -0.24130696695E+02 -0.74489504477E+02  0.81274133061E+02  0.00000000000E+00 0.  1.
        -11    1    3    3    0    0  0.20938037685E+02 -0.48030053122E+02 -0.35697832866E+02  0.63400494449E+02  0.00000000000E+00 0. -1.
         11    1    3    3    0    0 -0.29539228901E+02  0.16288145146E+02  0.13271350611E+02  0.36249116726E+02  0.00000000000E+00 0.  1.
         21    1    1    2  502  501 -0.36848236110E+01  0.21413876109E+02  0.41303279658E+02  0.46670043128E+02  0.00000000000E+00 0.  1.
<scales pt_clust_5="13000.00000" pt_clust_6="13000.00000" pt_clust_7="13000.00000" pt_clust_8="13000.00000" pt_clust_9="21.72860"></scales>
<clustering>
<clus scale="   21.729">  1  9  2 -1</clus>
<clus scale="   81.780">  5  6 -1 -1</clus>
<clus scale="   83.701">  2  5  1 -1</clus>
<clus scale="   91.354">  7  8 -1 -1</clus>
<clus scale="   83.701">  2  5  1 -1</clus>
</clustering>
</event>
<event>
 9    1  0.2333971E-005  0.1327877E+03  0.7546771E-02  0.1226964E+00
          1   -1    0    0  502    0  0.00000000000E+00  0.00000000000E+00  0.70333090224E+02  0.70333090224E+02  0.00000000000E+00 0. -1.
         -2   -1    0    0    0  501 -0.00000000000E+00 -0.00000000000E+00 -0.77120470094E+03  0.77120470094E+03  0.00000000000E+00 0.  1.
        -24    2    1    2    0    0 -0.91120628835E+02  0.50772934315E+02 -0.56773999882E+03  0.58238340408E+03  0.77206626837E+02 0.  0.
         23    2    1    2    0    0  0.54140289596E+01 -0.73110541853E+02 -0.26159025481E+02  0.12027413573E+03  0.91690294315E+02 0.  0.
         11    1    3    3    0    0 -0.53891923767E+01  0.20937219112E+02 -0.29676831912E+02  0.36716820272E+02  0.00000000000E+00 0. -1.
        -12    1    3    3    0    0 -0.85731436458E+02  0.29835715203E+02 -0.53806316691E+03  0.54566658380E+03  0.00000000000E+00 0.  1.
        -11    1    4    4    0    0  0.46779136537E+02 -0.32668239404E+02 -0.67876627244E+00  0.57061039288E+02  0.00000000000E+00 0. -1.
         11    1    4    4    0    0 -0.41365107578E+02 -0.40442302449E+02 -0.25480259208E+02  0.63213096441E+02  0.00000000000E+00 0.  1.
         21    1    1    2  502  501  0.85706599875E+02  0.22337607538E+02 -0.10697258641E+03  0.13888025136E+03  0.00000000000E+00 0. -1.
<scales pt_clust_5="13000.00000" pt_clust_6="13000.00000" pt_clust_7="13000.00000" pt_clust_8="13000.00000" pt_clust_9="88.56969"></scales>
<clustering>
<clus scale="   77.207">  5  6 -1 -1</clus>
<clus scale="   88.570">  1  9  2 -1</clus>
<clus scale="   91.690">  7  8 -1 -1</clus>
<clus scale="  123.233">  2  5  1 -1</clus>
<clus scale="   88.570">  1  5  2 -1</clus>
</clustering>
</event>
<event>
 9    1  0.2333971E-005  0.9050651E+02  0.7546771E-02  0.1305944E+00
          1   -1    0    0  502    0  0.00000000000E+00  0.00000000000E+00  0.21991905664E+03  0.21991905664E+03  0.00000000000E+00 0. -1.
         -2   -1    0    0    0  501 -0.00000000000E+00 -0.00000000000E+00 -0.11683036524E+03  0.11683036524E+03  0.00000000000E+00 0.  1.
         23    2    1    2    0    0 -0.51877474068E+02 -0.10797248155E+02 -0.20804704970E+02  0.10512199328E+03  0.88373892291E+02 0.  0.
        -24    2    1    2    0    0  0.75046389612E+01  0.14366213562E+02  0.15605141318E+03  0.17671090964E+03  0.81314170558E+02 0.  0.
         13    1    4    4    0    0 -0.26744337156E+02 -0.19216556838E+02  0.83260850226E+02  0.89537169974E+02  0.00000000000E+00 0. -1.
        -14    1    4    4    0    0  0.34248976117E+02  0.33582770400E+02  0.72790562954E+02  0.87173739669E+02  0.00000000000E+00 0.  1.
        -11    1    3    3    0    0 -0.70042878920E+02  0.44616120368E+01  0.46341472945E+01  0.70337658409E+02  0.00000000000E+00 0. -1.
         11    1    3    3    0    0  0.18165404852E+02 -0.15258860192E+02 -0.25438852264E+02  0.34784334869E+02  0.00000000000E+00 0.  1.
         21    1    1    2  502  501  0.44372835106E+02 -0.35689654069E+01 -0.32158016811E+02  0.54916518960E+02  0.00000000000E+00 0.  1.
<scales pt_clust_5="13000.00000" pt_clust_6="13000.00000" pt_clust_7="13000.00000" pt_clust_8="13000.00000" pt_clust_9="44.51613"></scales>
<clustering>
<clus scale="   44.516">  2  9  1 -1</clus>
<clus scale="   81.314">  5  6 -1 -1</clus>
<clus scale="   83.627">  1  5  2 -1</clus>
<clus scale="   88.374">  7  8 -1 -1</clus>
<clus scale="   83.627">  1  5  2 -1</clus>
</clustering>
</event>
<event>
 9    1  0.2333971E-005  0.9693848E+02  0.7546771E-02  0.1291818E+00
         -2   -1    0    0    0  501 -0.00000000000E+00  0.00000000000E+00  0.27343226313E+03  0.27343226313E+03  0.00000000000E+00 0.  1.
          1   -1    0    0  502    0  0.00000000000E+00 -0.00000000000E+00 -0.23784422235E+03  0.23784422235E+03  0.00000000000E+00 0. -1.
        -24    2    1    2    0    0 -0.31207973404E+02 -0.65881328308E+02  0.16745234237E+03  0.19821456169E+03  0.77035306691E+02 0.  0.
         23    2    1    2    0    0  0.24848713316E+02  0.33382388677E+02 -0.20847088947E+03  0.22960420652E+03  0.86753313875E+02 0.  0.
         11    1    3    3    0    0  0.25817090378E+02 -0.23850302570E+02  0.58987158434E+02  0.68664721280E+02  0.00000000000E+00 0. -1.
        -12    1    3    3    0    0 -0.57025063782E+02 -0.42031025738E+02  0.10846518394E+03  0.12954984041E+03  0.00000000000E+00 0.  1.
        -11    1    4    4    0    0 -0.47092406099E+01  0.51008925707E+02 -0.68919183629E+02  0.85871656098E+02  0.00000000000E+00 0.  1.
         11    1    4    4    0    0  0.29557953926E+02 -0.17626537030E+02 -0.13955170584E+03  0.14373255042E+03  0.00000000000E+00 0. -1.
         21    1    1    2  502  501  0.63592600875E+01  0.32498939631E+02  0.76606587869E+02  0.83457717264E+02  0.00000000000E+00 0. -1.
<scales pt_clust_5="13000.00000" pt_clust_6="13000.00000" pt_clust_7="13000.00000" pt_clust_8="13000.00000" pt_clust_9="33.11527"></scales>
<clustering>
<clus scale="   33.115">  1  9  2 -1</clus>
<clus scale="   77.035">  5  6 -1 -1</clus>
<clus scale="   86.753">  7  8 -1 -1</clus>
<clus scale="   88.348">  1  5  2 -1</clus>
<clus scale="   96.938">  2  5  1 -1</clus>
</clustering>
</event>
<event>
 9    1  0.2333971E-005  0.1098497E+03  0.7546771E-02  0.1268500E+00
          1   -1    0    0  502    0  0.00000000000E+00  0.00000000000E+00  0.42436918190E+03  0.42436918190E+03  0.00000000000E+00 0. -1.
         -2   -1    0    0    0  501 -0.00000000000E+00 -0.00000000000E+00 -0.43456723738E+03  0.43456723738E+03  0.00000000000E+00 0.  1.
        -24    2    1    2    0    0 -0.62569947217E+02 -0.17900827715E+02 -0.28999181641E+03  0.30778754167E+03  0.80015494069E+02 0.  0.
         23    2    1    2    0    0 -0.38409828446E+02  0.23872153886E+02  0.39014178666E+03  0.40145165448E+03  0.83112108230E+02 0.  0.
         11    1    3    3    0    0 -0.59603919550E+02 -0.76132994943E+00 -0.95887136704E+02  0.11290504787E+03  0.00000000000E+00 0. -1.
        -12    1    3    3    0    0 -0.29660276663E+01 -0.17139497766E+02 -0.19410467971E+03  0.19488249380E+03  0.00000000000E+00 0.  1.
        -11    1    4    4    0    0 -0.62878256845E+01 -0.27250775411E+02  0.65149092515E+02  0.70898136561E+02  0.00000000000E+00 0.  1.
         11    1    4    4    0    0 -0.32122002761E+02  0.51122929296E+02  0.32499269415E+03  0.33055351792E+03  0.00000000000E+00 0. -1.
         21    1    1    2  502  501  0.10097977566E+03 -0.59713261704E+01 -0.11034802574E+03  0.14969722313E+03  0.00000000000E+00 0. -1.
<scales pt_clust_5="13000.00000" pt_clust_6="13000.00000" pt_clust_7="13000.00000" pt_clust_8="13000.00000" pt_clust_9="75.26265"></scales>
<clustering>
<clus scale="   80.015">  5  6 -1 -1</clus>
<clus scale="   83.112">  7  8 -1 -1</clus>
<clus scale="   94.619">  1  7  2 -1</clus>
<clus scale="   75.263">  1  9  2 -1</clus>
<clus scale="   94.619">  1  5  2 -1</clus>
</clustering>
</event>
<event>
 9    1  0.2333971E-005  0.1073836E+03  0.7546771E-02  0.1270828E+00
          1   -1    0    0  502    0  0.00000000000E+00  0.00000000000E+00  0.13696139421E+03  0.13696139421E+03  0.00000000000E+00 0. -1.
         -2   -1    0    0    0  501 -0.00000000000E+00 -0.00000000000E+00 -0.21415690837E+03  0.21415690837E+03  0.00000000000E+00 0.  1.
        -24    2    1    2    0    0 -0.45797456690E+02 -0.57426571946E+02 -0.14789829955E+03  0.18310777684E+03  0.79115944810E+02 0.  0.
         23    2    1    2    0    0  0.36136241064E+02  0.39098202580E+02  0.90445738641E+02  0.13939143396E+03  0.91733542721E+02 0.  0.
         13    1    3    3    0    0 -0.32403881096E+02 -0.86614064690E+01 -0.81879154336E+01  0.34526416426E+02  0.00000000000E+00 0. -1.
        -14    1    3    3    0    0 -0.13393575595E+02 -0.48765165477E+02 -0.13971038412E+03  0.14858136041E+03  0.00000000000E+00 0.  1.
        -11    1    4    4    0    0  0.33943674980E+02  0.63345468221E+02  0.89826348913E+02  0.11503736078E+03  0.00000000000E+00 0. -1.
         11    1    4    4    0    0  0.21925660831E+01 -0.24247265641E+02  0.61938972825E+00  0.24354073185E+02  0.00000000000E+00 0.  1.
         21    1    1    2  502  501  0.96612156268E+01  0.18328369365E+02 -0.19742953252E+02  0.28619091776E+02  0.00000000000E+00 0.  1.
<scales pt_clust_5="13000.00000" pt_clust_6="13000.00000" pt_clust_7="13000.00000" pt_clust_8="13000.00000" pt_clust_9="20.71879"></scales>
<clustering>
<clus scale="   20.719">  2  9  1 -1</clus>
<clus scale="   79.116">  5  6 -1 -1</clus>
<clus scale="   91.734">  7  8 -1 -1</clus>
<clus scale="   96.827">  2  5  1 -1</clus>
<clus scale="  107.384">  1  5  2 -1</clus>
</clustering>
</event>
<event>
 9    1  0.2333971E-005  0.1068108E+03  0.7546771E-02  0.1272430E+00
         -2   -1    0    0    0  501 -0.00000000000E+00  0.00000000000E+00  0.56059176747E+02  0.56059176747E+02  0.00000000000E+00 0.  1.
          1   -1    0    0  502    0  0.00000000000E+00 -0.00000000000E+00 -0.49363318084E+03  0.49363318084E+03  0.00000000000E+00 0. -1.
        -24    2    1    2    0    0  0.42840315191E+02 -0.46928050298E+02 -0.69132996651E+02  0.12283379403E+03  0.79191130935E+02 0.  0.
         23    2    1    2    0    0 -0.72803869183E+01  0.52184318171E+02 -0.37541243249E+03  0.39024247942E+03  0.92620144569E+02 0.  0.
         11    1    3    3    0    0  0.29578716606E+02 -0.45057620393E+02 -0.85878469983E+02  0.10139132723E+03  0.00000000000E+00 0. -1.
        -12    1    3    3    0    0  0.13261598585E+02 -0.18704299059E+01  0.16745473333E+02  0.21442466794E+02  0.00000000000E+00 0.  1.
        -13    1    4    4    0    0  0.40421402272E+02  0.39286627773E+02 -0.22331941793E+03  0.23032344932E+03  0.00000000000E+00 0.  1.
         13    1    4    4    0    0 -0.47701789191E+02  0.12897690398E+02 -0.15209301456E+03  0.15991903010E+03  0.00000000000E+00 0. -1.
         21    1    1    2  502  501 -0.35559928272E+02 -0.52562678727E+01  0.69714250451E+01  0.36616084141E+02  0.00000000000E+00 0. -1.
<scales pt_clust_5="13000.00000" pt_clust_6="13000.00000" pt_clust_7="13000.00000" pt_clust_8="13000.00000" pt_clust_9="35.94631"></scales>
<clustering>
<clus scale="   35.946">  1  9  2 -1</clus>
<clus scale="   79.191">  5  6 -1 -1</clus>
<clus scale="   92.620">  7  8 -1 -1</clus>
<clus scale="   95.401">  1  5  2 -1</clus>
<clus scale="  106.811">  2  5  1 -1</clus>
</clustering>
</event>
<event>
 9    1  0.2333971E-005  0.1137186E+03  0.7546771E-02  0.1256099E+00
          3   -1    0    0  502    0  0.00000000000E+00  0.00000000000E+00  0.51608972745E+02  0.51608972745E+02  0.00000000000E+00 0. -1.
         -4   -1    0    0    0  501 -0.00000000000E+00 -0.00000000000E+00 -0.47180925033E+03  0.47180925033E+03  0.00000000000E+00 0.  1.
        -24    2    1    2    0    0 -0.38322352433E+02  0.51926946999E+02 -0.29456980280E+03  0.31361994451E+03  0.86145750640E+02 0.  0.
         23    2    1    2    0    0  0.54513130058E+02 -0.39706734717E+02 -0.39012293790E+02  0.12083657811E+03  0.92364567950E+02 0.  0.
         13    1    3    3    0    0  0.26522993725E+02  0.27867256719E+02 -0.10628278816E+03  0.11303134190E+03  0.00000000000E+00 0. -1.
        -14    1    3    3    0    0 -0.64845346158E+02  0.24059690279E+02 -0.18828701464E+03  0.20058860261E+03  0.00000000000E+00 0.  1.
        -11    1    4    4    0    0  0.49457834220E+02 -0.91895750795E-01 -0.58328644324E+02  0.76474286916E+02  0.00000000000E+00 0.  1.
         11    1    4    4    0    0  0.50552958379E+01 -0.39614838966E+02  0.19316350534E+02  0.44362291197E+02  0.00000000000E+00 0. -1.
         21    1    1    2  502  501 -0.16190777625E+02 -0.12220212281E+02 -0.86618181000E+02  0.88961700456E+02  0.00000000000E+00 0.  1.
<scales pt_clust_5="13000.00000" pt_clust_6="13000.00000" pt_clust_7="13000.00000" pt_clust_8="13000.00000" pt_clust_9="20.28484"></scales>
<clustering>
<clus scale="   20.285">  2  9  1 -1</clus>
<clus scale="   86.146">  5  6 -1 -1</clus>
<clus scale="   92.365">  7  8 -1 -1</clus>
<clus scale="  108.728">  2  5  1 -1</clus>
<clus scale="  113.719">  1  5  2 -1</clus>
</clustering>
</event>
<event>
 9    1  0.2333971E-005  0.1555972E+03  0.7546771E-02  0.1195554E+00
          1   -1    0    0  502    0  0.00000000000E+00  0.00000000000E+00  0.62100207521E+03  0.62100207521E+03  0.00000000000E+00 0. -1.
         -2   -1    0    0    0  501 -0.00000000000E+00 -0.00000000000E+00 -0.12061893684E+03  0.12061893684E+03  0.00000000000E+00 0.  1.
         23    2    1    2    0    0 -0.39174540905E+02 -0.12606481677E+03 -0.28553316772E+02  0.16302512575E+03  0.91295766843E+02 0.  0.
        -24    2    1    2    0    0  0.72066635708E+02  0.10329403621E+03  0.51493333802E+03  0.53621091683E+03  0.80638370693E+02 0.  0.
         13    1    4    4    0    0  0.69715608964E+02  0.10125213928E+03  0.51766943146E+03  0.53206569342E+03  0.00000000000E+00 0. -1.
        -14    1    4    4    0    0  0.23510267440E+01  0.20418969319E+01 -0.27360934429E+01  0.41452234149E+01  0.00000000000E+00 0.  1.
        -13    1    3    3    0    0 -0.20575609112E+02 -0.45995005037E+02 -0.56965026953E+02  0.76052024789E+02  0.00000000000E+00 0.  1.
         13    1    3    3    0    0 -0.18598931793E+02 -0.80069811732E+02  0.28411710181E+02  0.86973100956E+02  0.00000000000E+00 0. -1.
         21    1    1    2  502  501 -0.32892094803E+02  0.22770780560E+02  0.14003117116E+02  0.42384969468E+02  0.00000000000E+00 0. -1.
<scales pt_clust_5="13000.00000" pt_clust_6="13000.00000" pt_clust_7="13000.00000" pt_clust_8="13000.00000" pt_clust_9="40.00498"></scales>
<clustering>
<clus scale="   40.005">  2  9  1 -1</clus>
<clus scale="   80.638">  5  6 -1 -1</clus>
<clus scale="   91.296">  7  8 -1 -1</clus>
<clus scale="  149.593">  1  5  2 -1</clus>
<clus scale="  149.593">  1  5  2 -1</clus>
</clustering>
</event>
<event>
 9    1  0.2333971E-005  0.1189527E+03  0.7546771E-02  0.1248476E+00
          3   -1    0    0  502    0  0.00000000000E+00  0.00000000000E+00  0.15073881015E+03  0.15073881015E+03  0.00000000000E+00 0. -1.
         -4   -1    0    0    0  501 -0.00000000000E+00 -0.00000000000E+00 -0.25316675955E+03  0.25316675955E+03  0.00000000000E+00 0.  1.
         23    2    1    2    0    0 -0.44739006715E+01  0.80045035755E+02 -0.13868647520E+03  0.18712528097E+03  0.96719743781E+02 0.  0.
        -24    2    1    2    0    0 -0.35150987947E+02  0.96884392202E+01  0.26785306435E+00  0.11229317540E+03  0.10620841627E+03 0.  0.
         11    1    4    4    0    0  0.36783271931E+02  0.15934247210E+02 -0.19871313295E+00  0.40086766083E+02  0.00000000000E+00 0. -1.
        -12    1    4    4    0    0 -0.71934259878E+02 -0.62458079902E+01  0.46656619730E+00  0.72206409312E+02  0.00000000000E+00 0.  1.
        -13    1    3    3    0    0 -0.47383111678E+00  0.55308139624E+02 -0.14982104943E+03  0.15970460757E+03  0.00000000000E+00 0.  1.
         13    1    3    3    0    0 -0.40000695547E+01  0.24736896131E+02  0.11134574229E+02  0.27420673403E+02  0.00000000000E+00 0. -1.
         21    1    1    2  502  501  0.39624888619E+02 -0.89733474975E+02  0.35990672743E+02  0.10448711334E+03  0.00000000000E+00 0. -1.
<scales pt_clust_5="13000.00000" pt_clust_6="13000.00000" pt_clust_7="13000.00000" pt_clust_8="13000.00000" pt_clust_9="98.09296"></scales>
<clustering>
<clus scale="   96.720">  7  8 -1 -1</clus>
<clus scale="   98.093">  1  9  2 -1</clus>
<clus scale="  106.208">  5  6 -1 -1</clus>
<clus scale="  110.563">  2  7  1 -1</clus>
<clus scale="   98.093">  1  5  2 -1</clus>
</clustering>
</event>
<event>
 9    1  0.2333971E-005  0.1237129E+03  0.7546771E-02  0.1239701E+00
         -2   -1    0    0    0  501 -0.00000000000E+00  0.00000000000E+00  0.73473780920E+03  0.73473780920E+03  0.00000000000E+00 0.  1.
          1   -1    0    0  502    0  0.00000000000E+00 -0.00000000000E+00 -0.11582241496E+03  0.11582241496E+03  0.00000000000E+00 0. -1.
        -24    2    1    2    0    0 -0.29959411161E+02  0.10195573131E+03  0.60228303007E+03  0.61719835591E+03  0.83044715442E+02 0.  0.
         23    2    1    2    0    0  0.44323519177E+02 -0.68656961598E+02 -0.68559882868E+02  0.14077215706E+03  0.91858532196E+02 0.  0.
         13    1    3    3    0    0 -0.48890395863E+02  0.53828622924E+02  0.22684587247E+03  0.23821595520E+03  0.00000000000E+00 0. -1.
        -14    1    3    3    0    0  0.18930984702E+02  0.48127108389E+02  0.37543715760E+03  0.37898240071E+03  0.00000000000E+00 0.  1.
        -11    1    4    4    0    0  0.63708718287E+02 -0.34947598334E+02 -0.71283174681E+02  0.10179109199E+03  0.00000000000E+00 0. -1.
         11    1    4    4    0    0 -0.19385199111E+02 -0.33709363263E+02  0.27232918130E+01  0.38981065076E+02  0.00000000000E+00 0.  1.
         21    1    1    2  502  501 -0.14364108016E+02 -0.33298769716E+02  0.85192247034E+02  0.92589711190E+02  0.00000000000E+00 0. -1.
<scales pt_clust_5="13000.00000" pt_clust_6="13000.00000" pt_clust_7="13000.00000" pt_clust_8="13000.00000" pt_clust_9="36.26480"></scales>
<clustering>
<clus scale="   36.265">  1  9  2 -1</clus>
<clus scale="   83.045">  5  6 -1 -1</clus>
<clus scale="   91.859">  7  8 -1 -1</clus>
<clus scale="  117.317">  1  5  2 -1</clus>
<clus scale="  123.713">  2  5  1 -1</clus>
</clustering>
</event>
<event>
 9    1  0.2333971E-005  0.9576529E+02  0.7546771E-02  0.1295994E+00
          1   -1    0    0  502    0  0.00000000000E+00  0.00000000000E+00  0.54437334542E+02  0.54437334542E+02  0.00000000000E+00 0. -1.
         -2   -1    0    0    0  501 -0.00000000000E+00 -0.00000000000E+00 -0.43259705708E+03  0.43259705708E+03  0.00000000000E+00 0.  1.
        -24    2    1    2    0    0 -0.10483470647E+02 -0.31597764422E+01 -0.22243910475E+03  0.23713975332E+03  0.81462997369E+02 0.  0.
         23    2    1    2    0    0  0.10321316052E+02  0.25026620821E+02 -0.41925554753E+01  0.96796830198E+02  0.92839579384E+02 0.  0.
         11    1    3    3    0    0  0.14454194975E+02  0.28404044700E+02 -0.44654706943E+02  0.54861246430E+02  0.00000000000E+00 0. -1.
        -12    1    3    3    0    0 -0.24937665622E+02 -0.31563821142E+02 -0.17778439781E+03  0.18227850689E+03  0.00000000000E+00 0.  1.
        -13    1    4    4    0    0  0.31660005491E+02  0.20592738726E+02 -0.39914792837E+02  0.54950955616E+02  0.00000000000E+00 0.  1.
         13    1    4    4    0    0 -0.21338689439E+02  0.44338820951E+01  0.35722237361E+02  0.41845874582E+02  0.00000000000E+00 0. -1.
         21    1    1    2  502  501  0.16215459483E+00 -0.21866844378E+02 -0.15152806231E+03  0.15309780810E+03  0.00000000000E+00 0. -1.
<scales pt_clust_5="13000.00000" pt_clust_6="13000.00000" pt_clust_7="13000.00000" pt_clust_8="13000.00000" pt_clust_9="21.86745"></scales>
<clustering>
<clus scale="   21.867">  2  9  1 -1</clus>
<clus scale="   81.463">  5  6 -1 -1</clus>
<clus scale="   84.782">  2  5  1 -1</clus>
<clus scale="   92.840">  7  8 -1 -1</clus>
<clus scale="   95.765">  1  5  2 -1</clus>
</clustering>
</event>
<event>
 9    1  0.2333971E-005  0.1275883E+03  0.7546771E-02  0.1233597E+00
          1   -1    0    0  502    0  0.00000000000E+00  0.00000000000E+00  0.22268158082E+03  0.22268158082E+03  0.00000000000E+00 0. -1.
         -2   -1    0    0    0  501 -0.00000000000E+00 -0.00000000000E+00 -0.43760146559E+03  0.43760146559E+03  0.00000000000E+00 0.  1.
        -24    2    1    2    0    0 -0.24701800163E+02 -0.34117336738E+02 -0.35836892607E+03  0.37216618939E+03  0.91132945497E+02 0.  0.
         23    2    1    2    0    0  0.70378409945E+02  0.42271100158E+02  0.18519131572E+03  0.22570488691E+03  0.99533441922E+02 0.  0.
         13    1    3    3    0    0 -0.13474043383E+02 -0.57612840803E+02 -0.13646612796E+03  0.14874069164E+03  0.00000000000E+00 0. -1.
        -14    1    3    3    0    0 -0.11227756780E+02  0.23495504065E+02 -0.22190279812E+03  0.22342549775E+03  0.00000000000E+00 0.  1.
        -11    1    4    4    0    0  0.10444637698E+02  0.59616242562E+02  0.57017292996E+02  0.83151419317E+02  0.00000000000E+00 0.  1.
         11    1    4    4    0    0  0.59933772247E+02 -0.17345142404E+02  0.12817402273E+03  0.14255346759E+03  0.00000000000E+00 0. -1.
         21    1    1    2  502  501 -0.45676609783E+02 -0.81537634199E+01 -0.41742274416E+02  0.62411970106E+02  0.00000000000E+00 0.  1.
<scales pt_clust_5="13000.00000" pt_clust_6="13000.00000" pt_clust_7="13000.00000" pt_clust_8="13000.00000" pt_clust_9="46.39867"></scales>
<clustering>
<clus scale="   46.399">  2  9  1 -1</clus>
<clus scale="   91.133">  5  6 -1 -1</clus>
<clus scale="   99.533">  7  8 -1 -1</clus>
<clus scale="  121.149">  2  5  1 -1</clus>
<clus scale="  127.588">  1  5  2 -1</clus>
</clustering>
</event>
<event>
 9    1  0.2333971E-005  0.9756371E+02  0.7546771E-02  0.1291037E+00
          1   -1    0    0  502    0  0.00000000000E+00  0.00000000000E+00  0.35981863873E+03  0.35981863873E+03  0.00000000000E+00 0. -1.
         -2   -1    0    0    0  501 -0.00000000000E+00 -0.00000000000E+00 -0.12067683540E+03  0.12067683540E+03  0.00000000000E+00 0.  1.
        -24    2    1    2    0    0  0.29340377593E+01  0.46725496648E+02 -0.42061700555E+02  0.10259973105E+03  0.81028621750E+02 0.  0.
         23    2    1    2    0    0  0.12275686841E+02 -0.30939785101E+02  0.31938661003E+03  0.33386763836E+03  0.91388349841E+02 0.  0.
         13    1    3    3    0    0  0.61398963192E+01 -0.20544927264E+02  0.28790406820E+01  0.21635185193E+02  0.00000000000E+00 0. -1.
        -14    1    3    3    0    0 -0.32058585599E+01  0.67270423912E+02 -0.44940741237E+02  0.80964545854E+02  0.00000000000E+00 0.  1.
        -13    1    4    4    0    0  0.47864864130E+02 -0.35506200211E+02  0.16705099809E+03  0.17736338808E+03  0.00000000000E+00 0. -1.
         13    1    4    4    0    0 -0.35589177289E+02  0.45664151096E+01  0.15233561194E+03  0.15650425027E+03  0.00000000000E+00 0.  1.
         21    1    1    2  502  501 -0.15209724600E+02 -0.15785711547E+02 -0.38183106137E+02  0.44028104725E+02  0.00000000000E+00 0. -1.
<scales pt_clust_5="13000.00000" pt_clust_6="13000.00000" pt_clust_7="13000.00000" pt_clust_8="13000.00000" pt_clust_9="21.92087"></scales>
<clustering>
<clus scale="   21.921">  2  9  1 -1</clus>
<clus scale="   81.029">  5  6 -1 -1</clus>
<clus scale="   87.935">  2  5  1 -1</clus>
<clus scale="   91.388">  7  8 -1 -1</clus>
<clus scale="   97.564">  1  5  2 -1</clus>
</clustering>
</event>
<event>
 9    1  0.2333971E-005  0.1255650E+03  0.7546771E-02  0.1238359E+00
          1   -1    0    0  502    0  0.00000000000E+00  0.00000000000E+00  0.52944594213E+03  0.52944594213E+03  0.00000000000E+00 0. -1.
         -2   -1    0    0    0  501 -0.00000000000E+00 -0.00000000000E+00 -0.43081359378E+02  0.43081359378E+02  0.00000000000E+00 0.  1.
        -24    2    1    2    0    0  0.31830552919E+02  0.90527285367E+02  0.22627577132E+03  0.25908955606E+03  0.81965235808E+02 0.  0.
         23    2    1    2    0    0 -0.15182517087E+02 -0.68015511606E+02  0.25966895085E+03  0.28543572163E+03  0.95859107580E+02 0.  0.
         13    1    3    3    0    0  0.59579854040E+02  0.55058645422E+02  0.14869926661E+03  0.16938915353E+03  0.00000000000E+00 0. -1.
        -14    1    3    3    0    0 -0.27749301120E+02  0.35468639946E+02  0.77576504702E+02  0.89700402530E+02  0.00000000000E+00 0.  1.
        -11    1    4    4    0    0  0.18854602413E+02 -0.20867741284E+02  0.11231740191E+02  0.30283834733E+02  0.00000000000E+00 0. -1.
         11    1    4    4    0    0 -0.34037119499E+02 -0.47147770322E+02  0.24843721065E+03  0.25515188690E+03  0.00000000000E+00 0.  1.
         21    1    1    2  502  501 -0.16648035833E+02 -0.22511773761E+02  0.41986059373E+00  0.28002023818E+02  0.00000000000E+00 0.  1.
<scales pt_clust_5="13000.00000" pt_clust_6="13000.00000" pt_clust_7="13000.00000" pt_clust_8="13000.00000" pt_clust_9="27.99888"></scales>
<clustering>
<clus scale="   27.999">  2  9  1 -1</clus>
<clus scale="   81.965">  5  6 -1 -1</clus>
<clus scale="   95.859">  7  8 -1 -1</clus>
<clus scale="  115.308">  2  5  1 -1</clus>
<clus scale="  125.565">  1  5  2 -1</clus>
</clustering>
</event>
<event>
 9    1  0.2333971E-005  0.1193969E+03  0.7546771E-02  0.1248100E+00
         -2   -1    0    0    0  501 -0.00000000000E+00  0.00000000000E+00  0.39495018298E+03  0.39495018298E+03  0.00000000000E+00 0.  1.
          1   -1    0    0  502    0  0.00000000000E+00 -0.00000000000E+00 -0.63291930261E+02  0.63291930261E+02  0.00000000000E+00 0. -1.
         23    2    1    2    0    0  0.56247581811E+02  0.72185821492E+02  0.19894462287E+03  0.23716597765E+03  0.91072249896E+02 0.  0.
        -24    2    1    2    0    0 -0.29456460526E+02 -0.67211972641E+02  0.25556833448E+02  0.11050904118E+03  0.78574576761E+02 0.  0.
         13    1    4    4    0    0 -0.22737832278E+02 -0.81087426600E+02  0.36313611769E+02  0.91710730937E+02  0.00000000000E+00 0. -1.
        -14    1    4    4    0    0 -0.67186282482E+01  0.13875453959E+02 -0.10756778321E+02  0.18798310241E+02  0.00000000000E+00 0.  1.
        -13    1    3    3    0    0  0.76189062983E+02  0.37747976657E+02  0.16154302133E+03  0.18255363814E+03  0.00000000000E+00 0.  1.
         13    1    3    3    0    0 -0.19941481172E+02  0.34437844835E+02  0.37401601540E+02  0.54612339503E+02  0.00000000000E+00 0. -1.
         21    1    1    2  502  501 -0.26791121284E+02 -0.49738488510E+01  0.10715679640E+03  0.11056709441E+03  0.00000000000E+00 0.  1.
<scales pt_clust_5="13000.00000" pt_clust_6="13000.00000" pt_clust_7="13000.00000" pt_clust_8="13000.00000" pt_clust_9="27.24891"></scales>
<clustering>
<clus scale="   27.249">  1  9  2 -1</clus>
<clus scale="   78.575">  5  6 -1 -1</clus>
<clus scale="   91.072">  7  8 -1 -1</clus>
<clus scale="  110.161">  2  5  1 -1</clus>
<clus scale="  110.161">  2  5  1 -1</clus>
</clustering>
</event>
<event>
 9    1  0.2333971E-005  0.1175365E+03  0.7546771E-02  0.1250068E+00
         -2   -1    0    0    0  501 -0.00000000000E+00  0.00000000000E+00  0.11111546898E+03  0.11111546898E+03  0.00000000000E+00 0.  1.
          1   -1    0    0  502    0  0.00000000000E+00 -0.00000000000E+00 -0.25070427908E+03  0.25070427908E+03  0.00000000000E+00 0. -1.
        -24    2    1    2    0    0  0.76956064977E+01  0.61301197782E+02  0.31047579291E+02  0.10626855852E+03  0.80696933905E+02 0.  0.
         23    2    1    2    0    0 -0.30025923446E+02 -0.74546586183E+02 -0.18881432768E+03  0.22385701327E+03  0.89455924687E+02 0.  0.
         11    1    3    3    0    0 -0.28200963065E+02 -0.15738385306E+01  0.21925338951E+01  0.28329816279E+02  0.00000000000E+00 0. -1.
        -12    1    3    3    0    0  0.35896569563E+02  0.62875036312E+02  0.28855045396E+02  0.77938742243E+02  0.00000000000E+00 0.  1.
        -13    1    4    4    0    0  0.25978754502E+02 -0.16484136444E+02 -0.96375748917E+02  0.10116771925E+03  0.00000000000E+00 0. -1.
         13    1    4    4    0    0 -0.56004677949E+02 -0.58062449740E+02 -0.92438578763E+02  0.12268929401E+03  0.00000000000E+00 0.  1.
         21    1    1    2  502  501  0.22330316949E+02  0.13245388402E+02  0.18177938291E+02  0.31694176270E+02  0.00000000000E+00 0. -1.
<scales pt_clust_5="13000.00000" pt_clust_6="13000.00000" pt_clust_7="13000.00000" pt_clust_8="13000.00000" pt_clust_9="25.96312"></scales>
<clustering>
<clus scale="   25.963">  1  9  2 -1</clus>
<clus scale="   80.697">  5  6 -1 -1</clus>
<clus scale="   89.456">  7  8 -1 -1</clus>
<clus scale="  111.016">  1  5  2 -1</clus>
<clus scale="  117.537">  2  5  1 -1</clus>
</clustering>
</event>
<event>
 9    1  0.2333971E-005  0.1073360E+03  0.7546771E-02  0.1270342E+00
         -4   -1    0    0    0  501 -0.00000000000E+00  0.00000000000E+00  0.17042982803E+03  0.17042982803E+03  0.00000000000E+00 0.  1.
          3   -1    0    0  502    0  0.00000000000E+00 -0.00000000000E+00 -0.22663990894E+03  0.22663990894E+03  0.00000000000E+00 0. -1.
        -24    2    1    2    0    0 -0.36035916924E+02  0.62357185833E+02  0.38085349017E+02  0.11399647612E+03  0.79735166802E+02 0.  0.
         23    2    1    2    0    0  0.61844922966E+02  0.18125638263E+02 -0.14617355707E+03  0.18390204605E+03  0.91103899453E+02 0.  0.
         11    1    3    3    0    0 -0.18907972635E+02  0.90745874880E+01 -0.23014754173E+02  0.31137412817E+02  0.00000000000E+00 0. -1.
        -12    1    3    3    0    0 -0.17127944289E+02  0.53282598346E+02  0.61100103191E+02  0.82859063306E+02  0.00000000000E+00 0.  1.
        -13    1    4    4    0    0 -0.23478074984E+02 -0.26343830506E+01 -0.35089546469E+02  0.42301728693E+02  0.00000000000E+00 0.  1.
         13    1    4    4    0    0  0.85322997950E+02  0.20760021313E+02 -0.11108401060E+03  0.14160031736E+03  0.00000000000E+00 0. -1.
         21    1    1    2  502  501 -0.25809006042E+02 -0.80482824096E+02  0.51878127152E+02  0.99171214796E+02  0.00000000000E+00 0.  1.
<scales pt_clust_5="13000.00000" pt_clust_6="13000.00000" pt_clust_7="13000.00000" pt_clust_8="13000.00000" pt_clust_9="84.51976"></scales>
<clustering>
<clus scale="   79.735">  5  6 -1 -1</clus>
<clus scale="   84.520">  1  9  2 -1</clus>
<clus scale="   91.104">  7  8 -1 -1</clus>
<clus scale="   97.871">  1  5  2 -1</clus>
<clus scale="  107.336">  2  5  1 -1</clus>
</clustering>
</event>
<event>
 9    1  0.2333971E-005  0.1300199E+03  0.7546771E-02  0.1230977E+00
          1   -1    0    0  502    0  0.00000000000E+00  0.00000000000E+00  0.11430388457E+04  0.11430388457E+04  0.00000000000E+00 0. -1.
         -2   -1    0    0    0  501 -0.00000000000E+00 -0.00000000000E+00 -0.43662735563E+02  0.43662735563E+02  0.00000000000E+00 0.  1.
         23    2    1    2    0    0 -0.57252924578E+02 -0.98621446100E+02  0.19364315926E+03  0.24283724724E+03  0.92022652194E+02 0.  0.
        -24    2    1    2    0    0  0.85811892995E+02  0.32367543910E+02  0.83198051367E+03  0.84069158457E+03  0.78482013053E+02 0.  0.
         11    1    4    4    0    0  0.85380456175E+02  0.65665248428E+01  0.46601143135E+03  0.47381388296E+03  0.00000000000E+00 0. -1.
        -12    1    4    4    0    0  0.43143681980E+00  0.25801019067E+02  0.36596908232E+03  0.36687770161E+03  0.00000000000E+00 0.  1.
        -11    1    3    3    0    0 -0.70824749023E+02 -0.43863351448E+02  0.14973241705E+03  0.17134741139E+03  0.00000000000E+00 0.  1.
         11    1    3    3    0    0  0.13571824445E+02 -0.54758094652E+02  0.43910742205E+02  0.71489835849E+02  0.00000000000E+00 0. -1.
         21    1    1    2  502  501 -0.28558968417E+02  0.66253902190E+02  0.73752437189E+02  0.10317274942E+03  0.00000000000E+00 0.  1.
<scales pt_clust_5="13000.00000" pt_clust_6="13000.00000" pt_clust_7="13000.00000" pt_clust_8="13000.00000" pt_clust_9="72.14703"></scales>
<clustering>
<clus scale="   72.147">  2  9  1 -1</clus>
<clus scale="   78.482">  5  6 -1 -1</clus>
<clus scale="   92.023">  7  8 -1 -1</clus>
<clus scale="  120.816">  1  5  2 -1</clus>
<clus scale="  120.816">  1  5  2 -1</clus>
</clustering>
</event>
<event>
 9    1  0.2333971E-005  0.1051473E+03  0.7546771E-02  0.1276128E+00
          3   -1    0    0  502    0  0.00000000000E+00  0.00000000000E+00  0.18146113178E+03  0.18146113178E+03  0.00000000000E+00 0. -1.
         -4   -1    0    0    0  501 -0.00000000000E+00 -0.00000000000E+00 -0.14382325954E+03  0.14382325954E+03  0.00000000000E+00 0.  1.
         23    2    1    2    0    0 -0.69327315927E+02 -0.13952418179E+00 -0.41831383322E+02  0.12327511069E+03  0.92954785161E+02 0.  0.
        -24    2    1    2    0    0  0.40747617642E+02 -0.22622599207E+02  0.11759593751E+03  0.14920248854E+03  0.79122864768E+02 0.  0.
         13    1    4    4    0    0  0.34735752103E+02 -0.49016267506E+02  0.10080185554E+03  0.11734641466E+03  0.00000000000E+00 0. -1.
        -14    1    4    4    0    0  0.60118655391E+01  0.26393668299E+02  0.16794081973E+02  0.31856073877E+02  0.00000000000E+00 0.  1.
        -13    1    3    3    0    0 -0.18793954698E+02 -0.34516328601E+02  0.12765675902E+02  0.41322538094E+02  0.00000000000E+00 0. -1.
         13    1    3    3    0    0 -0.50533361229E+02  0.34376804419E+02 -0.54597059225E+02  0.81952572596E+02  0.00000000000E+00 0.  1.
         21    1    1    2  502  501  0.28579698285E+02  0.22762123388E+02 -0.38126681948E+02  0.52806792097E+02  0.00000000000E+00 0.  1.
<scales pt_clust_5="13000.00000" pt_clust_6="13000.00000" pt_clust_7="13000.00000" pt_clust_8="13000.00000" pt_clust_9="36.53647"></scales>
<clustering>
<clus scale="   36.536">  2  9  1 -1</clus>
<clus scale="   79.123">  5  6 -1 -1</clus>
<clus scale="   92.955">  7  8 -1 -1</clus>
<clus scale="   93.144">  1  5  2 -1</clus>
<clus scale="   93.144">  1  5  2 -1</clus>
</clustering>
</event>
<event>
 9    1  0.2333971E-005  0.9658042E+02  0.7546771E-02  0.1297057E+00
          1   -1    0    0  502    0  0.00000000000E+00  0.00000000000E+00  0.47191398064E+03  0.47191398064E+03  0.00000000000E+00 0. -1.
         -2   -1    0    0    0  501 -0.00000000000E+00 -0.00000000000E+00 -0.16607735713E+03  0.16607735713E+03  0.00000000000E+00 0.  1.
         23    2    1    2    0    0  0.67942718743E+02  0.92883918374E+01  0.12074346315E+03  0.16649386801E+03  0.91862598150E+02 0.  0.
        -24    2    1    2    0    0 -0.88256954193E+01  0.29504766400E+02  0.31404906178E+03  0.32442824768E+03  0.75355494492E+02 0.  0.
         13    1    4    4    0    0 -0.39243884556E+02  0.29813550675E+02  0.22474758623E+03  0.23008782626E+03  0.00000000000E+00 0. -1.
        -14    1    4    4    0    0  0.30418189137E+02 -0.30878427426E+00  0.89301475551E+02  0.94340421420E+02  0.00000000000E+00 0.  1.
        -13    1    3    3    0    0  0.11351995898E+02 -0.27059551131E+02  0.12485111808E+01  0.29370834146E+02  0.00000000000E+00 0.  1.
         13    1    3    3    0    0  0.56590722845E+02  0.36347942969E+02  0.11949495197E+03  0.13712303387E+03  0.00000000000E+00 0. -1.
         21    1    1    2  502  501 -0.59117023324E+02 -0.38793158238E+02 -0.12895590142E+03  0.14706922208E+03  0.00000000000E+00 0.  1.
<scales pt_clust_5="13000.00000" pt_clust_6="13000.00000" pt_clust_7="13000.00000" pt_clust_8="13000.00000" pt_clust_9="70.70878"></scales>
<clustering>
<clus scale="   70.709">  2  9  1 -1</clus>
<clus scale="   75.355">  5  6 -1 -1</clus>
<clus scale="   81.040">  1  5  2 -1</clus>
<clus scale="   91.863">  7  8 -1 -1</clus>
<clus scale="   81.040">  1  5  2 -1</clus>
</clustering>
</event>
<event>
 9    1  0.2333971E-005  0.1000826E+03  0.7546771E-02  0.1283328E+00
         -2   -1    0    0    0  501 -0.00000000000E+00  0.00000000000E+00  0.32613358086E+03  0.32613358086E+03  0.00000000000E+00 0.  1.
          1   -1    0    0  502    0  0.00000000000E+00 -0.00000000000E+00 -0.65728938919E+02  0.65728938919E+02  0.00000000000E+00 0. -1.
         23    2    1    2    0    0 -0.72010052933E+01  0.32872243720E+02  0.20827798035E+03  0.23020067332E+03  0.92087968883E+02 0.  0.
        -24    2    1    2    0    0 -0.16053201834E+02 -0.64924026612E+02  0.19577760965E+02  0.11040264370E+03  0.85630721654E+02 0.  0.
         13    1    4    4    0    0  0.32797732591E+02 -0.85048807435E+01  0.87296707313E+01  0.34989018430E+02  0.00000000000E+00 0. -1.
        -14    1    4    4    0    0 -0.48850934425E+02 -0.56419145868E+02  0.10848090234E+02  0.75413625270E+02  0.00000000000E+00 0.  1.
        -13    1    3    3    0    0  0.39790226710E+02  0.12686673404E+02  0.58098992495E+02  0.71552126122E+02  0.00000000000E+00 0. -1.
         13    1    3    3    0    0 -0.46991232003E+02  0.20185570315E+02  0.15017898786E+03  0.15864854720E+03  0.00000000000E+00 0.  1.
         21    1    1    2  502  501  0.23254207127E+02  0.32051782892E+02  0.32548900622E+02  0.51259202758E+02  0.00000000000E+00 0. -1.
<scales pt_clust_5="13000.00000" pt_clust_6="13000.00000" pt_clust_7="13000.00000" pt_clust_8="13000.00000" pt_clust_9="39.59893"></scales>
<clustering>
<clus scale="   39.599">  2  9  1 -1</clus>
<clus scale="   85.631">  5  6 -1 -1</clus>
<clus scale="   92.088">  7  8 -1 -1</clus>
<clus scale="   94.175">  2  5  1 -1</clus>
<clus scale="   39.599">  2  5  1 -1</clus>
</clustering>
</event>
<event>
 9    1  0.2333971E-005  0.9273282E+02  0.7546771E-02  0.1303171E+00
          1   -1    0    0  502    0  0.00000000000E+00  0.00000000000E+00  0.86649759642E+02  0.86649759642E+02  0.00000000000E+00 0. -1.
         -2   -1    0    0    0  501 -0.00000000000E+00 -0.00000000000E+00 -0.30088189325E+03  0.30088189325E+03  0.00000000000E+00 0.  1.
        -24    2    1    2    0    0  0.48850598028E+01 -0.72058687395E+01 -0.19162203342E+03  0.20795647005E+03  0.80318748677E+02 0.  0.
         23    2    1    2    0    0 -0.45992639169E+02  0.48215328395E+02  0.89430992789E+01  0.11349028851E+03  0.91433176753E+02 0.  0.
         11    1    3    3    0    0  0.33703833079E+02 -0.26074996398E+02 -0.13611712559E+03  0.14263143301E+03  0.00000000000E+00 0. -1.
        -12    1    3    3    0    0 -0.28818773276E+02  0.18869127658E+02 -0.55504907826E+02  0.65325037041E+02  0.00000000000E+00 0.  1.
        -11    1    4    4    0    0  0.21467939247E+02  0.11100470104E+02  0.25070834569E+02  0.34822975146E+02  0.00000000000E+00 0. -1.
         11    1    4    4    0    0 -0.67460578416E+02  0.37114858290E+02 -0.16127735290E+02  0.78667313363E+02  0.00000000000E+00 0.  1.
         21    1    1    2  502  501  0.41107579366E+02 -0.41009459655E+02 -0.31553199466E+02  0.66084894334E+02  0.00000000000E+00 0. -1.
<scales pt_clust_5="13000.00000" pt_clust_6="13000.00000" pt_clust_7="13000.00000" pt_clust_8="13000.00000" pt_clust_9="58.06556"></scales>
<clustering>
<clus scale="   58.066">  1  9  2 -1</clus>
<clus scale="   80.319">  5  6 -1 -1</clus>
<clus scale="   81.795">  2  5  1 -1</clus>
<clus scale="   91.433">  7  8 -1 -1</clus>
<clus scale="   58.066">  1  5  2 -1</clus>
</clustering>
</event>
<event>
 9    1  0.2333971E-005  0.1164512E+03  0.7546771E-02  0.1256673E+00
         -2   -1    0    0    0  501 -0.00000000000E+00  0.00000000000E+00  0.41078597353E+02  0.41078597353E+02  0.00000000000E+00 0.  1.
          1   -1    0    0  502    0  0.00000000000E+00 -0.00000000000E+00 -0.66475697093E+03  0.66475697093E+03  0.00000000000E+00 0. -1.
        -24    2    1    2    0    0 -0.33087186224E+02  0.72189837387E+02 -0.70454775022E+02  0.12904584883E+03  0.73367712674E+02 0.  0.
         23    2    1    2    0    0  0.48337547227E+02 -0.45875752819E+02 -0.51565617962E+03  0.52845427156E+03  0.94453789658E+02 0.  0.
         13    1    3    3    0    0 -0.36714568176E+02  0.18454312838E+02 -0.62216674009E+02  0.74561623530E+02  0.00000000000E+00 0. -1.
        -14    1    3    3    0    0  0.36273819523E+01  0.53735524549E+02 -0.82381010135E+01  0.54484225302E+02  0.00000000000E+00 0.  1.
        -11    1    4    4    0    0 -0.98902862578E+01 -0.54539915010E+02 -0.21076778016E+03  0.21793457102E+03  0.00000000000E+00 0.  1.
         11    1    4    4    0    0  0.58227833485E+02  0.86641621910E+01 -0.30488839945E+03  0.31051970054E+03  0.00000000000E+00 0. -1.
         21    1    1    2  502  501 -0.15250361003E+02 -0.26314084568E+02 -0.37567418932E+02  0.48335447889E+02  0.00000000000E+00 0. -1.
<scales pt_clust_5="13000.00000" pt_clust_6="13000.00000" pt_clust_7="13000.00000" pt_clust_8="13000.00000" pt_clust_9="30.41389"></scales>
<clustering>
<clus scale="   30.414">  1  9  2 -1</clus>
<clus scale="   73.368">  5  6 -1 -1</clus>
<clus scale="   94.454">  7  8 -1 -1</clus>
<clus scale="  100.111">  1  5  2 -1</clus>
<clus scale="  116.451">  2  5  1 -1</clus>
</clustering>
</event>
<event>
 9    1  0.2333971E-005  0.1031329E+03  0.7546771E-02  0.1278253E+00
         -2   -1    0    0    0  501 -0.00000000000E+00  0.00000000000E+00  0.37362450388E+02  0.37362450388E+02  0.00000000000E+00 0.  1.
          1   -1    0    0  502    0  0.00000000000E+00 -0.00000000000E+00 -0.50238563528E+03  0.50238563528E+03  0.00000000000E+00 0. -1.
        -24    2    1    2    0    0 -0.18278945609E+02  0.33314906083E+02 -0.55795067498E+02  0.10503925446E+03  0.80474546290E+02 0.  0.
         23    2    1    2    0    0  0.26684100729E+01 -0.54401074670E+02 -0.38445692286E+03  0.39862660006E+03  0.90163426125E+02 0.  0.
         13    1    3    3    0    0  0.98041641095E+01 -0.17839450111E+02 -0.39522815595E+02  0.44456951838E+02  0.00000000000E+00 0. -1.
        -14    1    3    3    0    0 -0.28083109718E+02  0.51154356194E+02 -0.16272251903E+02  0.60582302623E+02  0.00000000000E+00 0.  1.
        -11    1    4    4    0    0 -0.37719312078E+02 -0.50742378401E+02 -0.26635044106E+03  0.27375188204E+03  0.00000000000E+00 0.  1.
         11    1    4    4    0    0  0.40387722151E+02 -0.36586962691E+01 -0.11810648180E+03  0.12487471802E+03  0.00000000000E+00 0. -1.
         21    1    1    2  502  501  0.15610535536E+02  0.21086168586E+02 -0.24771194539E+02  0.36082231143E+02  0.00000000000E+00 0. -1.
<scales pt_clust_5="13000.00000" pt_clust_6="13000.00000" pt_clust_7="13000.00000" pt_clust_8="13000.00000" pt_clust_9="26.23576"></scales>
<clustering>
<clus scale="   26.236">  1  9  2 -1</clus>
<clus scale="   80.475">  5  6 -1 -1</clus>
<clus scale="   90.163">  7  8 -1 -1</clus>
<clus scale="   94.779">  1  5  2 -1</clus>
<clus scale="  103.133">  2  5  1 -1</clus>
</clustering>
</event>
<event>
 9    1  0.2333971E-005  0.1126373E+03  0.7546771E-02  0.1260565E+00
          1   -1    0    0  502    0  0.00000000000E+00  0.00000000000E+00  0.28339787010E+03  0.28339787010E+03  0.00000000000E+00 0. -1.
         -2   -1    0    0    0  501 -0.00000000000E+00 -0.00000000000E+00 -0.13879498112E+03  0.13879498112E+03  0.00000000000E+00 0.  1.
        -24    2    1    2    0    0 -0.50374679061E+02 -0.25992235299E+02 -0.80372822781E+02  0.12605154276E+03  0.78841589300E+02 0.  0.
         23    2    1    2    0    0  0.65905332074E+02  0.10966072151E+02  0.24288810984E+03  0.26807280714E+03  0.91676760910E+02 0.  0.
         11    1    3    3    0    0  0.20388188657E+02 -0.15400781369E+02 -0.20813218464E+02  0.32955308621E+02  0.00000000000E+00 0. -1.
        -12    1    3    3    0    0 -0.70762867717E+02 -0.10591453930E+02 -0.59559604317E+02  0.93096234136E+02  0.00000000000E+00 0.  1.
        -13    1    4    4    0    0  0.62451201134E+02  0.45932702388E+02  0.18104862242E+03  0.19694813874E+03  0.00000000000E+00 0. -1.
         13    1    4    4    0    0  0.34541309398E+01 -0.34966630238E+02  0.61839487415E+02  0.71124668396E+02  0.00000000000E+00 0.  1.
         21    1    1    2  502  501 -0.15530653013E+02  0.15026163149E+02 -0.17912398076E+02  0.28068501329E+02  0.00000000000E+00 0.  1.
<scales pt_clust_5="13000.00000" pt_clust_6="13000.00000" pt_clust_7="13000.00000" pt_clust_8="13000.00000" pt_clust_9="21.60988"></scales>
<clustering>
<clus scale="   21.610">  2  9  1 -1</clus>
<clus scale="   78.842">  5  6 -1 -1</clus>
<clus scale="   91.677">  7  8 -1 -1</clus>
<clus scale="  102.462">  2  5  1 -1</clus>
<clus scale="  112.637">  1  5  2 -1</clus>
</clustering>
</event>
<event>
 9    1  0.2333971E-005  0.1443535E+03  0.7546771E-02  0.1209728E+00
         -2   -1    0    0    0  501 -0.00000000000E+00  0.00000000000E+00  0.30967347384E+03  0.30967347384E+03  0.00000000000E+00 0.  1.
          1   -1    0    0  502    0  0.00000000000E+00 -0.00000000000E+00 -0.22545904302E+03  0.22545904302E+03  0.00000000000E+00 0. -1.
        -24    2    1    2    0    0  0.82774611883E+02  0.99423296104E+02  0.16081223284E+03  0.22154281516E+03  0.80523391227E+02 0.  0.
         23    2    1    2    0    0 -0.63034026292E+02 -0.89659175812E+02 -0.16756490213E+03  0.21999460533E+03  0.91145892247E+02 0.  0.
         11    1    3    3    0    0  0.63699412102E+01  0.52043343501E+02  0.23593579535E+02  0.57495588953E+02  0.00000000000E+00 0. -1.
        -12    1    3    3    0    0  0.76404670672E+02  0.47379952604E+02  0.13721865331E+03  0.16404722620E+03  0.00000000000E+00 0.  1.
        -13    1    4    4    0    0 -0.70232562251E+02 -0.50972821624E+02 -0.15677697877E+03  0.17919224988E+03  0.00000000000E+00 0. -1.
         13    1    4    4    0    0  0.71985359587E+01 -0.38686354188E+02 -0.10787923357E+02  0.40802355455E+02  0.00000000000E+00 0.  1.
         21    1    1    2  502  501 -0.19740585591E+02 -0.97641202925E+01  0.90967100096E+02  0.93595096370E+02  0.00000000000E+00 0. -1.
<scales pt_clust_5="13000.00000" pt_clust_6="13000.00000" pt_clust_7="13000.00000" pt_clust_8="13000.00000" pt_clust_9="22.02337"></scales>
<clustering>
<clus scale="   22.023">  1  9  2 -1</clus>
<clus scale="   80.523">  5  6 -1 -1</clus>
<clus scale="   91.146">  7  8 -1 -1</clus>
<clus scale="  137.893">  1  5  2 -1</clus>
<clus scale="  144.353">  2  5  1 -1</clus>
</clustering>
</event>
<event>
 9    1  0.2333971E-005  0.1174144E+03  0.7546771E-02  0.1250889E+00
         -2   -1    0    0    0  501 -0.00000000000E+00  0.00000000000E+00  0.20904177839E+03  0.20904177839E+03  0.00000000000E+00 0.  1.
          1   -1    0    0  502    0  0.00000000000E+00 -0.00000000000E+00 -0.28210645076E+03  0.28210645076E+03  0.00000000000E+00 0. -1.
        -24    2    1    2    0    0 -0.11435088874E+03  0.49767541328E+01  0.14863238787E+03  0.20363467097E+03  0.79212364309E+02 0.  0.
         23    2    1    2    0    0  0.72356142074E+02 -0.45918341198E+01 -0.21632100475E+03  0.24517434606E+03  0.89772972734E+02 0.  0.
         13    1    3    3    0    0 -0.48740976934E+02  0.49400141198E+01  0.96329323711E+01  0.49928748814E+02  0.00000000000E+00 0. -1.
        -14    1    3    3    0    0 -0.65609911806E+02  0.36740013001E-01  0.13899945549E+03  0.15370592215E+03  0.00000000000E+00 0.  1.
        -11    1    4    4    0    0  0.54675032369E+02  0.30596438393E+02 -0.18352741250E+03  0.19392733780E+03  0.00000000000E+00 0.  1.
         11    1    4    4    0    0  0.17681109705E+02 -0.35188272513E+02 -0.32793592243E+02  0.51247008255E+02  0.00000000000E+00 0. -1.
         21    1    1    2  502  501  0.41994746666E+02 -0.38492001300E+00 -0.53760554902E+01  0.42339212128E+02  0.00000000000E+00 0.  1.
<scales pt_clust_5="13000.00000" pt_clust_6="13000.00000" pt_clust_7="13000.00000" pt_clust_8="13000.00000" pt_clust_9="41.99651"></scales>
<clustering>
<clus scale="   41.997">  1  9  2 -1</clus>
<clus scale="   79.212">  5  6 -1 -1</clus>
<clus scale="   89.773">  7  8 -1 -1</clus>
<clus scale="  109.552">  1  5  2 -1</clus>
<clus scale="  117.414">  2  5  1 -1</clus>
</clustering>
</event>
<event>
 9    1  0.2333971E-005  0.1090747E+03  0.7546771E-02  0.1266346E+00
          3   -1    0    0  502    0  0.00000000000E+00  0.00000000000E+00  0.27517407458E+03  0.27517407458E+03  0.00000000000E+00 0. -1.
         -4   -1    0    0    0  501 -0.00000000000E+00 -0.00000000000E+00 -0.18502593179E+03  0.18502593179E+03  0.00000000000E+00 0.  1.
        -24    2    1    2    0    0 -0.38202875204E+02 -0.70955940786E+01 -0.87965910905E+02  0.12575173851E+03  0.81028952399E+02 0.  0.
         23    2    1    2    0    0  0.62359394119E+02 -0.16340076009E+01  0.24177194277E+03  0.26580374738E+03  0.91140527742E+02 0.  0.
         13    1    3    3    0    0 -0.11480191886E+02  0.24590783135E+02  0.14689651465E+01  0.27178286914E+02  0.00000000000E+00 0. -1.
        -14    1    3    3    0    0 -0.26722683318E+02 -0.31686377214E+02 -0.89434876051E+02  0.98573451593E+02  0.00000000000E+00 0.  1.
        -13    1    4    4    0    0  0.62394383450E+02 -0.35509012011E+02  0.19691004150E+03  0.20958891541E+03  0.00000000000E+00 0. -1.
         13    1    4    4    0    0 -0.34989331282E-01  0.33875004411E+02  0.44861901267E+02  0.56214831970E+02  0.00000000000E+00 0.  1.
         21    1    1    2  502  501 -0.24156518915E+02  0.87296016795E+01 -0.63657889075E+02  0.68644520488E+02  0.00000000000E+00 0. -1.
<scales pt_clust_5="13000.00000" pt_clust_6="13000.00000" pt_clust_7="13000.00000" pt_clust_8="13000.00000" pt_clust_9="25.68547"></scales>
<clustering>
<clus scale="   25.685">  2  9  1 -1</clus>
<clus scale="   81.029">  5  6 -1 -1</clus>
<clus scale="   91.141">  7  8 -1 -1</clus>
<clus scale="  100.779">  2  5  1 -1</clus>
<clus scale="  109.075">  1  5  2 -1</clus>
</clustering>
</event>
<event>
 9    1  0.2333971E-005  0.1340131E+03  0.7546771E-02  0.1224185E+00
          1   -1    0    0  502    0  0.00000000000E+00  0.00000000000E+00  0.81178033587E+02  0.81178033587E+02  0.00000000000E+00 0. -1.
         -2   -1    0    0    0  501 -0.00000000000E+00 -0.00000000000E+00 -0.33042544585E+03  0.33042544585E+03  0.00000000000E+00 0.  1.
         23    2    1    2    0    0  0.46316451968E+02  0.95648861752E+02 -0.85810388234E+02  0.16407698327E+03  0.90906079180E+02 0.  0.
        -24    2    1    2    0    0 -0.53799359747E+02 -0.76204010875E+02 -0.51031242199E+02  0.13320608713E+03  0.80238716247E+02 0.  0.
         13    1    4    4    0    0 -0.60432938877E+02 -0.88782373613E+02 -0.38014822988E+02  0.11392794535E+03  0.00000000000E+00 0. -1.
        -14    1    4    4    0    0  0.66335791291E+01  0.12578362738E+02 -0.13016419210E+02  0.19278141775E+02  0.00000000000E+00 0.  1.
        -11    1    3    3    0    0  0.32512878023E+02  0.14072755571E+02 -0.71934939410E+02  0.80185816668E+02  0.00000000000E+00 0.  1.
         11    1    3    3    0    0  0.13803573944E+02  0.81576106181E+02 -0.13875448824E+02  0.83891166599E+02  0.00000000000E+00 0. -1.
         21    1    1    2  502  501  0.74829077799E+01 -0.19444850877E+02 -0.11240578183E+03  0.11432040904E+03  0.00000000000E+00 0.  1.
<scales pt_clust_5="13000.00000" pt_clust_6="13000.00000" pt_clust_7="13000.00000" pt_clust_8="13000.00000" pt_clust_9="20.83497"></scales>
<clustering>
<clus scale="   20.835">  2  9  1 -1</clus>
<clus scale="   80.239">  5  6 -1 -1</clus>
<clus scale="   90.906">  7  8 -1 -1</clus>
<clus scale="  127.019">  1  5  2 -1</clus>
<clus scale="  127.019">  1  5  2 -1</clus>
</clustering>
</event>
<event>
 9    1  0.2333971E-005  0.1714099E+03  0.7546771E-02  0.1177903E+00
          3   -1    0    0  502    0  0.00000000000E+00  0.00000000000E+00  0.28034172881E+02  0.28034172881E+02  0.00000000000E+00 0. -1.
         -4   -1    0    0    0  501 -0.00000000000E+00 -0.00000000000E+00 -0.17050462960E+04  0.17050462960E+04  0.00000000000E+00 0.  1.
        -24    2    1    2    0    0 -0.19823200262E+02  0.16969482936E+03 -0.95117845065E+03  0.96970290183E+03  0.79962356509E+02 0.  0.
         23    2    1    2    0    0 -0.86217143117E+01 -0.13520159612E+03 -0.36645691585E+03  0.40123042914E+03  0.91331158632E+02 0.  0.
         11    1    3    3    0    0  0.88355325622E+01  0.79754696608E+02 -0.25978875762E+03  0.27189901959E+03  0.00000000000E+00 0. -1.
        -12    1    3    3    0    0 -0.28658732824E+02  0.89940132748E+02 -0.69138969303E+03  0.69780388224E+03  0.00000000000E+00 0.  1.
        -11    1    4    4    0    0  0.22858521437E+02 -0.12601931014E+03 -0.25993025170E+03  0.28977079611E+03  0.00000000000E+00 0. -1.
         11    1    4    4    0    0 -0.31480235749E+02 -0.91822859840E+01 -0.10652666416E+03  0.11145963303E+03  0.00000000000E+00 0.  1.
         21    1    1    2  502  501  0.28444914573E+02 -0.34493233236E+02 -0.35937675663E+03  0.36214713793E+03  0.00000000000E+00 0. -1.
<scales pt_clust_5="13000.00000" pt_clust_6="13000.00000" pt_clust_7="13000.00000" pt_clust_8="13000.00000" pt_clust_9="44.70902"></scales>
<clustering>
<clus scale="   44.709">  2  9  1 -1</clus>
<clus scale="   79.962">  5  6 -1 -1</clus>
<clus scale="   91.331">  7  8 -1 -1</clus>
<clus scale="  165.632">  2  5  1 -1</clus>
<clus scale="  171.410">  1  5  2 -1</clus>
</clustering>
</event>
<event>
 9    1  0.2333971E-005  0.1296783E+03  0.7546771E-02  0.1231101E+00
         -2   -1    0    0    0  501 -0.00000000000E+00  0.00000000000E+00  0.34701787129E+02  0.34701787129E+02  0.00000000000E+00 0.  1.
          1   -1    0    0  502    0  0.00000000000E+00 -0.00000000000E+00 -0.61683691194E+03  0.61683691194E+03  0.00000000000E+00 0. -1.
         23    2    1    2    0    0 -0.16118178787E+02 -0.72025660226E+02 -0.19984815681E+03  0.23192434078E+03  0.91663093144E+02 0.  0.
        -24    2    1    2    0    0  0.32057286216E+01  0.10730471869E+03 -0.32122803854E+03  0.34792379963E+03  0.79617449426E+02 0.  0.
         13    1    4    4    0    0  0.25936653145E+02  0.62290041197E+02 -0.25994750305E+03  0.26856184306E+03  0.00000000000E+00 0. -1.
        -14    1    4    4    0    0 -0.22730924523E+02  0.45014677492E+02 -0.61280535497E+02  0.79361956567E+02  0.00000000000E+00 0.  1.
        -13    1    3    3    0    0 -0.31306857567E+02 -0.44419834293E+02 -0.19187571601E+03  0.19942299618E+03  0.00000000000E+00 0.  1.
         13    1    3    3    0    0  0.15188678780E+02 -0.27605825933E+02 -0.79724408032E+01  0.32501344601E+02  0.00000000000E+00 0. -1.
         21    1    1    2  502  501  0.12912450165E+02 -0.35279058463E+02 -0.61058929452E+02  0.71690558661E+02  0.00000000000E+00 0.  1.
<scales pt_clust_5="13000.00000" pt_clust_6="13000.00000" pt_clust_7="13000.00000" pt_clust_8="13000.00000" pt_clust_9="37.56785"></scales>
<clustering>
<clus scale="   37.568">  1  9  2 -1</clus>
<clus scale="   79.617">  5  6 -1 -1</clus>
<clus scale="   91.663">  7  8 -1 -1</clus>
<clus scale="  121.463">  2  5  1 -1</clus>
<clus scale="  121.463">  2  5  1 -1</clus>
</clustering>
</event>
<event>
 9    1  0.2333971E-005  0.2445080E+03  0.7546771E-02  0.1117564E+00
         -2   -1    0    0    0  501 -0.00000000000E+00  0.00000000000E+00  0.47016322040E+03  0.47016322040E+03  0.00000000000E+00 0.  1.
          1   -1    0    0  502    0  0.00000000000E+00 -0.00000000000E+00 -0.21677515184E+03  0.21677515184E+03  0.00000000000E+00 0. -1.
        -24    2    1    2    0    0  0.18684479318E+03  0.13048475113E+03  0.27569883497E+03  0.36647488998E+03  0.79729231578E+02 0.  0.
         23    2    1    2    0    0 -0.17170816318E+03 -0.14726651054E+03 -0.81120658291E+02  0.25746071724E+03  0.92381498645E+02 0.  0.
         11    1    3    3    0    0  0.60250476506E+02  0.25727964598E+02  0.13537451169E+03  0.15039383796E+03  0.00000000000E+00 0. -1.
        -12    1    3    3    0    0  0.12659431668E+03  0.10475678653E+03  0.14032432328E+03  0.21608105202E+03  0.00000000000E+00 0.  1.
        -13    1    4    4    0    0 -0.15874372022E+03 -0.10025534762E+03 -0.36305114147E+02  0.19122961263E+03  0.00000000000E+00 0. -1.
         13    1    4    4    0    0 -0.12964442961E+02 -0.47011162926E+02 -0.44815544145E+02  0.66231104610E+02  0.00000000000E+00 0.  1.
         21    1    1    2  502  501 -0.15136630004E+02  0.16781759411E+02  0.58809891879E+02  0.63002765015E+02  0.00000000000E+00 0. -1.
<scales pt_clust_5="13000.00000" pt_clust_6="13000.00000" pt_clust_7="13000.00000" pt_clust_8="13000.00000" pt_clust_9="22.59967"></scales>
<clustering>
<clus scale="   22.600">  1  9  2 -1</clus>
<clus scale="   79.729">  5  6 -1 -1</clus>
<clus scale="   92.381">  7  8 -1 -1</clus>
<clus scale="  240.014">  1  5  2 -1</clus>
<clus scale="  244.508">  2  5  1 -1</clus>
</clustering>
</event>
<event>
 9    1  0.2333971E-005  0.1886369E+03  0.7546771E-02  0.1160161E+00
          1   -1    0    0  502    0  0.00000000000E+00  0.00000000000E+00  0.26720731467E+03  0.26720731467E+03  0.00000000000E+00 0. -1.
         -2   -1    0    0    0  501 -0.00000000000E+00 -0.00000000000E+00 -0.23979906405E+03  0.23979906405E+03  0.00000000000E+00 0.  1.
         23    2    1    2    0    0 -0.86014663031E+02 -0.12189035440E+03  0.15239396182E+02  0.17636719100E+03  0.92829769541E+02 0.  0.
        -24    2    1    2    0    0  0.88081420208E+02  0.15130492720E+03  0.11241214255E+03  0.22614897100E+03  0.88630410766E+02 0.  0.
         13    1    4    4    0    0  0.86339490494E+02  0.12282796562E+03  0.12461790288E+03  0.19511749915E+03  0.00000000000E+00 0. -1.
        -14    1    4    4    0    0  0.17419297132E+01  0.28476961584E+02 -0.12205760330E+02  0.31031471854E+02  0.00000000000E+00 0.  1.
        -13    1    3    3    0    0 -0.60564931656E+02 -0.13048278965E+03  0.28121884268E+02  0.14657663428E+03  0.00000000000E+00 0. -1.
         13    1    3    3    0    0 -0.25449731375E+02  0.85924352498E+01 -0.12882488086E+02  0.29790556723E+02  0.00000000000E+00 0.  1.
         21    1    1    2  502  501 -0.20667571766E+01 -0.29414572800E+02 -0.10024328812E+03  0.10449021672E+03  0.00000000000E+00 0.  1.
<scales pt_clust_5="13000.00000" pt_clust_6="13000.00000" pt_clust_7="13000.00000" pt_clust_8="13000.00000" pt_clust_9="29.48709"></scales>
<clustering>
<clus scale="   29.487">  2  9  1 -1</clus>
<clus scale="   88.630">  5  6 -1 -1</clus>
<clus scale="   92.830">  7  8 -1 -1</clus>
<clus scale="  186.606">  1  5  2 -1</clus>
<clus scale="  186.606">  1  5  2 -1</clus>
</clustering>
</event>
<event>
 9    1  0.2333971E-005  0.1282064E+03  0.7546771E-02  0.1232001E+00
          1   -1    0    0  502    0  0.00000000000E+00  0.00000000000E+00  0.20587059333E+03  0.20587059333E+03  0.00000000000E+00 0. -1.
         -2   -1    0    0    0  501 -0.00000000000E+00 -0.00000000000E+00 -0.13043169226E+03  0.13043169226E+03  0.00000000000E+00 0.  1.
         23    2    1    2    0    0 -0.81969571004E+02  0.23074476292E+02  0.90136025081E+01  0.12400376529E+03  0.89689724877E+02 0.  0.
        -24    2    1    2    0    0  0.96908874272E+02  0.13793762273E+02  0.98172045164E+02  0.16140347421E+03  0.82654299624E+02 0.  0.
         11    1    4    4    0    0  0.43753212606E+02  0.29327423186E+02  0.91561843613E+02  0.10563149421E+03  0.00000000000E+00 0. -1.
        -12    1    4    4    0    0  0.53155661666E+02 -0.15533660913E+02  0.66102015502E+01  0.55771979999E+02  0.00000000000E+00 0.  1.
        -13    1    3    3    0    0  0.22648296454E+01  0.38049220336E+02  0.32422528061E+01  0.38254213164E+02  0.00000000000E+00 0. -1.
         13    1    3    3    0    0 -0.84234400650E+02 -0.14974744044E+02  0.57713497020E+01  0.85749552124E+02  0.00000000000E+00 0.  1.
         21    1    1    2  502  501 -0.14939303268E+02 -0.36868238565E+02 -0.31746746604E+02  0.50895046094E+02  0.00000000000E+00 0.  1.
<scales pt_clust_5="13000.00000" pt_clust_6="13000.00000" pt_clust_7="13000.00000" pt_clust_8="13000.00000" pt_clust_9="39.78002"></scales>
<clustering>
<clus scale="   39.780">  2  9  1 -1</clus>
<clus scale="   82.654">  5  6 -1 -1</clus>
<clus scale="   89.690">  7  8 -1 -1</clus>
<clus scale="  123.387">  1  5  2 -1</clus>
<clus scale="  123.387">  1  5  2 -1</clus>
</clustering>
</event>
<event>
 9    1  0.2333971E-005  0.9332330E+02  0.7546771E-02  0.1300054E+00
          1   -1    0    0  502    0  0.00000000000E+00  0.00000000000E+00  0.37490918475E+03  0.37490918475E+03  0.00000000000E+00 0. -1.
         -2   -1    0    0    0  501 -0.00000000000E+00 -0.00000000000E+00 -0.14781854678E+03  0.14781854678E+03  0.00000000000E+00 0.  1.
        -24    2    1    2    0    0 -0.40180358829E+02 -0.19665311607E+02 -0.16466648668E+02  0.93699528372E+02  0.80667622889E+02 0.  0.
         23    2    1    2    0    0 -0.24326614178E+02  0.20681422545E+02  0.31721167732E+03  0.33111420356E+03  0.89408401032E+02 0.  0.
         13    1    3    3    0    0 -0.62107998855E+02 -0.16171667764E+01 -0.28252227140E+01  0.62193252315E+02  0.00000000000E+00 0. -1.
        -14    1    3    3    0    0  0.21927640026E+02 -0.18048144830E+02 -0.13641425954E+02  0.31506276057E+02  0.00000000000E+00 0.  1.
        -13    1    4    4    0    0  0.26100109490E+02 -0.13673147074E+02  0.15564921414E+03  0.15841353644E+03  0.00000000000E+00 0.  1.
         13    1    4    4    0    0 -0.50426723668E+02  0.34354569619E+02  0.16156246319E+03  0.17270066712E+03  0.00000000000E+00 0. -1.
         21    1    1    2  502  501  0.64506973008E+02 -0.10161109388E+01 -0.73654390685E+02  0.97913999587E+02  0.00000000000E+00 0.  1.
<scales pt_clust_5="13000.00000" pt_clust_6="13000.00000" pt_clust_7="13000.00000" pt_clust_8="13000.00000" pt_clust_9="64.51498"></scales>
<clustering>
<clus scale="   64.515">  2  9  1 -1</clus>
<clus scale="   80.668">  5  6 -1 -1</clus>
<clus scale="   84.986">  2  5  1 -1</clus>
<clus scale="   89.408">  7  8 -1 -1</clus>
<clus scale="   93.323">  1  5  2 -1</clus>
</clustering>
</event>
<event>
 9    1  0.2333971E-005  0.1419363E+03  0.7546771E-02  0.1212589E+00
          1   -1    0    0  502    0  0.00000000000E+00  0.00000000000E+00  0.20947402954E+03  0.20947402954E+03  0.00000000000E+00 0. -1.
         -2   -1    0    0    0  501 -0.00000000000E+00 -0.00000000000E+00 -0.14683376194E+03  0.14683376194E+03  0.00000000000E+00 0.  1.
         23    2    1    2    0    0 -0.98671284248E+02 -0.66156686246E+02 -0.18142850997E+02  0.15054310533E+03  0.90671572442E+02 0.  0.
        -24    2    1    2    0    0  0.46867709005E+02  0.90929435366E+02  0.64749842573E+02  0.14614618696E+03  0.81862210364E+02 0.  0.
         13    1    4    4    0    0  0.31458822318E+02 -0.65655672706E+01  0.19226951068E+02  0.37449163176E+02  0.00000000000E+00 0. -1.
        -14    1    4    4    0    0  0.15408886687E+02  0.97495002636E+02  0.45522891506E+02  0.10869702378E+03  0.00000000000E+00 0.  1.
        -13    1    3    3    0    0 -0.44278106573E+02  0.16165905892E+02 -0.21517962058E+02  0.51816116471E+02  0.00000000000E+00 0.  1.
         13    1    3    3    0    0 -0.54393177675E+02 -0.82322592139E+02  0.33751110604E+01  0.98726988856E+02  0.00000000000E+00 0. -1.
         21    1    1    2  502  501  0.51803575243E+02 -0.24772749120E+02  0.16033276020E+02  0.59618499200E+02  0.00000000000E+00 0.  1.
<scales pt_clust_5="13000.00000" pt_clust_6="13000.00000" pt_clust_7="13000.00000" pt_clust_8="13000.00000" pt_clust_9="57.42212"></scales>
<clustering>
<clus scale="   57.422">  1  9  2 -1</clus>
<clus scale="   81.862">  5  6 -1 -1</clus>
<clus scale="   90.672">  7  8 -1 -1</clus>
<clus scale="  136.477">  1  5  2 -1</clus>
<clus scale="   57.422">  1  5  2 -1</clus>
</clustering>
</event>
<event>
 9    1  0.2333971E-005  0.1770480E+03  0.7546771E-02  0.1172089E+00
         -2   -1    0    0    0  501 -0.00000000000E+00  0.00000000000E+00  0.58454676456E+02  0.58454676456E+02  0.00000000000E+00 0.  1.
          1   -1    0    0  502    0  0.00000000000E+00 -0.00000000000E+00 -0.95862120687E+03  0.95862120687E+03  0.00000000000E+00 0. -1.
         23    2    1    2    0    0  0.12885340495E+03 -0.56230673428E+02 -0.12883717085E+03  0.20253227838E+03  0.68229162325E+02 0.  0.
        -24    2    1    2    0    0 -0.14524231574E+03  0.72093265488E+02 -0.77067759307E+03  0.79172600157E+03  0.81199383580E+02 0.  0.
         11    1    4    4    0    0 -0.14722519569E+03  0.83600077742E+02 -0.70722057052E+03  0.72720366240E+03  0.00000000000E+00 0. -1.
        -12    1    4    4    0    0  0.19828799444E+01 -0.11506812253E+02 -0.63457022552E+02  0.64522339172E+02  0.00000000000E+00 0.  1.
        -13    1    3    3    0    0  0.27924016694E+02 -0.72825809893E+01  0.34789303590E+01  0.29066985579E+02  0.00000000000E+00 0.  1.
         13    1    3    3    0    0  0.10092938826E+03 -0.48948092439E+02 -0.13231610121E+03  0.17346529280E+03  0.00000000000E+00 0. -1.
         21    1    1    2  502  501  0.16388910790E+02 -0.15862592060E+02 -0.65176648366E+00  0.22817603365E+02  0.00000000000E+00 0.  1.
<scales pt_clust_5="13000.00000" pt_clust_6="13000.00000" pt_clust_7="13000.00000" pt_clust_8="13000.00000" pt_clust_9="22.80829"></scales>
<clustering>
<clus scale="   22.808">  1  9  2 -1</clus>
<clus scale="   68.229">  7  8 -1 -1</clus>
<clus scale="   81.199">  5  6 -1 -1</clus>
<clus scale="  171.487">  1  7  2 -1</clus>
<clus scale="  177.048">  2  5  1 -1</clus>
</clustering>
</event>
<event>
 9    1  0.2333971E-005  0.1214144E+03  0.7546771E-02  0.1243470E+00
          1   -1    0    0  502    0  0.00000000000E+00  0.00000000000E+00  0.55806450565E+03  0.55806450565E+03  0.00000000000E+00 0. -1.
         -2   -1    0    0    0  501 -0.00000000000E+00 -0.00000000000E+00 -0.27306189985E+03  0.27306189985E+03  0.00000000000E+00 0.  1.
         23    2    1    2    0    0  0.86476083031E+01  0.26464399738E+02 -0.14183944569E+03  0.17078578023E+03  0.90962678024E+02 0.  0.
        -24    2    1    2    0    0 -0.34283184466E+02 -0.75096682684E+02  0.53042920515E+03  0.54306923015E+03  0.82183931367E+02 0.  0.
         13    1    4    4    0    0 -0.56862701426E+02 -0.46987364291E+02  0.43182491362E+03  0.43807982748E+03  0.00000000000E+00 0. -1.
        -14    1    4    4    0    0  0.22579516960E+02 -0.28109318392E+02  0.98604291523E+02  0.10498940267E+03  0.00000000000E+00 0.  1.
        -13    1    3    3    0    0  0.29019460761E+02  0.43945198990E+02 -0.13213333531E+03  0.14224109082E+03  0.00000000000E+00 0.  1.
         13    1    3    3    0    0 -0.20371852458E+02 -0.17480799253E+02 -0.97061103803E+01  0.28544689415E+02  0.00000000000E+00 0. -1.
         21    1    1    2  502  501  0.25635576163E+02  0.48632282946E+02 -0.10358715366E+03  0.11727139512E+03  0.00000000000E+00 0.  1.
<scales pt_clust_5="13000.00000" pt_clust_6="13000.00000" pt_clust_7="13000.00000" pt_clust_8="13000.00000" pt_clust_9="54.97528"></scales>
<clustering>
<clus scale="   54.975">  2  9  1 -1</clus>
<clus scale="   82.184">  5  6 -1 -1</clus>
<clus scale="   90.963">  7  8 -1 -1</clus>
<clus scale="  114.985">  1  5  2 -1</clus>
<clus scale="  114.985">  1  5  2 -1</clus>
</clustering>
</event>
<event>
 9    1  0.2333971E-005  0.1268838E+03  0.7546771E-02  0.1235605E+00
         -2   -1    0    0    0  501 -0.00000000000E+00  0.00000000000E+00  0.30272615032E+03  0.30272615032E+03  0.00000000000E+00 0.  1.
          1   -1    0    0  502    0  0.00000000000E+00 -0.00000000000E+00 -0.43334699516E+03  0.43334699516E+03  0.00000000000E+00 0. -1.
        -24    2    1    2    0    0 -0.73889232054E+02  0.47252573536E+02 -0.91501421809E+01  0.11905615512E+03  0.79988865785E+02 0.  0.
         23    2    1    2    0    0  0.50358536016E+02 -0.72200800387E+02 -0.35694681171E+03  0.37905668778E+03  0.92325556793E+02 0.  0.
         13    1    3    3    0    0 -0.18530251511E+02 -0.17224620943E+02  0.16599383452E+02  0.30258838687E+02  0.00000000000E+00 0. -1.
        -14    1    3    3    0    0 -0.55358980542E+02  0.64477194479E+02 -0.25749525633E+02  0.88797316428E+02  0.00000000000E+00 0.  1.
        -11    1    4    4    0    0  0.66047136699E+02 -0.53008649021E+02 -0.33628919629E+03  0.34678893391E+03  0.00000000000E+00 0. -1.
         11    1    4    4    0    0 -0.15688600683E+02 -0.19192151366E+02 -0.20657615415E+02  0.32267753874E+02  0.00000000000E+00 0.  1.
         21    1    1    2  502  501  0.23530696038E+02  0.24948226851E+02  0.23547610905E+03  0.23796030259E+03  0.00000000000E+00 0.  1.
<scales pt_clust_5="13000.00000" pt_clust_6="13000.00000" pt_clust_7="13000.00000" pt_clust_8="13000.00000" pt_clust_9="34.29443"></scales>
<clustering>
<clus scale="   34.294">  1  9  2 -1</clus>
<clus scale="   79.989">  5  6 -1 -1</clus>
<clus scale="   92.326">  7  8 -1 -1</clus>
<clus scale="  118.210">  1  5  2 -1</clus>
<clus scale="  126.884">  2  5  1 -1</clus>
</clustering>
</event>
<event>
 9    1  0.2333971E-005  0.1555881E+03  0.7546771E-02  0.1195581E+00
          1   -1    0    0  502    0  0.00000000000E+00  0.00000000000E+00  0.57854660965E+03  0.57854660965E+03  0.00000000000E+00 0. -1.
         -2   -1    0    0    0  501 -0.00000000000E+00 -0.00000000000E+00 -0.84603475526E+02  0.84603475526E+02  0.00000000000E+00 0.  1.
        -24    2    1    2    0    0 -0.72200914444E+02  0.81093413595E+02  0.52885455051E+01  0.13484424082E+03  0.79786507592E+02 0.  0.
         23    2    1    2    0    0  0.83297656956E+02 -0.99809816548E+02  0.47893833555E+03  0.50447630371E+03  0.90630638336E+02 0.  0.
         11    1    3    3    0    0 -0.53673329828E+02  0.52390010080E+02  0.40953939654E+02  0.85456214895E+02  0.00000000000E+00 0. -1.
        -12    1    3    3    0    0 -0.18527584616E+02  0.28703403514E+02 -0.35665394148E+02  0.49388025925E+02  0.00000000000E+00 0.  1.
        -13    1    4    4    0    0  0.19455043240E+02  0.82974615846E+01  0.21653697064E+02  0.30269277705E+02  0.00000000000E+00 0.  1.
         13    1    4    4    0    0  0.63842613715E+02 -0.10810727813E+03  0.45728463849E+03  0.47420702600E+03  0.00000000000E+00 0. -1.
         21    1    1    2  502  501 -0.11096742511E+02  0.18716402953E+02  0.97162530648E+01  0.23829540647E+02  0.00000000000E+00 0. -1.
<scales pt_clust_5="13000.00000" pt_clust_6="13000.00000" pt_clust_7="13000.00000" pt_clust_8="13000.00000" pt_clust_9="21.75871"></scales>
<clustering>
<clus scale="   21.759">  2  9  1 -1</clus>
<clus scale="   79.787">  5  6 -1 -1</clus>
<clus scale="   90.631">  7  8 -1 -1</clus>
<clus scale="  149.531">  2  5  1 -1</clus>
<clus scale="  155.588">  1  5  2 -1</clus>
</clustering>
</event>
<event>
 9    1  0.2333971E-005  0.1486422E+03  0.7546771E-02  0.1225177E+00
         -2   -1    0    0    0  501 -0.00000000000E+00  0.00000000000E+00  0.32341139445E+02  0.32341139445E+02  0.00000000000E+00 0.  1.
          1   -1    0    0  502    0  0.00000000000E+00 -0.00000000000E+00 -0.16027166527E+04  0.16027166527E+04  0.00000000000E+00 0. -1.
         23    2    1    2    0    0  0.26184713927E+02 -0.89319572275E+02 -0.34704198898E+03  0.37076603550E+03  0.91464122662E+02 0.  0.
        -24    2    1    2    0    0  0.13837477601E+01 -0.41368713430E+02 -0.99940202050E+03  0.10035528710E+04  0.81244575912E+02 0.  0.
         13    1    4    4    0    0 -0.23372956273E+02  0.79848452249E+01 -0.12544634740E+03  0.12785475711E+03  0.00000000000E+00 0. -1.
        -14    1    4    4    0    0  0.24756704033E+02 -0.49353558655E+02 -0.87395567310E+03  0.87569811390E+03  0.00000000000E+00 0.  1.
        -11    1    3    3    0    0  0.31146437186E+02  0.42916912942E+01 -0.14005732789E+03  0.14354293524E+03  0.00000000000E+00 0. -1.
         11    1    3    3    0    0 -0.49617232590E+01 -0.93611263569E+02 -0.20698466109E+03  0.22722310026E+03  0.00000000000E+00 0.  1.
         21    1    1    2  502  501 -0.27568461687E+02  0.13068828571E+03 -0.22393150380E+03  0.26073888566E+03  0.00000000000E+00 0. -1.
<scales pt_clust_5="13000.00000" pt_clust_6="13000.00000" pt_clust_7="13000.00000" pt_clust_8="13000.00000" pt_clust_9="117.17007"></scales>
<clustering>
<clus scale="   81.245">  5  6 -1 -1</clus>
<clus scale="   91.181">  2  5  1 -1</clus>
<clus scale="   91.464">  7  8 -1 -1</clus>
<clus scale="  117.170">  1  9  2 -1</clus>
<clus scale="   91.181">  2  5  1 -1</clus>
</clustering>
</event>
<event>
 9    1  0.2333971E-005  0.1054789E+03  0.7546771E-02  0.1273128E+00
         -2   -1    0    0    0  501 -0.00000000000E+00  0.00000000000E+00  0.13847410093E+03  0.13847410093E+03  0.00000000000E+00 0.  1.
          1   -1    0    0  502    0  0.00000000000E+00 -0.00000000000E+00 -0.62332966749E+03  0.62332966749E+03  0.00000000000E+00 0. -1.
        -24    2    1    2    0    0 -0.38936155087E+02 -0.57546997695E+02  0.26760221343E+02  0.10974603733E+03  0.80625071456E+02 0.  0.
         23    2    1    2    0    0 -0.25675477209E+02  0.50506618249E+02 -0.56066090536E+03  0.57063504680E+03  0.89852975587E+02 0.  0.
         11    1    3    3    0    0 -0.21974789961E+02  0.17810403584E+02  0.13617434189E+02  0.31393253791E+02  0.00000000000E+00 0. -1.
        -12    1    3    3    0    0 -0.16961365126E+02 -0.75357401280E+02  0.13142787153E+02  0.78352783542E+02  0.00000000000E+00 0.  1.
        -13    1    4    4    0    0  0.22738881199E+02  0.52866507012E+02 -0.28664681647E+03  0.29236675884E+03  0.00000000000E+00 0.  1.
         13    1    4    4    0    0 -0.48414358408E+02 -0.23598887633E+01 -0.27401408888E+03  0.27826828796E+03  0.00000000000E+00 0. -1.
         21    1    1    2  502  501  0.64611632296E+02  0.70403794468E+01  0.49045117458E+02  0.81422684291E+02  0.00000000000E+00 0.  1.
<scales pt_clust_5="13000.00000" pt_clust_6="13000.00000" pt_clust_7="13000.00000" pt_clust_8="13000.00000" pt_clust_9="64.99408"></scales>
<clustering>
<clus scale="   64.994">  1  9  2 -1</clus>
<clus scale="   80.625">  5  6 -1 -1</clus>
<clus scale="   89.853">  7  8 -1 -1</clus>
<clus scale="   97.738">  1  5  2 -1</clus>
<clus scale="  105.479">  2  5  1 -1</clus>
</clustering>
</event>
<event>
 9    1  0.2333971E-005  0.2641646E+03  0.7546771E-02  0.1105632E+00
          1   -1    0    0  502    0  0.00000000000E+00  0.00000000000E+00  0.46833182262E+03  0.46833182262E+03  0.00000000000E+00 0. -1.
         -2   -1    0    0    0  501 -0.00000000000E+00 -0.00000000000E+00 -0.33587084743E+03  0.33587084743E+03  0.00000000000E+00 0.  1.
        -24    2    1    2    0    0  0.22441576798E+02 -0.20274545229E+03  0.11819352878E+01  0.21913662456E+03  0.80063227860E+02 0.  0.
         23    2    1    2    0    0  0.95649327338E+02  0.26188025083E+03  0.26496483503E+03  0.39714511038E+03  0.98933388218E+02 0.  0.
         11    1    3    3    0    0  0.18683970845E+02 -0.20948712443E+03  0.53063240815E+01  0.21038560584E+03  0.00000000000E+00 0. -1.
        -12    1    3    3    0    0  0.37576059535E+01  0.67416721354E+01 -0.41243887936E+01  0.87510187180E+01  0.00000000000E+00 0.  1.
        -11    1    4    4    0    0  0.31846484738E+02  0.21057315890E+03  0.20556791266E+03  0.29599564279E+03  0.00000000000E+00 0. -1.
         11    1    4    4    0    0  0.63802842600E+02  0.51307091930E+02  0.59396922370E+02  0.10114946759E+03  0.00000000000E+00 0.  1.
         21    1    1    2  502  501 -0.11809090414E+03 -0.59134798532E+02 -0.13368579512E+03  0.18792093511E+03  0.00000000000E+00 0. -1.
<scales pt_clust_5="13000.00000" pt_clust_6="13000.00000" pt_clust_7="13000.00000" pt_clust_8="13000.00000" pt_clust_9="132.06963"></scales>
<clustering>
<clus scale="   80.063">  5  6 -1 -1</clus>
<clus scale="   98.933">  7  8 -1 -1</clus>
<clus scale="  132.070">  2  9  1 -1</clus>
<clus scale="  257.692">  2  5  1 -1</clus>
<clus scale="  264.165">  1  5  2 -1</clus>
</clustering>
</event>
<event>
 9    1  0.2333971E-005  0.1142399E+03  0.7546771E-02  0.1257243E+00
          1   -1    0    0  502    0  0.00000000000E+00  0.00000000000E+00  0.77767073719E+03  0.77767073719E+03  0.00000000000E+00 0. -1.
         -2   -1    0    0    0  501 -0.00000000000E+00 -0.00000000000E+00 -0.28732601201E+02  0.28732601201E+02  0.00000000000E+00 0.  1.
         23    2    1    2    0    0 -0.47255238988E+02  0.49274601338E+02  0.28557309262E+03  0.30786243735E+03  0.92554012089E+02 0.  0.
        -24    2    1    2    0    0  0.19015896877E+01 -0.73476893685E+02  0.41066529545E+03  0.42492046984E+03  0.80678069211E+02 0.  0.
         11    1    4    4    0    0  0.24169881162E+02 -0.80740434210E+02  0.34683733953E+03  0.35693044275E+03  0.00000000000E+00 0. -1.
        -12    1    4    4    0    0 -0.22268291474E+02  0.72635405246E+01  0.63827955925E+02  0.67990027090E+02  0.00000000000E+00 0.  1.
        -13    1    3    3    0    0 -0.67651821674E+02  0.25482110591E+02  0.25098457273E+03  0.26118836629E+03  0.00000000000E+00 0. -1.
         13    1    3    3    0    0  0.20396582686E+02  0.23792490747E+02  0.34588519887E+02  0.46674071059E+02  0.00000000000E+00 0.  1.
         21    1    1    2  502  501  0.45353649300E+02  0.24202292347E+02  0.52699747921E+02  0.73620431204E+02  0.00000000000E+00 0. -1.
<scales pt_clust_5="13000.00000" pt_clust_6="13000.00000" pt_clust_7="13000.00000" pt_clust_8="13000.00000" pt_clust_9="51.40724"></scales>
<clustering>
<clus scale="   51.407">  2  9  1 -1</clus>
<clus scale="   80.678">  5  6 -1 -1</clus>
<clus scale="   92.554">  7  8 -1 -1</clus>
<clus scale="  104.850">  1  5  2 -1</clus>
<clus scale="  104.850">  1  5  2 -1</clus>
</clustering>
</event>
<event>
 9    1  0.2333971E-005  0.1186397E+03  0.7546771E-02  0.1246727E+00
          1   -1    0    0  502    0  0.00000000000E+00  0.00000000000E+00  0.12187655699E+03  0.12187655699E+03  0.00000000000E+00 0. -1.
         -2   -1    0    0    0  501 -0.00000000000E+00 -0.00000000000E+00 -0.43265052708E+03  0.43265052708E+03  0.00000000000E+00 0.  1.
         23    2    1    2    0    0  0.14479644750E+03  0.12291595037E+02 -0.82537591670E+02  0.18963148744E+03  0.89613349866E+02 0.  0.
        -24    2    1    2    0    0 -0.53075881836E+02 -0.20837066266E+02  0.16018131127E+02  0.10384779893E+03  0.85302709544E+02 0.  0.
         13    1    4    4    0    0 -0.37068525045E+02  0.26568341522E+02 -0.11098033446E+02  0.46937390923E+02  0.00000000000E+00 0. -1.
        -14    1    4    4    0    0 -0.16007356790E+02 -0.47405407788E+02  0.27116164573E+02  0.56910408012E+02  0.00000000000E+00 0.  1.
        -11    1    3    3    0    0  0.13086888472E+03 -0.20919943275E+02 -0.51834630575E+02  0.14230649297E+03  0.00000000000E+00 0. -1.
         11    1    3    3    0    0  0.13927562782E+02  0.33211538313E+02 -0.30702961095E+02  0.47324994476E+02  0.00000000000E+00 0.  1.
         21    1    1    2  502  501 -0.91720565665E+02  0.85454712282E+01 -0.24425450955E+03  0.26104779769E+03  0.00000000000E+00 0. -1.
<scales pt_clust_5="13000.00000" pt_clust_6="13000.00000" pt_clust_7="13000.00000" pt_clust_8="13000.00000" pt_clust_9="92.11779"></scales>
<clustering>
<clus scale="   85.303">  5  6 -1 -1</clus>
<clus scale="   89.613">  7  8 -1 -1</clus>
<clus scale="   92.118">  2  9  1 -1</clus>
<clus scale="  115.418">  1  5  2 -1</clus>
<clus scale="  115.418">  1  5  2 -1</clus>
</clustering>
</event>
<event>
 9    1  0.2333971E-005  0.1119200E+03  0.7546771E-02  0.1261187E+00
          1   -1    0    0  502    0  0.00000000000E+00  0.00000000000E+00  0.95051496947E+02  0.95051496947E+02  0.00000000000E+00 0. -1.
         -2   -1    0    0    0  501 -0.00000000000E+00 -0.00000000000E+00 -0.20393234979E+03  0.20393234979E+03  0.00000000000E+00 0.  1.
         23    2    1    2    0    0 -0.67047245449E+02  0.14352541691E+02 -0.11793360978E+03  0.16382316907E+03  0.90710340284E+02 0.  0.
        -24    2    1    2    0    0  0.54919183749E+02 -0.36111502104E+02  0.24097072958E+02  0.10605958346E+03  0.79673138457E+02 0.  0.
         11    1    4    4    0    0  0.28202778600E+02 -0.23269729213E+02  0.53177261723E+02  0.64534472824E+02  0.00000000000E+00 0. -1.
        -12    1    4    4    0    0  0.26716405150E+02 -0.12841772892E+02 -0.29080188764E+02  0.41525110640E+02  0.00000000000E+00 0.  1.
        -13    1    3    3    0    0 -0.18737359513E+02 -0.22825747878E+02 -0.93665406890E+02  0.98210548596E+02  0.00000000000E+00 0.  1.
         13    1    3    3    0    0 -0.48309885936E+02  0.37178289569E+02 -0.24268202890E+02  0.65612620478E+02  0.00000000000E+00 0. -1.
         21    1    1    2  502  501  0.12128061700E+02  0.21758960414E+02 -0.15044316019E+02  0.29101094195E+02  0.00000000000E+00 0. -1.
<scales pt_clust_5="13000.00000" pt_clust_6="13000.00000" pt_clust_7="13000.00000" pt_clust_8="13000.00000" pt_clust_9="24.91069"></scales>
<clustering>
<clus scale="   24.911">  2  9  1 -1</clus>
<clus scale="   79.673">  5  6 -1 -1</clus>
<clus scale="   90.710">  7  8 -1 -1</clus>
<clus scale="  103.177">  1  5  2 -1</clus>
<clus scale="  103.177">  1  5  2 -1</clus>
</clustering>
</event>
<event>
 9    1  0.2333971E-005  0.1777611E+03  0.7546771E-02  0.1172283E+00
          1   -1    0    0  502    0  0.00000000000E+00  0.00000000000E+00  0.55139186138E+03  0.55139186138E+03  0.00000000000E+00 0. -1.
         -2   -1    0    0    0  501 -0.00000000000E+00 -0.00000000000E+00 -0.10617767031E+03  0.10617767031E+03  0.00000000000E+00 0.  1.
        -24    2    1    2    0    0  0.23519970915E+01 -0.15077983251E+03  0.24600362521E+02  0.17302130201E+03  0.81185610353E+02 0.  0.
         23    2    1    2    0    0  0.22343667485E+02  0.14586604480E+03  0.42350471434E+03  0.45920304515E+03  0.98666362556E+02 0.  0.
         11    1    3    3    0    0 -0.26291764819E+02 -0.13063236776E+03  0.32420039576E+02  0.13713909497E+03  0.00000000000E+00 0. -1.
        -12    1    3    3    0    0  0.28643761911E+02 -0.20147464758E+02 -0.78196770550E+01  0.35882207036E+02  0.00000000000E+00 0.  1.
        -11    1    4    4    0    0  0.48934004930E+01  0.46630697447E+02  0.36846853578E+02  0.59632691801E+02  0.00000000000E+00 0.  1.
         11    1    4    4    0    0  0.17450266992E+02  0.99235347348E+02  0.38665786076E+03  0.39957035335E+03  0.00000000000E+00 0. -1.
         21    1    1    2  502  501 -0.24695664576E+02  0.49137877180E+01 -0.28908857913E+01  0.25345184538E+02  0.00000000000E+00 0.  1.
<scales pt_clust_5="13000.00000" pt_clust_6="13000.00000" pt_clust_7="13000.00000" pt_clust_8="13000.00000" pt_clust_9="25.17978"></scales>
<clustering>
<clus scale="   25.180">  2  9  1 -1</clus>
<clus scale="   81.186">  5  6 -1 -1</clus>
<clus scale="   98.666">  7  8 -1 -1</clus>
<clus scale="  168.686">  2  5  1 -1</clus>
<clus scale="  177.761">  1  5  2 -1</clus>
</clustering>
</event>
<event>
 9    1  0.2333971E-005  0.1078543E+03  0.7546771E-02  0.1269128E+00
         -2   -1    0    0    0  501 -0.00000000000E+00  0.00000000000E+00  0.28131033460E+02  0.28131033460E+02  0.00000000000E+00 0.  1.
          1   -1    0    0  502    0  0.00000000000E+00 -0.00000000000E+00 -0.63656926507E+03  0.63656926507E+03  0.00000000000E+00 0. -1.
        -24    2    1    2    0    0 -0.37284034909E+02  0.23017379695E+02 -0.13518606984E+03  0.16347144692E+03  0.80794439494E+02 0.  0.
         23    2    1    2    0    0  0.57202941286E+02 -0.26161044222E+02 -0.46709099706E+03  0.48014318329E+03  0.91689149838E+02 0.  0.
         11    1    3    3    0    0 -0.62688344154E+02  0.22047815944E+02 -0.99794831118E+02  0.11989555037E+03  0.00000000000E+00 0. -1.
        -12    1    3    3    0    0  0.25404309245E+02  0.96956375090E+00 -0.35391238717E+02  0.43575896549E+02  0.00000000000E+00 0.  1.
        -11    1    4    4    0    0  0.13389521973E+02 -0.56381556829E+02 -0.24761190632E+03  0.25430260596E+03  0.00000000000E+00 0. -1.
         11    1    4    4    0    0  0.43813419313E+02  0.30220512607E+02 -0.21947909074E+03  0.22584057732E+03  0.00000000000E+00 0.  1.
         21    1    1    2  502  501 -0.19918906377E+02  0.31436645268E+01 -0.61611647146E+01  0.21085668321E+02  0.00000000000E+00 0.  1.
<scales pt_clust_5="13000.00000" pt_clust_6="13000.00000" pt_clust_7="13000.00000" pt_clust_8="13000.00000" pt_clust_9="20.16545"></scales>
<clustering>
<clus scale="   20.165">  1  9  2 -1</clus>
<clus scale="   80.794">  5  6 -1 -1</clus>
<clus scale="   91.689">  7  8 -1 -1</clus>
<clus scale="   98.759">  1  5  2 -1</clus>
<clus scale="  107.854">  2  5  1 -1</clus>
</clustering>
</event>
<event>
 9    1  0.2333971E-005  0.1751720E+03  0.7546771E-02  0.1198285E+00
         -2   -1    0    0    0  501 -0.00000000000E+00  0.00000000000E+00  0.57670089489E+03  0.57670089489E+03  0.00000000000E+00 0.  1.
          1   -1    0    0  502    0  0.00000000000E+00 -0.00000000000E+00 -0.16330902419E+03  0.16330902419E+03  0.00000000000E+00 0. -1.
         23    2    1    2    0    0 -0.34142384383E+02 -0.96324101933E+01  0.34227053697E+03  0.35623700190E+03  0.92180232759E+02 0.  0.
        -24    2    1    2    0    0 -0.14690983506E+03 -0.16169241139E+02 -0.38602569117E+02  0.17050086970E+03  0.75739317595E+02 0.  0.
         11    1    4    4    0    0 -0.15548891606E+03 -0.13380719662E+02 -0.40607018667E+02  0.16125996602E+03  0.00000000000E+00 0. -1.
        -12    1    4    4    0    0  0.85790809991E+01 -0.27885214775E+01  0.20044495502E+01  0.92409036797E+01  0.00000000000E+00 0.  1.
        -13    1    3    3    0    0 -0.63257534507E+02 -0.17809814383E+02  0.19146588665E+03  0.20242996545E+03  0.00000000000E+00 0. -1.
         13    1    3    3    0    0  0.29115150124E+02  0.81774041896E+01  0.15080465032E+03  0.15380703645E+03  0.00000000000E+00 0.  1.
         21    1    1    2  502  501  0.18105221945E+03  0.25801651333E+02  0.10972390286E+03  0.21327204748E+03  0.00000000000E+00 0.  1.
<scales pt_clust_5="13000.00000" pt_clust_6="13000.00000" pt_clust_7="13000.00000" pt_clust_8="13000.00000" pt_clust_9="157.95189"></scales>
<clustering>
<clus scale="   75.739">  5  6 -1 -1</clus>
<clus scale="   92.180">  7  8 -1 -1</clus>
<clus scale="   98.771">  1  7  2 -1</clus>
<clus scale="  157.952">  1  9  2 -1</clus>
<clus scale="  175.172">  2  5  1 -1</clus>
</clustering>
</event>
<event>
 9    1  0.2333971E-005  0.1888476E+03  0.7546771E-02  0.1160485E+00
          1   -1    0    0  502    0  0.00000000000E+00  0.00000000000E+00  0.28223823578E+03  0.28223823578E+03  0.00000000000E+00 0. -1.
         -2   -1    0    0    0  501 -0.00000000000E+00 -0.00000000000E+00 -0.28877956717E+03  0.28877956717E+03  0.00000000000E+00 0.  1.
         23    2    1    2    0    0 -0.18359406413E+03 -0.36926446164E+01 -0.18796570504E+03  0.27759732767E+03  0.89491642376E+02 0.  0.
        -24    2    1    2    0    0  0.16363065431E+03  0.17187425993E+01  0.19676705142E+03  0.26816514352E+03  0.80108217875E+02 0.  0.
         13    1    4    4    0    0  0.58925802872E+02  0.39039801631E+02  0.68432736489E+02  0.98383920326E+02  0.00000000000E+00 0. -1.
        -14    1    4    4    0    0  0.10470485144E+03 -0.37321059031E+02  0.12833431493E+03  0.16978122320E+03  0.00000000000E+00 0.  1.
        -13    1    3    3    0    0 -0.12169272721E+03  0.24160654033E+02 -0.72613671373E+02  0.14375535583E+03  0.00000000000E+00 0.  1.
         13    1    3    3    0    0 -0.61901336921E+02 -0.27853298649E+02 -0.11535203366E+03  0.13384197185E+03  0.00000000000E+00 0. -1.
         21    1    1    2  502  501  0.19963409820E+02  0.19739020170E+01 -0.15342677773E+02  0.25255331755E+02  0.00000000000E+00 0.  1.
<scales pt_clust_5="13000.00000" pt_clust_6="13000.00000" pt_clust_7="13000.00000" pt_clust_8="13000.00000" pt_clust_9="20.06076"></scales>
<clustering>
<clus scale="   20.061">  2  9  1 -1</clus>
<clus scale="   80.108">  5  6 -1 -1</clus>
<clus scale="   89.492">  7  8 -1 -1</clus>
<clus scale="  184.586">  1  5  2 -1</clus>
<clus scale="  184.586">  1  5  2 -1</clus>
</clustering>
</event>
<event>
 9    1  0.2333971E-005  0.9685261E+02  0.7546771E-02  0.1293107E+00
         -2   -1    0    0    0  501 -0.00000000000E+00  0.00000000000E+00  0.18493166111E+03  0.18493166111E+03  0.00000000000E+00 0.  1.
          1   -1    0    0  502    0  0.00000000000E+00 -0.00000000000E+00 -0.14862924012E+03  0.14862924012E+03  0.00000000000E+00 0. -1.
         23    2    1    2    0    0 -0.10952953870E+02 -0.88481814800E+01  0.70129523596E+02  0.11607641489E+03  0.91418414452E+02 0.  0.
        -24    2    1    2    0    0  0.11543772483E+02  0.33377127436E+02 -0.10811260332E+03  0.13925179577E+03  0.80345729878E+02 0.  0.
         13    1    4    4    0    0 -0.14906685896E+02 -0.21491560375E+02 -0.24769366367E+02  0.36022464685E+02  0.00000000000E+00 0. -1.
        -14    1    4    4    0    0  0.26450458379E+02  0.54868687811E+02 -0.83343236957E+02  0.10322933109E+03  0.00000000000E+00 0.  1.
        -13    1    3    3    0    0  0.17235113400E+02  0.31342872825E+02  0.53283096716E+02  0.64175643405E+02  0.00000000000E+00 0.  1.
         13    1    3    3    0    0 -0.28188067270E+02 -0.40191054305E+02  0.16846426880E+02  0.51900771489E+02  0.00000000000E+00 0. -1.
         21    1    1    2  502  501 -0.59081861253E+00 -0.24528945956E+02  0.74285500713E+02  0.78232690562E+02  0.00000000000E+00 0.  1.
<scales pt_clust_5="13000.00000" pt_clust_6="13000.00000" pt_clust_7="13000.00000" pt_clust_8="13000.00000" pt_clust_9="24.53606"></scales>
<clustering>
<clus scale="   24.536">  1  9  2 -1</clus>
<clus scale="   80.346">  5  6 -1 -1</clus>
<clus scale="   86.479">  2  5  1 -1</clus>
<clus scale="   91.418">  7  8 -1 -1</clus>
<clus scale="   86.479">  2  5  1 -1</clus>
</clustering>
</event>
<event>
 9    1  0.2333971E-005  0.1168146E+03  0.7546771E-02  0.1252282E+00
         -2   -1    0    0    0  501 -0.00000000000E+00  0.00000000000E+00  0.85662367636E+02  0.85662367636E+02  0.00000000000E+00 0.  1.
          1   -1    0    0  502    0  0.00000000000E+00 -0.00000000000E+00 -0.32764877819E+03  0.32764877819E+03  0.00000000000E+00 0. -1.
        -24    2    1    2    0    0 -0.36328187661E+02 -0.84021629380E+02 -0.74465999056E+02  0.14280981487E+03  0.80436849681E+02 0.  0.
         23    2    1    2    0    0  0.26423928994E+02  0.58471304027E+02 -0.19927906441E+03  0.22855463262E+03  0.91694913508E+02 0.  0.
         13    1    3    3    0    0 -0.15570458868E+01 -0.84090676952E+02 -0.37581919252E+02  0.92119851264E+02  0.00000000000E+00 0. -1.
        -14    1    3    3    0    0 -0.34771141774E+02  0.69047572353E-01 -0.36884079804E+02  0.50689963610E+02  0.00000000000E+00 0.  1.
        -11    1    4    4    0    0 -0.30237383168E+02  0.31658361670E+02 -0.48900307817E+02  0.65633766531E+02  0.00000000000E+00 0.  1.
         11    1    4    4    0    0  0.56661312162E+02  0.26812942357E+02 -0.15037875659E+03  0.16292086609E+03  0.00000000000E+00 0. -1.
         21    1    1    2  502  501  0.99042586669E+01  0.25550325353E+02  0.31758652916E+02  0.41946698325E+02  0.00000000000E+00 0.  1.
<scales pt_clust_5="13000.00000" pt_clust_6="13000.00000" pt_clust_7="13000.00000" pt_clust_8="13000.00000" pt_clust_9="27.40280"></scales>
<clustering>
<clus scale="   27.403">  1  9  2 -1</clus>
<clus scale="   80.437">  5  6 -1 -1</clus>
<clus scale="   91.695">  7  8 -1 -1</clus>
<clus scale="  108.202">  1  5  2 -1</clus>
<clus scale="  116.815">  2  5  1 -1</clus>
</clustering>
</event>
<event>
 9    1  0.2333971E-005  0.1006208E+03  0.7546771E-02  0.1284923E+00
          3   -1    0    0  502    0  0.00000000000E+00  0.00000000000E+00  0.56249348047E+03  0.56249348047E+03  0.00000000000E+00 0. -1.
         -4   -1    0    0    0  501 -0.00000000000E+00 -0.00000000000E+00 -0.48728112888E+02  0.48728112888E+02  0.00000000000E+00 0.  1.
        -24    2    1    2    0    0 -0.47755121531E+02 -0.33117175494E+02  0.26418781549E+02  0.10257701888E+03  0.80291928853E+02 0.  0.
         23    2    1    2    0    0  0.38228517771E+02  0.57697158506E+01  0.45220028744E+03  0.46310445993E+03  0.92119116666E+02 0.  0.
         11    1    3    3    0    0 -0.37563489149E+02  0.17298656018E+02  0.29887236437E+02  0.51024563877E+02  0.00000000000E+00 0. -1.
        -12    1    3    3    0    0 -0.10191632382E+02 -0.50415831512E+02 -0.34684548878E+01  0.51552455004E+02  0.00000000000E+00 0.  1.
        -13    1    4    4    0    0  0.35817405237E+02  0.46512971097E+02  0.28636598832E+03  0.29232143655E+03  0.00000000000E+00 0. -1.
         13    1    4    4    0    0  0.24111125339E+01 -0.40743255247E+02  0.16583429912E+03  0.17078302338E+03  0.00000000000E+00 0.  1.
         21    1    1    2  502  501  0.95266037600E+01  0.27347459644E+02  0.35146298599E+02  0.45540114552E+02  0.00000000000E+00 0. -1.
<scales pt_clust_5="13000.00000" pt_clust_6="13000.00000" pt_clust_7="13000.00000" pt_clust_8="13000.00000" pt_clust_9="28.95928"></scales>
<clustering>
<clus scale="   28.959">  2  9  1 -1</clus>
<clus scale="   80.292">  5  6 -1 -1</clus>
<clus scale="   89.919">  2  5  1 -1</clus>
<clus scale="   92.119">  7  8 -1 -1</clus>
<clus scale="  100.621">  1  5  2 -1</clus>
</clustering>
</event>
<event>
 9    1  0.2333971E-005  0.9522985E+02  0.7546771E-02  0.1296892E+00
         -2   -1    0    0    0  501 -0.00000000000E+00  0.00000000000E+00  0.10143905340E+03  0.10143905340E+03  0.00000000000E+00 0.  1.
          1   -1    0    0  502    0  0.00000000000E+00 -0.00000000000E+00 -0.23131950344E+03  0.23131950344E+03  0.00000000000E+00 0. -1.
        -24    2    1    2    0    0  0.62958467201E+01 -0.10535661288E+02  0.20050487747E+02  0.82821109010E+02  0.79414584265E+02 0.  0.
         23    2    1    2    0    0 -0.33187802900E+02  0.95117595911E+01 -0.18315711416E+03  0.20717993997E+03  0.90471516123E+02 0.  0.
         13    1    3    3    0    0 -0.15493210506E+02 -0.39081843668E+02  0.20792934877E+02  0.46901772004E+02  0.00000000000E+00 0. -1.
        -14    1    3    3    0    0  0.21789057226E+02  0.28546182380E+02 -0.74244713010E+00  0.35919337006E+02  0.00000000000E+00 0.  1.
        -13    1    4    4    0    0 -0.47750621973E+01  0.29536829691E+02 -0.11525046628E+02  0.32063253531E+02  0.00000000000E+00 0.  1.
         13    1    4    4    0    0 -0.28412740703E+02 -0.20025070100E+02 -0.17163206753E+03  0.17511668644E+03  0.00000000000E+00 0. -1.
         21    1    1    2  502  501  0.26891956180E+02  0.10239016973E+01  0.33226176367E+02  0.42757507854E+02  0.00000000000E+00 0.  1.
<scales pt_clust_5="13000.00000" pt_clust_6="13000.00000" pt_clust_7="13000.00000" pt_clust_8="13000.00000" pt_clust_9="26.91144"></scales>
<clustering>
<clus scale="   26.911">  1  9  2 -1</clus>
<clus scale="   79.415">  5  6 -1 -1</clus>
<clus scale="   84.796">  1  5  2 -1</clus>
<clus scale="   90.472">  7  8 -1 -1</clus>
<clus scale="   95.230">  2  5  1 -1</clus>
</clustering>
</event>
<event>
 9    1  0.2333971E-005  0.1245102E+03  0.7546771E-02  0.1253857E+00
          1   -1    0    0  502    0  0.00000000000E+00  0.00000000000E+00  0.97505001785E+02  0.97505001785E+02  0.00000000000E+00 0. -1.
         -2   -1    0    0    0  501 -0.00000000000E+00 -0.00000000000E+00 -0.96269520363E+03  0.96269520363E+03  0.00000000000E+00 0.  1.
         23    2    1    2    0    0 -0.44881003652E+02  0.42790219387E+02 -0.35577593783E+03  0.37314461799E+03  0.93888660831E+02 0.  0.
        -24    2    1    2    0    0 -0.33015618503E+02  0.30113301264E+01  0.63292411031E+02  0.10726372708E+03  0.80002991685E+02 0.  0.
         11    1    4    4    0    0 -0.49432124246E+02 -0.52951128350E+01  0.71526469740E+02  0.87106882626E+02  0.00000000000E+00 0. -1.
        -12    1    4    4    0    0  0.16416505743E+02  0.83064429614E+01 -0.82340587090E+01  0.20156844453E+02  0.00000000000E+00 0.  1.
        -13    1    3    3    0    0 -0.74275598120E+02  0.28212353310E+02 -0.26287057158E+03  0.27461562002E+03  0.00000000000E+00 0. -1.
         13    1    3    3    0    0  0.29394594468E+02  0.14577866077E+02 -0.92905366246E+02  0.98528997968E+02  0.00000000000E+00 0.  1.
         21    1    1    2  502  501  0.77896622155E+02 -0.45801549514E+02 -0.57270667505E+03  0.57979186035E+03  0.00000000000E+00 0.  1.
<scales pt_clust_5="13000.00000" pt_clust_6="13000.00000" pt_clust_7="13000.00000" pt_clust_8="13000.00000" pt_clust_9="81.77846"></scales>
<clustering>
<clus scale="   80.003">  5  6 -1 -1</clus>
<clus scale="   86.600">  1  5  2 -1</clus>
<clus scale="   81.778">  2  9  1 -1</clus>
<clus scale="   93.889">  7  8 -1 -1</clus>
<clus scale="   86.600">  1  5  2 -1</clus>
</clustering>
</event>
<event>
 9    1  0.2333971E-005  0.9850805E+02  0.7546771E-02  0.1287901E+00
          1   -1    0    0  502    0  0.00000000000E+00  0.00000000000E+00  0.95220870746E+02  0.95220870746E+02  0.00000000000E+00 0. -1.
         -2   -1    0    0    0  501 -0.00000000000E+00 -0.00000000000E+00 -0.19314160147E+03  0.19314160147E+03  0.00000000000E+00 0.  1.
        -24    2    1    2    0    0 -0.23763459092E+02 -0.10277468378E+01 -0.40392157882E+02  0.92411129342E+02  0.79640016049E+02 0.  0.
         23    2    1    2    0    0  0.43928099107E+02  0.39754507171E+02  0.18651408923E+02  0.10814607940E+03  0.88530224796E+02 0.  0.
         11    1    3    3    0    0 -0.14797137772E+00 -0.31392485129E+02  0.61919461086E+01  0.31997659519E+02  0.00000000000E+00 0. -1.
        -12    1    3    3    0    0 -0.23615487714E+02  0.30364738291E+02 -0.46584103991E+02  0.60413469823E+02  0.00000000000E+00 0.  1.
        -11    1    4    4    0    0 -0.22153636599E+02  0.20294210124E+02  0.24837531454E+02  0.38981297411E+02  0.00000000000E+00 0.  1.
         11    1    4    4    0    0  0.66081735706E+02  0.19460297047E+02 -0.61861225311E+01  0.69164781985E+02  0.00000000000E+00 0. -1.
         21    1    1    2  502  501 -0.20164640016E+02 -0.38726760333E+02 -0.76179981761E+02  0.87805263475E+02  0.00000000000E+00 0.  1.
<scales pt_clust_5="13000.00000" pt_clust_6="13000.00000" pt_clust_7="13000.00000" pt_clust_8="13000.00000" pt_clust_9="43.66205"></scales>
<clustering>
<clus scale="   43.662">  2  9  1 -1</clus>
<clus scale="   79.640">  5  6 -1 -1</clus>
<clus scale="   88.530">  7  8 -1 -1</clus>
<clus scale="   90.602">  2  5  1 -1</clus>
<clus scale="   98.508">  1  5  2 -1</clus>
</clustering>
</event>
<event>
 9    1  0.2333971E-005  0.9279705E+02  0.7546771E-02  0.1300808E+00
         -2   -1    0    0    0  501 -0.00000000000E+00  0.00000000000E+00  0.99402849614E+02  0.99402849614E+02  0.00000000000E+00 0.  1.
          1   -1    0    0  502    0  0.00000000000E+00 -0.00000000000E+00 -0.26130750841E+03  0.26130750841E+03  0.00000000000E+00 0. -1.
        -24    2    1    2    0    0 -0.25114610850E+02 -0.37880372578E+02  0.32957639662E+02  0.98025390607E+02  0.80356112940E+02 0.  0.
         23    2    1    2    0    0 -0.17006299104E+02  0.24290666756E+02 -0.19747370036E+03  0.21834908376E+03  0.88324454965E+02 0.  0.
         13    1    3    3    0    0 -0.25251011522E+02 -0.61625033247E+02  0.32898317952E+02  0.74280264066E+02  0.00000000000E+00 0. -1.
        -14    1    3    3    0    0  0.13640067194E+00  0.23744660669E+02  0.59321710136E-01  0.23745126542E+02  0.00000000000E+00 0.  1.
        -11    1    4    4    0    0 -0.27417014275E+02  0.53700227718E+02 -0.10942896119E+03  0.12494040449E+03  0.00000000000E+00 0.  1.
         11    1    4    4    0    0  0.10410715171E+02 -0.29409560962E+02 -0.88044739170E+02  0.93408679264E+02  0.00000000000E+00 0. -1.
         21    1    1    2  502  501  0.42120909955E+02  0.13589705822E+02  0.26114019000E+01  0.44335883657E+02  0.00000000000E+00 0.  1.
<scales pt_clust_5="13000.00000" pt_clust_6="13000.00000" pt_clust_7="13000.00000" pt_clust_8="13000.00000" pt_clust_9="44.25891"></scales>
<clustering>
<clus scale="   44.259">  1  9  2 -1</clus>
<clus scale="   80.356">  5  6 -1 -1</clus>
<clus scale="   85.248">  1  5  2 -1</clus>
<clus scale="   88.324">  7  8 -1 -1</clus>
<clus scale="   92.797">  2  5  1 -1</clus>
</clustering>
</event>
<event>
 9    1  0.2333971E-005  0.3194110E+03  0.7546771E-02  0.1111197E+00
          1   -1    0    0  502    0  0.00000000000E+00  0.00000000000E+00  0.11137476923E+04  0.11137476923E+04  0.00000000000E+00 0. -1.
         -2   -1    0    0    0  501 -0.00000000000E+00 -0.00000000000E+00 -0.17948296806E+03  0.17948296806E+03  0.00000000000E+00 0.  1.
         23    2    1    2    0    0  0.24373527958E+02 -0.85095030327E+02  0.57278991803E+02  0.13882149256E+03  0.90306648949E+02 0.  0.
        -24    2    1    2    0    0  0.20313696231E+03  0.24814963332E+03  0.79773776566E+03  0.86350013220E+03  0.80025430818E+02 0.  0.
         11    1    4    4    0    0  0.18536424913E+03  0.21016171193E+03  0.74601465678E+03  0.79691010669E+03  0.00000000000E+00 0. -1.
        -12    1    4    4    0    0  0.17772713179E+02  0.37987921389E+02  0.51723108887E+02  0.66590025515E+02  0.00000000000E+00 0.  1.
        -13    1    3    3    0    0  0.54365837118E+02 -0.63960405625E+02  0.58154765802E+02  0.10212029435E+03  0.00000000000E+00 0.  1.
         13    1    3    3    0    0 -0.29992309160E+02 -0.21134624702E+02 -0.87577399930E+00  0.36701198211E+02  0.00000000000E+00 0. -1.
         21    1    1    2  502  501 -0.22751049027E+03 -0.16305460299E+03  0.79247966757E+02  0.29090903557E+03  0.00000000000E+00 0.  1.
<scales pt_clust_5="13000.00000" pt_clust_6="13000.00000" pt_clust_7="13000.00000" pt_clust_8="13000.00000" pt_clust_9="309.22378"></scales>
<clustering>
<clus scale="   80.025">  5  6 -1 -1</clus>
<clus scale="   90.307">  7  8 -1 -1</clus>
<clus scale="  126.454">  2  7  1 -1</clus>
<clus scale="  309.224">  2  9  1 -1</clus>
<clus scale="  319.411">  1  5  2 -1</clus>
</clustering>
</event>
<event>
 9    1  0.2333971E-005  0.1197961E+03  0.7546771E-02  0.1247664E+00
         -2   -1    0    0    0  501 -0.00000000000E+00  0.00000000000E+00  0.70646423750E+02  0.70646423750E+02  0.00000000000E+00 0.  1.
          1   -1    0    0  502    0  0.00000000000E+00 -0.00000000000E+00 -0.51598835474E+03  0.51598835474E+03  0.00000000000E+00 0. -1.
        -24    2    1    2    0    0  0.37610117725E+02 -0.91434586219E+02 -0.55025488001E+02  0.13957413790E+03  0.81721056819E+02 0.  0.
         23    2    1    2    0    0  0.34784034062E+01  0.69842529828E+02 -0.38229577261E+03  0.39995634545E+03  0.94471912464E+02 0.  0.
         11    1    3    3    0    0  0.20187663012E+02  0.57321248382E+01 -0.31902303783E+02  0.38185808617E+02  0.00000000000E+00 0. -1.
        -12    1    3    3    0    0  0.17422454713E+02 -0.97166711057E+02 -0.23123184218E+02  0.10138832928E+03  0.00000000000E+00 0.  1.
        -13    1    4    4    0    0 -0.18280360984E+02 -0.18230424509E+02 -0.64799032443E+02  0.69752667197E+02  0.00000000000E+00 0.  1.
         13    1    4    4    0    0  0.21758764390E+02  0.88072954336E+02 -0.31749674017E+03  0.33020367825E+03  0.00000000000E+00 0. -1.
         21    1    1    2  502  501 -0.41088521131E+02  0.21592056392E+02 -0.80206703798E+01  0.47104295147E+02  0.00000000000E+00 0.  1.
<scales pt_clust_5="13000.00000" pt_clust_6="13000.00000" pt_clust_7="13000.00000" pt_clust_8="13000.00000" pt_clust_9="46.41641"></scales>
<clustering>
<clus scale="   46.416">  1  9  2 -1</clus>
<clus scale="   81.721">  5  6 -1 -1</clus>
<clus scale="   94.472">  7  8 -1 -1</clus>
<clus scale="  110.020">  1  5  2 -1</clus>
<clus scale="  119.796">  2  5  1 -1</clus>
</clustering>
</event>
<event>
 9    1  0.2333971E-005  0.1191257E+03  0.7546771E-02  0.1255727E+00
         -2   -1    0    0    0  501 -0.00000000000E+00  0.00000000000E+00  0.50050393854E+03  0.50050393854E+03  0.00000000000E+00 0.  1.
          1   -1    0    0  502    0  0.00000000000E+00 -0.00000000000E+00 -0.66144886160E+02  0.66144886160E+02  0.00000000000E+00 0. -1.
        -24    2    1    2    0    0 -0.29838156123E+02  0.35180483133E+01  0.32572295425E+03  0.33673262873E+03  0.79942029646E+02 0.  0.
         23    2    1    2    0    0  0.55961170816E+02 -0.57608350642E-01  0.29655703302E+01  0.12100959843E+03  0.10725144450E+03 0.  0.
         11    1    3    3    0    0 -0.29421205732E+02  0.31677220494E+02  0.95946873575E+02  0.10523714265E+03  0.00000000000E+00 0. -1.
        -12    1    3    3    0    0 -0.41695039111E+00 -0.28159172181E+02  0.22977608067E+03  0.23149548608E+03  0.00000000000E+00 0.  1.
        -13    1    4    4    0    0  0.73068885948E+02  0.20394877868E+02 -0.27345220937E+02  0.80639780785E+02  0.00000000000E+00 0. -1.
         13    1    4    4    0    0 -0.17107715131E+02 -0.20452486219E+02  0.30310791267E+02  0.40369817646E+02  0.00000000000E+00 0.  1.
         21    1    1    2  502  501 -0.26123014694E+02 -0.34604399627E+01  0.10567052780E+03  0.10890659754E+03  0.00000000000E+00 0.  1.
<scales pt_clust_5="13000.00000" pt_clust_6="13000.00000" pt_clust_7="13000.00000" pt_clust_8="13000.00000" pt_clust_9="26.35122"></scales>
<clustering>
<clus scale="   26.351">  1  9  2 -1</clus>
<clus scale="   79.942">  5  6 -1 -1</clus>
<clus scale="   95.283">  1  5  2 -1</clus>
<clus scale="  107.251">  7  8 -1 -1</clus>
<clus scale="  119.126">  2  5  1 -1</clus>
</clustering>
</event>
<event>
 9    1  0.2333971E-005  0.1065687E+03  0.7546771E-02  0.1269211E+00
         -2   -1    0    0    0  501 -0.00000000000E+00  0.00000000000E+00  0.34145110868E+03  0.34145110868E+03  0.00000000000E+00 0.  1.
          1   -1    0    0  502    0  0.00000000000E+00 -0.00000000000E+00 -0.15809386180E+03  0.15809386180E+03  0.00000000000E+00 0. -1.
        -24    2    1    2    0    0 -0.93772467448E+01 -0.42925603791E+02  0.30350743878E+03  0.32187903502E+03  0.97769154499E+02 0.  0.
         23    2    1    2    0    0 -0.14564948998E+01  0.20443703354E+02 -0.11936217802E+03  0.15269741986E+03  0.93000570456E+02 0.  0.
         11    1    3    3    0    0 -0.35036739772E+02  0.18512745408E+02  0.13495732475E+03  0.14065480575E+03  0.00000000000E+00 0. -1.
        -12    1    3    3    0    0  0.25659493027E+02 -0.61438349199E+02  0.16855011403E+03  0.18122422927E+03  0.00000000000E+00 0.  1.
        -13    1    4    4    0    0  0.37672364866E+02  0.20440675684E+02 -0.22885545758E+02  0.48587822565E+02  0.00000000000E+00 0. -1.
         13    1    4    4    0    0 -0.39128859765E+02  0.30276701789E-02 -0.96476632263E+02  0.10410959729E+03  0.00000000000E+00 0.  1.
         21    1    1    2  502  501  0.10833741645E+02  0.22481900438E+02 -0.78801387795E+00  0.24968515598E+02  0.00000000000E+00 0. -1.
<scales pt_clust_5="13000.00000" pt_clust_6="13000.00000" pt_clust_7="13000.00000" pt_clust_8="13000.00000" pt_clust_9="24.95608"></scales>
<clustering>
<clus scale="   24.956">  2  9  1 -1</clus>
<clus scale="   93.001">  7  8 -1 -1</clus>
<clus scale="   97.769">  5  6 -1 -1</clus>
<clus scale="  102.212">  2  7  1 -1</clus>
<clus scale="   24.956">  2  5  1 -1</clus>
</clustering>
</event>
<event>
 9    1  0.2333971E-005  0.1128077E+03  0.7546771E-02  0.1257677E+00
         -2   -1    0    0    0  501 -0.00000000000E+00  0.00000000000E+00  0.54388204367E+02  0.54388204367E+02  0.00000000000E+00 0.  1.
          1   -1    0    0  502    0  0.00000000000E+00 -0.00000000000E+00 -0.28931030393E+03  0.28931030393E+03  0.00000000000E+00 0. -1.
        -24    2    1    2    0    0  0.34113366027E+02 -0.45115855387E+02 -0.77969646082E+02  0.12669369365E+03  0.82297412784E+02 0.  0.
         23    2    1    2    0    0 -0.42510865210E+02  0.70350412800E+02 -0.14217729299E+03  0.18658103698E+03  0.88553636147E+02 0.  0.
         11    1    3    3    0    0  0.24763408420E+01  0.23842757116E+02 -0.19796055754E+02  0.31088473013E+02  0.00000000000E+00 0. -1.
        -12    1    3    3    0    0  0.31637025185E+02 -0.68958612503E+02 -0.58173590328E+02  0.95605220634E+02  0.00000000000E+00 0.  1.
        -13    1    4    4    0    0  0.10572953918E+02  0.17765463558E+02  0.52236338623E+01  0.21323353411E+02  0.00000000000E+00 0.  1.
         13    1    4    4    0    0 -0.53083819128E+02  0.52584949242E+02 -0.14740092685E+03  0.16525768356E+03  0.00000000000E+00 0. -1.
         21    1    1    2  502  501  0.83974991831E+01 -0.25234557413E+02 -0.14775160489E+02  0.30423777672E+02  0.00000000000E+00 0.  1.
<scales pt_clust_5="13000.00000" pt_clust_6="13000.00000" pt_clust_7="13000.00000" pt_clust_8="13000.00000" pt_clust_9="26.59513"></scales>
<clustering>
<clus scale="   26.595">  1  9  2 -1</clus>
<clus scale="   82.297">  5  6 -1 -1</clus>
<clus scale="   88.554">  7  8 -1 -1</clus>
<clus scale="  107.966">  1  5  2 -1</clus>
<clus scale="  112.808">  2  5  1 -1</clus>
</clustering>
</event>
<event>
 9    1  0.2333971E-005  0.1004953E+03  0.7546771E-02  0.1285606E+00
         -2   -1    0    0    0  501 -0.00000000000E+00  0.00000000000E+00  0.15442803911E+03  0.15442803911E+03  0.00000000000E+00 0.  1.
          1   -1    0    0  502    0  0.00000000000E+00 -0.00000000000E+00 -0.22477571060E+03  0.22477571060E+03  0.00000000000E+00 0. -1.
        -24    2    1    2    0    0 -0.56245523373E+02 -0.31721313135E+01  0.57633498608E+02  0.11422714144E+03  0.80948121433E+02 0.  0.
         23    2    1    2    0    0  0.33409087462E+02 -0.96215146192E+01 -0.18057701661E+03  0.20622711251E+03  0.93342500154E+02 0.  0.
         11    1    3    3    0    0 -0.20533633180E+02 -0.27158971298E+02 -0.87214512157E+01  0.35146884995E+02  0.00000000000E+00 0. -1.
        -12    1    3    3    0    0 -0.35711890193E+02  0.23986839984E+02  0.66354949824E+02  0.79080256447E+02  0.00000000000E+00 0.  1.
        -11    1    4    4    0    0 -0.68291675771E+01 -0.35450632570E+02 -0.13650832242E+03  0.14120165356E+03  0.00000000000E+00 0. -1.
         11    1    4    4    0    0  0.40238255039E+02  0.25829117951E+02 -0.44068694195E+02  0.65025458943E+02  0.00000000000E+00 0.  1.
         21    1    1    2  502  501  0.22836435911E+02  0.12793645933E+02  0.52595846513E+02  0.58749495758E+02  0.00000000000E+00 0.  1.
<scales pt_clust_5="13000.00000" pt_clust_6="13000.00000" pt_clust_7="13000.00000" pt_clust_8="13000.00000" pt_clust_9="26.17595"></scales>
<clustering>
<clus scale="   26.176">  1  9  2 -1</clus>
<clus scale="   80.948">  5  6 -1 -1</clus>
<clus scale="   89.102">  1  5  2 -1</clus>
<clus scale="   93.343">  7  8 -1 -1</clus>
<clus scale="  100.495">  2  5  1 -1</clus>
</clustering>
</event>
<event>
 9    1  0.2333971E-005  0.1016334E+03  0.7546771E-02  0.1278154E+00
         -2   -1    0    0    0  501 -0.00000000000E+00  0.00000000000E+00  0.29609888946E+03  0.29609888946E+03  0.00000000000E+00 0.  1.
          1   -1    0    0  502    0  0.00000000000E+00 -0.00000000000E+00 -0.10667545928E+03  0.10667545928E+03  0.00000000000E+00 0. -1.
        -24    2    1    2    0    0 -0.47056442939E+02 -0.96699325025E+00  0.14494826363E+03  0.17505071476E+03  0.86124965656E+02 0.  0.
         23    2    1    2    0    0  0.40054565936E+02  0.31930687055E+02 -0.59782204677E+02  0.11874025878E+03  0.88889819616E+02 0.  0.
         11    1    3    3    0    0 -0.64395901464E+02  0.18989064582E+01  0.59112145345E+02  0.87433881867E+02  0.00000000000E+00 0. -1.
        -12    1    3    3    0    0  0.17339458525E+02 -0.28658997084E+01  0.85836118290E+02  0.87616832892E+02  0.00000000000E+00 0.  1.
        -13    1    4    4    0    0  0.57495674984E+02 -0.18828454928E+01 -0.13987019206E+02  0.59202486901E+02  0.00000000000E+00 0.  1.
         13    1    4    4    0    0 -0.17441109048E+02  0.33813532547E+02 -0.45795185472E+02  0.59537771881E+02  0.00000000000E+00 0. -1.
         21    1    1    2  502  501  0.70018770028E+01 -0.30963693804E+02  0.10425737122E+03  0.10898337520E+03  0.00000000000E+00 0.  1.
<scales pt_clust_5="13000.00000" pt_clust_6="13000.00000" pt_clust_7="13000.00000" pt_clust_8="13000.00000" pt_clust_9="31.74550"></scales>
<clustering>
<clus scale="   31.745">  1  9  2 -1</clus>
<clus scale="   86.125">  5  6 -1 -1</clus>
<clus scale="   88.890">  7  8 -1 -1</clus>
<clus scale="   99.224">  1  5  2 -1</clus>
<clus scale="  101.633">  2  5  1 -1</clus>
</clustering>
</event>
<event>
 9    1  0.2333971E-005  0.1189717E+03  0.7546771E-02  0.1250202E+00
          1   -1    0    0  502    0  0.00000000000E+00  0.00000000000E+00  0.17719664927E+03  0.17719664927E+03  0.00000000000E+00 0. -1.
         -2   -1    0    0    0  501 -0.00000000000E+00 -0.00000000000E+00 -0.19129911027E+03  0.19129911027E+03  0.00000000000E+00 0.  1.
         23    2    1    2    0    0  0.67824687052E+02  0.70489434693E+02 -0.47375786418E+02  0.13889922133E+03  0.86484564921E+02 0.  0.
        -24    2    1    2    0    0 -0.35579239555E+02 -0.70282204409E+02  0.10671553350E+03  0.14938700165E+03  0.68722635488E+02 0.  0.
         13    1    4    4    0    0  0.12676399400E+02 -0.39960520878E+02  0.22163503755E+02  0.47421042052E+02  0.00000000000E+00 0. -1.
        -14    1    4    4    0    0 -0.48255638956E+02 -0.30321683532E+02  0.84552029745E+02  0.10196595960E+03  0.00000000000E+00 0.  1.
        -11    1    3    3    0    0  0.74393656854E+02  0.17464436159E+02 -0.35022041660E+02  0.84059301166E+02  0.00000000000E+00 0. -1.
         11    1    3    3    0    0 -0.65689698027E+01  0.53024998534E+02 -0.12353744759E+02  0.54839920161E+02  0.00000000000E+00 0.  1.
         21    1    1    2  502  501 -0.32245447496E+02 -0.20723028378E+00 -0.73442208081E+02  0.80209536568E+02  0.00000000000E+00 0.  1.
<scales pt_clust_5="13000.00000" pt_clust_6="13000.00000" pt_clust_7="13000.00000" pt_clust_8="13000.00000" pt_clust_9="32.24611"></scales>
<clustering>
<clus scale="   32.246">  2  9  1 -1</clus>
<clus scale="   68.723">  5  6 -1 -1</clus>
<clus scale="   86.485">  7  8 -1 -1</clus>
<clus scale="  106.759">  1  5  2 -1</clus>
<clus scale="  106.759">  1  5  2 -1</clus>
</clustering>
</event>
<event>
 9    1  0.2333971E-005  0.1196749E+03  0.7546771E-02  0.1248761E+00
          1   -1    0    0  502    0  0.00000000000E+00  0.00000000000E+00  0.31018511631E+03  0.31018511631E+03  0.00000000000E+00 0. -1.
         -2   -1    0    0    0  501 -0.00000000000E+00 -0.00000000000E+00 -0.18924492420E+03  0.18924492420E+03  0.00000000000E+00 0.  1.
         23    2    1    2    0    0  0.76424247124E+02  0.63391072184E+02 -0.10955034817E+03  0.17436444039E+03  0.92426109450E+02 0.  0.
        -24    2    1    2    0    0 -0.38605648588E+02 -0.63892956418E+02  0.25733117450E+03  0.27868761041E+03  0.76646884113E+02 0.  0.
         11    1    4    4    0    0  0.32297848313E+01 -0.63213392145E+02  0.17933554273E+03  0.19017781507E+03  0.00000000000E+00 0. -1.
        -12    1    4    4    0    0 -0.41835433419E+02 -0.67956427233E+00  0.77995631771E+02  0.88509795346E+02  0.00000000000E+00 0.  1.
        -13    1    3    3    0    0  0.51167483797E+02  0.71945230955E+02 -0.34619387613E+02  0.94830003976E+02  0.00000000000E+00 0. -1.
         13    1    3    3    0    0  0.25256763326E+02 -0.85541587711E+01 -0.74930960559E+02  0.79534436418E+02  0.00000000000E+00 0.  1.
         21    1    1    2  502  501 -0.37818598536E+02  0.50188423387E+00 -0.26840634230E+02  0.46377989703E+02  0.00000000000E+00 0. -1.
<scales pt_clust_5="13000.00000" pt_clust_6="13000.00000" pt_clust_7="13000.00000" pt_clust_8="13000.00000" pt_clust_9="37.82193"></scales>
<clustering>
<clus scale="   37.822">  2  9  1 -1</clus>
<clus scale="   76.647">  5  6 -1 -1</clus>
<clus scale="   92.426">  7  8 -1 -1</clus>
<clus scale="  107.955">  1  5  2 -1</clus>
<clus scale="  107.955">  1  5  2 -1</clus>
</clustering>
</event>
<event>
 9    1  0.2333971E-005  0.1069410E+03  0.7546771E-02  0.1275650E+00
         -2   -1    0    0    0  501 -0.00000000000E+00  0.00000000000E+00  0.72767017357E+02  0.72767017357E+02  0.00000000000E+00 0.  1.
          1   -1    0    0  502    0  0.00000000000E+00 -0.00000000000E+00 -0.54479774490E+03  0.54479774490E+03  0.00000000000E+00 0. -1.
        -24    2    1    2    0    0 -0.32763792152E+02  0.65176461340E+02 -0.86062997793E+00  0.10189013470E+03  0.71129611807E+02 0.  0.
         23    2    1    2    0    0  0.31527025485E+02  0.30514381945E+02 -0.15752315784E+03  0.18775288403E+03  0.92263315376E+02 0.  0.
         13    1    3    3    0    0 -0.36393001355E+02  0.75171892996E+00  0.63892630720E+01  0.36957249784E+02  0.00000000000E+00 0. -1.
        -14    1    3    3    0    0  0.36292092032E+01  0.64424742410E+02 -0.72498930499E+01  0.64932884914E+02  0.00000000000E+00 0.  1.
        -13    1    4    4    0    0  0.53702595927E+02  0.48007265216E+02 -0.95666409933E+02  0.11975277998E+03  0.00000000000E+00 0.  1.
         13    1    4    4    0    0 -0.22175570442E+02 -0.17492883271E+02 -0.61856747903E+02  0.68000104049E+02  0.00000000000E+00 0. -1.
         21    1    1    2  502  501  0.12367666667E+01 -0.95690843285E+02 -0.31364693973E+03  0.32792174354E+03  0.00000000000E+00 0. -1.
<scales pt_clust_5="13000.00000" pt_clust_6="13000.00000" pt_clust_7="13000.00000" pt_clust_8="13000.00000" pt_clust_9="95.69884"></scales>
<clustering>
<clus scale="   71.130">  5  6 -1 -1</clus>
<clus scale="   92.263">  7  8 -1 -1</clus>
<clus scale="   95.699">  2  9  1 -1</clus>
<clus scale="   89.349">  1  5  2 -1</clus>
<clus scale="   95.699">  2  5  1 -1</clus>
</clustering>
</event>
<event>
 9    1  0.2333971E-005  0.1134395E+03  0.7546771E-02  0.1255765E+00
          1   -1    0    0  502    0  0.00000000000E+00  0.00000000000E+00  0.15531661559E+03  0.15531661559E+03  0.00000000000E+00 0. -1.
         -2   -1    0    0    0  501 -0.00000000000E+00 -0.00000000000E+00 -0.15692832051E+03  0.15692832051E+03  0.00000000000E+00 0.  1.
        -24    2    1    2    0    0  0.23437298837E+02 -0.75000930183E+02 -0.69817572034E+02  0.13561541236E+03  0.85688973615E+02 0.  0.
         23    2    1    2    0    0  0.94940647947E+01  0.67772350739E+02  0.82714254627E+02  0.13992502293E+03  0.89744834578E+02 0.  0.
         13    1    3    3    0    0  0.54115758471E+02 -0.49706305769E+02 -0.30070793767E+02  0.79394488385E+02  0.00000000000E+00 0. -1.
        -14    1    3    3    0    0 -0.30678459635E+02 -0.25294624414E+02 -0.39746778267E+02  0.56220923973E+02  0.00000000000E+00 0.  1.
        -13    1    4    4    0    0 -0.12367385063E+02  0.39767865880E+02 -0.80838800325E+01  0.42423866942E+02  0.00000000000E+00 0.  1.
         13    1    4    4    0    0  0.21861449858E+02  0.28004484859E+02  0.90798134659E+02  0.97501155991E+02  0.00000000000E+00 0. -1.
         21    1    1    2  502  501 -0.32931363631E+02  0.72285794441E+01 -0.14508387510E+02  0.36704500808E+02  0.00000000000E+00 0.  1.
<scales pt_clust_5="13000.00000" pt_clust_6="13000.00000" pt_clust_7="13000.00000" pt_clust_8="13000.00000" pt_clust_9="33.71538"></scales>
<clustering>
<clus scale="   33.715">  2  9  1 -1</clus>
<clus scale="   85.689">  5  6 -1 -1</clus>
<clus scale="   89.745">  7  8 -1 -1</clus>
<clus scale="  110.259">  2  5  1 -1</clus>
<clus scale="  113.439">  1  5  2 -1</clus>
</clustering>
</event>
<event>
 9    1  0.2333971E-005  0.1216792E+03  0.7546771E-02  0.1242727E+00
          1   -1    0    0  502    0  0.00000000000E+00  0.00000000000E+00  0.21323429429E+03  0.21323429429E+03  0.00000000000E+00 0. -1.
         -2   -1    0    0    0  501 -0.00000000000E+00 -0.00000000000E+00 -0.11878675610E+03  0.11878675610E+03  0.00000000000E+00 0.  1.
         23    2    1    2    0    0 -0.49456787767E+02 -0.79387923489E+02 -0.40921478916E+01  0.12965924621E+03  0.89701494983E+02 0.  0.
        -24    2    1    2    0    0  0.27436051391E+02  0.74007497241E+02  0.12404248871E+03  0.16824062661E+03  0.81783389968E+02 0.  0.
         13    1    4    4    0    0  0.55033808356E+01  0.22935884902E+02  0.10777672195E+03  0.11032752971E+03  0.00000000000E+00 0. -1.
        -14    1    4    4    0    0  0.21932670556E+02  0.51071612339E+02  0.16265766751E+02  0.57913096900E+02  0.00000000000E+00 0.  1.
        -11    1    3    3    0    0  0.35195803005E+01 -0.50133235710E+02 -0.35448830282E+02  0.61500799480E+02  0.00000000000E+00 0. -1.
         11    1    3    3    0    0 -0.52976368068E+02 -0.29254687779E+02  0.31356682391E+02  0.68158446734E+02  0.00000000000E+00 0.  1.
         21    1    1    2  502  501  0.22020736376E+02  0.53804262483E+01 -0.25502802617E+02  0.34121177566E+02  0.00000000000E+00 0. -1.
<scales pt_clust_5="13000.00000" pt_clust_6="13000.00000" pt_clust_7="13000.00000" pt_clust_8="13000.00000" pt_clust_9="22.66852"></scales>
<clustering>
<clus scale="   22.669">  2  9  1 -1</clus>
<clus scale="   81.783">  5  6 -1 -1</clus>
<clus scale="   89.701">  7  8 -1 -1</clus>
<clus scale="  115.965">  1  5  2 -1</clus>
<clus scale="  115.965">  1  5  2 -1</clus>
</clustering>
</event>
<event>
 9    1  0.2333971E-005  0.1253625E+03  0.7546771E-02  0.1237292E+00
         -2   -1    0    0    0  501 -0.00000000000E+00  0.00000000000E+00  0.15655188264E+03  0.15655188264E+03  0.00000000000E+00 0.  1.
          1   -1    0    0  502    0  0.00000000000E+00 -0.00000000000E+00 -0.26095176847E+03  0.26095176847E+03  0.00000000000E+00 0. -1.
        -24    2    1    2    0    0 -0.33238232679E+02 -0.63174959729E+02  0.73287858126E+02  0.13063030707E+03  0.81223834734E+02 0.  0.
         23    2    1    2    0    0  0.52927506816E+02  0.71374471535E+02 -0.21154672578E+03  0.24685672048E+03  0.91052661099E+02 0.  0.
         13    1    3    3    0    0 -0.45197834736E+02 -0.47109808694E+02  0.12294567102E+02  0.66432934003E+02  0.00000000000E+00 0. -1.
        -14    1    3    3    0    0  0.11959602057E+02 -0.16065151035E+02  0.60993291024E+02  0.64197373070E+02  0.00000000000E+00 0.  1.
        -11    1    4    4    0    0 -0.15719617389E+02  0.53638201528E+02 -0.83275819555E+02  0.10029469157E+03  0.00000000000E+00 0. -1.
         11    1    4    4    0    0  0.68647124204E+02  0.17736270008E+02 -0.12827090623E+03  0.14656202892E+03  0.00000000000E+00 0.  1.
         21    1    1    2  502  501 -0.19689274137E+02 -0.81995118059E+01  0.33858981828E+02  0.40016623550E+02  0.00000000000E+00 0. -1.
<scales pt_clust_5="13000.00000" pt_clust_6="13000.00000" pt_clust_7="13000.00000" pt_clust_8="13000.00000" pt_clust_9="21.32837"></scales>
<clustering>
<clus scale="   21.328">  1  9  2 -1</clus>
<clus scale="   81.224">  5  6 -1 -1</clus>
<clus scale="   91.053">  7  8 -1 -1</clus>
<clus scale="  118.417">  1  5  2 -1</clus>
<clus scale="  125.362">  2  5  1 -1</clus>
</clustering>
</event>
<event>
 9    1  0.2333971E-005  0.1163205E+03  0.7546771E-02  0.1255285E+00
         -2   -1    0    0    0  501 -0.00000000000E+00  0.00000000000E+00  0.26468153742E+03  0.26468153742E+03  0.00000000000E+00 0.  1.
          1   -1    0    0  502    0  0.00000000000E+00 -0.00000000000E+00 -0.21483350781E+03  0.21483350781E+03  0.00000000000E+00 0. -1.
        -24    2    1    2    0    0  0.73412475451E+02  0.21369346369E+02  0.13855035922E+03  0.17752367872E+03  0.80451314156E+02 0.  0.
         23    2    1    2    0    0 -0.58473129687E+02  0.29434442794E+02 -0.16924280033E+03  0.20560165508E+03  0.96661376929E+02 0.  0.
         11    1    3    3    0    0  0.14431003816E+02  0.44885496898E+02  0.52199859610E+02  0.70340507861E+02  0.00000000000E+00 0. -1.
        -12    1    3    3    0    0  0.58981471635E+02 -0.23516150529E+02  0.86350499614E+02  0.10718317086E+03  0.00000000000E+00 0.  1.
        -11    1    4    4    0    0 -0.18937205156E+02 -0.17786287907E+02 -0.13001000390E+03  0.13258043178E+03  0.00000000000E+00 0. -1.
         11    1    4    4    0    0 -0.39535924532E+02  0.47220730702E+02 -0.39232796431E+02  0.73021223301E+02  0.00000000000E+00 0.  1.
         21    1    1    2  502  501 -0.14939345764E+02 -0.50803789163E+02  0.80540470721E+02  0.96389711427E+02  0.00000000000E+00 0.  1.
<scales pt_clust_5="13000.00000" pt_clust_6="13000.00000" pt_clust_7="13000.00000" pt_clust_8="13000.00000" pt_clust_9="52.95478"></scales>
<clustering>
<clus scale="   52.955">  1  9  2 -1</clus>
<clus scale="   80.451">  5  6 -1 -1</clus>
<clus scale="   96.661">  7  8 -1 -1</clus>
<clus scale="  103.245">  1  5  2 -1</clus>
<clus scale="  116.320">  2  5  1 -1</clus>
</clustering>
</event>
<event>
 9    1  0.2333971E-005  0.2044896E+03  0.7546771E-02  0.1158490E+00
          1   -1    0    0  502    0  0.00000000000E+00  0.00000000000E+00  0.37836006181E+03  0.37836006181E+03  0.00000000000E+00 0. -1.
         -2   -1    0    0    0  501 -0.00000000000E+00 -0.00000000000E+00 -0.26476548074E+03  0.26476548074E+03  0.00000000000E+00 0.  1.
         23    2    1    2    0    0 -0.10783922891E+03 -0.56955167592E+02  0.10858676554E+02  0.15269026005E+03  0.91231651586E+02 0.  0.
        -24    2    1    2    0    0 -0.92535630244E+02  0.10708637344E+03 -0.10770444462E+03  0.19556520513E+03  0.81333681979E+02 0.  0.
         13    1    4    4    0    0  0.82693777729E+01  0.29651896877E+02 -0.30891171101E+01  0.30938006427E+02  0.00000000000E+00 0. -1.
        -14    1    4    4    0    0 -0.10080500802E+03  0.77434476564E+02 -0.10461532751E+03  0.16462719870E+03  0.00000000000E+00 0.  1.
        -11    1    3    3    0    0 -0.10797815700E+03 -0.15760477519E+02 -0.31808814037E+01  0.10916864498E+03  0.00000000000E+00 0.  1.
         11    1    3    3    0    0  0.13892808349E+00 -0.41194690073E+02  0.14039557957E+02  0.43521615076E+02  0.00000000000E+00 0. -1.
         21    1    1    2  502  501  0.20037485916E+03 -0.50131205848E+02  0.21044034914E+03  0.29487007737E+03  0.00000000000E+00 0. -1.
<scales pt_clust_5="13000.00000" pt_clust_6="13000.00000" pt_clust_7="13000.00000" pt_clust_8="13000.00000" pt_clust_9="187.61885"></scales>
<clustering>
<clus scale="   81.334">  5  6 -1 -1</clus>
<clus scale="   91.232">  7  8 -1 -1</clus>
<clus scale="  152.304">  2  7  1 -1</clus>
<clus scale="  187.619">  1  9  2 -1</clus>
<clus scale="  187.619">  1  5  2 -1</clus>
</clustering>
</event>
<event>
 9    1  0.2333971E-005  0.2756890E+03  0.7546771E-02  0.1098484E+00
         -2   -1    0    0    0  501 -0.00000000000E+00  0.00000000000E+00  0.16939646670E+03  0.16939646670E+03  0.00000000000E+00 0.  1.
          1   -1    0    0  502    0  0.00000000000E+00 -0.00000000000E+00 -0.74761474465E+03  0.74761474465E+03  0.00000000000E+00 0. -1.
         23    2    1    2    0    0  0.90776392951E+02 -0.22868769240E+03 -0.62102207130E+01  0.26157558957E+03  0.88570921013E+02 0.  0.
        -24    2    1    2    0    0 -0.71029876647E+02  0.25554607999E+03 -0.54944076480E+03  0.61517918654E+03  0.78811389748E+02 0.  0.
         13    1    4    4    0    0 -0.86911528618E+02  0.20092365999E+03 -0.41503030671E+03  0.46922711605E+03  0.00000000000E+00 0. -1.
        -14    1    4    4    0    0  0.15881651971E+02  0.54622420002E+02 -0.13441045809E+03  0.14595207049E+03  0.00000000000E+00 0.  1.
        -13    1    3    3    0    0  0.22164915719E+02  0.29714178145E+00 -0.39844469771E+01  0.22522157974E+02  0.00000000000E+00 0. -1.
         13    1    3    3    0    0  0.68611477232E+02 -0.22898483418E+03 -0.22257737358E+01  0.23905343160E+03  0.00000000000E+00 0.  1.
         21    1    1    2  502  501 -0.19746516304E+02 -0.26858387592E+02 -0.22567292433E+02  0.40256435237E+02  0.00000000000E+00 0. -1.
<scales pt_clust_5="13000.00000" pt_clust_6="13000.00000" pt_clust_7="13000.00000" pt_clust_8="13000.00000" pt_clust_9="33.33613"></scales>
<clustering>
<clus scale="   33.336">  1  9  2 -1</clus>
<clus scale="   78.811">  5  6 -1 -1</clus>
<clus scale="   88.571">  7  8 -1 -1</clus>
<clus scale="  272.710">  2  5  1 -1</clus>
<clus scale="  272.710">  2  5  1 -1</clus>
</clustering>
</event>
<event>
 9    1  0.2333971E-005  0.1423965E+03  0.7546771E-02  0.1212434E+00
          1   -1    0    0  502    0  0.00000000000E+00  0.00000000000E+00  0.31900611996E+03  0.31900611996E+03  0.00000000000E+00 0. -1.
         -2   -1    0    0    0  501 -0.00000000000E+00 -0.00000000000E+00 -0.22573249920E+03  0.22573249920E+03  0.00000000000E+00 0.  1.
        -24    2    1    2    0    0  0.88989095033E+02  0.11502587691E+02 -0.45165669248E+02  0.12896362558E+03  0.80872186113E+02 0.  0.
         23    2    1    2    0    0 -0.10454527829E+03 -0.44911009000E+02  0.25477407935E+03  0.29374261811E+03  0.91805120992E+02 0.  0.
         11    1    3    3    0    0  0.33699900412E+02 -0.25273879125E+02  0.92314913633E+01  0.43123922439E+02  0.00000000000E+00 0. -1.
        -12    1    3    3    0    0  0.55289194621E+02  0.36776466815E+02 -0.54397160612E+02  0.85839703144E+02  0.00000000000E+00 0.  1.
        -11    1    4    4    0    0 -0.11853800311E+03 -0.30375990510E+02  0.19085368559E+03  0.22671367027E+03  0.00000000000E+00 0. -1.
         11    1    4    4    0    0  0.13992724820E+02 -0.14535018490E+02  0.63920393759E+02  0.67028947841E+02  0.00000000000E+00 0.  1.
         21    1    1    2  502  501  0.15556183258E+02  0.33408421309E+02 -0.11633478935E+03  0.12203237547E+03  0.00000000000E+00 0.  1.
<scales pt_clust_5="13000.00000" pt_clust_6="13000.00000" pt_clust_7="13000.00000" pt_clust_8="13000.00000" pt_clust_9="36.85265"></scales>
<clustering>
<clus scale="   36.853">  2  9  1 -1</clus>
<clus scale="   80.872">  5  6 -1 -1</clus>
<clus scale="   91.805">  7  8 -1 -1</clus>
<clus scale="  135.606">  2  5  1 -1</clus>
<clus scale="  142.396">  1  5  2 -1</clus>
</clustering>
</event>
<event>
 9    1  0.2333971E-005  0.1818435E+03  0.7546771E-02  0.1167258E+00
          1   -1    0    0  502    0  0.00000000000E+00  0.00000000000E+00  0.94198469297E+03  0.94198469297E+03  0.00000000000E+00 0. -1.
         -2   -1    0    0    0  501 -0.00000000000E+00 -0.00000000000E+00 -0.72163274652E+02  0.72163274652E+02  0.00000000000E+00 0.  1.
         23    2    1    2    0    0 -0.83441007534E+02 -0.12316184580E+03  0.14991046286E+03  0.22997040861E+03  0.91005494152E+02 0.  0.
        -24    2    1    2    0    0  0.61749155098E+02  0.14808001272E+03  0.72830582562E+03  0.75009053288E+03  0.80410096220E+02 0.  0.
         11    1    4    4    0    0  0.60486511280E+02  0.12294694617E+03  0.69482808227E+03  0.70820945597E+03  0.00000000000E+00 0. -1.
        -12    1    4    4    0    0  0.12626438180E+01  0.25133066552E+02  0.33477743347E+02  0.41881076912E+02  0.00000000000E+00 0.  1.
        -13    1    3    3    0    0 -0.42470972102E+02 -0.46250766375E+02  0.12410646117E+03  0.13908749248E+03  0.00000000000E+00 0. -1.
         13    1    3    3    0    0 -0.40970035432E+02 -0.76911079420E+02  0.25804001686E+02  0.90882916128E+02  0.00000000000E+00 0.  1.
         21    1    1    2  502  501  0.21691852436E+02 -0.24918166923E+02 -0.83948701584E+01  0.34087026122E+02  0.00000000000E+00 0.  1.
<scales pt_clust_5="13000.00000" pt_clust_6="13000.00000" pt_clust_7="13000.00000" pt_clust_8="13000.00000" pt_clust_9="33.03712"></scales>
<clustering>
<clus scale="   33.037">  2  9  1 -1</clus>
<clus scale="   80.410">  5  6 -1 -1</clus>
<clus scale="   91.005">  7  8 -1 -1</clus>
<clus scale="  176.779">  1  5  2 -1</clus>
<clus scale="  176.779">  1  5  2 -1</clus>
</clustering>
</event>
<event>
 9    1  0.2333971E-005  0.9660058E+02  0.7546771E-02  0.1306469E+00
         -2   -1    0    0    0  501 -0.00000000000E+00  0.00000000000E+00  0.11485717446E+03  0.11485717446E+03  0.00000000000E+00 0.  1.
          1   -1    0    0  502    0  0.00000000000E+00 -0.00000000000E+00 -0.30916716985E+03  0.30916716985E+03  0.00000000000E+00 0. -1.
         23    2    1    2    0    0 -0.39051305355E+02  0.36594589818E+01 -0.31125234220E+01  0.10389496254E+03  0.96156535655E+02 0.  0.
        -24    2    1    2    0    0 -0.88305526874E+01  0.91015725300E+01 -0.24056955003E+03  0.25017855371E+03  0.67489132822E+02 0.  0.
         11    1    4    4    0    0 -0.35689607608E+02  0.13727823220E+02 -0.10151174944E+03  0.10847505011E+03  0.00000000000E+00 0. -1.
        -12    1    4    4    0    0  0.26859054921E+02 -0.46262506902E+01 -0.13905780060E+03  0.14170350360E+03  0.00000000000E+00 0.  1.
        -11    1    3    3    0    0 -0.67538774623E+02 -0.12783901574E+02  0.79401398148E+01  0.69195086800E+02  0.00000000000E+00 0.  1.
         11    1    3    3    0    0  0.28487469268E+02  0.16443360556E+02 -0.11052663237E+02  0.34699875739E+02  0.00000000000E+00 0. -1.
         21    1    1    2  502  501  0.47881858042E+02 -0.12761031512E+02  0.49372078067E+02  0.69950828068E+02  0.00000000000E+00 0.  1.
<scales pt_clust_5="13000.00000" pt_clust_6="13000.00000" pt_clust_7="13000.00000" pt_clust_8="13000.00000" pt_clust_9="49.55317"></scales>
<clustering>
<clus scale="   49.553">  1  9  2 -1</clus>
<clus scale="   67.489">  5  6 -1 -1</clus>
<clus scale="   68.120">  2  5  1 -1</clus>
<clus scale="   96.157">  7  8 -1 -1</clus>
<clus scale="   68.120">  2  5  1 -1</clus>
</clustering>
</event>
<event>
 9    1  0.2333971E-005  0.1218128E+03  0.7546771E-02  0.1248227E+00
         -2   -1    0    0    0  501 -0.00000000000E+00  0.00000000000E+00  0.15348046488E+03  0.15348046488E+03  0.00000000000E+00 0.  1.
          1   -1    0    0  502    0  0.00000000000E+00 -0.00000000000E+00 -0.14383637491E+03  0.14383637491E+03  0.00000000000E+00 0. -1.
         23    2    1    2    0    0  0.19066488369E+02 -0.37105108898E+02  0.51452522368E+02  0.12211155214E+03  0.10258435077E+03 0.  0.
        -24    2    1    2    0    0 -0.37725623929E+02  0.63371135333E+02 -0.72492574088E+02  0.13071277102E+03  0.79947055701E+02 0.  0.
         13    1    4    4    0    0 -0.14636594645E+02  0.76486488386E+02 -0.68781916203E+02  0.10390074497E+03  0.00000000000E+00 0. -1.
        -14    1    4    4    0    0 -0.23089029284E+02 -0.13115353053E+02 -0.37106578852E+01  0.26812026051E+02  0.00000000000E+00 0.  1.
        -11    1    3    3    0    0  0.16872926721E+01 -0.65903528657E+02  0.58043231826E+02  0.87835862874E+02  0.00000000000E+00 0.  1.
         11    1    3    3    0    0  0.17379195697E+02  0.28798419759E+02 -0.65907094575E+01  0.34275689269E+02  0.00000000000E+00 0. -1.
         21    1    1    2  502  501  0.18659135560E+02 -0.26266026436E+02  0.30684141690E+02  0.44492516627E+02  0.00000000000E+00 0. -1.
<scales pt_clust_5="13000.00000" pt_clust_6="13000.00000" pt_clust_7="13000.00000" pt_clust_8="13000.00000" pt_clust_9="32.21905"></scales>
<clustering>
<clus scale="   32.219">  1  9  2 -1</clus>
<clus scale="   79.947">  5  6 -1 -1</clus>
<clus scale="  102.584">  7  8 -1 -1</clus>
<clus scale="  103.471">  2  5  1 -1</clus>
<clus scale="  103.471">  2  5  1 -1</clus>
</clustering>
</event>
<event>
 9    1  0.2333971E-005  0.2965998E+03  0.7546771E-02  0.1106493E+00
          1   -1    0    0  502    0  0.00000000000E+00  0.00000000000E+00  0.16250432318E+04  0.16250432318E+04  0.00000000000E+00 0. -1.
         -2   -1    0    0    0  501 -0.00000000000E+00 -0.00000000000E+00 -0.25860238373E+03  0.25860238373E+03  0.00000000000E+00 0.  1.
         23    2    1    2    0    0 -0.13379679261E+03 -0.72690103589E+02  0.12397403209E+03  0.21698565717E+03  0.92345990229E+02 0.  0.
        -24    2    1    2    0    0  0.77174897306E+02  0.28366494553E+03  0.13769085637E+04  0.14101623824E+04  0.79113753633E+02 0.  0.
         11    1    4    4    0    0  0.59032086799E+02  0.18974570825E+03  0.10829839219E+04  0.11010642107E+04  0.00000000000E+00 0. -1.
        -12    1    4    4    0    0  0.18142810507E+02  0.93919237282E+02  0.29392464179E+03  0.30909817171E+03  0.00000000000E+00 0.  1.
        -11    1    3    3    0    0 -0.10878624631E+03 -0.88100084336E+02  0.72322881460E+02  0.15756481659E+03  0.00000000000E+00 0. -1.
         11    1    3    3    0    0 -0.25010546302E+02  0.15409980747E+02  0.51651150633E+02  0.59420840575E+02  0.00000000000E+00 0.  1.
         21    1    1    2  502  501  0.56621895303E+02 -0.21097484194E+03 -0.13444174766E+03  0.25649757596E+03  0.00000000000E+00 0.  1.
<scales pt_clust_5="13000.00000" pt_clust_6="13000.00000" pt_clust_7="13000.00000" pt_clust_8="13000.00000" pt_clust_9="285.85388"></scales>
<clustering>
<clus scale="   79.114">  5  6 -1 -1</clus>
<clus scale="   92.346">  7  8 -1 -1</clus>
<clus scale="  178.082">  2  7  1 -1</clus>
<clus scale="  285.854">  2  9  1 -1</clus>
<clus scale="  296.600">  1  5  2 -1</clus>
</clustering>
</event>
<event>
 9    1  0.2333971E-005  0.1303367E+03  0.7546771E-02  0.1230538E+00
          1   -1    0    0  502    0  0.00000000000E+00  0.00000000000E+00  0.27304789091E+03  0.27304789091E+03  0.00000000000E+00 0. -1.
         -2   -1    0    0    0  501 -0.00000000000E+00 -0.00000000000E+00 -0.13403808717E+03  0.13403808717E+03  0.00000000000E+00 0.  1.
         23    2    1    2    0    0 -0.91614045456E+02  0.33166191061E+02 -0.73401132511E+02  0.15190550230E+03  0.90523067899E+02 0.  0.
        -24    2    1    2    0    0  0.67496862223E+02 -0.29810645648E+02  0.20286352667E+03  0.22902610249E+03  0.76516953459E+02 0.  0.
         11    1    4    4    0    0  0.80758818294E+02 -0.26325435354E+02  0.13285890991E+03  0.15769117040E+03  0.00000000000E+00 0. -1.
        -12    1    4    4    0    0 -0.13261956071E+02 -0.34852102943E+01  0.70004616754E+02  0.71334932092E+02  0.00000000000E+00 0.  1.
        -13    1    3    3    0    0 -0.54449378248E+02 -0.27904761506E+02 -0.39119378712E+02  0.72620495022E+02  0.00000000000E+00 0.  1.
         13    1    3    3    0    0 -0.37164667208E+02  0.61070952567E+02 -0.34281753798E+02  0.79285007282E+02  0.00000000000E+00 0. -1.
         21    1    1    2  502  501  0.24117183233E+02 -0.33555454125E+01  0.95474095825E+01  0.26154373284E+02  0.00000000000E+00 0. -1.
<scales pt_clust_5="13000.00000" pt_clust_6="13000.00000" pt_clust_7="13000.00000" pt_clust_8="13000.00000" pt_clust_9="24.34950"></scales>
<clustering>
<clus scale="   24.350">  1  9  2 -1</clus>
<clus scale="   76.517">  5  6 -1 -1</clus>
<clus scale="   90.523">  7  8 -1 -1</clus>
<clus scale="  121.029">  1  5  2 -1</clus>
<clus scale="   24.350">  1  5  2 -1</clus>
</clustering>
</event>
<event>
 9    1  0.2333971E-005  0.1545291E+03  0.7546771E-02  0.1197135E+00
         -2   -1    0    0    0  501 -0.00000000000E+00  0.00000000000E+00  0.10240718198E+03  0.10240718198E+03  0.00000000000E+00 0.  1.
          1   -1    0    0  502    0  0.00000000000E+00 -0.00000000000E+00 -0.46866902986E+03  0.46866902986E+03  0.00000000000E+00 0. -1.
        -24    2    1    2    0    0 -0.18467687742E+02 -0.12231072488E+03 -0.10414771244E+02  0.14829425070E+03  0.81127975567E+02 0.  0.
         23    2    1    2    0    0 -0.90925949232E+01  0.12335401100E+03 -0.36267450426E+03  0.39436943935E+03  0.93250047403E+02 0.  0.
         13    1    3    3    0    0 -0.34932292922E+02 -0.32828532088E+02 -0.28158813452E+02  0.55595830625E+02  0.00000000000E+00 0. -1.
        -14    1    3    3    0    0  0.16464605180E+02 -0.89482192794E+02  0.17744042208E+02  0.92698420077E+02  0.00000000000E+00 0.  1.
        -11    1    4    4    0    0  0.40738556421E+02  0.63456393943E+02 -0.15036242822E+03  0.16821178238E+03  0.00000000000E+00 0. -1.
         11    1    4    4    0    0 -0.49831151344E+02  0.59897617061E+02 -0.21231207604E+03  0.22615765697E+03  0.00000000000E+00 0.  1.
         21    1    1    2  502  501  0.27560282665E+02 -0.10432861226E+01  0.68274276129E+01  0.28412521788E+02  0.00000000000E+00 0.  1.
<scales pt_clust_5="13000.00000" pt_clust_6="13000.00000" pt_clust_7="13000.00000" pt_clust_8="13000.00000" pt_clust_9="27.58002"></scales>
<clustering>
<clus scale="   27.580">  1  9  2 -1</clus>
<clus scale="   81.128">  5  6 -1 -1</clus>
<clus scale="   93.250">  7  8 -1 -1</clus>
<clus scale="  147.531">  1  5  2 -1</clus>
<clus scale="  154.529">  2  5  1 -1</clus>
</clustering>
</event>
<event>
 9    1  0.2333971E-005  0.1185927E+03  0.7546771E-02  0.1248791E+00
          1   -1    0    0  502    0  0.00000000000E+00  0.00000000000E+00  0.17137665448E+03  0.17137665448E+03  0.00000000000E+00 0. -1.
         -2   -1    0    0    0  501 -0.00000000000E+00 -0.00000000000E+00 -0.13365598999E+03  0.13365598999E+03  0.00000000000E+00 0.  1.
         23    2    1    2    0    0 -0.42481957589E+02 -0.39037516121E+02 -0.20439081008E+02  0.11105733343E+03  0.92667852518E+02 0.  0.
        -24    2    1    2    0    0  0.80766295884E+02  0.22172283778E+02  0.84255267865E+02  0.14466909532E+03  0.82555389043E+02 0.  0.
         13    1    4    4    0    0  0.67872687624E+02  0.99780720882E+01  0.99781504713E+02  0.12108927422E+03  0.00000000000E+00 0. -1.
        -14    1    4    4    0    0  0.12893608260E+02  0.12194211689E+02 -0.15526236848E+02  0.23579821105E+02  0.00000000000E+00 0.  1.
        -13    1    3    3    0    0 -0.53527511726E+02 -0.57180860862E+02  0.43089408038E+01  0.78443688919E+02  0.00000000000E+00 0. -1.
         13    1    3    3    0    0  0.11045554137E+02  0.18143344740E+02 -0.24748021812E+02  0.32613644509E+02  0.00000000000E+00 0.  1.
         21    1    1    2  502  501 -0.38284338295E+02  0.16865232344E+02 -0.26095522366E+02  0.49306215716E+02  0.00000000000E+00 0.  1.
<scales pt_clust_5="13000.00000" pt_clust_6="13000.00000" pt_clust_7="13000.00000" pt_clust_8="13000.00000" pt_clust_9="41.83451"></scales>
<clustering>
<clus scale="   41.835">  2  9  1 -1</clus>
<clus scale="   82.555">  5  6 -1 -1</clus>
<clus scale="   92.668">  7  8 -1 -1</clus>
<clus scale="  110.871">  1  5  2 -1</clus>
<clus scale="  110.871">  1  5  2 -1</clus>
</clustering>
</event>
<event>
 9    1  0.2333971E-005  0.2059146E+03  0.7546771E-02  0.1145716E+00
         -4   -1    0    0    0  501 -0.00000000000E+00  0.00000000000E+00  0.15244720136E+04  0.15244720136E+04  0.00000000000E+00 0.  1.
          3   -1    0    0  502    0  0.00000000000E+00 -0.00000000000E+00 -0.55049980410E+02  0.55049980410E+02  0.00000000000E+00 0. -1.
        -24    2    1    2    0    0 -0.16146352164E+03  0.53602850832E+02  0.11391120269E+04  0.11545583229E+04  0.80529352834E+02 0.  0.
         23    2    1    2    0    0  0.18115218504E+03 -0.50012198365E+02  0.18676004635E+03  0.28002531441E+03  0.90650580056E+02 0.  0.
         11    1    3    3    0    0 -0.10526430185E+03  0.73692298701E+01  0.48121795905E+03  0.49265160398E+03  0.00000000000E+00 0. -1.
        -12    1    3    3    0    0 -0.56199219790E+02  0.46233620962E+02  0.65789406789E+03  0.66190671894E+03  0.00000000000E+00 0.  1.
        -13    1    4    4    0    0  0.74782340143E+02 -0.65023826601E+02  0.10962078167E+03  0.14777419327E+03  0.00000000000E+00 0.  1.
         13    1    4    4    0    0  0.10636984490E+03  0.15011628236E+02  0.77139264684E+02  0.13225112114E+03  0.00000000000E+00 0. -1.
         21    1    1    2  502  501 -0.19688663400E+02 -0.35906524676E+01  0.14354995991E+03  0.14493835670E+03  0.00000000000E+00 0. -1.
<scales pt_clust_5="13000.00000" pt_clust_6="13000.00000" pt_clust_7="13000.00000" pt_clust_8="13000.00000" pt_clust_9="20.01340"></scales>
<clustering>
<clus scale="   20.013">  1  9  2 -1</clus>
<clus scale="   80.529">  5  6 -1 -1</clus>
<clus scale="   90.651">  7  8 -1 -1</clus>
<clus scale="  201.664">  1  5  2 -1</clus>
<clus scale="  205.915">  2  5  1 -1</clus>
</clustering>
</event>
<event>
 9    1  0.2333971E-005  0.9312488E+02  0.7546771E-02  0.1301082E+00
          1   -1    0    0  502    0  0.00000000000E+00  0.00000000000E+00  0.18041470408E+03  0.18041470408E+03  0.00000000000E+00 0. -1.
         -2   -1    0    0    0  501 -0.00000000000E+00 -0.00000000000E+00 -0.21502023918E+03  0.21502023918E+03  0.00000000000E+00 0.  1.
        -24    2    1    2    0    0 -0.15024025537E+02 -0.21586245597E+02 -0.12836276674E+03  0.15473034244E+03  0.82296972272E+02 0.  0.
         23    2    1    2    0    0  0.15982866765E+02 -0.66686516448E+01  0.15064055480E+03  0.17718317884E+03  0.91659037579E+02 0.  0.
         13    1    3    3    0    0  0.16336780565E+02 -0.13815770768E+02 -0.11925914199E+03  0.12116314980E+03  0.00000000000E+00 0. -1.
        -14    1    3    3    0    0 -0.31360806102E+02 -0.77704748289E+01 -0.91036247511E+01  0.33567192645E+02  0.00000000000E+00 0.  1.
        -13    1    4    4    0    0 -0.41916974341E+01 -0.41326107339E+02  0.11918643609E+03  0.12621736815E+03  0.00000000000E+00 0. -1.
         13    1    4    4    0    0  0.20174564199E+02  0.34657455694E+02  0.31454118713E+02  0.50965810696E+02  0.00000000000E+00 0.  1.
         21    1    1    2  502  501 -0.95884122756E+00  0.28254897242E+02 -0.56883323164E+02  0.63521421968E+02  0.00000000000E+00 0.  1.
<scales pt_clust_5="13000.00000" pt_clust_6="13000.00000" pt_clust_7="13000.00000" pt_clust_8="13000.00000" pt_clust_9="28.27116"></scales>
<clustering>
<clus scale="   28.271">  2  9  1 -1</clus>
<clus scale="   82.297">  5  6 -1 -1</clus>
<clus scale="   83.926">  2  5  1 -1</clus>
<clus scale="   91.659">  7  8 -1 -1</clus>
<clus scale="   93.125">  1  5  2 -1</clus>
</clustering>
</event>
<event>
 9    1  0.2333971E-005  0.1060738E+03  0.7546771E-02  0.1274359E+00
          1   -1    0    0  502    0  0.00000000000E+00  0.00000000000E+00  0.52164128218E+03  0.52164128218E+03  0.00000000000E+00 0. -1.
         -2   -1    0    0    0  501 -0.00000000000E+00 -0.00000000000E+00 -0.75015958219E+02  0.75015958219E+02  0.00000000000E+00 0.  1.
         23    2    1    2    0    0  0.42014529984E+02  0.33520102708E+02  0.80595097218E+02  0.13511839736E+03  0.94194445659E+02 0.  0.
        -24    2    1    2    0    0 -0.49177079093E+02 -0.37946718867E+01  0.40283583657E+03  0.41368953519E+03  0.80184385390E+02 0.  0.
         13    1    4    4    0    0  0.10964866620E+02  0.25070566282E+02  0.11024905837E+03  0.11359408640E+03  0.00000000000E+00 0. -1.
        -14    1    4    4    0    0 -0.60141945713E+02 -0.28865238168E+02  0.29258677819E+03  0.30009544879E+03  0.00000000000E+00 0.  1.
        -13    1    3    3    0    0  0.64463521297E+02  0.39779850407E+02  0.34020678778E+02  0.83038476990E+02  0.00000000000E+00 0. -1.
         13    1    3    3    0    0 -0.22448991313E+02 -0.62597476993E+01  0.46574418440E+02  0.52079920365E+02  0.00000000000E+00 0.  1.
         21    1    1    2  502  501  0.71625491096E+01 -0.29725430821E+02 -0.36805609826E+02  0.47849307851E+02  0.00000000000E+00 0.  1.
<scales pt_clust_5="13000.00000" pt_clust_6="13000.00000" pt_clust_7="13000.00000" pt_clust_8="13000.00000" pt_clust_9="30.57619"></scales>
<clustering>
<clus scale="   30.576">  2  9  1 -1</clus>
<clus scale="   80.184">  5  6 -1 -1</clus>
<clus scale="   93.854">  1  5  2 -1</clus>
<clus scale="   94.194">  7  8 -1 -1</clus>
<clus scale="   93.854">  1  5  2 -1</clus>
</clustering>
</event>
<event>
 9    1  0.2333971E-005  0.1449191E+03  0.7546771E-02  0.1209277E+00
         -2   -1    0    0    0  501 -0.00000000000E+00  0.00000000000E+00  0.24166014660E+02  0.24166014660E+02  0.00000000000E+00 0.  1.
          1   -1    0    0  502    0  0.00000000000E+00 -0.00000000000E+00 -0.12300065413E+04  0.12300065413E+04  0.00000000000E+00 0. -1.
        -24    2    1    2    0    0  0.60727178197E+02  0.76061503501E+02 -0.23453318538E+03  0.26445038295E+03  0.73858293463E+02 0.  0.
         23    2    1    2    0    0 -0.89074904208E+02 -0.86795102152E+02 -0.89247734518E+03  0.90526524912E+03  0.86727338786E+02 0.  0.
         11    1    3    3    0    0 -0.99204433846E+01  0.32258498742E+02 -0.36678451758E+02  0.49843101443E+02  0.00000000000E+00 0. -1.
        -12    1    3    3    0    0  0.70647621582E+02  0.43803004759E+02 -0.19785473362E+03  0.21460728151E+03  0.00000000000E+00 0.  1.
        -13    1    4    4    0    0  0.88843175762E+01 -0.43685183354E+02 -0.25622500642E+03  0.26007418222E+03  0.00000000000E+00 0.  1.
         13    1    4    4    0    0 -0.97959221784E+02 -0.43109918798E+02 -0.63625233876E+03  0.64519106690E+03  0.00000000000E+00 0. -1.
         21    1    1    2  502  501  0.28347726011E+02  0.10733598651E+02 -0.78829996095E+02  0.84456923898E+02  0.00000000000E+00 0.  1.
<scales pt_clust_5="13000.00000" pt_clust_6="13000.00000" pt_clust_7="13000.00000" pt_clust_8="13000.00000" pt_clust_9="30.31178"></scales>
<clustering>
<clus scale="   30.312">  1  9  2 -1</clus>
<clus scale="   73.858">  5  6 -1 -1</clus>
<clus scale="   86.727">  7  8 -1 -1</clus>
<clus scale="  137.604">  1  5  2 -1</clus>
<clus scale="  144.919">  2  5  1 -1</clus>
</clustering>
</event>
<event>
 9    1  0.2333971E-005  0.1231609E+03  0.7546771E-02  0.1243963E+00
         -2   -1    0    0    0  501 -0.00000000000E+00  0.00000000000E+00  0.38505384757E+02  0.38505384757E+02  0.00000000000E+00 0.  1.
          1   -1    0    0  502    0  0.00000000000E+00 -0.00000000000E+00 -0.67437819636E+03  0.67437819636E+03  0.00000000000E+00 0. -1.
        -24    2    1    2    0    0  0.50339790222E+02  0.64631499567E+02 -0.18153757527E+03  0.21411734316E+03  0.78606743941E+02 0.  0.
         23    2    1    2    0    0 -0.65862664737E+02 -0.35312249566E+02 -0.44865315294E+03  0.46510819099E+03  0.97216933227E+02 0.  0.
         13    1    3    3    0    0  0.21871915184E+02  0.67045534624E+02 -0.16859871561E+03  0.18275396382E+03  0.00000000000E+00 0. -1.
        -14    1    3    3    0    0  0.28467875038E+02 -0.24140350567E+01 -0.12938859656E+02  0.31363379340E+02  0.00000000000E+00 0.  1.
        -11    1    4    4    0    0 -0.68999953090E+02 -0.17045746067E+01 -0.39988824910E+03  0.40580107303E+03  0.00000000000E+00 0. -1.
         11    1    4    4    0    0  0.31372883526E+01 -0.33607674959E+02 -0.48764903834E+02  0.59307117957E+02  0.00000000000E+00 0.  1.
         21    1    1    2  502  501  0.15522874515E+02 -0.29319250001E+02 -0.56820833955E+01  0.33658046966E+02  0.00000000000E+00 0.  1.
<scales pt_clust_5="13000.00000" pt_clust_6="13000.00000" pt_clust_7="13000.00000" pt_clust_8="13000.00000" pt_clust_9="33.17496"></scales>
<clustering>
<clus scale="   33.175">  1  9  2 -1</clus>
<clus scale="   78.607">  5  6 -1 -1</clus>
<clus scale="   97.217">  7  8 -1 -1</clus>
<clus scale="  109.071">  1  5  2 -1</clus>
<clus scale="  123.161">  2  5  1 -1</clus>
</clustering>
</event>
<event>
 9    1  0.2524876E-005  0.1275360E+03  0.7546771E-02  0.1234571E+00
         -2   -1    0    0    0  501 -0.00000000000E+00  0.00000000000E+00  0.57526686807E+03  0.57526686807E+03  0.00000000000E+00 0.  1.
          1   -1    0    0  502    0  0.00000000000E+00 -0.00000000000E+00 -0.54038024125E+03  0.54038024125E+03  0.00000000000E+00 0. -1.
        -24    2    1    2    0    0 -0.33250407316E+02 -0.83548457953E+02  0.42933879167E+03  0.44612585628E+03  0.81305271600E+02 0.  0.
         23    2    1    2    0    0  0.57354662189E+02  0.65137566245E+02 -0.52254354383E+03  0.53788775654E+03  0.93482745059E+02 0.  0.
         13    1    3    3    0    0 -0.25437909032E+02  0.43520384728E+01  0.45846691583E+02  0.52611278106E+02  0.00000000000E+00 0. -1.
        -14    1    3    3    0    0 -0.78124982832E+01 -0.87900496425E+02  0.38349210009E+03  0.39351457817E+03  0.00000000000E+00 0.  1.
        -13    1    4    4    0    0  0.84692392475E+01  0.71393216240E+02 -0.38793736815E+03  0.39454292662E+03  0.00000000000E+00 0. -1.
         13    1    4    4    0    0  0.48885422942E+02 -0.62556499948E+01 -0.13460617568E+03  0.14334482991E+03  0.00000000000E+00 0.  1.
         21    1    1    2  502  501 -0.24104254873E+02  0.18410891708E+02  0.12809137897E+03  0.13163349651E+03  0.00000000000E+00 0.  1.
<scales pt_clust_5="13000.00000" pt_clust_6="13000.00000" pt_clust_7="13000.00000" pt_clust_8="13000.00000" pt_clust_9="30.33111"></scales>
<clustering>
<clus scale="   30.331">  1  9  2 -1</clus>
<clus scale="   81.305">  5  6 -1 -1</clus>
<clus scale="   93.483">  7  8 -1 -1</clus>
<clus scale="  118.899">  1  5  2 -1</clus>
<clus scale="  127.536">  2  5  1 -1</clus>
</clustering>
</event>
<event>
 9    1  0.2333971E-005  0.9433001E+02  0.7546771E-02  0.1299079E+00
          1   -1    0    0  502    0  0.00000000000E+00  0.00000000000E+00  0.13710190637E+03  0.13710190637E+03  0.00000000000E+00 0. -1.
         -2   -1    0    0    0  501 -0.00000000000E+00 -0.00000000000E+00 -0.11571576155E+03  0.11571576155E+03  0.00000000000E+00 0.  1.
         23    2    1    2    0    0  0.42427302481E+02 -0.24769020549E+02 -0.20658105534E+02  0.10524985217E+03  0.90758986784E+02 0.  0.
        -24    2    1    2    0    0 -0.20254563740E+02 -0.66553913249E+01  0.62934281125E+02  0.10380119159E+03  0.79745984530E+02 0.  0.
         11    1    4    4    0    0 -0.12348676084E+02  0.36152654274E+02  0.22212238936E+02  0.44191489798E+02  0.00000000000E+00 0. -1.
        -12    1    4    4    0    0 -0.79058876565E+01 -0.42808045598E+02  0.40722042189E+02  0.59609701792E+02  0.00000000000E+00 0.  1.
        -11    1    3    3    0    0  0.33634715876E+02 -0.58798912874E+02 -0.96772926501E+01  0.68427014112E+02  0.00000000000E+00 0.  1.
         11    1    3    3    0    0  0.87925866049E+01  0.34029892325E+02 -0.10980812884E+02  0.36822838055E+02  0.00000000000E+00 0. -1.
         21    1    1    2  502  501 -0.22172738740E+02  0.31424411874E+02 -0.20890030774E+02  0.43766624163E+02  0.00000000000E+00 0. -1.
<scales pt_clust_5="13000.00000" pt_clust_6="13000.00000" pt_clust_7="13000.00000" pt_clust_8="13000.00000" pt_clust_9="38.45938"></scales>
<clustering>
<clus scale="   38.459">  2  9  1 -1</clus>
<clus scale="   79.746">  5  6 -1 -1</clus>
<clus scale="   83.788">  1  5  2 -1</clus>
<clus scale="   90.759">  7  8 -1 -1</clus>
<clus scale="   83.788">  1  5  2 -1</clus>
</clustering>
</event>
<event>
 9    1  0.2333971E-005  0.1488652E+03  0.7546771E-02  0.1204981E+00
         -2   -1    0    0    0  501 -0.00000000000E+00  0.00000000000E+00  0.82669027889E+02  0.82669027889E+02  0.00000000000E+00 0.  1.
          1   -1    0    0  502    0  0.00000000000E+00 -0.00000000000E+00 -0.61263106305E+03  0.61263106305E+03  0.00000000000E+00 0. -1.
        -24    2    1    2    0    0  0.21066289548E+02 -0.10890753188E+03 -0.21346800288E+03  0.25332322745E+03  0.79368950186E+02 0.  0.
         23    2    1    2    0    0 -0.10088829105E+03  0.84275895478E+02 -0.31949707251E+03  0.35838686597E+03  0.95298963934E+02 0.  0.
         13    1    3    3    0    0  0.43570920994E+01 -0.10401485320E+03 -0.21158633920E+03  0.23581105333E+03  0.00000000000E+00 0. -1.
        -14    1    3    3    0    0  0.16709197448E+02 -0.48926786785E+01 -0.18816636851E+01  0.17512174115E+02  0.00000000000E+00 0.  1.
        -11    1    4    4    0    0 -0.75481144596E+01  0.66514259408E+02 -0.11966371016E+03  0.13711500379E+03  0.00000000000E+00 0.  1.
         11    1    4    4    0    0 -0.93340176587E+02  0.17761636070E+02 -0.19983336235E+03  0.22127186218E+03  0.00000000000E+00 0. -1.
         21    1    1    2  502  501  0.79822001499E+02  0.24631636402E+02  0.30030402345E+01  0.83589997522E+02  0.00000000000E+00 0.  1.
<scales pt_clust_5="13000.00000" pt_clust_6="13000.00000" pt_clust_7="13000.00000" pt_clust_8="13000.00000" pt_clust_9="83.53604"></scales>
<clustering>
<clus scale="   79.369">  5  6 -1 -1</clus>
<clus scale="   83.536">  1  9  2 -1</clus>
<clus scale="   95.299">  7  8 -1 -1</clus>
<clus scale="  139.206">  1  5  2 -1</clus>
<clus scale="  148.865">  2  5  1 -1</clus>
</clustering>
</event>
<event>
 9    1  0.2333971E-005  0.1957651E+03  0.7546771E-02  0.1179553E+00
          1   -1    0    0  502    0  0.00000000000E+00  0.00000000000E+00  0.94139181895E+02  0.94139181895E+02  0.00000000000E+00 0. -1.
         -2   -1    0    0    0  501 -0.00000000000E+00 -0.00000000000E+00 -0.61897820724E+03  0.61897820724E+03  0.00000000000E+00 0.  1.
        -24    2    1    2    0    0 -0.59389202101E+02 -0.36484051023E+02 -0.16862627617E+03  0.19977855320E+03  0.81354077942E+02 0.  0.
         23    2    1    2    0    0  0.86229618353E+01  0.18432847210E+03 -0.17590008685E+03  0.27470136992E+03  0.10231647465E+03 0.  0.
         11    1    3    3    0    0  0.17800013033E+02 -0.22232193487E+02 -0.40254458541E+02  0.49310570100E+02  0.00000000000E+00 0. -1.
        -12    1    3    3    0    0 -0.77189215134E+02 -0.14251857537E+02 -0.12837181763E+03  0.15046798310E+03  0.00000000000E+00 0.  1.
        -13    1    4    4    0    0  0.43563297104E+02  0.64402845986E+02 -0.10632100045E+03  0.13171804190E+03  0.00000000000E+00 0.  1.
         13    1    4    4    0    0 -0.34940335269E+02  0.11992562611E+03 -0.69579086401E+02  0.14298332802E+03  0.00000000000E+00 0. -1.
         21    1    1    2  502  501  0.50766240266E+02 -0.14784442107E+03 -0.18031266233E+03  0.23863746602E+03  0.00000000000E+00 0.  1.
<scales pt_clust_5="13000.00000" pt_clust_6="13000.00000" pt_clust_7="13000.00000" pt_clust_8="13000.00000" pt_clust_9="166.89913"></scales>
<clustering>
<clus scale="   81.354">  5  6 -1 -1</clus>
<clus scale="  102.316">  7  8 -1 -1</clus>
<clus scale="  107.129">  2  5  1 -1</clus>
<clus scale="  166.899">  2  9  1 -1</clus>
<clus scale="  195.765">  1  5  2 -1</clus>
</clustering>
</event>
<event>
 9    1  0.2333971E-005  0.1243373E+03  0.7546771E-02  0.1240076E+00
          3   -1    0    0  502    0  0.00000000000E+00  0.00000000000E+00  0.38909992433E+03  0.38909992433E+03  0.00000000000E+00 0. -1.
         -4   -1    0    0    0  501 -0.00000000000E+00 -0.00000000000E+00 -0.67496651528E+02  0.67496651528E+02  0.00000000000E+00 0.  1.
        -24    2    1    2    0    0  0.94454769976E+02 -0.17303566832E+01  0.55606795902E+02  0.13628986447E+03  0.80982181382E+02 0.  0.
         23    2    1    2    0    0 -0.74954961110E+02  0.19574221967E+02  0.26734796649E+03  0.29384026852E+03  0.94158227774E+02 0.  0.
         11    1    3    3    0    0  0.46174224740E+01 -0.28264438370E+02  0.28480879536E+01  0.28780386927E+02  0.00000000000E+00 0. -1.
        -12    1    3    3    0    0  0.89837347502E+02  0.26534081687E+02  0.52758707949E+02  0.10750947754E+03  0.00000000000E+00 0.  1.
        -13    1    4    4    0    0 -0.42833684908E+02  0.36599155732E+02  0.56173113526E+02  0.79559043774E+02  0.00000000000E+00 0.  1.
         13    1    4    4    0    0 -0.32121276202E+02 -0.17024933764E+02  0.21117485296E+03  0.21428122475E+03  0.00000000000E+00 0. -1.
         21    1    1    2  502  501 -0.19499808866E+02 -0.17843865284E+02 -0.13514895876E+01  0.26466442870E+02  0.00000000000E+00 0. -1.
<scales pt_clust_5="13000.00000" pt_clust_6="13000.00000" pt_clust_7="13000.00000" pt_clust_8="13000.00000" pt_clust_9="26.43191"></scales>
<clustering>
<clus scale="   26.432">  2  9  1 -1</clus>
<clus scale="   80.982">  5  6 -1 -1</clus>
<clus scale="   94.158">  7  8 -1 -1</clus>
<clus scale="  114.683">  2  5  1 -1</clus>
<clus scale="  124.337">  1  5  2 -1</clus>
</clustering>
</event>
<event>
 9    1  0.2333971E-005  0.1802545E+03  0.7546771E-02  0.1168950E+00
          1   -1    0    0  502    0  0.00000000000E+00  0.00000000000E+00  0.79089175533E+03  0.79089175533E+03  0.00000000000E+00 0. -1.
         -2   -1    0    0    0  501 -0.00000000000E+00 -0.00000000000E+00 -0.59049599925E+02  0.59049599925E+02  0.00000000000E+00 0.  1.
        -24    2    1    2    0    0 -0.77391069562E+02 -0.12625338957E+03  0.14935921703E+03  0.22528422548E+03  0.80718712281E+02 0.  0.
         23    2    1    2    0    0  0.65687151840E+02  0.14326622993E+03  0.57394319124E+03  0.60231108519E+03  0.92346315713E+02 0.  0.
         11    1    3    3    0    0 -0.20814018784E+02 -0.96981013867E+02  0.11840269831E+03  0.15445950730E+03  0.00000000000E+00 0. -1.
        -12    1    3    3    0    0 -0.56577050778E+02 -0.29272375705E+02  0.30956518723E+02  0.70824718182E+02  0.00000000000E+00 0.  1.
        -11    1    4    4    0    0  0.63949863363E+02  0.77994973073E+02  0.46052804582E+03  0.47144340258E+03  0.00000000000E+00 0. -1.
         11    1    4    4    0    0  0.17372884774E+01  0.65271256857E+02  0.11341514541E+03  0.13086768261E+03  0.00000000000E+00 0.  1.
         21    1    1    2  502  501  0.11703917722E+02 -0.17012840358E+02  0.85397471350E+01  0.22346044576E+02  0.00000000000E+00 0. -1.
<scales pt_clust_5="13000.00000" pt_clust_6="13000.00000" pt_clust_7="13000.00000" pt_clust_8="13000.00000" pt_clust_9="20.64990"></scales>
<clustering>
<clus scale="   20.650">  2  9  1 -1</clus>
<clus scale="   80.719">  5  6 -1 -1</clus>
<clus scale="   92.346">  7  8 -1 -1</clus>
<clus scale="  174.583">  2  5  1 -1</clus>
<clus scale="  180.255">  1  5  2 -1</clus>
</clustering>
</event>
<event>
 9    1  0.2333971E-005  0.1047031E+03  0.7546771E-02  0.1276201E+00
          1   -1    0    0  502    0  0.00000000000E+00  0.00000000000E+00  0.74674584415E+02  0.74674584415E+02  0.00000000000E+00 0. -1.
         -2   -1    0    0    0  501 -0.00000000000E+00 -0.00000000000E+00 -0.51086720387E+03  0.51086720387E+03  0.00000000000E+00 0.  1.
        -24    2    1    2    0    0  0.97958895452E+01  0.49111240442E+02 -0.40171604359E+03  0.41268397419E+03  0.80152414124E+02 0.  0.
         23    2    1    2    0    0  0.19122349208E+02 -0.46442691039E+02  0.23830144862E+02  0.10771904399E+03  0.92265534428E+02 0.  0.
         11    1    3    3    0    0 -0.16955389744E+02 -0.15618222741E+02 -0.71592660199E+02  0.75212519685E+02  0.00000000000E+00 0. -1.
        -12    1    3    3    0    0  0.26751279289E+02  0.64729463184E+02 -0.33012338339E+03  0.33747145451E+03  0.00000000000E+00 0.  1.
        -13    1    4    4    0    0 -0.15629222166E+02 -0.63149638719E+02  0.62908121615E+01  0.65358425421E+02  0.00000000000E+00 0. -1.
         13    1    4    4    0    0  0.34751571374E+02  0.16706947681E+02  0.17539332700E+02  0.42360618566E+02  0.00000000000E+00 0.  1.
         21    1    1    2  502  501 -0.28918238753E+02 -0.26685494039E+01 -0.58306720726E+02  0.65138770101E+02  0.00000000000E+00 0.  1.
<scales pt_clust_5="13000.00000" pt_clust_6="13000.00000" pt_clust_7="13000.00000" pt_clust_8="13000.00000" pt_clust_9="29.04110"></scales>
<clustering>
<clus scale="   29.041">  2  9  1 -1</clus>
<clus scale="   80.152">  5  6 -1 -1</clus>
<clus scale="   92.266">  7  8 -1 -1</clus>
<clus scale="   94.203">  2  5  1 -1</clus>
<clus scale="  104.703">  1  5  2 -1</clus>
</clustering>
</event>
<event>
 9    1  0.2333971E-005  0.1556864E+03  0.7546771E-02  0.1214491E+00
          1   -1    0    0  502    0  0.00000000000E+00  0.00000000000E+00  0.51831282562E+03  0.51831282562E+03  0.00000000000E+00 0. -1.
         -2   -1    0    0    0  501 -0.00000000000E+00 -0.00000000000E+00 -0.72934542422E+02  0.72934542422E+02  0.00000000000E+00 0.  1.
         23    2    1    2    0    0  0.24037705607E+02  0.31293463806E+02  0.59822213560E+02  0.11594885763E+03  0.91150140884E+02 0.  0.
        -24    2    1    2    0    0  0.22649680766E+01 -0.13468530343E+03  0.26990363394E+03  0.31795433661E+03  0.10050735056E+03 0.  0.
         13    1    4    4    0    0  0.50499698756E+02 -0.54499978607E+02  0.12707031264E+03  0.14719827307E+03  0.00000000000E+00 0. -1.
        -14    1    4    4    0    0 -0.48234730680E+02 -0.80185324826E+02  0.14283332130E+03  0.17075606354E+03  0.00000000000E+00 0.  1.
        -13    1    3    3    0    0  0.41993178007E+02  0.52681414452E+02  0.56308061858E+02  0.87802939916E+02  0.00000000000E+00 0. -1.
         13    1    3    3    0    0 -0.17955472400E+02 -0.21387950645E+02  0.35141517022E+01  0.28145917716E+02  0.00000000000E+00 0.  1.
         21    1    1    2  502  501 -0.26302673684E+02  0.10339183963E+03  0.11565243570E+03  0.15734417380E+03  0.00000000000E+00 0. -1.
<scales pt_clust_5="13000.00000" pt_clust_6="13000.00000" pt_clust_7="13000.00000" pt_clust_8="13000.00000" pt_clust_9="118.89717"></scales>
<clustering>
<clus scale="   91.150">  7  8 -1 -1</clus>
<clus scale="   99.325">  2  7  1 -1</clus>
<clus scale="  100.507">  5  6 -1 -1</clus>
<clus scale="  118.897">  2  9  1 -1</clus>
<clus scale="  155.686">  1  5  2 -1</clus>
</clustering>
</event>
<event>
 9    1  0.2333971E-005  0.1812966E+03  0.7546771E-02  0.1168832E+00
          1   -1    0    0  502    0  0.00000000000E+00  0.00000000000E+00  0.18786312608E+03  0.18786312608E+03  0.00000000000E+00 0. -1.
         -2   -1    0    0    0  501 -0.00000000000E+00 -0.00000000000E+00 -0.22423949353E+03  0.22423949353E+03  0.00000000000E+00 0.  1.
         23    2    1    2    0    0  0.43679138737E+02 -0.15953888554E+03 -0.42051698319E+02  0.19512982006E+03  0.94587410278E+02 0.  0.
        -24    2    1    2    0    0 -0.49835961042E+02  0.14043809965E+03  0.44887652357E+02  0.17292336552E+03  0.75373112993E+02 0.  0.
         11    1    4    4    0    0 -0.13918714944E+01  0.62156334825E+02  0.51352493735E+02  0.80637620736E+02  0.00000000000E+00 0. -1.
        -12    1    4    4    0    0 -0.48444089548E+02  0.78281764829E+02 -0.64648413781E+01  0.92285744787E+02  0.00000000000E+00 0.  1.
        -11    1    3    3    0    0  0.65449240318E+02 -0.64562360114E+02 -0.31217100911E+02  0.97089694566E+02  0.00000000000E+00 0.  1.
         11    1    3    3    0    0 -0.21770101580E+02 -0.94976525430E+02 -0.10834597408E+02  0.98040125493E+02  0.00000000000E+00 0. -1.
         21    1    1    2  502  501  0.61568223045E+01  0.19100785891E+02 -0.39212321481E+02  0.44049434031E+02  0.00000000000E+00 0. -1.
<scales pt_clust_5="13000.00000" pt_clust_6="13000.00000" pt_clust_7="13000.00000" pt_clust_8="13000.00000" pt_clust_9="20.06854"></scales>
<clustering>
<clus scale="   20.069">  2  9  1 -1</clus>
<clus scale="   75.373">  5  6 -1 -1</clus>
<clus scale="   94.587">  7  8 -1 -1</clus>
<clus scale="  172.055">  1  5  2 -1</clus>
<clus scale="  172.055">  1  5  2 -1</clus>
</clustering>
</event>
<event>
 9    1  0.2333971E-005  0.1554531E+03  0.7546771E-02  0.1195932E+00
         -2   -1    0    0    0  501 -0.00000000000E+00  0.00000000000E+00  0.16923992522E+03  0.16923992522E+03  0.00000000000E+00 0.  1.
          1   -1    0    0  502    0  0.00000000000E+00 -0.00000000000E+00 -0.46735232323E+03  0.46735232323E+03  0.00000000000E+00 0. -1.
         23    2    1    2    0    0  0.10268811443E+03  0.43513499470E+02  0.32854443350E+02  0.14652212347E+03  0.89168630908E+02 0.  0.
        -24    2    1    2    0    0 -0.12943033251E+03  0.32666364349E+02 -0.36970080741E+03  0.40052216014E+03  0.76941610506E+02 0.  0.
         13    1    4    4    0    0 -0.31898815273E+02  0.38041803412E+02 -0.18545223220E+03  0.19198240454E+03  0.00000000000E+00 0. -1.
        -14    1    4    4    0    0 -0.97531517240E+02 -0.53754390627E+01 -0.18424857521E+03  0.20853975560E+03  0.00000000000E+00 0.  1.
        -13    1    3    3    0    0  0.10014540196E+03  0.18067191515E+01  0.30367372156E+02  0.10466395301E+03  0.00000000000E+00 0.  1.
         13    1    3    3    0    0  0.25427124658E+01  0.41706780318E+02  0.24870711942E+01  0.41858170461E+02  0.00000000000E+00 0. -1.
         21    1    1    2  502  501  0.26742218083E+02 -0.76179863819E+02  0.38733966053E+02  0.89547964832E+02  0.00000000000E+00 0.  1.
<scales pt_clust_5="13000.00000" pt_clust_6="13000.00000" pt_clust_7="13000.00000" pt_clust_8="13000.00000" pt_clust_9="80.73734"></scales>
<clustering>
<clus scale="   76.942">  5  6 -1 -1</clus>
<clus scale="   80.737">  1  9  2 -1</clus>
<clus scale="   89.169">  7  8 -1 -1</clus>
<clus scale="  148.777">  2  5  1 -1</clus>
<clus scale="  148.777">  2  5  1 -1</clus>
</clustering>
</event>
<event>
 9    1  0.2333971E-005  0.1937958E+03  0.7546771E-02  0.1155932E+00
          1   -1    0    0  502    0  0.00000000000E+00  0.00000000000E+00  0.67573923567E+03  0.67573923567E+03  0.00000000000E+00 0. -1.
         -2   -1    0    0    0  501 -0.00000000000E+00 -0.00000000000E+00 -0.32155654305E+03  0.32155654305E+03  0.00000000000E+00 0.  1.
        -24    2    1    2    0    0 -0.42161866553E+02  0.14186246602E+03 -0.17023234887E+03  0.23973894535E+03  0.81198073013E+02 0.  0.
         23    2    1    2    0    0  0.21483756102E+02 -0.17228062481E+03  0.62267867650E+03  0.65263500245E+03  0.89786116909E+02 0.  0.
         13    1    3    3    0    0  0.16363243336E+01  0.68469453846E+02 -0.28396684608E+02  0.74142534108E+02  0.00000000000E+00 0. -1.
        -14    1    3    3    0    0 -0.43798190887E+02  0.73393012175E+02 -0.14183566426E+03  0.16559641124E+03  0.00000000000E+00 0.  1.
        -13    1    4    4    0    0  0.47497142371E+02 -0.99696946293E+02  0.45288027838E+03  0.46615019702E+03  0.00000000000E+00 0. -1.
         13    1    4    4    0    0 -0.26013386268E+02 -0.72583678512E+02  0.16979839812E+03  0.18648480543E+03  0.00000000000E+00 0.  1.
         21    1    1    2  502  501  0.20678110451E+02  0.30418158784E+02 -0.98263635018E+02  0.10492183091E+03  0.00000000000E+00 0. -1.
<scales pt_clust_5="13000.00000" pt_clust_6="13000.00000" pt_clust_7="13000.00000" pt_clust_8="13000.00000" pt_clust_9="36.78109"></scales>
<clustering>
<clus scale="   36.781">  2  9  1 -1</clus>
<clus scale="   81.198">  5  6 -1 -1</clus>
<clus scale="   89.786">  7  8 -1 -1</clus>
<clus scale="  189.969">  2  5  1 -1</clus>
<clus scale="  193.796">  1  5  2 -1</clus>
</clustering>
</event>
<event>
 9    1  0.2333971E-005  0.1253257E+03  0.7546771E-02  0.1238967E+00
          1   -1    0    0  502    0  0.00000000000E+00  0.00000000000E+00  0.47013050058E+03  0.47013050058E+03  0.00000000000E+00 0. -1.
         -2   -1    0    0    0  501 -0.00000000000E+00 -0.00000000000E+00 -0.15359561505E+03  0.15359561505E+03  0.00000000000E+00 0.  1.
         23    2    1    2    0    0 -0.21367034920E+02  0.61792741292E+02  0.17940772093E+03  0.21311990619E+03  0.94647086753E+02 0.  0.
        -24    2    1    2    0    0  0.31221253299E+02 -0.91301914076E+02  0.25746826476E+03  0.28630867412E+03  0.79824453315E+02 0.  0.
         11    1    4    4    0    0  0.45254784184E+02 -0.26806700863E+02  0.69991719382E+02  0.87552472751E+02  0.00000000000E+00 0. -1.
        -12    1    4    4    0    0 -0.14033530885E+02 -0.64495213213E+02  0.18747654538E+03  0.19875620137E+03  0.00000000000E+00 0.  1.
        -11    1    3    3    0    0 -0.55992170396E+00  0.23707517928E+02 -0.45204130641E+01  0.24141127830E+02  0.00000000000E+00 0.  1.
         11    1    3    3    0    0 -0.20807113216E+02  0.38085223363E+02  0.18392813399E+03  0.18897877836E+03  0.00000000000E+00 0. -1.
         21    1    1    2  502  501 -0.98542183793E+01  0.29509172784E+02 -0.12034110016E+03  0.12429753532E+03  0.00000000000E+00 0.  1.
<scales pt_clust_5="13000.00000" pt_clust_6="13000.00000" pt_clust_7="13000.00000" pt_clust_8="13000.00000" pt_clust_9="31.11104"></scales>
<clustering>
<clus scale="   31.111">  2  9  1 -1</clus>
<clus scale="   79.824">  5  6 -1 -1</clus>
<clus scale="   94.647">  7  8 -1 -1</clus>
<clus scale="  114.544">  1  5  2 -1</clus>
<clus scale="  114.544">  1  5  2 -1</clus>
</clustering>
</event>
<event>
 9    1  0.2333971E-005  0.1112392E+03  0.7546771E-02  0.1262009E+00
         -2   -1    0    0    0  501 -0.00000000000E+00  0.00000000000E+00  0.52180031940E+03  0.52180031940E+03  0.00000000000E+00 0.  1.
          1   -1    0    0  502    0  0.00000000000E+00 -0.00000000000E+00 -0.16034150125E+03  0.16034150125E+03  0.00000000000E+00 0. -1.
        -24    2    1    2    0    0  0.10050451748E+03 -0.57742704050E+02  0.21728645230E+03  0.25907306509E+03  0.80436762720E+02 0.  0.
         23    2    1    2    0    0 -0.51484457282E+02  0.31513966888E+02 -0.11489532666E+03  0.15810275349E+03  0.90287126003E+02 0.  0.
         11    1    3    3    0    0  0.31537330874E+01 -0.39457475123E+02  0.41847068093E+02  0.57602217696E+02  0.00000000000E+00 0. -1.
        -12    1    3    3    0    0  0.97350784388E+02 -0.18285228927E+02  0.17543938421E+03  0.20147084739E+03  0.00000000000E+00 0.  1.
        -13    1    4    4    0    0 -0.58991364009E+02 -0.15479020125E+02 -0.66380793575E+02  0.90144277951E+02  0.00000000000E+00 0. -1.
         13    1    4    4    0    0  0.75069067268E+01  0.46992987013E+02 -0.48514533084E+02  0.67958475537E+02  0.00000000000E+00 0.  1.
         21    1    1    2  502  501 -0.49020060193E+02  0.26228737162E+02  0.25906769251E+03  0.26496600208E+03  0.00000000000E+00 0.  1.
<scales pt_clust_5="13000.00000" pt_clust_6="13000.00000" pt_clust_7="13000.00000" pt_clust_8="13000.00000" pt_clust_9="55.59598"></scales>
<clustering>
<clus scale="   55.596">  1  9  2 -1</clus>
<clus scale="   80.437">  5  6 -1 -1</clus>
<clus scale="   90.287">  7  8 -1 -1</clus>
<clus scale="  103.404">  1  5  2 -1</clus>
<clus scale="  111.239">  2  5  1 -1</clus>
</clustering>
</event>
<event>
 9    1  0.2333971E-005  0.9405787E+02  0.7546771E-02  0.1299024E+00
         -2   -1    0    0    0  501 -0.00000000000E+00  0.00000000000E+00  0.15644631054E+03  0.15644631054E+03  0.00000000000E+00 0.  1.
          1   -1    0    0  502    0  0.00000000000E+00 -0.00000000000E+00 -0.92534608710E+02  0.92534608710E+02  0.00000000000E+00 0. -1.
         23    2    1    2    0    0 -0.33112607220E+01  0.11962403188E+02  0.39248979832E+02  0.97996241240E+02  0.88930969531E+02 0.  0.
        -24    2    1    2    0    0 -0.99000839504E+00 -0.39497155888E+02 -0.27031617491E+02  0.92256760819E+02  0.78864416138E+02 0.  0.
         13    1    4    4    0    0  0.26907955338E+02 -0.21921147740E+02 -0.43296739693E+02  0.55490381570E+02  0.00000000000E+00 0. -1.
        -14    1    4    4    0    0 -0.27897963733E+02 -0.17576008148E+02  0.16265122202E+02  0.36766379249E+02  0.00000000000E+00 0.  1.
        -11    1    3    3    0    0  0.56530908318E+01 -0.37223326843E+02  0.27540052639E+02  0.46647486499E+02  0.00000000000E+00 0. -1.
         11    1    3    3    0    0 -0.89643515538E+01  0.49185730032E+02  0.11708927193E+02  0.51348754742E+02  0.00000000000E+00 0.  1.
         21    1    1    2  502  501  0.43012691171E+01  0.27534752700E+02  0.51694339486E+02  0.58727917187E+02  0.00000000000E+00 0. -1.
<scales pt_clust_5="13000.00000" pt_clust_6="13000.00000" pt_clust_7="13000.00000" pt_clust_8="13000.00000" pt_clust_9="27.86868"></scales>
<clustering>
<clus scale="   27.869">  1  9  2 -1</clus>
<clus scale="   78.864">  5  6 -1 -1</clus>
<clus scale="   84.604">  2  5  1 -1</clus>
<clus scale="   88.931">  7  8 -1 -1</clus>
<clus scale="   84.604">  2  5  1 -1</clus>
</clustering>
</event>
<event>
 9    1  0.2333971E-005  0.1158734E+03  0.7546771E-02  0.1252878E+00
          1   -1    0    0  502    0  0.00000000000E+00  0.00000000000E+00  0.24299337450E+03  0.24299337450E+03  0.00000000000E+00 0. -1.
         -2   -1    0    0    0  501 -0.00000000000E+00 -0.00000000000E+00 -0.10507622842E+03  0.10507622842E+03  0.00000000000E+00 0.  1.
        -24    2    1    2    0    0 -0.69597331407E+02 -0.16011600191E+02 -0.42828190881E+02  0.11722866544E+03  0.82511491248E+02 0.  0.
         23    2    1    2    0    0  0.68311447837E+02  0.37025845920E+02  0.16829709064E+03  0.20638258806E+03  0.90733096298E+02 0.  0.
         13    1    3    3    0    0 -0.98037785133E+01 -0.26726330101E+02  0.16008548670E+02  0.32660135093E+02  0.00000000000E+00 0. -1.
        -14    1    3    3    0    0 -0.59793552894E+02  0.10714729909E+02 -0.58836739551E+02  0.84568530351E+02  0.00000000000E+00 0.  1.
        -13    1    4    4    0    0  0.95488152568E+01 -0.28346358531E+02  0.28944862880E+02  0.41623322812E+02  0.00000000000E+00 0.  1.
         13    1    4    4    0    0  0.58762632581E+02  0.65372204451E+02  0.13935222776E+03  0.16475926525E+03  0.00000000000E+00 0. -1.
         21    1    1    2  502  501  0.12858835695E+01 -0.21014245728E+02  0.12448246316E+02  0.24458349422E+02  0.00000000000E+00 0.  1.
<scales pt_clust_5="13000.00000" pt_clust_6="13000.00000" pt_clust_7="13000.00000" pt_clust_8="13000.00000" pt_clust_9="21.05355"></scales>
<clustering>
<clus scale="   21.054">  1  9  2 -1</clus>
<clus scale="   82.511">  5  6 -1 -1</clus>
<clus scale="   90.733">  7  8 -1 -1</clus>
<clus scale="  109.555">  2  5  1 -1</clus>
<clus scale="   21.054">  1  5  2 -1</clus>
</clustering>
</event>
<event>
 9    1  0.2333971E-005  0.2400555E+03  0.7546771E-02  0.1132087E+00
         -2   -1    0    0    0  501 -0.00000000000E+00  0.00000000000E+00  0.46586711466E+03  0.46586711466E+03  0.00000000000E+00 0.  1.
          1   -1    0    0  502    0  0.00000000000E+00 -0.00000000000E+00 -0.53048086112E+03  0.53048086112E+03  0.00000000000E+00 0. -1.
        -24    2    1    2    0    0  0.36242095734E+02 -0.26052782206E+03 -0.19095732890E+03  0.33467615169E+03  0.79719442270E+02 0.  0.
         23    2    1    2    0    0  0.11609521862E+03  0.92408542888E+02 -0.19820495020E+03  0.26568887065E+03  0.96373933815E+02 0.  0.
         11    1    3    3    0    0 -0.20278426114E+02 -0.23169891965E+02 -0.23756197277E+02  0.38889784885E+02  0.00000000000E+00 0. -1.
        -12    1    3    3    0    0  0.56520521848E+02 -0.23735793010E+03 -0.16720113163E+03  0.29578636680E+03  0.00000000000E+00 0.  1.
        -13    1    4    4    0    0  0.56662631823E+02  0.54161370104E+01 -0.12513781024E+03  0.13747530664E+03  0.00000000000E+00 0.  1.
         13    1    4    4    0    0  0.59432586799E+02  0.86992405877E+02 -0.73067139965E+02  0.12821356401E+03  0.00000000000E+00 0. -1.
         21    1    1    2  502  501 -0.15233731436E+03  0.16811927917E+03  0.32454853265E+03  0.39598295344E+03  0.00000000000E+00 0.  1.
<scales pt_clust_5="13000.00000" pt_clust_6="13000.00000" pt_clust_7="13000.00000" pt_clust_8="13000.00000" pt_clust_9="226.43201"></scales>
<clustering>
<clus scale="   79.719">  5  6 -1 -1</clus>
<clus scale="   96.374">  7  8 -1 -1</clus>
<clus scale="  176.933">  2  7  1 -1</clus>
<clus scale="  226.432">  1  9  2 -1</clus>
<clus scale="  176.933">  2  5  1 -1</clus>
</clustering>
</event>
<event>
 9    1  0.2333971E-005  0.9205002E+02  0.7546771E-02  0.1309246E+00
         -2   -1    0    0    0  501 -0.00000000000E+00  0.00000000000E+00  0.14066008032E+03  0.14066008032E+03  0.00000000000E+00 0.  1.
          1   -1    0    0  502    0  0.00000000000E+00 -0.00000000000E+00 -0.17289267525E+03  0.17289267525E+03  0.00000000000E+00 0. -1.
        -24    2    1    2    0    0  0.74716673781E+01 -0.48275742368E+01  0.93615665759E+02  0.11790901217E+03  0.71130239626E+02 0.  0.
         23    2    1    2    0    0  0.15536834746E+02  0.21448292469E+02 -0.13667685747E+03  0.16526450785E+03  0.89052634466E+02 0.  0.
         11    1    3    3    0    0  0.10846281357E+02 -0.34673645247E+02  0.72809689359E+02  0.81370475964E+02  0.00000000000E+00 0. -1.
        -12    1    3    3    0    0 -0.33746139793E+01  0.29846071010E+02  0.20805976401E+02  0.36538536208E+02  0.00000000000E+00 0.  1.
        -11    1    4    4    0    0  0.45049600097E+02 -0.10997636374E+02 -0.50456579480E+02  0.68529416221E+02  0.00000000000E+00 0. -1.
         11    1    4    4    0    0 -0.29512765351E+02  0.32445928843E+02 -0.86220277985E+02  0.96735091632E+02  0.00000000000E+00 0.  1.
         21    1    1    2  502  501 -0.23008502124E+02 -0.16620718233E+02  0.10828596776E+02  0.30379235552E+02  0.00000000000E+00 0.  1.
<scales pt_clust_5="13000.00000" pt_clust_6="13000.00000" pt_clust_7="13000.00000" pt_clust_8="13000.00000" pt_clust_9="28.38379"></scales>
<clustering>
<clus scale="   28.384">  1  9  2 -1</clus>
<clus scale="   71.130">  5  6 -1 -1</clus>
<clus scale="   74.849">  1  5  2 -1</clus>
<clus scale="   89.053">  7  8 -1 -1</clus>
<clus scale="   92.050">  2  5  1 -1</clus>
</clustering>
</event>
<event>
 9    1  0.2333971E-005  0.1683401E+03  0.7546771E-02  0.1181755E+00
         -2   -1    0    0    0  501 -0.00000000000E+00  0.00000000000E+00  0.81890486089E+02  0.81890486089E+02  0.00000000000E+00 0.  1.
          1   -1    0    0  502    0  0.00000000000E+00 -0.00000000000E+00 -0.49622880946E+03  0.49622880946E+03  0.00000000000E+00 0. -1.
        -24    2    1    2    0    0  0.10524639652E+03  0.74021052310E+02 -0.16827182837E+03  0.22837967732E+03  0.85357768375E+02 0.  0.
         23    2    1    2    0    0 -0.84933961616E+02 -0.11923455328E+03 -0.24222406787E+03  0.30002422899E+03  0.99555925964E+02 0.  0.
         13    1    3    3    0    0  0.38688852480E+02  0.78062501164E+02 -0.85230226210E+02  0.12188015775E+03  0.00000000000E+00 0. -1.
        -14    1    3    3    0    0  0.66557544040E+02 -0.40414488541E+01 -0.83041602164E+02  0.10649951956E+03  0.00000000000E+00 0.  1.
        -13    1    4    4    0    0 -0.71213516093E+02 -0.52696477884E+02 -0.63998517116E+02  0.10928903810E+03  0.00000000000E+00 0.  1.
         13    1    4    4    0    0 -0.13720445522E+02 -0.66538075394E+02 -0.17822555075E+03  0.19073519089E+03  0.00000000000E+00 0. -1.
         21    1    1    2  502  501 -0.20312434905E+02  0.45213500968E+02 -0.38424271322E+01  0.49715389245E+02  0.00000000000E+00 0.  1.
<scales pt_clust_5="13000.00000" pt_clust_6="13000.00000" pt_clust_7="13000.00000" pt_clust_8="13000.00000" pt_clust_9="49.56668"></scales>
<clustering>
<clus scale="   49.567">  1  9  2 -1</clus>
<clus scale="   85.358">  5  6 -1 -1</clus>
<clus scale="   99.556">  7  8 -1 -1</clus>
<clus scale="  160.353">  1  5  2 -1</clus>
<clus scale="  168.340">  2  5  1 -1</clus>
</clustering>
</event>
<event>
 9    1  0.2333971E-005  0.2691343E+03  0.7546771E-02  0.1102397E+00
          1   -1    0    0  502    0  0.00000000000E+00  0.00000000000E+00  0.11599774909E+04  0.11599774909E+04  0.00000000000E+00 0. -1.
         -2   -1    0    0    0  501 -0.00000000000E+00 -0.00000000000E+00 -0.15318011037E+03  0.15318011037E+03  0.00000000000E+00 0.  1.
        -24    2    1    2    0    0  0.26907253222E+03 -0.29155890135E+02  0.26602937122E+02  0.28354566396E+03  0.80251690088E+02 0.  0.
         23    2    1    2    0    0 -0.24989715991E+03  0.35174617300E+01  0.94539781267E+03  0.98232737930E+03  0.93429614469E+02 0.  0.
         11    1    3    3    0    0  0.75728328516E+02 -0.39316664056E+02  0.28393200641E+02  0.89926379083E+02  0.00000000000E+00 0. -1.
        -12    1    3    3    0    0  0.19334420371E+03  0.10160773921E+02 -0.17902635198E+01  0.19361928488E+03  0.00000000000E+00 0.  1.
        -11    1    4    4    0    0 -0.95799051558E+02 -0.41632614971E+02  0.42936851406E+03  0.44189145022E+03  0.00000000000E+00 0. -1.
         11    1    4    4    0    0 -0.15409810835E+03  0.45150076701E+02  0.51602929861E+03  0.54043592908E+03  0.00000000000E+00 0.  1.
         21    1    1    2  502  501 -0.19175372318E+02  0.25638428405E+02  0.34796630761E+02  0.47284558017E+02  0.00000000000E+00 0.  1.
<scales pt_clust_5="13000.00000" pt_clust_6="13000.00000" pt_clust_7="13000.00000" pt_clust_8="13000.00000" pt_clust_9="32.01599"></scales>
<clustering>
<clus scale="   32.016">  2  9  1 -1</clus>
<clus scale="   80.252">  5  6 -1 -1</clus>
<clus scale="   93.430">  7  8 -1 -1</clus>
<clus scale="  264.848">  2  5  1 -1</clus>
<clus scale="  269.134">  1  5  2 -1</clus>
</clustering>
</event>
<event>
 9    1  0.2333971E-005  0.3051290E+03  0.7546771E-02  0.1083079E+00
         -2   -1    0    0    0  501 -0.00000000000E+00  0.00000000000E+00  0.14283439129E+03  0.14283439129E+03  0.00000000000E+00 0.  1.
          1   -1    0    0  502    0  0.00000000000E+00 -0.00000000000E+00 -0.15088284324E+04  0.15088284324E+04  0.00000000000E+00 0. -1.
         23    2    1    2    0    0  0.95781621043E+02  0.26432901289E+03 -0.10401796931E+03  0.31354765452E+03  0.91915437921E+02 0.  0.
        -24    2    1    2    0    0 -0.15951687864E+03 -0.24672166985E+03 -0.12250005409E+04  0.12623563976E+04  0.81241198691E+02 0.  0.
         13    1    4    4    0    0 -0.12583226787E+03 -0.22031035709E+03 -0.11303991411E+04  0.11585217440E+04  0.00000000000E+00 0. -1.
        -14    1    4    4    0    0 -0.33684610768E+02 -0.26411312756E+02 -0.94601399817E+02  0.10383465362E+03  0.00000000000E+00 0.  1.
        -13    1    3    3    0    0  0.10367193760E+03  0.15791918231E+03 -0.71720443805E+02  0.20206474419E+03  0.00000000000E+00 0.  1.
         13    1    3    3    0    0 -0.78903165585E+01  0.10640983059E+03 -0.32297525510E+02  0.11148291033E+03  0.00000000000E+00 0. -1.
         21    1    1    2  502  501  0.63735257595E+02 -0.17607343044E+02 -0.36975530909E+02  0.75758771609E+02  0.00000000000E+00 0.  1.
<scales pt_clust_5="13000.00000" pt_clust_6="13000.00000" pt_clust_7="13000.00000" pt_clust_8="13000.00000" pt_clust_9="66.12263"></scales>
<clustering>
<clus scale="   66.123">  1  9  2 -1</clus>
<clus scale="   81.241">  5  6 -1 -1</clus>
<clus scale="   91.915">  7  8 -1 -1</clus>
<clus scale="  302.085">  2  5  1 -1</clus>
<clus scale="  302.085">  2  5  1 -1</clus>
</clustering>
</event>
<event>
 9    1  0.2333971E-005  0.1109645E+03  0.7546771E-02  0.1268315E+00
          1   -1    0    0  502    0  0.00000000000E+00  0.00000000000E+00  0.46845841413E+03  0.46845841413E+03  0.00000000000E+00 0. -1.
         -2   -1    0    0    0  501 -0.00000000000E+00 -0.00000000000E+00 -0.72144280521E+02  0.72144280521E+02  0.00000000000E+00 0.  1.
        -24    2    1    2    0    0  0.39935657060E+02  0.18647648259E+02 -0.84054301339E+01  0.93481506372E+02  0.82009446331E+02 0.  0.
         23    2    1    2    0    0 -0.25034166344E+02 -0.34163650917E+02  0.41015002174E+03  0.42493356474E+03  0.10272112529E+03 0.  0.
         13    1    3    3    0    0 -0.19167444996E+02 -0.15671225593E+02 -0.22095831167E+01  0.24856800213E+02  0.00000000000E+00 0. -1.
        -14    1    3    3    0    0  0.59103102057E+02  0.34318873852E+02 -0.61958470172E+01  0.68624706160E+02  0.00000000000E+00 0.  1.
        -11    1    4    4    0    0  0.39062634844E+02 -0.23276391238E+02  0.19133647043E+03  0.19666551489E+03  0.00000000000E+00 0.  1.
         11    1    4    4    0    0 -0.64096801188E+02 -0.10887259679E+02  0.21881355131E+03  0.22826804985E+03  0.00000000000E+00 0. -1.
         21    1    1    2  502  501 -0.14901490716E+02  0.15516002658E+02 -0.54304579997E+01  0.22187623535E+02  0.00000000000E+00 0.  1.
<scales pt_clust_5="13000.00000" pt_clust_6="13000.00000" pt_clust_7="13000.00000" pt_clust_8="13000.00000" pt_clust_9="21.51280"></scales>
<clustering>
<clus scale="   21.513">  2  9  1 -1</clus>
<clus scale="   82.009">  5  6 -1 -1</clus>
<clus scale="   92.125">  2  5  1 -1</clus>
<clus scale="  102.721">  7  8 -1 -1</clus>
<clus scale="  110.965">  1  5  2 -1</clus>
</clustering>
</event>
<event>
 9    1  0.2333971E-005  0.9052990E+02  0.7546771E-02  0.1307954E+00
          1   -1    0    0  502    0  0.00000000000E+00  0.00000000000E+00  0.43756318747E+03  0.43756318747E+03  0.00000000000E+00 0. -1.
         -2   -1    0    0    0  501 -0.00000000000E+00 -0.00000000000E+00 -0.35344003621E+02  0.35344003621E+02  0.00000000000E+00 0.  1.
         23    2    1    2    0    0 -0.13231661385E+02  0.12984611396E+02  0.61280653309E+02  0.11060850006E+03  0.90195592022E+02 0.  0.
        -24    2    1    2    0    0 -0.17064412693E+02  0.12098690821E+02  0.21775217278E+03  0.23298549413E+03  0.80178920063E+02 0.  0.
         11    1    4    4    0    0  0.45795056542E+01 -0.22840466672E+02  0.19094247897E+02  0.30120575900E+02  0.00000000000E+00 0. -1.
        -12    1    4    4    0    0 -0.21643918347E+02  0.34939157492E+02  0.19865792488E+03  0.20286491823E+03  0.00000000000E+00 0.  1.
        -11    1    3    3    0    0 -0.28507708645E+02  0.41455358167E+02  0.59959834762E+02  0.78271437687E+02  0.00000000000E+00 0.  1.
         11    1    3    3    0    0  0.15276047260E+02 -0.28470746770E+02  0.13208185468E+01  0.32337062377E+02  0.00000000000E+00 0. -1.
         21    1    1    2  502  501  0.30296074078E+02 -0.25083302217E+02  0.12318635776E+03  0.12931319690E+03  0.00000000000E+00 0. -1.
<scales pt_clust_5="13000.00000" pt_clust_6="13000.00000" pt_clust_7="13000.00000" pt_clust_8="13000.00000" pt_clust_9="39.33223"></scales>
<clustering>
<clus scale="   39.332">  1  9  2 -1</clus>
<clus scale="   80.179">  5  6 -1 -1</clus>
<clus scale="   80.555">  1  5  2 -1</clus>
<clus scale="   90.196">  7  8 -1 -1</clus>
<clus scale="   39.332">  1  5  2 -1</clus>
</clustering>
</event>
<event>
 9    1  0.2333971E-005  0.1188124E+03  0.7546771E-02  0.1248881E+00
          1   -1    0    0  502    0  0.00000000000E+00  0.00000000000E+00  0.52131013616E+03  0.52131013616E+03  0.00000000000E+00 0. -1.
         -2   -1    0    0    0  501 -0.00000000000E+00 -0.00000000000E+00 -0.40680589627E+02  0.40680589627E+02  0.00000000000E+00 0.  1.
        -24    2    1    2    0    0  0.83070885324E+02 -0.36177853372E+02  0.11291142727E+03  0.16521335694E+03  0.79604358175E+02 0.  0.
         23    2    1    2    0    0 -0.42662731087E+02  0.15921049700E+02  0.28154172104E+03  0.29946586575E+03  0.91326204434E+02 0.  0.
         13    1    3    3    0    0  0.19611262893E+02  0.19903367369E+02  0.57720244753E+02  0.64127781181E+02  0.00000000000E+00 0. -1.
        -14    1    3    3    0    0  0.63459622431E+02 -0.56081220741E+02  0.55191182513E+02  0.10108557576E+03  0.00000000000E+00 0.  1.
        -11    1    4    4    0    0 -0.48224410610E+02 -0.18560277691E+02  0.82235044431E+02  0.97121986281E+02  0.00000000000E+00 0.  1.
         11    1    4    4    0    0  0.55616795235E+01  0.34481327391E+02  0.19930667661E+03  0.20234387947E+03  0.00000000000E+00 0. -1.
         21    1    1    2  502  501 -0.40408154237E+02  0.20256803672E+02  0.86176398233E+02  0.97311503103E+02  0.00000000000E+00 0. -1.
<scales pt_clust_5="13000.00000" pt_clust_6="13000.00000" pt_clust_7="13000.00000" pt_clust_8="13000.00000" pt_clust_9="45.20129"></scales>
<clustering>
<clus scale="   45.201">  1  9  2 -1</clus>
<clus scale="   79.604">  5  6 -1 -1</clus>
<clus scale="   91.326">  7  8 -1 -1</clus>
<clus scale="  110.058">  2  5  1 -1</clus>
<clus scale="   45.201">  1  5  2 -1</clus>
</clustering>
</event>
<event>
 9    1  0.2333971E-005  0.1128999E+03  0.7546771E-02  0.1263966E+00
         -2   -1    0    0    0  501 -0.00000000000E+00  0.00000000000E+00  0.54802057386E+03  0.54802057386E+03  0.00000000000E+00 0.  1.
          1   -1    0    0  502    0  0.00000000000E+00 -0.00000000000E+00 -0.31295573440E+03  0.31295573440E+03  0.00000000000E+00 0. -1.
        -24    2    1    2    0    0 -0.39162850436E+02  0.33853601581E+02  0.32139455545E+03  0.33519590478E+03  0.79887665614E+02 0.  0.
         23    2    1    2    0    0 -0.63746743383E+02 -0.24859184112E+02 -0.28256869755E+03  0.30401245735E+03  0.88864385787E+02 0.  0.
         11    1    3    3    0    0 -0.48357974503E+02  0.18598554469E+02  0.95917175027E+02  0.10901607401E+03  0.00000000000E+00 0. -1.
        -12    1    3    3    0    0  0.91951240673E+01  0.15255047112E+02  0.22547738042E+03  0.22617983078E+03  0.00000000000E+00 0.  1.
        -13    1    4    4    0    0 -0.64122693508E+02  0.12113547843E+02 -0.23425077714E+03  0.24317048434E+03  0.00000000000E+00 0. -1.
         13    1    4    4    0    0  0.37595012483E+00 -0.36972731955E+02 -0.48317920410E+02  0.60841973008E+02  0.00000000000E+00 0.  1.
         21    1    1    2  502  501  0.10290959382E+03 -0.89944174689E+01  0.19623898156E+03  0.22176794613E+03  0.00000000000E+00 0. -1.
<scales pt_clust_5="13000.00000" pt_clust_6="13000.00000" pt_clust_7="13000.00000" pt_clust_8="13000.00000" pt_clust_9="69.63848"></scales>
<clustering>
<clus scale="   79.888">  5  6 -1 -1</clus>
<clus scale="   88.864">  7  8 -1 -1</clus>
<clus scale="   95.194">  1  5  2 -1</clus>
<clus scale="   69.638">  1  9  2 -1</clus>
<clus scale="  112.900">  2  5  1 -1</clus>
</clustering>
</event>
<event>
 9    1  0.2333971E-005  0.1220218E+03  0.7546771E-02  0.1245566E+00
         -2   -1    0    0    0  501 -0.00000000000E+00  0.00000000000E+00  0.37172927584E+02  0.37172927584E+02  0.00000000000E+00 0.  1.
          1   -1    0    0  502    0  0.00000000000E+00 -0.00000000000E+00 -0.57872581905E+03  0.57872581905E+03  0.00000000000E+00 0. -1.
         23    2    1    2    0    0  0.77951064228E+02  0.48764664304E+02 -0.18493147644E+03  0.22841820811E+03  0.97574924649E+02 0.  0.
        -24    2    1    2    0    0 -0.35673182421E+02 -0.57727924046E+02 -0.28616352918E+03  0.30482418370E+03  0.80144421980E+02 0.  0.
         11    1    4    4    0    0 -0.41630188570E+02  0.83703019417E+00 -0.16420129961E+03  0.16939846520E+03  0.00000000000E+00 0. -1.
        -12    1    4    4    0    0  0.59570061488E+01 -0.58564954240E+02 -0.12196222957E+03  0.13542571850E+03  0.00000000000E+00 0.  1.
        -13    1    3    3    0    0  0.73751035593E+02 -0.26315753939E+01 -0.14672642901E+03  0.16424002378E+03  0.00000000000E+00 0.  1.
         13    1    3    3    0    0  0.42000286351E+01  0.51396239698E+02 -0.38205047431E+02  0.64178184337E+02  0.00000000000E+00 0. -1.
         21    1    1    2  502  501 -0.42277881807E+02  0.89632597426E+01 -0.70457885846E+02  0.82656354826E+02  0.00000000000E+00 0. -1.
<scales pt_clust_5="13000.00000" pt_clust_6="13000.00000" pt_clust_7="13000.00000" pt_clust_8="13000.00000" pt_clust_9="43.21758"></scales>
<clustering>
<clus scale="   43.218">  1  9  2 -1</clus>
<clus scale="   80.144">  5  6 -1 -1</clus>
<clus scale="   97.575">  7  8 -1 -1</clus>
<clus scale="  108.589">  2  5  1 -1</clus>
<clus scale="  108.589">  2  5  1 -1</clus>
</clustering>
</event>
<event>
 9    1  0.2333971E-005  0.1278130E+03  0.7546771E-02  0.1253769E+00
         -2   -1    0    0    0  501 -0.00000000000E+00  0.00000000000E+00  0.27666195852E+03  0.27666195852E+03  0.00000000000E+00 0.  1.
          1   -1    0    0  502    0  0.00000000000E+00 -0.00000000000E+00 -0.51538143569E+03  0.51538143569E+03  0.00000000000E+00 0. -1.
        -24    2    1    2    0    0  0.28333051684E+01  0.33920899126E+02  0.76228336296E+02  0.11466509245E+03  0.78604511043E+02 0.  0.
         23    2    1    2    0    0 -0.76910972112E+01  0.18349755341E+02 -0.48380665747E+03  0.50054751072E+03  0.12681901347E+03 0.  0.
         11    1    3    3    0    0 -0.27363313245E+02 -0.58713708214E+01  0.62307342481E+01  0.28671343818E+02  0.00000000000E+00 0. -1.
        -12    1    3    3    0    0  0.30196618414E+02  0.39792269947E+02  0.69997602048E+02  0.85993748631E+02  0.00000000000E+00 0.  1.
        -11    1    4    4    0    0  0.58838510614E+02  0.67949208994E+01 -0.26596025841E+03  0.27247568760E+03  0.00000000000E+00 0. -1.
         11    1    4    4    0    0 -0.66529607825E+02  0.11554834442E+02 -0.21784639906E+03  0.22807182312E+03  0.00000000000E+00 0.  1.
         21    1    1    2  502  501  0.48577920429E+01 -0.52270654467E+02  0.16885884400E+03  0.17683079104E+03  0.00000000000E+00 0.  1.
<scales pt_clust_5="13000.00000" pt_clust_6="13000.00000" pt_clust_7="13000.00000" pt_clust_8="13000.00000" pt_clust_9="52.49590"></scales>
<clustering>
<clus scale="   52.496">  1  9  2 -1</clus>
<clus scale="   78.605">  5  6 -1 -1</clus>
<clus scale="   80.198">  1  5  2 -1</clus>
<clus scale="  126.819">  7  8 -1 -1</clus>
<clus scale="  127.813">  2  5  1 -1</clus>
</clustering>
</event>
<event>
 9    1  0.2333971E-005  0.2305281E+03  0.7546771E-02  0.1127070E+00
         -2   -1    0    0    0  501 -0.00000000000E+00  0.00000000000E+00  0.77952686704E+03  0.77952686704E+03  0.00000000000E+00 0.  1.
          1   -1    0    0  502    0  0.00000000000E+00 -0.00000000000E+00 -0.86219037301E+02  0.86219037301E+02  0.00000000000E+00 0. -1.
        -24    2    1    2    0    0  0.98391623847E+01 -0.22394022480E+03  0.48574357529E+03  0.54100646893E+03  0.80592463015E+02 0.  0.
         23    2    1    2    0    0 -0.19495530821E+02  0.20450631844E+03  0.17357477617E+03  0.28441318091E+03  0.92518887535E+02 0.  0.
         13    1    3    3    0    0 -0.10039847933E+02 -0.38948250754E+02  0.34796208253E+02  0.53184028544E+02  0.00000000000E+00 0. -1.
        -14    1    3    3    0    0  0.19879010318E+02 -0.18499197404E+03  0.45094736704E+03  0.48782244039E+03  0.00000000000E+00 0.  1.
        -11    1    4    4    0    0 -0.31395244646E+02  0.10321039072E+03  0.14060854482E+03  0.17722530580E+03  0.00000000000E+00 0.  1.
         11    1    4    4    0    0  0.11899713825E+02  0.10129592772E+03  0.32966231350E+02  0.10718787512E+03  0.00000000000E+00 0. -1.
         21    1    1    2  502  501  0.96563684362E+01  0.19433906360E+02  0.33989478278E+02  0.40326254493E+02  0.00000000000E+00 0.  1.
<scales pt_clust_5="13000.00000" pt_clust_6="13000.00000" pt_clust_7="13000.00000" pt_clust_8="13000.00000" pt_clust_9="21.70074"></scales>
<clustering>
<clus scale="   21.701">  1  9  2 -1</clus>
<clus scale="   80.592">  5  6 -1 -1</clus>
<clus scale="   92.519">  7  8 -1 -1</clus>
<clus scale="  226.006">  1  5  2 -1</clus>
<clus scale="  230.528">  2  5  1 -1</clus>
</clustering>
</event>
<event>
 9    1  0.2333971E-005  0.9736591E+02  0.7546771E-02  0.1292555E+00
          3   -1    0    0  502    0  0.00000000000E+00  0.00000000000E+00  0.12897191228E+03  0.12897191228E+03  0.00000000000E+00 0. -1.
         -4   -1    0    0    0  501 -0.00000000000E+00 -0.00000000000E+00 -0.18156455764E+03  0.18156455764E+03  0.00000000000E+00 0.  1.
        -24    2    1    2    0    0 -0.72133596007E+01 -0.32686955556E+01 -0.90281790802E+02  0.12122125676E+03  0.80505120413E+02 0.  0.
         23    2    1    2    0    0 -0.29988896923E+02 -0.24966311931E+02  0.78355497161E+02  0.12738803253E+03  0.92549858061E+02 0.  0.
         13    1    3    3    0    0 -0.11776675747E+02 -0.38829278774E+02 -0.27805655929E+02  0.49188997585E+02  0.00000000000E+00 0. -1.
        -14    1    3    3    0    0  0.45633161465E+01  0.35560583219E+02 -0.62476134874E+02  0.72032259175E+02  0.00000000000E+00 0.  1.
        -11    1    4    4    0    0  0.15351649170E+01 -0.44104977508E+02  0.39049592474E+01  0.44304113568E+02  0.00000000000E+00 0.  1.
         11    1    4    4    0    0 -0.31524061840E+02  0.19138665577E+02  0.74450537914E+02  0.83083918965E+02  0.00000000000E+00 0. -1.
         21    1    1    2  502  501  0.37202256524E+02  0.28235007487E+02 -0.40666351723E+02  0.61927180630E+02  0.00000000000E+00 0.  1.
<scales pt_clust_5="13000.00000" pt_clust_6="13000.00000" pt_clust_7="13000.00000" pt_clust_8="13000.00000" pt_clust_9="46.70357"></scales>
<clustering>
<clus scale="   46.704">  2  9  1 -1</clus>
<clus scale="   80.505">  5  6 -1 -1</clus>
<clus scale="   85.998">  2  5  1 -1</clus>
<clus scale="   92.550">  7  8 -1 -1</clus>
<clus scale="   97.366">  1  5  2 -1</clus>
</clustering>
</event>
<event>
 9    1  0.2333971E-005  0.1212468E+03  0.7546771E-02  0.1243514E+00
         -2   -1    0    0    0  501 -0.00000000000E+00  0.00000000000E+00  0.43594005306E+03  0.43594005306E+03  0.00000000000E+00 0.  1.
          1   -1    0    0  502    0  0.00000000000E+00 -0.00000000000E+00 -0.19078510856E+03  0.19078510856E+03  0.00000000000E+00 0. -1.
        -24    2    1    2    0    0 -0.12015279723E+03 -0.76177169565E+01  0.79402929465E+02  0.16583157716E+03  0.81856963563E+02 0.  0.
         23    2    1    2    0    0  0.72856019798E+02 -0.15256330992E+02 -0.12171356534E+03  0.16866650302E+03  0.89963559266E+02 0.  0.
         11    1    3    3    0    0 -0.10909426614E+02  0.19679563163E+02  0.41166218426E+02  0.46914372369E+02  0.00000000000E+00 0. -1.
        -12    1    3    3    0    0 -0.10924337061E+03 -0.27297280119E+02  0.38236711039E+02  0.11891720479E+03  0.00000000000E+00 0.  1.
        -13    1    4    4    0    0  0.27986076839E+02 -0.25450646248E+02 -0.11634593900E+03  0.12234105367E+03  0.00000000000E+00 0. -1.
         13    1    4    4    0    0  0.44869942960E+02  0.10194315255E+02 -0.53676263421E+01  0.46325449348E+02  0.00000000000E+00 0.  1.
         21    1    1    2  502  501  0.47296777428E+02  0.22874047949E+02  0.28746558038E+03  0.29222708144E+03  0.00000000000E+00 0.  1.
<scales pt_clust_5="13000.00000" pt_clust_6="13000.00000" pt_clust_7="13000.00000" pt_clust_8="13000.00000" pt_clust_9="52.53767"></scales>
<clustering>
<clus scale="   52.538">  1  9  2 -1</clus>
<clus scale="   81.857">  5  6 -1 -1</clus>
<clus scale="   89.964">  7  8 -1 -1</clus>
<clus scale="  115.360">  1  5  2 -1</clus>
<clus scale="  121.247">  2  5  1 -1</clus>
</clustering>
</event>
<event>
 9    1  0.2333971E-005  0.9850275E+02  0.7546771E-02  0.1291529E+00
          3   -1    0    0  502    0  0.00000000000E+00  0.00000000000E+00  0.38026126297E+03  0.38026126297E+03  0.00000000000E+00 0. -1.
         -4   -1    0    0    0  501 -0.00000000000E+00 -0.00000000000E+00 -0.76433880272E+02  0.76433880272E+02  0.00000000000E+00 0.  1.
        -24    2    1    2    0    0  0.41736374879E+02  0.93359628215E+01 -0.29925284599E+02  0.93166398506E+02  0.77171043549E+02 0.  0.
         23    2    1    2    0    0 -0.32127422964E+02  0.13017073288E+02  0.32160069304E+03  0.33633204165E+03  0.92144565631E+02 0.  0.
         13    1    3    3    0    0  0.24009804524E+02  0.22388122554E+02  0.20113135365E+02  0.38499830635E+02  0.00000000000E+00 0. -1.
        -14    1    3    3    0    0  0.17726570355E+02 -0.13052159732E+02 -0.50038419964E+02  0.54666567871E+02  0.00000000000E+00 0.  1.
        -11    1    4    4    0    0  0.28393896658E+02 -0.13371241356E+02  0.12764464117E+03  0.13144640688E+03  0.00000000000E+00 0.  1.
         11    1    4    4    0    0 -0.60521319621E+02  0.26388314643E+02  0.19395605187E+03  0.20488563477E+03  0.00000000000E+00 0. -1.
         21    1    1    2  502  501 -0.96089519155E+01 -0.22353036109E+02  0.12151974258E+02  0.27196703083E+02  0.00000000000E+00 0.  1.
<scales pt_clust_5="13000.00000" pt_clust_6="13000.00000" pt_clust_7="13000.00000" pt_clust_8="13000.00000" pt_clust_9="24.33085"></scales>
<clustering>
<clus scale="   24.331">  2  9  1 -1</clus>
<clus scale="   77.171">  5  6 -1 -1</clus>
<clus scale="   84.661">  2  5  1 -1</clus>
<clus scale="   92.145">  7  8 -1 -1</clus>
<clus scale="   98.503">  1  5  2 -1</clus>
</clustering>
</event>
<event>
 9    1  0.2333971E-005  0.1012918E+03  0.7546771E-02  0.1279032E+00
         -2   -1    0    0    0  501 -0.00000000000E+00  0.00000000000E+00  0.24930059517E+02  0.24930059517E+02  0.00000000000E+00 0.  1.
          1   -1    0    0  502    0  0.00000000000E+00 -0.00000000000E+00 -0.55590170510E+03  0.55590170510E+03  0.00000000000E+00 0. -1.
        -24    2    1    2    0    0 -0.24956663919E+02  0.47188052092E+02 -0.14729724026E+03  0.17617079144E+03  0.80561302344E+02 0.  0.
         23    2    1    2    0    0  0.11956510914E+02 -0.64679071027E+02 -0.32743006013E+03  0.34434210310E+03  0.83873114309E+02 0.  0.
         13    1    3    3    0    0 -0.50437643866E+02  0.12843405550E+02 -0.97569874466E+02  0.11058385682E+03  0.00000000000E+00 0. -1.
        -14    1    3    3    0    0  0.25480979946E+02  0.34344646542E+02 -0.49727365795E+02  0.65586934629E+02  0.00000000000E+00 0.  1.
        -11    1    4    4    0    0  0.26789679912E+02  0.10239429135E+02 -0.65474232639E+02  0.71480123100E+02  0.00000000000E+00 0.  1.
         11    1    4    4    0    0 -0.14833168998E+02 -0.74918500162E+02 -0.26195582750E+03  0.27286198000E+03  0.00000000000E+00 0. -1.
         21    1    1    2  502  501  0.13000153006E+02  0.17491018935E+02 -0.56244345189E+02  0.60318870077E+02  0.00000000000E+00 0. -1.
<scales pt_clust_5="13000.00000" pt_clust_6="13000.00000" pt_clust_7="13000.00000" pt_clust_8="13000.00000" pt_clust_9="21.79311"></scales>
<clustering>
<clus scale="   21.793">  2  9  1 -1</clus>
<clus scale="   80.561">  5  6 -1 -1</clus>
<clus scale="   83.873">  7  8 -1 -1</clus>
<clus scale="   98.567">  1  5  2 -1</clus>
<clus scale="   21.793">  2  5  1 -1</clus>
</clustering>
</event>
<event>
 9    1  0.2333971E-005  0.1826437E+03  0.7546771E-02  0.1166330E+00
         -4   -1    0    0    0  501 -0.00000000000E+00  0.00000000000E+00  0.29346747685E+03  0.29346747685E+03  0.00000000000E+00 0.  1.
          3   -1    0    0  502    0  0.00000000000E+00 -0.00000000000E+00 -0.21715336488E+03  0.21715336488E+03  0.00000000000E+00 0. -1.
         23    2    1    2    0    0 -0.64935364128E+02  0.13630625319E+03  0.12789460443E+03  0.21758972386E+03  0.90511114884E+02 0.  0.
        -24    2    1    2    0    0  0.41096136658E+02 -0.15604270117E+03 -0.12071891898E+03  0.21728180653E+03  0.81241054972E+02 0.  0.
         11    1    4    4    0    0  0.32666983574E+02 -0.16466375138E+03 -0.10726662213E+03  0.19921699491E+03  0.00000000000E+00 0. -1.
        -12    1    4    4    0    0  0.84291530835E+01  0.86210502161E+01 -0.13452296845E+02  0.18064811622E+02  0.00000000000E+00 0.  1.
        -13    1    3    3    0    0 -0.83746628939E+02  0.84500828680E+02  0.10193423821E+03  0.15666677001E+03  0.00000000000E+00 0.  1.
         13    1    3    3    0    0  0.18811264812E+02  0.51805424507E+02  0.25960366221E+02  0.60922953856E+02  0.00000000000E+00 0. -1.
         21    1    1    2  502  501  0.23839227470E+02  0.19736447978E+02  0.69138426528E+02  0.75749311336E+02  0.00000000000E+00 0.  1.
<scales pt_clust_5="13000.00000" pt_clust_6="13000.00000" pt_clust_7="13000.00000" pt_clust_8="13000.00000" pt_clust_9="30.94893"></scales>
<clustering>
<clus scale="   30.949">  1  9  2 -1</clus>
<clus scale="   81.241">  5  6 -1 -1</clus>
<clus scale="   90.511">  7  8 -1 -1</clus>
<clus scale="  178.232">  2  5  1 -1</clus>
<clus scale="  178.232">  2  5  1 -1</clus>
</clustering>
</event>
<event>
 9    1  0.2333971E-005  0.1028335E+03  0.7546771E-02  0.1282626E+00
          1   -1    0    0  502    0  0.00000000000E+00  0.00000000000E+00  0.21111655446E+03  0.21111655446E+03  0.00000000000E+00 0. -1.
         -2   -1    0    0    0  501 -0.00000000000E+00 -0.00000000000E+00 -0.29671797148E+03  0.29671797148E+03  0.00000000000E+00 0.  1.
        -24    2    1    2    0    0  0.21354608503E+02  0.12836539537E+02 -0.20989638562E+03  0.22451167047E+03  0.75684882427E+02 0.  0.
         23    2    1    2    0    0 -0.41969803962E+02 -0.19024605518E+02  0.18884060687E+03  0.21528302990E+03  0.92534361723E+02 0.  0.
         11    1    3    3    0    0  0.41107475013E+02  0.16285853678E+02 -0.67384662033E+02  0.80596192275E+02  0.00000000000E+00 0. -1.
        -12    1    3    3    0    0 -0.19752866510E+02 -0.34493141412E+01 -0.14251172359E+03  0.14391547819E+03  0.00000000000E+00 0.  1.
        -13    1    4    4    0    0 -0.38724574408E+01 -0.36659740775E+02  0.21325677914E+02  0.42587757148E+02  0.00000000000E+00 0.  1.
         13    1    4    4    0    0 -0.38097346521E+02  0.17635135257E+02  0.16751492895E+03  0.17269527275E+03  0.00000000000E+00 0. -1.
         21    1    1    2  502  501  0.20615195459E+02  0.61880659813E+01 -0.64545638275E+02  0.68039825579E+02  0.00000000000E+00 0. -1.
<scales pt_clust_5="13000.00000" pt_clust_6="13000.00000" pt_clust_7="13000.00000" pt_clust_8="13000.00000" pt_clust_9="21.52390"></scales>
<clustering>
<clus scale="   21.524">  2  9  1 -1</clus>
<clus scale="   75.685">  5  6 -1 -1</clus>
<clus scale="   87.979">  2  5  1 -1</clus>
<clus scale="   92.534">  7  8 -1 -1</clus>
<clus scale="  102.834">  1  5  2 -1</clus>
</clustering>
</event>
<event>
 9    1  0.2333971E-005  0.1012416E+03  0.7546771E-02  0.1283954E+00
         -4   -1    0    0    0  501 -0.00000000000E+00  0.00000000000E+00  0.57705880762E+03  0.57705880762E+03  0.00000000000E+00 0.  1.
          3   -1    0    0  502    0  0.00000000000E+00 -0.00000000000E+00 -0.25232119860E+02  0.25232119860E+02  0.00000000000E+00 0. -1.
         23    2    1    2    0    0 -0.59444954842E+02 -0.18115136436E+02  0.26583042817E+03  0.28796041447E+03  0.91616171784E+02 0.  0.
        -24    2    1    2    0    0  0.29070443226E+02  0.16705206807E+02  0.13227757728E+03  0.15763325028E+03  0.78909628943E+02 0.  0.
         11    1    4    4    0    0  0.13195602094E+02  0.31472409075E+02  0.13188345721E+02  0.36586458020E+02  0.00000000000E+00 0. -1.
        -12    1    4    4    0    0  0.15874841133E+02 -0.14767202268E+02  0.11908923156E+03  0.12104679226E+03  0.00000000000E+00 0.  1.
        -13    1    3    3    0    0  0.12204535371E+02 -0.22881354926E+02  0.22756281109E+02  0.34501527746E+02  0.00000000000E+00 0. -1.
         13    1    3    3    0    0 -0.71649490213E+02  0.47662184901E+01  0.24307414707E+03  0.25345888672E+03  0.00000000000E+00 0.  1.
         21    1    1    2  502  501  0.30374511616E+02  0.14099296288E+01  0.15371868231E+03  0.15669726274E+03  0.00000000000E+00 0. -1.
<scales pt_clust_5="13000.00000" pt_clust_6="13000.00000" pt_clust_7="13000.00000" pt_clust_8="13000.00000" pt_clust_9="30.40722"></scales>
<clustering>
<clus scale="   30.407">  1  9  2 -1</clus>
<clus scale="   78.910">  5  6 -1 -1</clus>
<clus scale="   89.906">  2  5  1 -1</clus>
<clus scale="   91.616">  7  8 -1 -1</clus>
<clus scale="   89.906">  2  5  1 -1</clus>
</clustering>
</event>
<event>
 9    1  0.2333971E-005  0.2105998E+03  0.7546771E-02  0.1141899E+00
          1   -1    0    0  502    0  0.00000000000E+00  0.00000000000E+00  0.11971171131E+04  0.11971171131E+04  0.00000000000E+00 0. -1.
         -2   -1    0    0    0  501 -0.00000000000E+00 -0.00000000000E+00 -0.17869067809E+03  0.17869067809E+03  0.00000000000E+00 0.  1.
        -24    2    1    2    0    0 -0.88011464663E+02 -0.21487653373E+03  0.39758826193E+03  0.46741881336E+03  0.80535572252E+02 0.  0.
         23    2    1    2    0    0  0.13506121865E+02  0.17669620458E+03  0.73802536666E+03  0.76436945844E+03  0.90417161633E+02 0.  0.
         13    1    3    3    0    0 -0.32689873052E+01 -0.42313888721E+02  0.28072822464E+02  0.50884524345E+02  0.00000000000E+00 0. -1.
        -14    1    3    3    0    0 -0.84742477358E+02 -0.17256264501E+03  0.36951543947E+03  0.41653428901E+03  0.00000000000E+00 0.  1.
        -13    1    4    4    0    0  0.36928234996E+02  0.51215082262E+02  0.15180428026E+03  0.16441173527E+03  0.00000000000E+00 0.  1.
         13    1    4    4    0    0 -0.23422113131E+02  0.12548112232E+03  0.58622108640E+03  0.59995772316E+03  0.00000000000E+00 0. -1.
         21    1    1    2  502  501  0.74505342798E+02  0.38180329149E+02 -0.11718719356E+03  0.14401951942E+03  0.00000000000E+00 0.  1.
<scales pt_clust_5="13000.00000" pt_clust_6="13000.00000" pt_clust_7="13000.00000" pt_clust_8="13000.00000" pt_clust_9="83.71848"></scales>
<clustering>
<clus scale="   80.536">  5  6 -1 -1</clus>
<clus scale="   83.718">  2  9  1 -1</clus>
<clus scale="   90.417">  7  8 -1 -1</clus>
<clus scale="  206.550">  2  5  1 -1</clus>
<clus scale="  210.600">  1  5  2 -1</clus>
</clustering>
</event>
<event>
 9    1  0.2333971E-005  0.1039816E+03  0.7546771E-02  0.1275036E+00
          3   -1    0    0  502    0  0.00000000000E+00  0.00000000000E+00  0.48924290279E+03  0.48924290279E+03  0.00000000000E+00 0. -1.
         -4   -1    0    0    0  501 -0.00000000000E+00 -0.00000000000E+00 -0.45726879707E+02  0.45726879707E+02  0.00000000000E+00 0.  1.
        -24    2    1    2    0    0  0.47348809201E+02 -0.26460222025E+02  0.60026207175E+02  0.11778249027E+03  0.85600913458E+02 0.  0.
         23    2    1    2    0    0 -0.48645774294E+02 -0.42371517247E+01  0.36861389807E+03  0.38305074575E+03  0.92017950212E+02 0.  0.
         11    1    3    3    0    0  0.48279680132E+02  0.12246796833E+02  0.61372230775E+02  0.79040889776E+02  0.00000000000E+00 0. -1.
        -12    1    3    3    0    0 -0.93087093072E+00 -0.38707018858E+02 -0.13460235998E+01  0.38741600497E+02  0.00000000000E+00 0.  1.
        -13    1    4    4    0    0  0.61811665879E+01  0.32789993434E+02  0.75198516483E+02  0.82269115536E+02  0.00000000000E+00 0. -1.
         13    1    4    4    0    0 -0.54826940882E+02 -0.37027145159E+02  0.29341538158E+03  0.30078163022E+03  0.00000000000E+00 0.  1.
         21    1    1    2  502  501  0.12969650928E+01  0.30697373749E+02  0.14875917843E+02  0.34136546475E+02  0.00000000000E+00 0. -1.
<scales pt_clust_5="13000.00000" pt_clust_6="13000.00000" pt_clust_7="13000.00000" pt_clust_8="13000.00000" pt_clust_9="30.72476"></scales>
<clustering>
<clus scale="   30.725">  2  9  1 -1</clus>
<clus scale="   85.601">  5  6 -1 -1</clus>
<clus scale="   92.018">  7  8 -1 -1</clus>
<clus scale="   98.348">  2  5  1 -1</clus>
<clus scale="  103.982">  1  5  2 -1</clus>
</clustering>
</event>
<event>
 9    1  0.2333971E-005  0.1211745E+03  0.7546771E-02  0.1248201E+00
         -2   -1    0    0    0  501 -0.00000000000E+00  0.00000000000E+00  0.82897078271E+02  0.82897078271E+02  0.00000000000E+00 0.  1.
          1   -1    0    0  502    0  0.00000000000E+00 -0.00000000000E+00 -0.28721471603E+03  0.28721471603E+03  0.00000000000E+00 0. -1.
         23    2    1    2    0    0 -0.33590644457E+02  0.87066219449E+02 -0.75432876439E+02  0.15213168965E+03  0.93515101369E+02 0.  0.
        -24    2    1    2    0    0  0.25931837089E+02 -0.65788018917E+02 -0.15414532205E+03  0.18407560529E+03  0.71571813919E+02 0.  0.
         11    1    4    4    0    0 -0.22989204538E+02 -0.37247822164E+02 -0.73057587702E+02  0.85166395380E+02  0.00000000000E+00 0. -1.
        -12    1    4    4    0    0  0.48921041627E+02 -0.28540196752E+02 -0.81087734343E+02  0.98909209912E+02  0.00000000000E+00 0.  1.
        -11    1    3    3    0    0 -0.22215572283E+02  0.53034248807E+02 -0.95160862827E+02  0.11118342058E+03  0.00000000000E+00 0. -1.
         11    1    3    3    0    0 -0.11375072174E+02  0.34031970642E+02  0.19727986389E+02  0.40948269069E+02  0.00000000000E+00 0.  1.
         21    1    1    2  502  501  0.76588073683E+01 -0.21278200533E+02  0.25260560727E+02  0.33904499354E+02  0.00000000000E+00 0.  1.
<scales pt_clust_5="13000.00000" pt_clust_6="13000.00000" pt_clust_7="13000.00000" pt_clust_8="13000.00000" pt_clust_9="22.61458"></scales>
<clustering>
<clus scale="   22.615">  1  9  2 -1</clus>
<clus scale="   71.572">  5  6 -1 -1</clus>
<clus scale="   93.515">  7  8 -1 -1</clus>
<clus scale="  105.170">  2  5  1 -1</clus>
<clus scale="  105.170">  2  5  1 -1</clus>
</clustering>
</event>
<event>
 9    1  0.2333971E-005  0.1239780E+03  0.7546771E-02  0.1255198E+00
          3   -1    0    0  502    0  0.00000000000E+00  0.00000000000E+00  0.10443415078E+03  0.10443415078E+03  0.00000000000E+00 0. -1.
         -4   -1    0    0    0  501 -0.00000000000E+00 -0.00000000000E+00 -0.65155266910E+03  0.65155266910E+03  0.00000000000E+00 0.  1.
        -24    2    1    2    0    0  0.21463696942E+02 -0.19682278523E+02 -0.19690317501E+03  0.21463227815E+03  0.80299888665E+02 0.  0.
         23    2    1    2    0    0  0.53404832447E+01 -0.72539570011E+02  0.47925698682E+02  0.13179426199E+03  0.98905737554E+02 0.  0.
         13    1    3    3    0    0  0.52271093419E+02 -0.13011881530E+02 -0.12694167072E+03  0.13789765782E+03  0.00000000000E+00 0. -1.
        -14    1    3    3    0    0 -0.30807396477E+02 -0.66703969931E+01 -0.69961504295E+02  0.76734620329E+02  0.00000000000E+00 0.  1.
        -13    1    4    4    0    0  0.40202860442E+02 -0.23763984351E+02 -0.10731948514E+02  0.47918385395E+02  0.00000000000E+00 0.  1.
         13    1    4    4    0    0 -0.34862377197E+02 -0.48775585661E+02  0.58657647196E+02  0.83875876597E+02  0.00000000000E+00 0. -1.
         21    1    1    2  502  501 -0.26804180187E+02  0.92221848535E+02 -0.39814104199E+03  0.40956027974E+03  0.00000000000E+00 0.  1.
<scales pt_clust_5="13000.00000" pt_clust_6="13000.00000" pt_clust_7="13000.00000" pt_clust_8="13000.00000" pt_clust_9="74.75421"></scales>
<clustering>
<clus scale="   80.300">  5  6 -1 -1</clus>
<clus scale="   85.418">  2  5  1 -1</clus>
<clus scale="   74.754">  2  9  1 -1</clus>
<clus scale="   98.906">  7  8 -1 -1</clus>
<clus scale="  123.978">  1  5  2 -1</clus>
</clustering>
</event>
<event>
 9    1  0.2333971E-005  0.5896740E+03  0.7546771E-02  0.1052689E+00
         -2   -1    0    0    0  501 -0.00000000000E+00  0.00000000000E+00  0.14098574027E+03  0.14098574027E+03  0.00000000000E+00 0.  1.
          1   -1    0    0  502    0  0.00000000000E+00 -0.00000000000E+00 -0.36963512355E+04  0.36963512355E+04  0.00000000000E+00 0. -1.
         23    2    1    2    0    0 -0.42964177485E+01  0.33963716420E+02 -0.98812440601E+02  0.13828710762E+03  0.90484432235E+02 0.  0.
        -24    2    1    2    0    0 -0.13605195546E+03  0.54257956971E+03 -0.81567947148E+03  0.99233357182E+03  0.80561737307E+02 0.  0.
         13    1    4    4    0    0 -0.87522921956E+02  0.25489736307E+03 -0.33377817313E+03  0.42899976273E+03  0.00000000000E+00 0. -1.
        -14    1    4    4    0    0 -0.48529033509E+02  0.28768220665E+03 -0.48190129835E+03  0.56333380909E+03  0.00000000000E+00 0.  1.
        -11    1    3    3    0    0  0.26009021504E+02 -0.12831998824E+01  0.31481926041E+01  0.26230267216E+02  0.00000000000E+00 0.  1.
         11    1    3    3    0    0 -0.30305439252E+02  0.35246916302E+02 -0.10196063321E+03  0.11205684040E+03  0.00000000000E+00 0. -1.
         21    1    1    2  502  501  0.14034837321E+03 -0.57654328613E+03 -0.26408735831E+04  0.27067162963E+04  0.00000000000E+00 0. -1.
<scales pt_clust_5="13000.00000" pt_clust_6="13000.00000" pt_clust_7="13000.00000" pt_clust_8="13000.00000" pt_clust_9="584.14486"></scales>
<clustering>
<clus scale="   80.562">  5  6 -1 -1</clus>
<clus scale="   90.484">  7  8 -1 -1</clus>
<clus scale="   96.744">  1  7  2 -1</clus>
<clus scale="  584.145">  2  9  1 -1</clus>
<clus scale="  584.145">  2  5  1 -1</clus>
</clustering>
</event>
<event>
 9    1  0.2333971E-005  0.9268769E+02  0.7546771E-02  0.1300628E+00
         -2   -1    0    0    0  501 -0.00000000000E+00  0.00000000000E+00  0.32823063055E+03  0.32823063055E+03  0.00000000000E+00 0.  1.
          1   -1    0    0  502    0  0.00000000000E+00 -0.00000000000E+00 -0.45640220751E+02  0.45640220751E+02  0.00000000000E+00 0. -1.
        -24    2    1    2    0    0 -0.37969909311E+02  0.37140111528E+01  0.19207694426E+03  0.21129672347E+03  0.79355182180E+02 0.  0.
         23    2    1    2    0    0  0.24576707657E+02  0.23977231588E+02  0.35994919257E+02  0.99976566671E+02  0.86722300922E+02 0.  0.
         13    1    3    3    0    0 -0.17764268393E+01 -0.34548326090E+02  0.62704701711E+02  0.71614399003E+02  0.00000000000E+00 0. -1.
        -14    1    3    3    0    0 -0.36193482472E+02  0.38262337243E+02  0.12937224255E+03  0.13968232447E+03  0.00000000000E+00 0.  1.
        -11    1    4    4    0    0 -0.49763969011E+01  0.51698923581E+02  0.26721966330E+02  0.58408960871E+02  0.00000000000E+00 0.  1.
         11    1    4    4    0    0  0.29553104558E+02 -0.27721691993E+02  0.92729529270E+01  0.41567605800E+02  0.00000000000E+00 0. -1.
         21    1    1    2  502  501  0.13393201654E+02 -0.27691242741E+02  0.54518546280E+02  0.62597561163E+02  0.00000000000E+00 0. -1.
<scales pt_clust_5="13000.00000" pt_clust_6="13000.00000" pt_clust_7="13000.00000" pt_clust_8="13000.00000" pt_clust_9="30.76008"></scales>
<clustering>
<clus scale="   30.760">  1  9  2 -1</clus>
<clus scale="   79.355">  5  6 -1 -1</clus>
<clus scale="   85.834">  1  5  2 -1</clus>
<clus scale="   86.722">  7  8 -1 -1</clus>
<clus scale="   92.688">  2  5  1 -1</clus>
</clustering>
</event>
<event>
 9    1  0.2333971E-005  0.1091928E+03  0.7546771E-02  0.1264589E+00
         -2   -1    0    0    0  501 -0.00000000000E+00  0.00000000000E+00  0.12908963430E+03  0.12908963430E+03  0.00000000000E+00 0.  1.
          1   -1    0    0  502    0  0.00000000000E+00 -0.00000000000E+00 -0.29856626963E+03  0.29856626963E+03  0.00000000000E+00 0. -1.
         23    2    1    2    0    0 -0.27682510057E+02  0.10179988903E+03  0.76633774705E+01  0.14071264594E+03  0.92799690756E+02 0.  0.
        -24    2    1    2    0    0  0.77919719143E+01 -0.49452925242E+02 -0.20221133509E+03  0.22558847557E+03  0.86570373855E+02 0.  0.
         11    1    4    4    0    0  0.91909130434E+01 -0.74099456677E+02 -0.14018647881E+03  0.15883151829E+03  0.00000000000E+00 0. -1.
        -12    1    4    4    0    0 -0.13989411291E+01  0.24646531435E+02 -0.62024856281E+02  0.66756957276E+02  0.00000000000E+00 0.  1.
        -13    1    3    3    0    0 -0.56501419668E+02  0.49612614950E+02  0.23946767274E+02  0.78913051199E+02  0.00000000000E+00 0. -1.
         13    1    3    3    0    0  0.28818909610E+02  0.52187274077E+02 -0.16283389804E+02  0.61799594742E+02  0.00000000000E+00 0.  1.
         21    1    1    2  502  501  0.19890538143E+02 -0.52346963786E+02  0.25071322288E+02  0.61354782426E+02  0.00000000000E+00 0.  1.
<scales pt_clust_5="13000.00000" pt_clust_6="13000.00000" pt_clust_7="13000.00000" pt_clust_8="13000.00000" pt_clust_9="55.99855"></scales>
<clustering>
<clus scale="   55.999">  1  9  2 -1</clus>
<clus scale="   86.570">  5  6 -1 -1</clus>
<clus scale="   92.800">  7  8 -1 -1</clus>
<clus scale="  103.951">  2  5  1 -1</clus>
<clus scale="  103.951">  2  5  1 -1</clus>
</clustering>
</event>
<event>
 9    1  0.2333971E-005  0.1344021E+03  0.7546771E-02  0.1224251E+00
          1   -1    0    0  502    0  0.00000000000E+00  0.00000000000E+00  0.59202197399E+03  0.59202197399E+03  0.00000000000E+00 0. -1.
         -2   -1    0    0    0  501 -0.00000000000E+00 -0.00000000000E+00 -0.70999212209E+02  0.70999212209E+02  0.00000000000E+00 0.  1.
        -24    2    1    2    0    0  0.58962025115E+02  0.42338479868E+02  0.17500594079E+01  0.10846414661E+03  0.80575065050E+02 0.  0.
         23    2    1    2    0    0 -0.88354712467E+02 -0.48478553595E+02  0.50074284204E+03  0.51927267621E+03  0.93509320577E+02 0.  0.
         13    1    3    3    0    0  0.53738685350E+02  0.66829907232E+01  0.30691287441E+02  0.62245190922E+02  0.00000000000E+00 0. -1.
        -14    1    3    3    0    0  0.52233397657E+01  0.35655489145E+02 -0.28941228033E+02  0.46218955684E+02  0.00000000000E+00 0.  1.
        -13    1    4    4    0    0 -0.72956142834E+02  0.86099023963E+01  0.20729910630E+03  0.21993100888E+03  0.00000000000E+00 0.  1.
         13    1    4    4    0    0 -0.15398569633E+02 -0.57088455991E+02  0.29344373574E+03  0.29934166733E+03  0.00000000000E+00 0. -1.
         21    1    1    2  502  501  0.29392687351E+02  0.61400737271E+01  0.18529860333E+02  0.35284363379E+02  0.00000000000E+00 0.  1.
<scales pt_clust_5="13000.00000" pt_clust_6="13000.00000" pt_clust_7="13000.00000" pt_clust_8="13000.00000" pt_clust_9="30.02716"></scales>
<clustering>
<clus scale="   30.027">  2  9  1 -1</clus>
<clus scale="   80.575">  5  6 -1 -1</clus>
<clus scale="   93.509">  7  8 -1 -1</clus>
<clus scale="  125.747">  2  5  1 -1</clus>
<clus scale="  134.402">  1  5  2 -1</clus>
</clustering>
</event>
<event>
 9    1  0.2333971E-005  0.8895959E+02  0.7546771E-02  0.1309518E+00
         -2   -1    0    0    0  501 -0.00000000000E+00  0.00000000000E+00  0.36345645302E+03  0.36345645302E+03  0.00000000000E+00 0.  1.
          1   -1    0    0  502    0  0.00000000000E+00 -0.00000000000E+00 -0.91167091777E+02  0.91167091777E+02  0.00000000000E+00 0. -1.
         23    2    1    2    0    0 -0.20818261140E+02  0.55096988945E+02  0.21800504735E+03  0.24184087669E+03  0.86554784835E+02 0.  0.
        -24    2    1    2    0    0 -0.19746154828E+02 -0.86041354123E+01 -0.46257287425E+02  0.94817966324E+02  0.79917259220E+02 0.  0.
         11    1    4    4    0    0 -0.42754927526E+02  0.15893051453E+02 -0.12753899932E+02  0.47362800548E+02  0.00000000000E+00 0. -1.
        -12    1    4    4    0    0  0.23008772698E+02 -0.24497186865E+02 -0.33503387492E+02  0.47455165776E+02  0.00000000000E+00 0.  1.
        -13    1    3    3    0    0 -0.10779557048E+02  0.77143683088E+02  0.18639477154E+03  0.20201573589E+03  0.00000000000E+00 0. -1.
         13    1    3    3    0    0 -0.10038704092E+02 -0.22046694143E+02  0.31610275818E+02  0.39825140801E+02  0.00000000000E+00 0.  1.
         21    1    1    2  502  501  0.40564415968E+02 -0.46492853533E+02  0.10054160131E+03  0.11796470178E+03  0.00000000000E+00 0.  1.
<scales pt_clust_5="13000.00000" pt_clust_6="13000.00000" pt_clust_7="13000.00000" pt_clust_8="13000.00000" pt_clust_9="61.70136"></scales>
<clustering>
<clus scale="   61.701">  1  9  2 -1</clus>
<clus scale="   79.917">  5  6 -1 -1</clus>
<clus scale="   82.516">  2  5  1 -1</clus>
<clus scale="   86.555">  7  8 -1 -1</clus>
<clus scale="   82.516">  2  5  1 -1</clus>
</clustering>
</event>
<event>
 9    1  0.2333971E-005  0.1619658E+03  0.7546771E-02  0.1198153E+00
          1   -1    0    0  502    0  0.00000000000E+00  0.00000000000E+00  0.38391860321E+03  0.38391860321E+03  0.00000000000E+00 0. -1.
         -2   -1    0    0    0  501 -0.00000000000E+00 -0.00000000000E+00 -0.17894550346E+03  0.17894550346E+03  0.00000000000E+00 0.  1.
        -24    2    1    2    0    0  0.17124881890E+02  0.20498053738E+03  0.47341054130E+02  0.21913037937E+03  0.58878395645E+02 0.  0.
         23    2    1    2    0    0 -0.37759779552E+02 -0.77698121847E+02  0.17327837156E+03  0.21384369758E+03  0.90779589425E+02 0.  0.
         11    1    3    3    0    0  0.23561510433E+02  0.13846757518E+03  0.60693606940E+01  0.14058894440E+03  0.00000000000E+00 0. -1.
        -12    1    3    3    0    0 -0.64366285431E+01  0.66512962204E+02  0.41271693436E+02  0.78541434970E+02  0.00000000000E+00 0.  1.
        -13    1    4    4    0    0 -0.55480396864E+02 -0.52549266822E+02  0.16522719731E+03  0.18204265053E+03  0.00000000000E+00 0. -1.
         13    1    4    4    0    0  0.17720617312E+02 -0.25148855025E+02  0.80511742428E+01  0.31801047053E+02  0.00000000000E+00 0.  1.
         21    1    1    2  502  501  0.20634897662E+02 -0.12728241553E+03 -0.15646325937E+02  0.12989002972E+03  0.00000000000E+00 0.  1.
<scales pt_clust_5="13000.00000" pt_clust_6="13000.00000" pt_clust_7="13000.00000" pt_clust_8="13000.00000" pt_clust_9="150.88494"></scales>
<clustering>
<clus scale="   58.878">  5  6 -1 -1</clus>
<clus scale="   90.780">  7  8 -1 -1</clus>
<clus scale="  125.315">  1  7  2 -1</clus>
<clus scale="  150.885">  2  9  1 -1</clus>
<clus scale="  125.315">  1  5  2 -1</clus>
</clustering>
</event>
<event>
 9    1  0.2333971E-005  0.3390833E+03  0.7546771E-02  0.1067532E+00
         -2   -1    0    0    0  501 -0.00000000000E+00  0.00000000000E+00  0.30396594012E+03  0.30396594012E+03  0.00000000000E+00 0.  1.
          1   -1    0    0  502    0  0.00000000000E+00 -0.00000000000E+00 -0.57370105160E+03  0.57370105160E+03  0.00000000000E+00 0. -1.
         23    2    1    2    0    0 -0.51263341354E+02  0.30596115175E+03  0.11307418683E+03  0.34316244121E+03  0.93458722347E+02 0.  0.
        -24    2    1    2    0    0  0.60369654343E+02 -0.32483936419E+03 -0.38460076759E+03  0.51346836256E+03  0.81036419110E+02 0.  0.
         11    1    4    4    0    0  0.62996014089E+02 -0.30948923909E+03 -0.33039532997E+03  0.45707019261E+03  0.00000000000E+00 0. -1.
        -12    1    4    4    0    0 -0.26263597461E+01 -0.15350125101E+02 -0.54205437619E+02  0.56398169949E+02  0.00000000000E+00 0.  1.
        -13    1    3    3    0    0  0.12078061298E+02  0.19741814773E+03  0.59467271805E+02  0.20653368014E+03  0.00000000000E+00 0.  1.
         13    1    3    3    0    0 -0.63341402652E+02  0.10854300402E+03  0.53606915028E+02  0.13662876106E+03  0.00000000000E+00 0. -1.
         21    1    1    2  502  501 -0.91063129890E+01  0.18878212448E+02  0.17914692825E+01  0.21036187955E+02  0.00000000000E+00 0. -1.
<scales pt_clust_5="13000.00000" pt_clust_6="13000.00000" pt_clust_7="13000.00000" pt_clust_8="13000.00000" pt_clust_9="20.95977"></scales>
<clustering>
<clus scale="   20.960">  1  9  2 -1</clus>
<clus scale="   81.036">  5  6 -1 -1</clus>
<clus scale="   93.459">  7  8 -1 -1</clus>
<clus scale="  335.872">  2  5  1 -1</clus>
<clus scale="  335.872">  2  5  1 -1</clus>
</clustering>
</event>
<event>
 9    1  0.2333971E-005  0.1849804E+03  0.7546771E-02  0.1164493E+00
         -2   -1    0    0    0  501 -0.00000000000E+00  0.00000000000E+00  0.48218514865E+02  0.48218514865E+02  0.00000000000E+00 0.  1.
          1   -1    0    0  502    0  0.00000000000E+00 -0.00000000000E+00 -0.10114814597E+04  0.10114814597E+04  0.00000000000E+00 0. -1.
         23    2    1    2    0    0  0.68154563092E+02 -0.12575067423E+03 -0.21713037375E+03  0.27568856388E+03  0.91653196951E+02 0.  0.
        -24    2    1    2    0    0 -0.11511263090E+03  0.12506951684E+03 -0.65783654303E+03  0.68400284766E+03  0.78852244258E+02 0.  0.
         11    1    4    4    0    0 -0.56606671548E+02  0.96309762691E+02 -0.51522255956E+03  0.52719462396E+03  0.00000000000E+00 0. -1.
        -12    1    4    4    0    0 -0.58505959349E+02  0.28759754150E+02 -0.14261398347E+03  0.15680822370E+03  0.00000000000E+00 0.  1.
        -13    1    3    3    0    0  0.66884818800E+02 -0.62723513226E+02 -0.69167678840E+02  0.11485637071E+03  0.00000000000E+00 0.  1.
         13    1    3    3    0    0  0.12697442921E+01 -0.63027161005E+02 -0.14796269491E+03  0.16083219317E+03  0.00000000000E+00 0. -1.
         21    1    1    2  502  501  0.46958067805E+02  0.68115739015E+00 -0.88296028060E+02  0.10000856303E+03  0.00000000000E+00 0.  1.
<scales pt_clust_5="13000.00000" pt_clust_6="13000.00000" pt_clust_7="13000.00000" pt_clust_8="13000.00000" pt_clust_9="46.96301"></scales>
<clustering>
<clus scale="   46.963">  1  9  2 -1</clus>
<clus scale="   78.852">  5  6 -1 -1</clus>
<clus scale="   91.653">  7  8 -1 -1</clus>
<clus scale="  178.984">  2  5  1 -1</clus>
<clus scale="  178.984">  2  5  1 -1</clus>
</clustering>
</event>
<event>
 9    1  0.2333971E-005  0.9907992E+02  0.7546771E-02  0.1287789E+00
         -2   -1    0    0    0  501 -0.00000000000E+00  0.00000000000E+00  0.25690175014E+03  0.25690175014E+03  0.00000000000E+00 0.  1.
          1   -1    0    0  502    0  0.00000000000E+00 -0.00000000000E+00 -0.70315344330E+02  0.70315344330E+02  0.00000000000E+00 0. -1.
         23    2    1    2    0    0 -0.20911127656E+01 -0.26109496198E+02  0.14984113377E+03  0.17718230485E+03  0.90857719755E+02 0.  0.
        -24    2    1    2    0    0  0.28003333739E+02  0.33558572717E+02 -0.14327074668E+02  0.92282590223E+02  0.80002792992E+02 0.  0.
         13    1    4    4    0    0  0.35072222428E+02  0.42995511339E+02 -0.37025060082E+02  0.66704796345E+02  0.00000000000E+00 0. -1.
        -14    1    4    4    0    0 -0.70688886888E+01 -0.94369386218E+01  0.22697985414E+02  0.25577793879E+02  0.00000000000E+00 0.  1.
        -11    1    3    3    0    0  0.16496622501E+02 -0.46832401094E+02  0.13848495566E+03  0.14711728413E+03  0.00000000000E+00 0.  1.
         11    1    3    3    0    0 -0.18587735267E+02  0.20722904897E+02  0.11356178112E+02  0.30065020722E+02  0.00000000000E+00 0. -1.
         21    1    1    2  502  501 -0.25912220973E+02 -0.74490765192E+01  0.51072346710E+02  0.57752199397E+02  0.00000000000E+00 0.  1.
<scales pt_clust_5="13000.00000" pt_clust_6="13000.00000" pt_clust_7="13000.00000" pt_clust_8="13000.00000" pt_clust_9="26.96168"></scales>
<clustering>
<clus scale="   26.962">  1  9  2 -1</clus>
<clus scale="   80.003">  5  6 -1 -1</clus>
<clus scale="   89.231">  2  5  1 -1</clus>
<clus scale="   90.858">  7  8 -1 -1</clus>
<clus scale="   89.231">  2  5  1 -1</clus>
</clustering>
</event>
<event>
 9    1  0.2333971E-005  0.1034224E+03  0.7546771E-02  0.1279122E+00
         -2   -1    0    0    0  501 -0.00000000000E+00  0.00000000000E+00  0.35910505614E+02  0.35910505614E+02  0.00000000000E+00 0.  1.
          1   -1    0    0  502    0  0.00000000000E+00 -0.00000000000E+00 -0.11047684267E+04  0.11047684267E+04  0.00000000000E+00 0. -1.
         23    2    1    2    0    0 -0.49124515230E+02 -0.11559613128E+02 -0.99735320217E+02  0.14441704539E+03  0.91445646412E+02 0.  0.
        -24    2    1    2    0    0  0.47262505347E+02 -0.11229692348E+02 -0.96898352062E+03  0.97339621681E+03  0.78811682358E+02 0.  0.
         13    1    4    4    0    0  0.47563450065E+02  0.44173507975E+01 -0.26707147516E+03  0.27130972635E+03  0.00000000000E+00 0. -1.
        -14    1    4    4    0    0 -0.30094471753E+00 -0.15647043146E+02 -0.70191204546E+03  0.70208649046E+03  0.00000000000E+00 0.  1.
        -11    1    3    3    0    0  0.25485047468E+02 -0.15225266200E+02 -0.26168235971E+02  0.39573639574E+02  0.00000000000E+00 0. -1.
         11    1    3    3    0    0 -0.74609562698E+02  0.36656530723E+01 -0.73567084245E+02  0.10484340581E+03  0.00000000000E+00 0.  1.
         21    1    1    2  502  501  0.18620098827E+01  0.22789305476E+02 -0.13908021955E+00  0.22865670080E+02  0.00000000000E+00 0.  1.
<scales pt_clust_5="13000.00000" pt_clust_6="13000.00000" pt_clust_7="13000.00000" pt_clust_8="13000.00000" pt_clust_9="22.86525"></scales>
<clustering>
<clus scale="   22.865">  1  9  2 -1</clus>
<clus scale="   78.812">  5  6 -1 -1</clus>
<clus scale="   91.446">  7  8 -1 -1</clus>
<clus scale="   92.440">  2  5  1 -1</clus>
<clus scale="   92.440">  2  5  1 -1</clus>
</clustering>
</event>
<event>
 9    1  0.2333971E-005  0.1791100E+03  0.7546771E-02  0.1170408E+00
          1   -1    0    0  502    0  0.00000000000E+00  0.00000000000E+00  0.62447279953E+03  0.62447279953E+03  0.00000000000E+00 0. -1.
         -2   -1    0    0    0  501 -0.00000000000E+00 -0.00000000000E+00 -0.93663429690E+02  0.93663429690E+02  0.00000000000E+00 0.  1.
        -24    2    1    2    0    0  0.17275396103E+03  0.21958972154E+02  0.59082821271E+02  0.20027314334E+03  0.79324804847E+02 0.  0.
         23    2    1    2    0    0 -0.14471167617E+03 -0.30176758091E+02  0.44543715579E+03  0.47855616641E+03  0.93539503422E+02 0.  0.
         13    1    3    3    0    0  0.16045684306E+02  0.12707450990E+02  0.36264868752E+02  0.41642334242E+02  0.00000000000E+00 0. -1.
        -14    1    3    3    0    0  0.15670827673E+03  0.92515211645E+01  0.22817952519E+02  0.15863080910E+03  0.00000000000E+00 0.  1.
        -11    1    4    4    0    0 -0.16579181538E+02  0.18800429609E+02  0.21651518550E+02  0.33122706252E+02  0.00000000000E+00 0.  1.
         11    1    4    4    0    0 -0.12813249464E+03 -0.48977187700E+02  0.42378563724E+03  0.44543346016E+03  0.00000000000E+00 0. -1.
         21    1    1    2  502  501 -0.28042284857E+02  0.82177859362E+01  0.26289392784E+02  0.39306919476E+02  0.00000000000E+00 0.  1.
<scales pt_clust_5="13000.00000" pt_clust_6="13000.00000" pt_clust_7="13000.00000" pt_clust_8="13000.00000" pt_clust_9="29.22160"></scales>
<clustering>
<clus scale="   29.222">  2  9  1 -1</clus>
<clus scale="   79.325">  5  6 -1 -1</clus>
<clus scale="   93.540">  7  8 -1 -1</clus>
<clus scale="  172.114">  2  5  1 -1</clus>
<clus scale="  179.110">  1  5  2 -1</clus>
</clustering>
</event>
<event>
 9    1  0.2333971E-005  0.1481557E+03  0.7546771E-02  0.1226255E+00
         -2   -1    0    0    0  501 -0.00000000000E+00  0.00000000000E+00  0.54902540456E+02  0.54902540456E+02  0.00000000000E+00 0.  1.
          1   -1    0    0  502    0  0.00000000000E+00 -0.00000000000E+00 -0.87766533436E+03  0.87766533436E+03  0.00000000000E+00 0. -1.
         23    2    1    2    0    0  0.96929645937E+02  0.39120201871E+02 -0.11408182506E+03  0.18110829873E+03  0.94126545699E+02 0.  0.
        -24    2    1    2    0    0  0.12798934191E+02  0.38054881317E+02 -0.46169437281E+03  0.47039244285E+03  0.80593856458E+02 0.  0.
         13    1    4    4    0    0  0.10103016135E+02 -0.24876140779E+02 -0.12395645376E+03  0.12683097312E+03  0.00000000000E+00 0. -1.
        -14    1    4    4    0    0  0.26959180554E+01  0.62931022096E+02 -0.33773791905E+03  0.34356146973E+03  0.00000000000E+00 0.  1.
        -13    1    3    3    0    0  0.92719816091E+02  0.65701269027E+02 -0.95009471430E+02  0.14812299183E+03  0.00000000000E+00 0.  1.
         13    1    3    3    0    0  0.42098298459E+01 -0.26581067155E+02 -0.19072353631E+02  0.32985306903E+02  0.00000000000E+00 0. -1.
         21    1    1    2  502  501 -0.10972858013E+03 -0.77175083189E+02 -0.24698659603E+03  0.28106713322E+03  0.00000000000E+00 0. -1.
<scales pt_clust_5="13000.00000" pt_clust_6="13000.00000" pt_clust_7="13000.00000" pt_clust_8="13000.00000" pt_clust_9="114.41284"></scales>
<clustering>
<clus scale="   80.594">  5  6 -1 -1</clus>
<clus scale="   90.041">  2  5  1 -1</clus>
<clus scale="   94.127">  7  8 -1 -1</clus>
<clus scale="  114.413">  2  9  1 -1</clus>
<clus scale="   90.041">  2  5  1 -1</clus>
</clustering>
</event>
<event>
 9    1  0.2333971E-005  0.1545465E+03  0.7546771E-02  0.1195567E+00
          1   -1    0    0  502    0  0.00000000000E+00  0.00000000000E+00  0.40927484725E+03  0.40927484725E+03  0.00000000000E+00 0. -1.
         -2   -1    0    0    0  501 -0.00000000000E+00 -0.00000000000E+00 -0.11688669205E+03  0.11688669205E+03  0.00000000000E+00 0.  1.
         23    2    1    2    0    0  0.70262274111E+02 -0.78502953946E+02  0.20335542319E+02  0.14044903018E+03  0.90625023348E+02 0.  0.
        -24    2    1    2    0    0 -0.72316875426E+02  0.11031208701E+03  0.30267229485E+03  0.34151287951E+03  0.87304305691E+02 0.  0.
         11    1    4    4    0    0 -0.52928386132E+02  0.10067772386E+02  0.13286385006E+03  0.14337216171E+03  0.00000000000E+00 0. -1.
        -12    1    4    4    0    0 -0.19388489294E+02  0.10024431463E+03  0.16980844479E+03  0.19814071781E+03  0.00000000000E+00 0.  1.
        -11    1    3    3    0    0  0.38482781027E+02 -0.57026186386E+02 -0.31746135438E+02  0.75767588615E+02  0.00000000000E+00 0.  1.
         11    1    3    3    0    0  0.31779493084E+02 -0.21476767560E+02  0.52081677757E+02  0.64681441569E+02  0.00000000000E+00 0. -1.
         21    1    1    2  502  501  0.20546013141E+01 -0.31809133066E+02 -0.30619681964E+02  0.44199629598E+02  0.00000000000E+00 0.  1.
<scales pt_clust_5="13000.00000" pt_clust_6="13000.00000" pt_clust_7="13000.00000" pt_clust_8="13000.00000" pt_clust_9="31.87542"></scales>
<clustering>
<clus scale="   31.875">  2  9  1 -1</clus>
<clus scale="   87.304">  5  6 -1 -1</clus>
<clus scale="   90.625">  7  8 -1 -1</clus>
<clus scale="  152.623">  1  5  2 -1</clus>
<clus scale="  152.623">  1  5  2 -1</clus>
</clustering>
</event>
<event>
 9    1  0.2333971E-005  0.1107523E+03  0.7546771E-02  0.1262918E+00
          3   -1    0    0  502    0  0.00000000000E+00  0.00000000000E+00  0.31828167706E+03  0.31828167706E+03  0.00000000000E+00 0. -1.
         -4   -1    0    0    0  501 -0.00000000000E+00 -0.00000000000E+00 -0.68144837915E+02  0.68144837915E+02  0.00000000000E+00 0.  1.
         23    2    1    2    0    0 -0.49080281082E+01 -0.83283072398E+02  0.93564740956E+02  0.15425710071E+03  0.89892900056E+02 0.  0.
        -24    2    1    2    0    0 -0.11956403611E+02  0.56099607375E+02  0.17080022779E+03  0.19715813752E+03  0.80053056409E+02 0.  0.
         11    1    4    4    0    0 -0.28392097068E+02  0.55415381553E+02  0.16959526522E+03  0.18066413500E+03  0.00000000000E+00 0. -1.
        -12    1    4    4    0    0  0.16435693457E+02  0.68422582162E+00  0.12049625721E+01  0.16494002522E+02  0.00000000000E+00 0.  1.
        -11    1    3    3    0    0 -0.32383339744E+02 -0.48650932224E+02  0.93247697892E+02  0.11004874857E+03  0.00000000000E+00 0. -1.
         11    1    3    3    0    0  0.27475311636E+02 -0.34632140174E+02  0.31704306422E+00  0.44208352139E+02  0.00000000000E+00 0.  1.
         21    1    1    2  502  501  0.16864431720E+02  0.27183465023E+02 -0.14228129601E+02  0.35011276753E+02  0.00000000000E+00 0. -1.
<scales pt_clust_5="13000.00000" pt_clust_6="13000.00000" pt_clust_7="13000.00000" pt_clust_8="13000.00000" pt_clust_9="31.98984"></scales>
<clustering>
<clus scale="   31.990">  2  9  1 -1</clus>
<clus scale="   80.053">  5  6 -1 -1</clus>
<clus scale="   89.893">  7  8 -1 -1</clus>
<clus scale="  102.926">  1  5  2 -1</clus>
<clus scale="  102.926">  1  5  2 -1</clus>
</clustering>
</event>
<event>
 9    1  0.2333971E-005  0.9661684E+02  0.7546771E-02  0.1294669E+00
         -4   -1    0    0    0  501 -0.00000000000E+00  0.00000000000E+00  0.66300903143E+02  0.66300903143E+02  0.00000000000E+00 0.  1.
          3   -1    0    0  502    0  0.00000000000E+00 -0.00000000000E+00 -0.44769813148E+03  0.44769813148E+03  0.00000000000E+00 0. -1.
         23    2    1    2    0    0  0.13229120396E+02 -0.17696007604E+02 -0.10001948242E+03  0.13777687207E+03  0.92143427891E+02 0.  0.
        -24    2    1    2    0    0 -0.31969252017E+02 -0.18237302449E+02 -0.31287101649E+03  0.32489749600E+03  0.79469979691E+02 0.  0.
         13    1    4    4    0    0 -0.32287966260E+02 -0.45927787363E+02 -0.24952823047E+03  0.25576593248E+03  0.00000000000E+00 0. -1.
        -14    1    4    4    0    0  0.31871424228E+00  0.27690484914E+02 -0.63342786024E+02  0.69131563520E+02  0.00000000000E+00 0.  1.
        -13    1    3    3    0    0 -0.42346409398E+01  0.19701625185E+02  0.83503263456E+01  0.21813165036E+02  0.00000000000E+00 0.  1.
         13    1    3    3    0    0  0.17463761336E+02 -0.37397632789E+02 -0.10836980876E+03  0.11596370704E+03  0.00000000000E+00 0. -1.
         21    1    1    2  502  501  0.18740131621E+02  0.35933310052E+02  0.31493270575E+02  0.51324666545E+02  0.00000000000E+00 0.  1.
<scales pt_clust_5="13000.00000" pt_clust_6="13000.00000" pt_clust_7="13000.00000" pt_clust_8="13000.00000" pt_clust_9="40.52648"></scales>
<clustering>
<clus scale="   40.526">  1  9  2 -1</clus>
<clus scale="   79.470">  5  6 -1 -1</clus>
<clus scale="   84.616">  2  5  1 -1</clus>
<clus scale="   92.143">  7  8 -1 -1</clus>
<clus scale="   84.616">  2  5  1 -1</clus>
</clustering>
</event>
<event>
 9    1  0.2333971E-005  0.8839969E+02  0.7546771E-02  0.1307339E+00
         -2   -1    0    0    0  501 -0.00000000000E+00  0.00000000000E+00  0.36014799522E+02  0.36014799522E+02  0.00000000000E+00 0.  1.
          1   -1    0    0  502    0  0.00000000000E+00 -0.00000000000E+00 -0.46170693349E+03  0.46170693349E+03  0.00000000000E+00 0. -1.
         23    2    1    2    0    0  0.34571472704E+02 -0.13084620133E+02 -0.54310976238E+02  0.10755673903E+03  0.85160882815E+02 0.  0.
        -24    2    1    2    0    0 -0.14012034315E+02  0.91520250216E+01 -0.34755591785E+03  0.35845067756E+03  0.86091088615E+02 0.  0.
         11    1    4    4    0    0 -0.15022173919E+02 -0.31131436846E+02 -0.70920698916E+02  0.78895992319E+02  0.00000000000E+00 0. -1.
        -12    1    4    4    0    0  0.10101396032E+01  0.40283461868E+02 -0.27663521894E+03  0.27955468524E+03  0.00000000000E+00 0.  1.
        -13    1    3    3    0    0  0.10194624779E+02 -0.40943262001E+02 -0.56450976716E+02  0.70476902953E+02  0.00000000000E+00 0. -1.
         13    1    3    3    0    0  0.24376847925E+02  0.27858641867E+02  0.21400004774E+01  0.37079836077E+02  0.00000000000E+00 0.  1.
         21    1    1    2  502  501 -0.20559438389E+02  0.39325951118E+01 -0.23825239876E+02  0.31714316425E+02  0.00000000000E+00 0. -1.
<scales pt_clust_5="13000.00000" pt_clust_6="13000.00000" pt_clust_7="13000.00000" pt_clust_8="13000.00000" pt_clust_9="20.93217"></scales>
<clustering>
<clus scale="   20.932">  1  9  2 -1</clus>
<clus scale="   85.161">  7  8 -1 -1</clus>
<clus scale="   86.091">  5  6 -1 -1</clus>
<clus scale="   87.494">  1  7  2 -1</clus>
<clus scale="   88.400">  2  5  1 -1</clus>
</clustering>
</event>
<event>
 9    1  0.2333971E-005  0.1162556E+03  0.7546771E-02  0.1253115E+00
          1   -1    0    0  502    0  0.00000000000E+00  0.00000000000E+00  0.48126337212E+03  0.48126337212E+03  0.00000000000E+00 0. -1.
         -2   -1    0    0    0  501 -0.00000000000E+00 -0.00000000000E+00 -0.17849541650E+03  0.17849541650E+03  0.00000000000E+00 0.  1.
         23    2    1    2    0    0 -0.27093872355E+01  0.56715118788E+02 -0.72691597573E+02  0.12918530111E+03  0.90447930799E+02 0.  0.
        -24    2    1    2    0    0  0.34599735517E+02 -0.65902040922E+02  0.44253271171E+03  0.45573898715E+03  0.79514795978E+02 0.  0.
         11    1    4    4    0    0  0.44935568691E+02 -0.79781978018E+02  0.36728383338E+03  0.37852580310E+03  0.00000000000E+00 0. -1.
        -12    1    4    4    0    0 -0.10335833175E+02  0.13879937096E+02  0.75248878333E+02  0.77213184053E+02  0.00000000000E+00 0.  1.
        -13    1    3    3    0    0  0.35435773431E+02  0.58160906994E+01 -0.49283810073E+01  0.36246515543E+02  0.00000000000E+00 0. -1.
         13    1    3    3    0    0 -0.38145160666E+02  0.50899028089E+02 -0.67763216565E+02  0.92938785563E+02  0.00000000000E+00 0.  1.
         21    1    1    2  502  501 -0.31890348281E+02  0.91869221339E+01 -0.67073158510E+02  0.74834500361E+02  0.00000000000E+00 0.  1.
<scales pt_clust_5="13000.00000" pt_clust_6="13000.00000" pt_clust_7="13000.00000" pt_clust_8="13000.00000" pt_clust_9="33.18725"></scales>
<clustering>
<clus scale="   33.187">  2  9  1 -1</clus>
<clus scale="   79.515">  5  6 -1 -1</clus>
<clus scale="   90.448">  7  8 -1 -1</clus>
<clus scale="  107.968">  1  5  2 -1</clus>
<clus scale="  107.968">  1  5  2 -1</clus>
</clustering>
</event>
<event>
 9    1  0.2333971E-005  0.1016573E+03  0.7546771E-02  0.1286084E+00
          1   -1    0    0  502    0  0.00000000000E+00  0.00000000000E+00  0.14283383394E+03  0.14283383394E+03  0.00000000000E+00 0. -1.
         -2   -1    0    0    0  501 -0.00000000000E+00 -0.00000000000E+00 -0.14872543785E+03  0.14872543785E+03  0.00000000000E+00 0.  1.
        -24    2    1    2    0    0  0.21403696213E+02 -0.26193082619E+02 -0.20418523321E+02  0.89498301092E+02  0.80304632587E+02 0.  0.
         23    2    1    2    0    0 -0.22283390188E+00  0.28790560569E+02  0.82433355459E+02  0.13088049671E+03  0.97496155279E+02 0.  0.
         11    1    3    3    0    0  0.44744974064E+02 -0.22146465346E+02  0.10026451545E+02  0.50922572224E+02  0.00000000000E+00 0. -1.
        -12    1    3    3    0    0 -0.23341277851E+02 -0.40466172730E+01 -0.30444974866E+02  0.38575728868E+02  0.00000000000E+00 0.  1.
        -13    1    4    4    0    0 -0.37685295291E+02 -0.17732520387E+02  0.29143381903E+02  0.50832671278E+02  0.00000000000E+00 0.  1.
         13    1    4    4    0    0  0.37462461389E+02  0.46523080956E+02  0.53289973555E+02  0.80047825433E+02  0.00000000000E+00 0. -1.
         21    1    1    2  502  501 -0.21180862311E+02 -0.25974779493E+01 -0.67906436053E+02  0.71180473990E+02  0.00000000000E+00 0.  1.
<scales pt_clust_5="13000.00000" pt_clust_6="13000.00000" pt_clust_7="13000.00000" pt_clust_8="13000.00000" pt_clust_9="21.33954"></scales>
<clustering>
<clus scale="   21.340">  2  9  1 -1</clus>
<clus scale="   80.305">  5  6 -1 -1</clus>
<clus scale="   85.308">  2  5  1 -1</clus>
<clus scale="   97.496">  7  8 -1 -1</clus>
<clus scale="  101.657">  1  5  2 -1</clus>
</clustering>
</event>
<event>
 9    1  0.3825711E-005  0.1011333E+03  0.7546771E-02  0.1286446E+00
         -2   -1    0    0    0  501 -0.00000000000E+00  0.00000000000E+00  0.45590141237E+03  0.45590141237E+03  0.00000000000E+00 0.  1.
          1   -1    0    0  502    0  0.00000000000E+00 -0.00000000000E+00 -0.19461335180E+03  0.19461335180E+03  0.00000000000E+00 0. -1.
        -24    2    1    2    0    0 -0.22484508035E+02 -0.36317963719E+02  0.41911114500E+03  0.42792098220E+03  0.75084402875E+02 0.  0.
         23    2    1    2    0    0  0.97306004949E+01  0.10916710496E+02 -0.16825804982E+03  0.19231550055E+03  0.91981635506E+02 0.  0.
         13    1    3    3    0    0 -0.13416697629E+02 -0.34978488003E+02  0.76435660186E+02  0.85122926091E+02  0.00000000000E+00 0. -1.
        -14    1    3    3    0    0 -0.90678104058E+01 -0.13394757165E+01  0.34267548482E+03  0.34279805611E+03  0.00000000000E+00 0.  1.
        -13    1    4    4    0    0 -0.24665968359E+02  0.31770880211E+02 -0.13258362196E+03  0.13855040828E+03  0.00000000000E+00 0.  1.
         13    1    4    4    0    0  0.34396568854E+02 -0.20854169715E+02 -0.35674427860E+02  0.53765092268E+02  0.00000000000E+00 0. -1.
         21    1    1    2  502  501  0.12753907540E+02  0.25401253223E+02  0.10434965390E+02  0.30278281416E+02  0.00000000000E+00 0.  1.
<scales pt_clust_5="13000.00000" pt_clust_6="13000.00000" pt_clust_7="13000.00000" pt_clust_8="13000.00000" pt_clust_9="28.42333"></scales>
<clustering>
<clus scale="   28.423">  2  9  1 -1</clus>
<clus scale="   75.084">  5  6 -1 -1</clus>
<clus scale="   86.052">  1  5  2 -1</clus>
<clus scale="   91.982">  7  8 -1 -1</clus>
<clus scale="   28.423">  2  5  1 -1</clus>
</clustering>
</event>
<event>
 9    1  0.2333971E-005  0.1780588E+03  0.7546771E-02  0.1171234E+00
         -2   -1    0    0    0  501 -0.00000000000E+00  0.00000000000E+00  0.43462800673E+03  0.43462800673E+03  0.00000000000E+00 0.  1.
          1   -1    0    0  502    0  0.00000000000E+00 -0.00000000000E+00 -0.39592114758E+03  0.39592114758E+03  0.00000000000E+00 0. -1.
        -24    2    1    2    0    0 -0.19404631526E+02 -0.14166718028E+03  0.29935147413E+03  0.34108420270E+03  0.79252751177E+02 0.  0.
         23    2    1    2    0    0 -0.87795866794E+01  0.15310318399E+03 -0.35112655680E+03  0.39400755729E+03  0.91839154082E+02 0.  0.
         13    1    3    3    0    0 -0.25057932093E+02 -0.49155824792E+02  0.47796342281E+02  0.72997845223E+02  0.00000000000E+00 0. -1.
        -14    1    3    3    0    0  0.56533005666E+01 -0.92511355492E+02  0.25155513185E+03  0.26808635747E+03  0.00000000000E+00 0.  1.
        -13    1    4    4    0    0  0.15096525122E+02  0.82369934841E+02 -0.27465496401E+03  0.28713770301E+03  0.00000000000E+00 0.  1.
         13    1    4    4    0    0 -0.23876111802E+02  0.70733249146E+02 -0.76471592794E+02  0.10686985428E+03  0.00000000000E+00 0. -1.
         21    1    1    2  502  501  0.28184218205E+02 -0.11436003703E+02  0.90481941815E+02  0.95457394324E+02  0.00000000000E+00 0.  1.
<scales pt_clust_5="13000.00000" pt_clust_6="13000.00000" pt_clust_7="13000.00000" pt_clust_8="13000.00000" pt_clust_9="30.41599"></scales>
<clustering>
<clus scale="   30.416">  1  9  2 -1</clus>
<clus scale="   79.253">  5  6 -1 -1</clus>
<clus scale="   91.839">  7  8 -1 -1</clus>
<clus scale="  171.905">  1  5  2 -1</clus>
<clus scale="  178.059">  2  5  1 -1</clus>
</clustering>
</event>
<event>
 9    1  0.2333971E-005  0.1031888E+03  0.7546771E-02  0.1280212E+00
         -2   -1    0    0    0  501 -0.00000000000E+00  0.00000000000E+00  0.11701837574E+03  0.11701837574E+03  0.00000000000E+00 0.  1.
          1   -1    0    0  502    0  0.00000000000E+00 -0.00000000000E+00 -0.22180399478E+03  0.22180399478E+03  0.00000000000E+00 0. -1.
         23    2    1    2    0    0 -0.44550511528E+02 -0.28839505419E+02  0.57180290022E+01  0.10616348937E+03  0.91768869832E+02 0.  0.
        -24    2    1    2    0    0  0.47595756744E+02 -0.19155700664E+01 -0.15413404869E+03  0.17919150749E+03  0.77995294235E+02 0.  0.
         13    1    4    4    0    0  0.23221097654E+01  0.19966685722E+02 -0.11140611759E+03  0.11320505187E+03  0.00000000000E+00 0. -1.
        -14    1    4    4    0    0  0.45273646979E+02 -0.21882255789E+02 -0.42727931094E+02  0.65986455616E+02  0.00000000000E+00 0.  1.
        -11    1    3    3    0    0  0.23735685517E+02 -0.26551050916E+02 -0.79377483369E+01  0.36487654355E+02  0.00000000000E+00 0.  1.
         11    1    3    3    0    0 -0.68286197045E+02 -0.22884545033E+01  0.13655777339E+02  0.69675835019E+02  0.00000000000E+00 0. -1.
         21    1    1    2  502  501 -0.30452452164E+01  0.30755075485E+02  0.43630400638E+02  0.53467373662E+02  0.00000000000E+00 0.  1.
<scales pt_clust_5="13000.00000" pt_clust_6="13000.00000" pt_clust_7="13000.00000" pt_clust_8="13000.00000" pt_clust_9="30.90547"></scales>
<clustering>
<clus scale="   30.905">  1  9  2 -1</clus>
<clus scale="   77.995">  5  6 -1 -1</clus>
<clus scale="   91.157">  2  5  1 -1</clus>
<clus scale="   91.769">  7  8 -1 -1</clus>
<clus scale="   91.157">  2  5  1 -1</clus>
</clustering>
</event>
<event>
 9    1  0.2333971E-005  0.2141822E+03  0.7546771E-02  0.1140099E+00
          1   -1    0    0  502    0  0.00000000000E+00  0.00000000000E+00  0.65130637651E+03  0.65130637651E+03  0.00000000000E+00 0. -1.
         -2   -1    0    0    0  501 -0.00000000000E+00 -0.00000000000E+00 -0.40764627311E+03  0.40764627311E+03  0.00000000000E+00 0.  1.
         23    2    1    2    0    0  0.12999350671E+03 -0.94924582015E+02 -0.24924454504E+03  0.31343343673E+03  0.10103805208E+03 0.  0.
        -24    2    1    2    0    0 -0.15290891700E+03  0.11373143159E+03  0.59990142427E+03  0.63449163228E+03  0.79887027544E+02 0.  0.
         13    1    4    4    0    0 -0.11205997863E+03  0.36175338994E+02  0.30926698492E+03  0.33092621825E+03  0.00000000000E+00 0. -1.
        -14    1    4    4    0    0 -0.40848938376E+02  0.77556092597E+02  0.29063443934E+03  0.30356541403E+03  0.00000000000E+00 0.  1.
        -13    1    3    3    0    0  0.29691152967E+02 -0.53424038458E+02 -0.28489171488E+02  0.67433859016E+02  0.00000000000E+00 0. -1.
         13    1    3    3    0    0  0.10030235375E+03 -0.41500543557E+02 -0.22075537355E+03  0.24599957771E+03  0.00000000000E+00 0.  1.
         21    1    1    2  502  501  0.22915410290E+02 -0.18806849576E+02 -0.10699677582E+03  0.11102758061E+03  0.00000000000E+00 0. -1.
<scales pt_clust_5="13000.00000" pt_clust_6="13000.00000" pt_clust_7="13000.00000" pt_clust_8="13000.00000" pt_clust_9="29.64479"></scales>
<clustering>
<clus scale="   29.645">  2  9  1 -1</clus>
<clus scale="   79.887">  5  6 -1 -1</clus>
<clus scale="  101.038">  7  8 -1 -1</clus>
<clus scale="  205.054">  1  5  2 -1</clus>
<clus scale="  205.054">  1  5  2 -1</clus>
</clustering>
</event>
<event>
 9    1  0.2333971E-005  0.1094615E+03  0.7546771E-02  0.1265642E+00
         -2   -1    0    0    0  501 -0.00000000000E+00  0.00000000000E+00  0.34081794604E+02  0.34081794604E+02  0.00000000000E+00 0.  1.
          1   -1    0    0  502    0  0.00000000000E+00 -0.00000000000E+00 -0.67419790167E+03  0.67419790167E+03  0.00000000000E+00 0. -1.
         23    2    1    2    0    0  0.22790208561E+02  0.32202431694E+02 -0.21724406976E+03  0.23830060547E+03  0.89642637784E+02 0.  0.
        -24    2    1    2    0    0  0.38662800878E+01 -0.89164626620E+02 -0.36680165546E+03  0.38572265035E+03  0.79203723269E+02 0.  0.
         11    1    4    4    0    0  0.35781250205E+02 -0.76378689797E+02 -0.27734644208E+03  0.28988799744E+03  0.00000000000E+00 0. -1.
        -12    1    4    4    0    0 -0.31914970118E+02 -0.12785936823E+02 -0.89455213379E+02  0.95834652912E+02  0.00000000000E+00 0.  1.
        -11    1    3    3    0    0  0.32184229229E+02 -0.23947136978E+02 -0.10596640722E+03  0.11330564610E+03  0.00000000000E+00 0. -1.
         11    1    3    3    0    0 -0.93940206675E+01  0.56149568672E+02 -0.11127766254E+03  0.12499495937E+03  0.00000000000E+00 0.  1.
         21    1    1    2  502  501 -0.26656488649E+02  0.56962194926E+02 -0.56070381841E+02  0.84256440453E+02  0.00000000000E+00 0.  1.
<scales pt_clust_5="13000.00000" pt_clust_6="13000.00000" pt_clust_7="13000.00000" pt_clust_8="13000.00000" pt_clust_9="62.89086"></scales>
<clustering>
<clus scale="   62.891">  1  9  2 -1</clus>
<clus scale="   79.204">  5  6 -1 -1</clus>
<clus scale="   89.643">  7  8 -1 -1</clus>
<clus scale="  101.090">  2  5  1 -1</clus>
<clus scale="  101.090">  2  5  1 -1</clus>
</clustering>
</event>
<event>
 9    1  0.2333971E-005  0.1125349E+03  0.7546771E-02  0.1259180E+00
         -4   -1    0    0    0  501 -0.00000000000E+00  0.00000000000E+00  0.33557711443E+03  0.33557711443E+03  0.00000000000E+00 0.  1.
          3   -1    0    0  502    0  0.00000000000E+00 -0.00000000000E+00 -0.85037301195E+02  0.85037301195E+02  0.00000000000E+00 0. -1.
         23    2    1    2    0    0 -0.38741186494E+02 -0.58501058373E+02  0.17490793166E+03  0.20874158506E+03  0.89760856795E+02 0.  0.
        -24    2    1    2    0    0  0.69496079499E+02  0.15810240484E+02 -0.13230861108E+02  0.10860155473E+03  0.80867627852E+02 0.  0.
         13    1    4    4    0    0  0.11765393854E+02  0.33469984252E+02 -0.29429145709E+02  0.46094890775E+02  0.00000000000E+00 0. -1.
        -14    1    4    4    0    0  0.57730685645E+02 -0.17659743768E+02  0.16198284601E+02  0.62506663956E+02  0.00000000000E+00 0.  1.
        -11    1    3    3    0    0 -0.56584379514E+02 -0.13323094228E+02  0.13077300945E+03  0.14311141410E+03  0.00000000000E+00 0. -1.
         11    1    3    3    0    0  0.17843193020E+02 -0.45177964146E+02  0.44134922214E+02  0.65630170961E+02  0.00000000000E+00 0.  1.
         21    1    1    2  502  501 -0.30754893005E+02  0.42690817889E+02  0.88862742677E+02  0.10327127583E+03  0.00000000000E+00 0. -1.
<scales pt_clust_5="13000.00000" pt_clust_6="13000.00000" pt_clust_7="13000.00000" pt_clust_8="13000.00000" pt_clust_9="52.61530"></scales>
<clustering>
<clus scale="   52.615">  1  9  2 -1</clus>
<clus scale="   80.868">  5  6 -1 -1</clus>
<clus scale="   89.761">  7  8 -1 -1</clus>
<clus scale="  105.578">  2  5  1 -1</clus>
<clus scale="  105.578">  2  5  1 -1</clus>
</clustering>
</event>
<event>
 9    1  0.2333971E-005  0.1051254E+03  0.7546771E-02  0.1274453E+00
         -2   -1    0    0    0  501 -0.00000000000E+00  0.00000000000E+00  0.22250622816E+03  0.22250622816E+03  0.00000000000E+00 0.  1.
          1   -1    0    0  502    0  0.00000000000E+00 -0.00000000000E+00 -0.71964479371E+02  0.71964479371E+02  0.00000000000E+00 0. -1.
        -24    2    1    2    0    0  0.19039897756E+02 -0.46901503403E+02  0.94907672218E+02  0.13423505628E+03  0.80307629527E+02 0.  0.
         23    2    1    2    0    0 -0.42513781051E+02  0.36789226870E+02  0.91096431045E+01  0.10715265734E+03  0.90762534033E+02 0.  0.
         13    1    3    3    0    0  0.20755678187E+02 -0.50909228844E+02  0.18949374008E+02  0.58151754348E+02  0.00000000000E+00 0. -1.
        -14    1    3    3    0    0 -0.17157804316E+01  0.40077254404E+01  0.75958298210E+02  0.76083301931E+02  0.00000000000E+00 0.  1.
        -11    1    4    4    0    0 -0.32274168022E+02  0.65406614245E+02  0.18675146005E+02  0.75288831753E+02  0.00000000000E+00 0. -1.
         11    1    4    4    0    0 -0.10239613029E+02 -0.28617387375E+02 -0.95655029010E+01  0.31863825585E+02  0.00000000000E+00 0.  1.
         21    1    1    2  502  501  0.23473883295E+02  0.10112276533E+02  0.46524433467E+02  0.53082993916E+02  0.00000000000E+00 0.  1.
<scales pt_clust_5="13000.00000" pt_clust_6="13000.00000" pt_clust_7="13000.00000" pt_clust_8="13000.00000" pt_clust_9="25.55937"></scales>
<clustering>
<clus scale="   25.559">  1  9  2 -1</clus>
<clus scale="   80.308">  5  6 -1 -1</clus>
<clus scale="   90.763">  7  8 -1 -1</clus>
<clus scale="   96.244">  1  5  2 -1</clus>
<clus scale="  105.125">  2  5  1 -1</clus>
</clustering>
</event>
<event>
 9    1  0.2333971E-005  0.1046330E+03  0.7546771E-02  0.1275874E+00
         -2   -1    0    0    0  501 -0.00000000000E+00  0.00000000000E+00  0.23393687560E+03  0.23393687560E+03  0.00000000000E+00 0.  1.
          1   -1    0    0  502    0  0.00000000000E+00 -0.00000000000E+00 -0.10154030966E+03  0.10154030966E+03  0.00000000000E+00 0. -1.
        -24    2    1    2    0    0 -0.22743158789E+02  0.31374635679E+02  0.11367556038E+03  0.14376511321E+03  0.79023134032E+02 0.  0.
         23    2    1    2    0    0  0.55686710460E+02 -0.17389147716E+02 -0.46590333231E+02  0.11723763049E+03  0.90391430301E+02 0.  0.
         13    1    3    3    0    0 -0.20635894005E+02 -0.91464323836E+01 -0.51693935491E+00  0.22577966539E+02  0.00000000000E+00 0. -1.
        -14    1    3    3    0    0 -0.21072647834E+01  0.40521068062E+02  0.11419249974E+03  0.12118714667E+03  0.00000000000E+00 0.  1.
        -13    1    4    4    0    0  0.67104174821E+02  0.18738349512E+02 -0.31320612278E+02  0.76387674230E+02  0.00000000000E+00 0.  1.
         13    1    4    4    0    0 -0.11417464360E+02 -0.36127497228E+02 -0.15269720953E+02  0.40849956259E+02  0.00000000000E+00 0. -1.
         21    1    1    2  502  501 -0.32943551672E+02 -0.13985487963E+02  0.65311338792E+02  0.74474441556E+02  0.00000000000E+00 0. -1.
<scales pt_clust_5="13000.00000" pt_clust_6="13000.00000" pt_clust_7="13000.00000" pt_clust_8="13000.00000" pt_clust_9="35.78926"></scales>
<clustering>
<clus scale="   35.789">  1  9  2 -1</clus>
<clus scale="   79.023">  5  6 -1 -1</clus>
<clus scale="   90.391">  7  8 -1 -1</clus>
<clus scale="   94.985">  1  5  2 -1</clus>
<clus scale="  104.633">  2  5  1 -1</clus>
</clustering>
</event>
<event>
 9    1  0.2333971E-005  0.1687942E+03  0.7546771E-02  0.1185073E+00
          1   -1    0    0  502    0  0.00000000000E+00  0.00000000000E+00  0.51827362912E+03  0.51827362912E+03  0.00000000000E+00 0. -1.
         -2   -1    0    0    0  501 -0.00000000000E+00 -0.00000000000E+00 -0.13701500779E+03  0.13701500779E+03  0.00000000000E+00 0.  1.
        -24    2    1    2    0    0  0.94298494050E+02 -0.35419601450E+02 -0.68730770600E+02  0.14634642534E+03  0.80911082284E+02 0.  0.
         23    2    1    2    0    0 -0.11721547284E+03  0.48634266523E+02  0.45104953070E+03  0.48246695550E+03  0.11499532619E+03 0.  0.
         13    1    3    3    0    0  0.27999998473E+01 -0.28705731081E+02 -0.41700358730E+02  0.50702849173E+02  0.00000000000E+00 0. -1.
        -14    1    3    3    0    0  0.91498494202E+02 -0.67138703683E+01 -0.27030411870E+02  0.95643576170E+02  0.00000000000E+00 0.  1.
        -11    1    4    4    0    0 -0.13489667833E+03  0.35041816020E+02  0.42913275426E+03  0.45119836377E+03  0.00000000000E+00 0. -1.
         11    1    4    4    0    0  0.17681205498E+02  0.13592450503E+02  0.21916776447E+02  0.31268591724E+02  0.00000000000E+00 0.  1.
         21    1    1    2  502  501  0.22916978785E+02 -0.13214665073E+02 -0.10601387757E+01  0.26475256068E+02  0.00000000000E+00 0.  1.
<scales pt_clust_5="13000.00000" pt_clust_6="13000.00000" pt_clust_7="13000.00000" pt_clust_8="13000.00000" pt_clust_9="26.45402"></scales>
<clustering>
<clus scale="   26.454">  2  9  1 -1</clus>
<clus scale="   80.911">  5  6 -1 -1</clus>
<clus scale="  114.995">  7  8 -1 -1</clus>
<clus scale="  147.696">  2  5  1 -1</clus>
<clus scale="  168.794">  1  5  2 -1</clus>
</clustering>
</event>
<event>
 9    1  0.2333971E-005  0.1556417E+03  0.7546771E-02  0.1196447E+00
          1   -1    0    0  502    0  0.00000000000E+00  0.00000000000E+00  0.57798425614E+03  0.57798425614E+03  0.00000000000E+00 0. -1.
         -2   -1    0    0    0  501 -0.00000000000E+00 -0.00000000000E+00 -0.51740998016E+02  0.51740998016E+02  0.00000000000E+00 0.  1.
        -24    2    1    2    0    0 -0.76042437575E+02  0.11794734425E+03  0.19630093675E+03  0.25248291964E+03  0.74293597387E+02 0.  0.
         23    2    1    2    0    0  0.77633388383E+02 -0.89180881350E+02  0.30339639071E+03  0.33806674330E+03  0.90882233915E+02 0.  0.
         11    1    3    3    0    0  0.13880445089E+02  0.26126979508E+02  0.46413799490E+02  0.55041135501E+02  0.00000000000E+00 0. -1.
        -12    1    3    3    0    0 -0.89922882664E+02  0.91820364739E+02  0.14988713726E+03  0.19744178414E+03  0.00000000000E+00 0.  1.
        -11    1    4    4    0    0  0.87101769972E+02 -0.58225667371E+02  0.16137415482E+03  0.19240209073E+03  0.00000000000E+00 0.  1.
         11    1    4    4    0    0 -0.94683815890E+01 -0.30955213979E+02  0.14202223589E+03  0.14566465257E+03  0.00000000000E+00 0. -1.
         21    1    1    2  502  501 -0.15909508086E+01 -0.28766462897E+02  0.26545930656E+02  0.39175591208E+02  0.00000000000E+00 0.  1.
<scales pt_clust_5="13000.00000" pt_clust_6="13000.00000" pt_clust_7="13000.00000" pt_clust_8="13000.00000" pt_clust_9="28.81042"></scales>
<clustering>
<clus scale="   28.810">  2  9  1 -1</clus>
<clus scale="   74.294">  5  6 -1 -1</clus>
<clus scale="   90.882">  7  8 -1 -1</clus>
<clus scale="  146.575">  2  5  1 -1</clus>
<clus scale="  155.642">  1  5  2 -1</clus>
</clustering>
</event>
<event>
 9    1  0.2333971E-005  0.9017283E+02  0.7546771E-02  0.1307676E+00
          1   -1    0    0  502    0  0.00000000000E+00  0.00000000000E+00  0.25842864258E+03  0.25842864258E+03  0.00000000000E+00 0. -1.
         -2   -1    0    0    0  501 -0.00000000000E+00 -0.00000000000E+00 -0.36394842426E+03  0.36394842426E+03  0.00000000000E+00 0.  1.
        -24    2    1    2    0    0  0.17036209463E+02 -0.42865255500E+02 -0.26237518750E+03  0.27834792957E+03  0.80679416930E+02 0.  0.
         23    2    1    2    0    0  0.13952557685E+02  0.46397491178E+01  0.23497137137E+03  0.25170580815E+03  0.89039695409E+02 0.  0.
         13    1    3    3    0    0 -0.20467909507E+02 -0.18067148609E+02 -0.25884887266E+02  0.37621597085E+02  0.00000000000E+00 0. -1.
        -14    1    3    3    0    0  0.37504118970E+02 -0.24798106891E+02 -0.23649030023E+03  0.24072633248E+03  0.00000000000E+00 0.  1.
        -13    1    4    4    0    0 -0.32018336836E+02  0.85354120873E+01  0.16214062201E+03  0.16549201932E+03  0.00000000000E+00 0.  1.
         13    1    4    4    0    0  0.45970894521E+02 -0.38956629696E+01  0.72830749357E+02  0.86213788832E+02  0.00000000000E+00 0. -1.
         21    1    1    2  502  501 -0.30988767147E+02  0.38225506382E+02 -0.78115965541E+02  0.92323329120E+02  0.00000000000E+00 0. -1.
<scales pt_clust_5="13000.00000" pt_clust_6="13000.00000" pt_clust_7="13000.00000" pt_clust_8="13000.00000" pt_clust_9="49.20867"></scales>
<clustering>
<clus scale="   49.209">  2  9  1 -1</clus>
<clus scale="   80.679">  5  6 -1 -1</clus>
<clus scale="   81.928">  2  5  1 -1</clus>
<clus scale="   89.040">  7  8 -1 -1</clus>
<clus scale="   90.173">  1  5  2 -1</clus>
</clustering>
</event>
<event>
 9    1  0.2333971E-005  0.9632438E+02  0.7546771E-02  0.1293686E+00
          1   -1    0    0  502    0  0.00000000000E+00  0.00000000000E+00  0.49218974812E+02  0.49218974812E+02  0.00000000000E+00 0. -1.
         -2   -1    0    0    0  501 -0.00000000000E+00 -0.00000000000E+00 -0.27960608392E+03  0.27960608392E+03  0.00000000000E+00 0.  1.
        -24    2    1    2    0    0 -0.17200386118E+02 -0.37359190980E+02 -0.18876360088E+03  0.20875155125E+03  0.79081923956E+02 0.  0.
         23    2    1    2    0    0  0.10295875492E+02  0.17484065886E+02 -0.32571883374E+02  0.97168818510E+02  0.89270118696E+02 0.  0.
         13    1    3    3    0    0  0.58554882746E+01 -0.48543944358E+02 -0.59697046078E+02  0.77165656786E+02  0.00000000000E+00 0. -1.
        -14    1    3    3    0    0 -0.23055874393E+02  0.11184753378E+02 -0.12906655480E+03  0.13158589446E+03  0.00000000000E+00 0.  1.
        -13    1    4    4    0    0 -0.93166975926E+01  0.51251769809E+02 -0.14076284077E+02  0.53960045737E+02  0.00000000000E+00 0.  1.
         13    1    4    4    0    0  0.19612573084E+02 -0.33767703922E+02 -0.18495599297E+02  0.43208772773E+02  0.00000000000E+00 0. -1.
         21    1    1    2  502  501  0.69045106266E+01  0.19875125093E+02 -0.90516248482E+01  0.22904688971E+02  0.00000000000E+00 0.  1.
<scales pt_clust_5="13000.00000" pt_clust_6="13000.00000" pt_clust_7="13000.00000" pt_clust_8="13000.00000" pt_clust_9="21.04027"></scales>
<clustering>
<clus scale="   21.040">  1  9  2 -1</clus>
<clus scale="   79.082">  5  6 -1 -1</clus>
<clus scale="   86.967">  2  5  1 -1</clus>
<clus scale="   89.270">  7  8 -1 -1</clus>
<clus scale="   21.040">  1  5  2 -1</clus>
</clustering>
</event>
<event>
 9    1  0.2333971E-005  0.1336953E+03  0.7546771E-02  0.1227071E+00
         -2   -1    0    0    0  501 -0.00000000000E+00  0.00000000000E+00  0.58405318991E+02  0.58405318991E+02  0.00000000000E+00 0.  1.
          1   -1    0    0  502    0  0.00000000000E+00 -0.00000000000E+00 -0.53335269520E+03  0.53335269520E+03  0.00000000000E+00 0. -1.
        -24    2    1    2    0    0 -0.83987180415E+02  0.41027370003E+02 -0.48458491253E+02  0.12714663240E+03  0.71280777158E+02 0.  0.
         23    2    1    2    0    0  0.11282615231E+03 -0.26358814011E+02 -0.38183214964E+03  0.40946542234E+03  0.91878255701E+02 0.  0.
         13    1    3    3    0    0 -0.31290532262E+02  0.85088768077E+00 -0.52101302791E+02  0.60781306103E+02  0.00000000000E+00 0. -1.
        -14    1    3    3    0    0 -0.52696648153E+02  0.40176482322E+02  0.36428115381E+01  0.66365326295E+02  0.00000000000E+00 0.  1.
        -11    1    4    4    0    0  0.38728450446E+02  0.71226510323E+01 -0.33288727285E+02  0.51563207774E+02  0.00000000000E+00 0.  1.
         11    1    4    4    0    0  0.74097701867E+02 -0.33481465043E+02 -0.34854342236E+03  0.35790221457E+03  0.00000000000E+00 0. -1.
         21    1    1    2  502  501 -0.28838971898E+02 -0.14668555992E+02 -0.44656735313E+02  0.55145959452E+02  0.00000000000E+00 0. -1.
<scales pt_clust_5="13000.00000" pt_clust_6="13000.00000" pt_clust_7="13000.00000" pt_clust_8="13000.00000" pt_clust_9="32.35511"></scales>
<clustering>
<clus scale="   32.355">  2  9  1 -1</clus>
<clus scale="   71.281">  5  6 -1 -1</clus>
<clus scale="   91.878">  7  8 -1 -1</clus>
<clus scale="  120.473">  1  5  2 -1</clus>
<clus scale="   32.355">  2  5  1 -1</clus>
</clustering>
</event>
<event>
 9    1  0.2333971E-005  0.1466272E+03  0.7546771E-02  0.1206660E+00
         -2   -1    0    0    0  501 -0.00000000000E+00  0.00000000000E+00  0.25232624006E+03  0.25232624006E+03  0.00000000000E+00 0.  1.
          1   -1    0    0  502    0  0.00000000000E+00 -0.00000000000E+00 -0.39790484761E+03  0.39790484761E+03  0.00000000000E+00 0. -1.
        -24    2    1    2    0    0 -0.24398060294E+02 -0.11916269938E+03 -0.41853728084E+02  0.15143884084E+03  0.79918544095E+02 0.  0.
         23    2    1    2    0    0  0.74781695776E+02  0.90176457288E+02 -0.27810786082E+03  0.31497674929E+03  0.90234554750E+02 0.  0.
         11    1    3    3    0    0  0.27807166790E+02 -0.26123482418E+02 -0.17673701947E+02  0.42048003508E+02  0.00000000000E+00 0. -1.
        -12    1    3    3    0    0 -0.52205227084E+02 -0.93039216959E+02 -0.24180026137E+02  0.10939083733E+03  0.00000000000E+00 0.  1.
        -13    1    4    4    0    0  0.75060822769E+02  0.28963765783E+02 -0.11163251548E+03  0.13760394382E+03  0.00000000000E+00 0.  1.
         13    1    4    4    0    0 -0.27912699329E+00  0.61212691505E+02 -0.16647534534E+03  0.17737280547E+03  0.00000000000E+00 0. -1.
         21    1    1    2  502  501 -0.50383635482E+02  0.28986242089E+02  0.17438298134E+03  0.18381549754E+03  0.00000000000E+00 0.  1.
<scales pt_clust_5="13000.00000" pt_clust_6="13000.00000" pt_clust_7="13000.00000" pt_clust_8="13000.00000" pt_clust_9="58.12670"></scales>
<clustering>
<clus scale="   58.127">  1  9  2 -1</clus>
<clus scale="   79.919">  5  6 -1 -1</clus>
<clus scale="   90.235">  7  8 -1 -1</clus>
<clus scale="  140.514">  1  5  2 -1</clus>
<clus scale="  146.627">  2  5  1 -1</clus>
</clustering>
</event>
<event>
 9    1  0.2333971E-005  0.1382894E+03  0.7546771E-02  0.1217691E+00
          1   -1    0    0  502    0  0.00000000000E+00  0.00000000000E+00  0.43284112921E+03  0.43284112921E+03  0.00000000000E+00 0. -1.
         -2   -1    0    0    0  501 -0.00000000000E+00 -0.00000000000E+00 -0.14610981124E+03  0.14610981124E+03  0.00000000000E+00 0.  1.
        -24    2    1    2    0    0  0.89786687736E+02 -0.57841178164E+02 -0.55253871594E+02  0.14549932971E+03  0.81913450864E+02 0.  0.
         23    2    1    2    0    0 -0.96742975678E+02  0.38108303567E+02  0.37201121906E+03  0.39685463370E+03  0.91048377450E+02 0.  0.
         13    1    3    3    0    0 -0.31631188051E+01 -0.25485502739E+02  0.98385074110E+01  0.27501134495E+02  0.00000000000E+00 0. -1.
        -14    1    3    3    0    0  0.92949806541E+02 -0.32355675424E+02 -0.65092379005E+02  0.11799819521E+03  0.00000000000E+00 0.  1.
        -13    1    4    4    0    0 -0.19826151347E+02 -0.32350511112E+01  0.65857763545E+01  0.21140347280E+02  0.00000000000E+00 0.  1.
         13    1    4    4    0    0 -0.76916824332E+02  0.41343354679E+02  0.36542544271E+03  0.37571428642E+03  0.00000000000E+00 0. -1.
         21    1    1    2  502  501  0.69562879424E+01  0.19732874596E+02 -0.30026029491E+02  0.36596977044E+02  0.00000000000E+00 0.  1.
<scales pt_clust_5="13000.00000" pt_clust_6="13000.00000" pt_clust_7="13000.00000" pt_clust_8="13000.00000" pt_clust_9="20.92310"></scales>
<clustering>
<clus scale="   20.923">  2  9  1 -1</clus>
<clus scale="   81.913">  5  6 -1 -1</clus>
<clus scale="   91.048">  7  8 -1 -1</clus>
<clus scale="  132.454">  2  5  1 -1</clus>
<clus scale="  138.289">  1  5  2 -1</clus>
</clustering>
</event>
<event>
 9    1  0.2333971E-005  0.3494821E+03  0.7546771E-02  0.1062828E+00
         -2   -1    0    0    0  501 -0.00000000000E+00  0.00000000000E+00  0.73734229968E+02  0.73734229968E+02  0.00000000000E+00 0.  1.
          1   -1    0    0  502    0  0.00000000000E+00 -0.00000000000E+00 -0.13323213636E+04  0.13323213636E+04  0.00000000000E+00 0. -1.
        -24    2    1    2    0    0  0.12607509892E+03 -0.87709401060E+01 -0.21779348262E+03  0.26420536318E+03  0.79991330198E+02 0.  0.
         23    2    1    2    0    0  0.12982266947E+03 -0.93987669371E+02 -0.53542860387E+03  0.56614472358E+03  0.90268769158E+02 0.  0.
         11    1    3    3    0    0  0.15719038502E+01 -0.20485575713E+02 -0.56452241541E+02  0.60074830579E+02  0.00000000000E+00 0. -1.
        -12    1    3    3    0    0  0.12450319507E+03  0.11714635607E+02 -0.16134124107E+03  0.20413053260E+03  0.00000000000E+00 0.  1.
        -11    1    4    4    0    0  0.12158056504E+03 -0.51650699623E+02 -0.46642523321E+03  0.48477017930E+03  0.00000000000E+00 0.  1.
         11    1    4    4    0    0  0.82421044333E+01 -0.42336969747E+02 -0.69003370667E+02  0.81374544277E+02  0.00000000000E+00 0. -1.
         21    1    1    2  502  501 -0.25589776839E+03  0.10275860948E+03 -0.50536504709E+03  0.57570550676E+03  0.00000000000E+00 0. -1.
<scales pt_clust_5="13000.00000" pt_clust_6="13000.00000" pt_clust_7="13000.00000" pt_clust_8="13000.00000" pt_clust_9="275.75895"></scales>
<clustering>
<clus scale="   79.991">  5  6 -1 -1</clus>
<clus scale="   90.269">  7  8 -1 -1</clus>
<clus scale="  146.811">  5  7 -1 -1</clus>
<clus scale="  275.759">  1  9  2 -1</clus>
<clus scale="  349.482">  2  5  1 -1</clus>
</clustering>
</event>
<event>
 9    1  0.2333971E-005  0.1020820E+03  0.7546771E-02  0.1281560E+00
          1   -1    0    0  502    0  0.00000000000E+00  0.00000000000E+00  0.22603051856E+03  0.22603051856E+03  0.00000000000E+00 0. -1.
         -2   -1    0    0    0  501 -0.00000000000E+00 -0.00000000000E+00 -0.84777700574E+02  0.84777700574E+02  0.00000000000E+00 0.  1.
         23    2    1    2    0    0  0.35439168754E+01  0.38452015061E+02  0.70388674067E+01  0.99113436915E+02  0.91009949531E+02 0.  0.
        -24    2    1    2    0    0 -0.23757640558E+02 -0.42991836875E+02  0.15592424274E+03  0.18168576036E+03  0.79275611138E+02 0.  0.
         11    1    4    4    0    0 -0.48956323303E+02 -0.18628263024E+02  0.12260384833E+03  0.13332455663E+03  0.00000000000E+00 0. -1.
        -12    1    4    4    0    0  0.25198682745E+02 -0.24363573850E+02  0.33320394404E+02  0.48361203728E+02  0.00000000000E+00 0.  1.
        -13    1    3    3    0    0 -0.37574227031E+02  0.42388285635E+02 -0.25763180559E+01  0.56702969153E+02  0.00000000000E+00 0. -1.
         13    1    3    3    0    0  0.41118143906E+02 -0.39362705735E+01  0.96151854627E+01  0.42410467762E+02  0.00000000000E+00 0.  1.
         21    1    1    2  502  501  0.20213723683E+02  0.45398218132E+01 -0.21710292160E+02  0.30009021858E+02  0.00000000000E+00 0.  1.
<scales pt_clust_5="13000.00000" pt_clust_6="13000.00000" pt_clust_7="13000.00000" pt_clust_8="13000.00000" pt_clust_9="20.71725"></scales>
<clustering>
<clus scale="   20.717">  2  9  1 -1</clus>
<clus scale="   79.276">  5  6 -1 -1</clus>
<clus scale="   91.010">  7  8 -1 -1</clus>
<clus scale="   91.774">  1  5  2 -1</clus>
<clus scale="   91.774">  1  5  2 -1</clus>
</clustering>
</event>
<event>
 9    1  0.2333971E-005  0.8910145E+02  0.7546771E-02  0.1311953E+00
         -2   -1    0    0    0  501 -0.00000000000E+00  0.00000000000E+00  0.22547739443E+02  0.22547739443E+02  0.00000000000E+00 0.  1.
          1   -1    0    0  502    0  0.00000000000E+00 -0.00000000000E+00 -0.53426240592E+03  0.53426240592E+03  0.00000000000E+00 0. -1.
        -24    2    1    2    0    0  0.66345661263E+00 -0.90691020341E+01 -0.10766409247E+03  0.13306642624E+03  0.77668707978E+02 0.  0.
         23    2    1    2    0    0  0.16502884469E+02 -0.86694545517E+01 -0.37459110052E+03  0.38530935645E+03  0.88302338252E+02 0.  0.
         13    1    3    3    0    0  0.17098746941E+02 -0.33447163683E+02 -0.92815218488E+02  0.10012864070E+03  0.00000000000E+00 0. -1.
        -14    1    3    3    0    0 -0.16435290329E+02  0.24378061649E+02 -0.14848873985E+02  0.32937785544E+02  0.00000000000E+00 0.  1.
        -13    1    4    4    0    0  0.53031926503E+02 -0.21235879873E+01 -0.22750001431E+03  0.23360897107E+03  0.00000000000E+00 0. -1.
         13    1    4    4    0    0 -0.36529042035E+02 -0.65458665645E+01 -0.14709108621E+03  0.15170038538E+03  0.00000000000E+00 0.  1.
         21    1    1    2  502  501 -0.17166341082E+02  0.17738556586E+02 -0.29459473485E+02  0.38434362671E+02  0.00000000000E+00 0.  1.
<scales pt_clust_5="13000.00000" pt_clust_6="13000.00000" pt_clust_7="13000.00000" pt_clust_8="13000.00000" pt_clust_9="24.68481"></scales>
<clustering>
<clus scale="   24.685">  1  9  2 -1</clus>
<clus scale="   77.669">  5  6 -1 -1</clus>
<clus scale="   78.576">  1  5  2 -1</clus>
<clus scale="   88.302">  7  8 -1 -1</clus>
<clus scale="   89.101">  2  5  1 -1</clus>
</clustering>
</event>
<event>
 9    1  0.2333971E-005  0.1246085E+03  0.7546771E-02  0.1236756E+00
          1   -1    0    0  502    0  0.00000000000E+00  0.00000000000E+00  0.23084488297E+03  0.23084488297E+03  0.00000000000E+00 0. -1.
         -2   -1    0    0    0  501 -0.00000000000E+00 -0.00000000000E+00 -0.26342209072E+03  0.26342209072E+03  0.00000000000E+00 0.  1.
        -24    2    1    2    0    0  0.23063678306E+02  0.63449109071E+02 -0.21381023064E+03  0.24107566262E+03  0.88571652808E+02 0.  0.
         23    2    1    2    0    0 -0.16002257202E+02 -0.83646278776E+02  0.19186780122E+03  0.22929805173E+03  0.92258176835E+02 0.  0.
         11    1    3    3    0    0  0.40565009441E+02  0.40410895934E+02 -0.54127376995E+02  0.78792978377E+02  0.00000000000E+00 0. -1.
        -12    1    3    3    0    0 -0.17501331135E+02  0.23038213137E+02 -0.15968285364E+03  0.16228268424E+03  0.00000000000E+00 0.  1.
        -11    1    4    4    0    0  0.29246863113E+02 -0.72627270648E+02  0.13165105928E+03  0.15317343390E+03  0.00000000000E+00 0. -1.
         11    1    4    4    0    0 -0.45249120315E+02 -0.11019008128E+02  0.60216741941E+02  0.76124617828E+02  0.00000000000E+00 0.  1.
         21    1    1    2  502  501 -0.70614211032E+01  0.20197169705E+02 -0.10634778329E+02  0.23893259346E+02  0.00000000000E+00 0.  1.
<scales pt_clust_5="13000.00000" pt_clust_6="13000.00000" pt_clust_7="13000.00000" pt_clust_8="13000.00000" pt_clust_9="21.39601"></scales>
<clustering>
<clus scale="   21.396">  2  9  1 -1</clus>
<clus scale="   88.572">  5  6 -1 -1</clus>
<clus scale="   92.258">  7  8 -1 -1</clus>
<clus scale="  121.904">  2  5  1 -1</clus>
<clus scale="  124.609">  1  5  2 -1</clus>
</clustering>
</event>
<event>
 9    1  0.2333971E-005  0.9934988E+02  0.7546771E-02  0.1287005E+00
         -2   -1    0    0    0  501 -0.00000000000E+00  0.00000000000E+00  0.13304353054E+03  0.13304353054E+03  0.00000000000E+00 0.  1.
          1   -1    0    0  502    0  0.00000000000E+00 -0.00000000000E+00 -0.22819087650E+03  0.22819087650E+03  0.00000000000E+00 0. -1.
         23    2    1    2    0    0 -0.32834712132E+01 -0.99576570536E+01  0.29864958347E+02  0.96694309703E+02  0.91367049173E+02 0.  0.
        -24    2    1    2    0    0  0.44815494084E+02  0.60706776720E+01 -0.17584957507E+03  0.19877958007E+03  0.80900968862E+02 0.  0.
         11    1    4    4    0    0  0.21576850464E+02  0.43497744957E+02 -0.88235819293E+02  0.10071332632E+03  0.00000000000E+00 0. -1.
        -12    1    4    4    0    0  0.23238643621E+02 -0.37427067285E+02 -0.87613755782E+02  0.98066253753E+02  0.00000000000E+00 0.  1.
        -11    1    3    3    0    0 -0.26543419046E+02 -0.43539731582E+02  0.14090333062E+02  0.52903674794E+02  0.00000000000E+00 0.  1.
         11    1    3    3    0    0  0.23259947833E+02  0.33582074528E+02  0.15774625286E+02  0.43790634909E+02  0.00000000000E+00 0. -1.
         21    1    1    2  502  501 -0.41532022871E+02  0.38869793817E+01  0.50837270762E+02  0.65760517266E+02  0.00000000000E+00 0.  1.
<scales pt_clust_5="13000.00000" pt_clust_6="13000.00000" pt_clust_7="13000.00000" pt_clust_8="13000.00000" pt_clust_9="41.71352"></scales>
<clustering>
<clus scale="   41.714">  1  9  2 -1</clus>
<clus scale="   80.901">  5  6 -1 -1</clus>
<clus scale="   89.819">  2  5  1 -1</clus>
<clus scale="   91.367">  7  8 -1 -1</clus>
<clus scale="   89.819">  2  5  1 -1</clus>
</clustering>
</event>
<event>
 9    1  0.2333971E-005  0.1427980E+03  0.7546771E-02  0.1211222E+00
          1   -1    0    0  502    0  0.00000000000E+00  0.00000000000E+00  0.17288184380E+03  0.17288184380E+03  0.00000000000E+00 0. -1.
         -2   -1    0    0    0  501 -0.00000000000E+00 -0.00000000000E+00 -0.31982477525E+03  0.31982477525E+03  0.00000000000E+00 0.  1.
        -24    2    1    2    0    0 -0.64932802539E+02 -0.11689446807E+03 -0.21942693386E+03  0.27070925768E+03  0.85174746125E+02 0.  0.
         23    2    1    2    0    0  0.49428229608E+02  0.92644343554E+02  0.10754481882E+03  0.17663524979E+03  0.92779303395E+02 0.  0.
         11    1    3    3    0    0  0.14643184380E+02 -0.46042729977E+02 -0.43387767964E+02  0.64937310087E+02  0.00000000000E+00 0. -1.
        -12    1    3    3    0    0 -0.79575986919E+02 -0.70851738090E+02 -0.17603916590E+03  0.20577194759E+03  0.00000000000E+00 0.  1.
        -13    1    4    4    0    0 -0.71167469018E+00  0.53232693196E+02  0.19467675778E+01  0.53273032669E+02  0.00000000000E+00 0.  1.
         13    1    4    4    0    0  0.50139904298E+02  0.39411650358E+02  0.10559805124E+03  0.12336221712E+03  0.00000000000E+00 0. -1.
         21    1    1    2  502  501  0.15504572931E+02  0.24250124513E+02 -0.35060816409E+02  0.45362111590E+02  0.00000000000E+00 0. -1.
<scales pt_clust_5="13000.00000" pt_clust_6="13000.00000" pt_clust_7="13000.00000" pt_clust_8="13000.00000" pt_clust_9="28.78299"></scales>
<clustering>
<clus scale="   28.783">  2  9  1 -1</clus>
<clus scale="   85.175">  5  6 -1 -1</clus>
<clus scale="   92.779">  7  8 -1 -1</clus>
<clus scale="  137.978">  2  5  1 -1</clus>
<clus scale="  142.798">  1  5  2 -1</clus>
</clustering>
</event>
<event>
 9    1  0.2333971E-005  0.1049259E+03  0.7546771E-02  0.1278014E+00
          3   -1    0    0  502    0  0.00000000000E+00  0.00000000000E+00  0.38448336506E+02  0.38448336506E+02  0.00000000000E+00 0. -1.
         -4   -1    0    0    0  501 -0.00000000000E+00 -0.00000000000E+00 -0.45800245785E+03  0.45800245785E+03  0.00000000000E+00 0.  1.
        -24    2    1    2    0    0  0.58275222378E+02  0.35816879552E+02 -0.24199194984E+03  0.26397676348E+03  0.80279371357E+02 0.  0.
         23    2    1    2    0    0 -0.27923060239E+02 -0.11799538808E+02 -0.84471093891E+02  0.13165719134E+03  0.96329247476E+02 0.  0.
         11    1    3    3    0    0 -0.20160665115E+02  0.60384327464E+01 -0.59807194871E+02  0.63402016105E+02  0.00000000000E+00 0. -1.
        -12    1    3    3    0    0  0.78435887493E+02  0.29778446806E+02 -0.18218475497E+03  0.20057474737E+03  0.00000000000E+00 0.  1.
        -11    1    4    4    0    0  0.28586509868E+02  0.15672141765E+02 -0.50826316499E+02  0.60383102129E+02  0.00000000000E+00 0.  1.
         11    1    4    4    0    0 -0.56509570106E+02 -0.27471680573E+02 -0.33644777392E+02  0.71274089211E+02  0.00000000000E+00 0. -1.
         21    1    1    2  502  501 -0.30352162139E+02 -0.24017340745E+02 -0.93091077619E+02  0.10081683954E+03  0.00000000000E+00 0. -1.
<scales pt_clust_5="13000.00000" pt_clust_6="13000.00000" pt_clust_7="13000.00000" pt_clust_8="13000.00000" pt_clust_9="38.70512"></scales>
<clustering>
<clus scale="   38.705">  2  9  1 -1</clus>
<clus scale="   80.279">  5  6 -1 -1</clus>
<clus scale="   90.415">  2  5  1 -1</clus>
<clus scale="   96.329">  7  8 -1 -1</clus>
<clus scale="  104.926">  1  5  2 -1</clus>
</clustering>
</event>
<event>
 9    1  0.2333971E-005  0.9284340E+02  0.7546771E-02  0.1303208E+00
         -4   -1    0    0    0  501 -0.00000000000E+00  0.00000000000E+00  0.51221722414E+02  0.51221722414E+02  0.00000000000E+00 0.  1.
          3   -1    0    0  502    0  0.00000000000E+00 -0.00000000000E+00 -0.24451483880E+03  0.24451483880E+03  0.00000000000E+00 0. -1.
         23    2    1    2    0    0 -0.32079565268E+02  0.92645303772E+01 -0.82605553119E+02  0.12651514112E+03  0.89819115428E+02 0.  0.
        -24    2    1    2    0    0  0.39934770362E+01 -0.23948640343E+02 -0.11064886328E+03  0.13752831461E+03  0.77983210632E+02 0.  0.
         13    1    4    4    0    0 -0.22784190716E+02 -0.28847009387E+02 -0.10283412987E+03  0.10920681098E+03  0.00000000000E+00 0. -1.
        -14    1    4    4    0    0  0.26777667752E+02  0.48983690449E+01 -0.78147334053E+01  0.28321503628E+02  0.00000000000E+00 0.  1.
        -13    1    3    3    0    0  0.25707189894E+02 -0.48889366386E+01 -0.18814702880E+01  0.26235495881E+02  0.00000000000E+00 0. -1.
         13    1    3    3    0    0 -0.57786755162E+02  0.14153467016E+02 -0.80724082831E+02  0.10027964524E+03  0.00000000000E+00 0.  1.
         21    1    1    2  502  501  0.28086088232E+02  0.14684109965E+02 -0.38699988812E-01  0.31693105486E+02  0.00000000000E+00 0. -1.
<scales pt_clust_5="13000.00000" pt_clust_6="13000.00000" pt_clust_7="13000.00000" pt_clust_8="13000.00000" pt_clust_9="31.69308"></scales>
<clustering>
<clus scale="   31.693">  1  9  2 -1</clus>
<clus scale="   77.983">  5  6 -1 -1</clus>
<clus scale="   81.448">  2  5  1 -1</clus>
<clus scale="   89.819">  7  8 -1 -1</clus>
<clus scale="   81.448">  2  5  1 -1</clus>
</clustering>
</event>
<event>
 9    1  0.2333971E-005  0.1266159E+03  0.7546771E-02  0.1235317E+00
         -2   -1    0    0    0  501 -0.00000000000E+00  0.00000000000E+00  0.10404041510E+03  0.10404041510E+03  0.00000000000E+00 0.  1.
          1   -1    0    0  502    0  0.00000000000E+00 -0.00000000000E+00 -0.52901249907E+03  0.52901249907E+03  0.00000000000E+00 0. -1.
        -24    2    1    2    0    0 -0.41474300155E+02 -0.28278101867E+02  0.51156495762E+02  0.10829125490E+03  0.81180294474E+02 0.  0.
         23    2    1    2    0    0  0.84640034763E+02  0.36700720708E+02 -0.45998745161E+03  0.47791342377E+03  0.91114798991E+02 0.  0.
         11    1    3    3    0    0 -0.35969277363E+02  0.19215725001E+02  0.37356694137E+01  0.40951046718E+02  0.00000000000E+00 0. -1.
        -12    1    3    3    0    0 -0.55050227914E+01 -0.47493826868E+02  0.47420826348E+02  0.67340208183E+02  0.00000000000E+00 0.  1.
        -13    1    4    4    0    0  0.40311082084E+01  0.41200983591E+02 -0.87798900451E+02  0.97069139291E+02  0.00000000000E+00 0.  1.
         13    1    4    4    0    0  0.80608926554E+02 -0.45002628824E+01 -0.37218855116E+03  0.38084428448E+03  0.00000000000E+00 0. -1.
         21    1    1    2  502  501 -0.43165734608E+02 -0.84226188412E+01 -0.16141128127E+02  0.46848235502E+02  0.00000000000E+00 0.  1.
<scales pt_clust_5="13000.00000" pt_clust_6="13000.00000" pt_clust_7="13000.00000" pt_clust_8="13000.00000" pt_clust_9="43.97978"></scales>
<clustering>
<clus scale="   43.980">  1  9  2 -1</clus>
<clus scale="   81.180">  5  6 -1 -1</clus>
<clus scale="   91.115">  7  8 -1 -1</clus>
<clus scale="  119.666">  1  5  2 -1</clus>
<clus scale="  126.616">  2  5  1 -1</clus>
</clustering>
</event>
<event>
 9    1  0.2333971E-005  0.3201629E+03  0.7546771E-02  0.1075878E+00
         -2   -1    0    0    0  501 -0.00000000000E+00  0.00000000000E+00  0.19852860998E+03  0.19852860998E+03  0.00000000000E+00 0.  1.
          1   -1    0    0  502    0  0.00000000000E+00 -0.00000000000E+00 -0.63035141736E+03  0.63035141736E+03  0.00000000000E+00 0. -1.
         23    2    1    2    0    0 -0.19156834437E+03  0.24524584164E+03 -0.12786929545E+03  0.34860442120E+03  0.91271750016E+02 0.  0.
        -24    2    1    2    0    0  0.16217467120E+03 -0.25821440819E+03 -0.31535909673E+03  0.44618368474E+03  0.81567248708E+02 0.  0.
         13    1    4    4    0    0  0.78046424366E+02 -0.18238771720E+03 -0.23374882766E+03  0.30658610238E+03  0.00000000000E+00 0. -1.
        -14    1    4    4    0    0  0.84128246838E+02 -0.75826690992E+02 -0.81610269066E+02  0.13959758236E+03  0.00000000000E+00 0.  1.
        -11    1    3    3    0    0 -0.63238566602E+02  0.63316554069E+02  0.44804124906E+01  0.89600091636E+02  0.00000000000E+00 0.  1.
         11    1    3    3    0    0 -0.12832977777E+03  0.18192928757E+03 -0.13234970794E+03  0.25900432956E+03  0.00000000000E+00 0. -1.
         21    1    1    2  502  501  0.29393673165E+02  0.12968566545E+02  0.11405584794E+02  0.34091921401E+02  0.00000000000E+00 0. -1.
<scales pt_clust_5="13000.00000" pt_clust_6="13000.00000" pt_clust_7="13000.00000" pt_clust_8="13000.00000" pt_clust_9="32.12743"></scales>
<clustering>
<clus scale="   32.127">  1  9  2 -1</clus>
<clus scale="   81.567">  5  6 -1 -1</clus>
<clus scale="   91.272">  7  8 -1 -1</clus>
<clus scale="  317.533">  2  5  1 -1</clus>
<clus scale="  317.533">  2  5  1 -1</clus>
</clustering>
</event>
<event>
 9    1  0.2333971E-005  0.1168293E+03  0.7546771E-02  0.1254888E+00
         -2   -1    0    0    0  501 -0.00000000000E+00  0.00000000000E+00  0.11384610872E+03  0.11384610872E+03  0.00000000000E+00 0.  1.
          1   -1    0    0  502    0  0.00000000000E+00 -0.00000000000E+00 -0.34110484211E+03  0.34110484211E+03  0.00000000000E+00 0. -1.
         23    2    1    2    0    0  0.69623142138E+02 -0.19408983159E+02  0.27349070099E+02  0.12051030613E+03  0.92469842106E+02 0.  0.
        -24    2    1    2    0    0 -0.24159382126E+02  0.34730244577E+02 -0.26142829284E+03  0.28598227494E+03  0.10794092667E+03 0.  0.
         11    1    4    4    0    0 -0.15948338736E+02  0.57343248439E+02 -0.25388693793E+03  0.26077034897E+03  0.00000000000E+00 0. -1.
        -12    1    4    4    0    0 -0.82110433906E+01 -0.22613003861E+02 -0.75413549069E+01  0.25211925968E+02  0.00000000000E+00 0.  1.
        -13    1    3    3    0    0  0.86080851787E+00  0.26308700488E+02 -0.12131606351E+02  0.28983867674E+02  0.00000000000E+00 0. -1.
         13    1    3    3    0    0  0.68762333621E+02 -0.45717683647E+02  0.39480676450E+02  0.91526438453E+02  0.00000000000E+00 0.  1.
         21    1    1    2  502  501 -0.45463760012E+02 -0.15321261418E+02  0.68204893499E+01  0.48458369771E+02  0.00000000000E+00 0.  1.
<scales pt_clust_5="13000.00000" pt_clust_6="13000.00000" pt_clust_7="13000.00000" pt_clust_8="13000.00000" pt_clust_9="47.97598"></scales>
<clustering>
<clus scale="   47.976">  1  9  2 -1</clus>
<clus scale="   92.470">  7  8 -1 -1</clus>
<clus scale="  102.706">  1  7  2 -1</clus>
<clus scale="  107.941">  5  6 -1 -1</clus>
<clus scale="  116.829">  2  5  1 -1</clus>
</clustering>
</event>
<event>
 9    1  0.2333971E-005  0.9855155E+02  0.7546771E-02  0.1295135E+00
          1   -1    0    0  502    0  0.00000000000E+00  0.00000000000E+00  0.44606301520E+03  0.44606301520E+03  0.00000000000E+00 0. -1.
         -2   -1    0    0    0  501 -0.00000000000E+00 -0.00000000000E+00 -0.85216865623E+02  0.85216865623E+02  0.00000000000E+00 0.  1.
        -24    2    1    2    0    0  0.69563817738E+01 -0.34606291338E+02  0.10434104372E+03  0.13377251943E+03  0.75908147788E+02 0.  0.
         23    2    1    2    0    0 -0.15915002480E+02  0.94536123515E+01  0.31680310815E+03  0.33156220823E+03  0.96055351243E+02 0.  0.
         13    1    3    3    0    0  0.25909853676E+02 -0.51887283566E+02  0.69819073779E+02  0.90765157284E+02  0.00000000000E+00 0. -1.
        -14    1    3    3    0    0 -0.18953471903E+02  0.17280992228E+02  0.34521969945E+02  0.43007362142E+02  0.00000000000E+00 0.  1.
        -13    1    4    4    0    0 -0.48412792323E+02  0.23326755593E+02  0.25284018979E+03  0.25848809946E+03  0.00000000000E+00 0.  1.
         13    1    4    4    0    0  0.32497789843E+02 -0.13873143241E+02  0.63962918360E+02  0.73074108775E+02  0.00000000000E+00 0. -1.
         21    1    1    2  502  501  0.89586207060E+01  0.25152678987E+02 -0.60298002297E+02  0.65945153167E+02  0.00000000000E+00 0.  1.
<scales pt_clust_5="13000.00000" pt_clust_6="13000.00000" pt_clust_7="13000.00000" pt_clust_8="13000.00000" pt_clust_9="26.70045"></scales>
<clustering>
<clus scale="   26.700">  2  9  1 -1</clus>
<clus scale="   75.908">  5  6 -1 -1</clus>
<clus scale="   79.043">  2  5  1 -1</clus>
<clus scale="   96.055">  7  8 -1 -1</clus>
<clus scale="   98.552">  1  5  2 -1</clus>
</clustering>
</event>
<event>
 9    1  0.2333971E-005  0.1065605E+03  0.7546771E-02  0.1273650E+00
          1   -1    0    0  502    0  0.00000000000E+00  0.00000000000E+00  0.47078518426E+03  0.47078518426E+03  0.00000000000E+00 0. -1.
         -2   -1    0    0    0  501 -0.00000000000E+00 -0.00000000000E+00 -0.10416671409E+03  0.10416671409E+03  0.00000000000E+00 0.  1.
        -24    2    1    2    0    0  0.16257132448E+01 -0.19263233360E+02  0.28508163870E+02  0.87940725708E+02  0.80914403711E+02 0.  0.
         23    2    1    2    0    0 -0.18888707509E+02  0.51370473298E+02  0.40018874668E+03  0.41502076643E+03  0.95370303562E+02 0.  0.
         11    1    3    3    0    0 -0.14637155012E+02  0.27902158901E+02  0.23173454801E+01  0.31593462429E+02  0.00000000000E+00 0. -1.
        -12    1    3    3    0    0  0.16262868257E+02 -0.47165392262E+02  0.26190818390E+02  0.56347263279E+02  0.00000000000E+00 0.  1.
        -11    1    4    4    0    0  0.46329645734E+01 -0.25955413605E+02  0.14370153386E+03  0.14610023508E+03  0.00000000000E+00 0.  1.
         11    1    4    4    0    0 -0.23521672082E+02  0.77325886903E+02  0.25648721282E+03  0.26892053135E+03  0.00000000000E+00 0. -1.
         21    1    1    2  502  501  0.17262994264E+02 -0.32107239938E+02 -0.62078440376E+02  0.71990406214E+02  0.00000000000E+00 0.  1.
<scales pt_clust_5="13000.00000" pt_clust_6="13000.00000" pt_clust_7="13000.00000" pt_clust_8="13000.00000" pt_clust_9="36.45389"></scales>
<clustering>
<clus scale="   36.454">  2  9  1 -1</clus>
<clus scale="   80.914">  5  6 -1 -1</clus>
<clus scale="   93.845">  2  5  1 -1</clus>
<clus scale="   95.370">  7  8 -1 -1</clus>
<clus scale="  106.561">  1  5  2 -1</clus>
</clustering>
</event>
<event>
 9    1  0.2333971E-005  0.9995758E+02  0.7546771E-02  0.1285722E+00
          1   -1    0    0  502    0  0.00000000000E+00  0.00000000000E+00  0.24188966473E+03  0.24188966473E+03  0.00000000000E+00 0. -1.
         -2   -1    0    0    0  501 -0.00000000000E+00 -0.00000000000E+00 -0.16583998362E+03  0.16583998362E+03  0.00000000000E+00 0.  1.
        -24    2    1    2    0    0  0.30691541670E+02 -0.40562473020E+02 -0.21651635220E+02  0.97489510117E+02  0.80300226199E+02 0.  0.
         23    2    1    2    0    0  0.21260583070E+02  0.39460261189E+02  0.18365614765E+03  0.20979875650E+03  0.90976991894E+02 0.  0.
         13    1    3    3    0    0  0.24956849113E+02 -0.64912239087E+02 -0.11484683737E+02  0.70486460129E+02  0.00000000000E+00 0. -1.
        -14    1    3    3    0    0  0.57346925577E+01  0.24349766067E+02 -0.10166951483E+02  0.27003049989E+02  0.00000000000E+00 0.  1.
        -13    1    4    4    0    0 -0.29492369563E+02 -0.22021881390E+01  0.94848222513E+02  0.99352075011E+02  0.00000000000E+00 0.  1.
         13    1    4    4    0    0  0.50752952633E+02  0.41662449328E+02  0.88807925135E+02  0.11044668149E+03  0.00000000000E+00 0. -1.
         21    1    1    2  502  501 -0.51952124740E+02  0.11022118314E+01 -0.85954831320E+02  0.10044138173E+03  0.00000000000E+00 0.  1.
<scales pt_clust_5="13000.00000" pt_clust_6="13000.00000" pt_clust_7="13000.00000" pt_clust_8="13000.00000" pt_clust_9="51.96382"></scales>
<clustering>
<clus scale="   51.964">  2  9  1 -1</clus>
<clus scale="   80.300">  5  6 -1 -1</clus>
<clus scale="   90.348">  2  5  1 -1</clus>
<clus scale="   90.977">  7  8 -1 -1</clus>
<clus scale="   99.958">  1  5  2 -1</clus>
</clustering>
</event>
<event>
 9    1  0.2333971E-005  0.9704583E+02  0.7546771E-02  0.1293020E+00
         -2   -1    0    0    0  501 -0.00000000000E+00  0.00000000000E+00  0.11756052352E+03  0.11756052352E+03  0.00000000000E+00 0.  1.
          1   -1    0    0  502    0  0.00000000000E+00 -0.00000000000E+00 -0.16689388938E+03  0.16689388938E+03  0.00000000000E+00 0. -1.
         23    2    1    2    0    0 -0.42651487167E+02  0.34297005529E+02  0.57328782685E+02  0.12106045652E+03  0.91507436101E+02 0.  0.
        -24    2    1    2    0    0  0.19607925694E+02 -0.20930297012E+02 -0.10727475339E+03  0.13674719474E+03  0.79808360912E+02 0.  0.
         11    1    4    4    0    0  0.22220122166E+02 -0.47380284342E+02 -0.92656874593E+02  0.10641391630E+03  0.00000000000E+00 0. -1.
        -12    1    4    4    0    0 -0.26121964717E+01  0.26449987331E+02 -0.14617878793E+02  0.30333278435E+02  0.00000000000E+00 0.  1.
        -13    1    3    3    0    0  0.26544123171E+02  0.74825409515E+01  0.48683365925E+00  0.27582891455E+02  0.00000000000E+00 0. -1.
         13    1    3    3    0    0 -0.69195610338E+02  0.26814464578E+02  0.56841949025E+02  0.93477565061E+02  0.00000000000E+00 0.  1.
         21    1    1    2  502  501  0.23043561473E+02 -0.13366708518E+02  0.61260484044E+00  0.26646761654E+02  0.00000000000E+00 0.  1.
<scales pt_clust_5="13000.00000" pt_clust_6="13000.00000" pt_clust_7="13000.00000" pt_clust_8="13000.00000" pt_clust_9="26.63972"></scales>
<clustering>
<clus scale="   26.640">  1  9  2 -1</clus>
<clus scale="   79.808">  5  6 -1 -1</clus>
<clus scale="   86.103">  2  5  1 -1</clus>
<clus scale="   91.507">  7  8 -1 -1</clus>
<clus scale="   86.103">  2  5  1 -1</clus>
</clustering>
</event>
<event>
 9    1  0.2333971E-005  0.1142277E+03  0.7546771E-02  0.1257092E+00
         -2   -1    0    0    0  501 -0.00000000000E+00  0.00000000000E+00  0.44505112794E+02  0.44505112794E+02  0.00000000000E+00 0.  1.
          1   -1    0    0  502    0  0.00000000000E+00 -0.00000000000E+00 -0.53429267462E+03  0.53429267462E+03  0.00000000000E+00 0. -1.
        -24    2    1    2    0    0  0.48607568161E+02 -0.75470619868E+01 -0.82653194554E+02  0.12561076838E+03  0.80788988951E+02 0.  0.
         23    2    1    2    0    0 -0.42221335958E+02  0.75857834579E+02 -0.30379348512E+03  0.32914475390E+03  0.92242805390E+02 0.  0.
         13    1    3    3    0    0 -0.30394881927E+01 -0.35286278489E+02 -0.24723407146E+02  0.43192670663E+02  0.00000000000E+00 0. -1.
        -14    1    3    3    0    0  0.51647056354E+02  0.27739216502E+02 -0.57929787407E+02  0.82418097717E+02  0.00000000000E+00 0.  1.
        -13    1    4    4    0    0 -0.32055926370E+02  0.63124069661E+01 -0.23686355171E+02  0.40354334568E+02  0.00000000000E+00 0.  1.
         13    1    4    4    0    0 -0.10165409589E+02  0.69545427613E+02 -0.28010712995E+03  0.28879041934E+03  0.00000000000E+00 0. -1.
         21    1    1    2  502  501 -0.63862322029E+01 -0.68310772592E+02 -0.10334088215E+03  0.12404226513E+03  0.00000000000E+00 0.  1.
<scales pt_clust_5="13000.00000" pt_clust_6="13000.00000" pt_clust_7="13000.00000" pt_clust_8="13000.00000" pt_clust_9="68.60864"></scales>
<clustering>
<clus scale="   68.609">  1  9  2 -1</clus>
<clus scale="   80.789">  5  6 -1 -1</clus>
<clus scale="   92.243">  7  8 -1 -1</clus>
<clus scale="  105.196">  1  5  2 -1</clus>
<clus scale="  114.228">  2  5  1 -1</clus>
</clustering>
</event>
<event>
 9    1  0.2333971E-005  0.9907377E+02  0.7546771E-02  0.1286340E+00
          1   -1    0    0  502    0  0.00000000000E+00  0.00000000000E+00  0.62300322488E+03  0.62300322488E+03  0.00000000000E+00 0. -1.
         -2   -1    0    0    0  501 -0.00000000000E+00 -0.00000000000E+00 -0.26980288464E+02  0.26980288464E+02  0.00000000000E+00 0.  1.
         23    2    1    2    0    0  0.38860563643E+02 -0.74862400151E+00  0.97336200948E+02  0.12591861039E+03  0.69788656552E+02 0.  0.
        -24    2    1    2    0    0 -0.67283646805E+02  0.75692791770E+01  0.47541651335E+03  0.48670320825E+03  0.79213437260E+02 0.  0.
         11    1    4    4    0    0 -0.18560597142E+02  0.37864837967E+02  0.13335719806E+03  0.13986559261E+03  0.00000000000E+00 0. -1.
        -12    1    4    4    0    0 -0.48723049663E+02 -0.30295558790E+02  0.34205931529E+03  0.34683761564E+03  0.00000000000E+00 0.  1.
        -13    1    3    3    0    0  0.36768179111E+02 -0.25032507119E+02  0.28334817744E+02  0.52738859529E+02  0.00000000000E+00 0.  1.
         13    1    3    3    0    0  0.20923845325E+01  0.24283883117E+02  0.69001383204E+02  0.73179750863E+02  0.00000000000E+00 0. -1.
         21    1    1    2  502  501  0.28423083162E+02 -0.68206551755E+01  0.23270222116E+02  0.37361694699E+02  0.00000000000E+00 0.  1.
<scales pt_clust_5="13000.00000" pt_clust_6="13000.00000" pt_clust_7="13000.00000" pt_clust_8="13000.00000" pt_clust_9="29.23000"></scales>
<clustering>
<clus scale="   29.230">  2  9  1 -1</clus>
<clus scale="   69.789">  7  8 -1 -1</clus>
<clus scale="   79.213">  5  6 -1 -1</clus>
<clus scale="   91.713">  2  7  1 -1</clus>
<clus scale="   99.074">  1  5  2 -1</clus>
</clustering>
</event>
<event>
 9    1  0.2333971E-005  0.1140410E+03  0.7546771E-02  0.1255988E+00
          3   -1    0    0  502    0  0.00000000000E+00  0.00000000000E+00  0.49155847256E+02  0.49155847256E+02  0.00000000000E+00 0. -1.
         -4   -1    0    0    0  501 -0.00000000000E+00 -0.00000000000E+00 -0.56124314129E+03  0.56124314129E+03  0.00000000000E+00 0.  1.
         23    2    1    2    0    0 -0.44524283464E+02 -0.22984798152E+02 -0.34285870227E+03  0.35809074971E+03  0.90366932775E+02 0.  0.
        -24    2    1    2    0    0  0.66180693327E+02  0.32597174511E+02 -0.35284732417E+02  0.11628487568E+03  0.82672244529E+02 0.  0.
         11    1    4    4    0    0  0.50266928152E+02 -0.21164657745E+02 -0.20836808050E+02  0.58385609297E+02  0.00000000000E+00 0. -1.
        -12    1    4    4    0    0  0.15913765176E+02  0.53761832255E+02 -0.14447924367E+02  0.57899266386E+02  0.00000000000E+00 0.  1.
        -13    1    3    3    0    0 -0.23972742319E+02 -0.57527080792E+02 -0.18595530558E+03  0.19612096541E+03  0.00000000000E+00 0. -1.
         13    1    3    3    0    0 -0.20551541145E+02  0.34542282639E+02 -0.15690339669E+03  0.16196978430E+03  0.00000000000E+00 0.  1.
         21    1    1    2  502  501 -0.21656409863E+02 -0.96123763585E+01 -0.13394385935E+03  0.13602336316E+03  0.00000000000E+00 0. -1.
<scales pt_clust_5="13000.00000" pt_clust_6="13000.00000" pt_clust_7="13000.00000" pt_clust_8="13000.00000" pt_clust_9="23.69384"></scales>
<clustering>
<clus scale="   23.694">  2  9  1 -1</clus>
<clus scale="   82.672">  5  6 -1 -1</clus>
<clus scale="   90.367">  7  8 -1 -1</clus>
<clus scale="  108.046">  1  5  2 -1</clus>
<clus scale="  108.046">  1  5  2 -1</clus>
</clustering>
</event>
<event>
 9    1  0.2333971E-005  0.1075060E+03  0.7546771E-02  0.1271356E+00
         -4   -1    0    0    0  501 -0.00000000000E+00  0.00000000000E+00  0.23253458159E+03  0.23253458159E+03  0.00000000000E+00 0.  1.
          3   -1    0    0  502    0  0.00000000000E+00 -0.00000000000E+00 -0.14879202557E+03  0.14879202557E+03  0.00000000000E+00 0. -1.
        -24    2    1    2    0    0  0.65187728178E+01  0.21849149521E+02  0.14923399408E+03  0.17025190026E+03  0.78708607004E+02 0.  0.
         23    2    1    2    0    0 -0.80720915650E+01 -0.58087040714E+02 -0.10877946672E+03  0.15459948241E+03  0.92891143936E+02 0.  0.
         13    1    3    3    0    0  0.21451981320E+02  0.46965738493E+02  0.81436723509E+02  0.96425660644E+02  0.00000000000E+00 0. -1.
        -14    1    3    3    0    0 -0.14933208502E+02 -0.25116588972E+02  0.67797270576E+02  0.73826239612E+02  0.00000000000E+00 0.  1.
        -11    1    4    4    0    0 -0.45310487733E+02 -0.59449216350E+01 -0.42362103701E+02  0.62313162509E+02  0.00000000000E+00 0.  1.
         11    1    4    4    0    0  0.37238396169E+02 -0.52142119079E+02 -0.66417363018E+02  0.92286319905E+02  0.00000000000E+00 0. -1.
         21    1    1    2  502  501  0.15533187471E+01  0.36237891192E+02  0.43288028651E+02  0.56475224495E+02  0.00000000000E+00 0.  1.
<scales pt_clust_5="13000.00000" pt_clust_6="13000.00000" pt_clust_7="13000.00000" pt_clust_8="13000.00000" pt_clust_9="36.27117"></scales>
<clustering>
<clus scale="   36.271">  1  9  2 -1</clus>
<clus scale="   78.709">  5  6 -1 -1</clus>
<clus scale="   92.891">  7  8 -1 -1</clus>
<clus scale="   95.519">  1  5  2 -1</clus>
<clus scale="  107.506">  2  5  1 -1</clus>
</clustering>
</event>
<event>
 9    1  0.2333971E-005  0.1187958E+03  0.7546771E-02  0.1257730E+00
         -2   -1    0    0    0  501 -0.00000000000E+00  0.00000000000E+00  0.80241218616E+02  0.80241218616E+02  0.00000000000E+00 0.  1.
          1   -1    0    0  502    0  0.00000000000E+00 -0.00000000000E+00 -0.39621293988E+03  0.39621293988E+03  0.00000000000E+00 0. -1.
         23    2    1    2    0    0 -0.44877570139E+02  0.32158743144E+02  0.55881137636E+00  0.12126630614E+03  0.10796769736E+03 0.  0.
        -24    2    1    2    0    0  0.19927641310E+02 -0.45524388548E+02 -0.31335923428E+03  0.32670633977E+03  0.77932290442E+02 0.  0.
         11    1    4    4    0    0 -0.25005132881E+02 -0.92317048681E+01 -0.45870416929E+02  0.53052579526E+02  0.00000000000E+00 0. -1.
        -12    1    4    4    0    0  0.44932774191E+02 -0.36292683680E+02 -0.26748881735E+03  0.27365376024E+03  0.00000000000E+00 0.  1.
        -11    1    3    3    0    0 -0.17744134112E+02  0.52238344669E+02  0.40891809768E+02  0.68671967026E+02  0.00000000000E+00 0.  1.
         11    1    3    3    0    0 -0.27133436027E+02 -0.20079601525E+02 -0.40332998391E+02  0.52594339118E+02  0.00000000000E+00 0. -1.
         21    1    1    2  502  501  0.24949928829E+02  0.13365645404E+02 -0.31712983547E+01  0.28481512581E+02  0.00000000000E+00 0.  1.
<scales pt_clust_5="13000.00000" pt_clust_6="13000.00000" pt_clust_7="13000.00000" pt_clust_8="13000.00000" pt_clust_9="28.30441"></scales>
<clustering>
<clus scale="   28.304">  1  9  2 -1</clus>
<clus scale="   77.932">  5  6 -1 -1</clus>
<clus scale="   92.352">  2  5  1 -1</clus>
<clus scale="  107.968">  7  8 -1 -1</clus>
<clus scale="   92.352">  2  5  1 -1</clus>
</clustering>
</event>
<event>
 9    1  0.2333971E-005  0.9197140E+02  0.7546771E-02  0.1299650E+00
         -2   -1    0    0    0  501 -0.00000000000E+00  0.00000000000E+00  0.40706655708E+03  0.40706655708E+03  0.00000000000E+00 0.  1.
          1   -1    0    0  502    0  0.00000000000E+00 -0.00000000000E+00 -0.41860974880E+02  0.41860974880E+02  0.00000000000E+00 0. -1.
         23    2    1    2    0    0  0.66541789453E+02  0.30413099232E+02  0.12597860655E+03  0.16502209386E+03  0.77517196832E+02 0.  0.
        -24    2    1    2    0    0 -0.27721651279E+02  0.39186618669E+01  0.81428136481E+02  0.11781465994E+03  0.80410862607E+02 0.  0.
         11    1    4    4    0    0  0.25630334454E+02 -0.95069565362E+01  0.42065685735E+02  0.50167899928E+02  0.00000000000E+00 0. -1.
        -12    1    4    4    0    0 -0.53351985734E+02  0.13425618403E+02  0.39362450747E+02  0.67646760011E+02  0.00000000000E+00 0.  1.
        -13    1    3    3    0    0  0.24484656942E+02 -0.28610572914E+01  0.10430747939E+03  0.10718084872E+03  0.00000000000E+00 0.  1.
         13    1    3    3    0    0  0.42057132511E+02  0.33274156523E+02  0.21671127160E+02  0.57841245144E+02  0.00000000000E+00 0. -1.
         21    1    1    2  502  501 -0.38820138174E+02 -0.34331761099E+02  0.15779883917E+03  0.16609077816E+03  0.00000000000E+00 0.  1.
<scales pt_clust_5="13000.00000" pt_clust_6="13000.00000" pt_clust_7="13000.00000" pt_clust_8="13000.00000" pt_clust_9="51.82348"></scales>
<clustering>
<clus scale="   51.823">  1  9  2 -1</clus>
<clus scale="   77.517">  7  8 -1 -1</clus>
<clus scale="   80.411">  5  6 -1 -1</clus>
<clus scale="   89.452">  1  7  2 -1</clus>
<clus scale="   91.971">  2  5  1 -1</clus>
</clustering>
</event>
<event>
 9    1  0.2333971E-005  0.9208817E+02  0.7546771E-02  0.1300050E+00
         -2   -1    0    0    0  501 -0.00000000000E+00  0.00000000000E+00  0.22751649129E+03  0.22751649129E+03  0.00000000000E+00 0.  1.
          1   -1    0    0  502    0  0.00000000000E+00 -0.00000000000E+00 -0.17430504985E+03  0.17430504985E+03  0.00000000000E+00 0. -1.
        -24    2    1    2    0    0 -0.45072846601E+02  0.43166662942E+02 -0.17194121567E+02  0.10280272013E+03  0.79861374637E+02 0.  0.
         23    2    1    2    0    0 -0.10353534299E+02  0.25773212310E+02 -0.79828730266E+02  0.12467682098E+03  0.91652765193E+02 0.  0.
         11    1    3    3    0    0 -0.46594245085E+02 -0.99837161471E+01 -0.13376361183E+02  0.49493689514E+02  0.00000000000E+00 0. -1.
        -12    1    3    3    0    0  0.15213984840E+01  0.53150379089E+02 -0.38177603841E+01  0.53309030614E+02  0.00000000000E+00 0.  1.
        -13    1    4    4    0    0 -0.27348206829E+02  0.42949912757E+02 -0.85814314150E+02  0.99783344981E+02  0.00000000000E+00 0. -1.
         13    1    4    4    0    0  0.16994672531E+02 -0.17176700447E+02  0.59855838837E+01  0.24893475995E+02  0.00000000000E+00 0.  1.
         21    1    1    2  502  501  0.55426380900E+02 -0.68939875251E+02  0.15023429327E+03  0.17434200003E+03  0.00000000000E+00 0.  1.
<scales pt_clust_5="13000.00000" pt_clust_6="13000.00000" pt_clust_7="13000.00000" pt_clust_8="13000.00000" pt_clust_9="88.45784"></scales>
<clustering>
<clus scale="   79.861">  5  6 -1 -1</clus>
<clus scale="   88.458">  1  9  2 -1</clus>
<clus scale="   88.458">  1  5  2 -1</clus>
<clus scale="   91.653">  7  8 -1 -1</clus>
<clus scale="   92.088">  2  5  1 -1</clus>
</clustering>
</event>
<event>
 9    1  0.2333971E-005  0.9426164E+02  0.7546771E-02  0.1302643E+00
         -2   -1    0    0    0  501 -0.00000000000E+00  0.00000000000E+00  0.10269068321E+03  0.10269068321E+03  0.00000000000E+00 0.  1.
          1   -1    0    0  502    0  0.00000000000E+00 -0.00000000000E+00 -0.25946745404E+03  0.25946745404E+03  0.00000000000E+00 0. -1.
        -24    2    1    2    0    0  0.22398737699E+02  0.12248140833E+02  0.49257096870E+02  0.95159829090E+02  0.77313718549E+02 0.  0.
         23    2    1    2    0    0 -0.12531665700E+02  0.65811501508E+01 -0.22149960240E+03  0.24070971256E+03  0.93159742779E+02 0.  0.
         11    1    3    3    0    0  0.99686009362E+01 -0.29923619179E+02  0.38736490894E+02  0.49953095161E+02  0.00000000000E+00 0. -1.
        -12    1    3    3    0    0  0.12430136763E+02  0.42171760012E+02  0.10520605976E+02  0.45206733929E+02  0.00000000000E+00 0.  1.
        -11    1    4    4    0    0  0.39582362721E+02  0.51021898791E+01 -0.71169444526E+02  0.81595867630E+02  0.00000000000E+00 0.  1.
         11    1    4    4    0    0 -0.52114028421E+02  0.14789602718E+01 -0.15033015788E+03  0.15911384493E+03  0.00000000000E+00 0. -1.
         21    1    1    2  502  501 -0.98670719995E+01 -0.18829290984E+02  0.15465734705E+02  0.26288595603E+02  0.00000000000E+00 0. -1.
<scales pt_clust_5="13000.00000" pt_clust_6="13000.00000" pt_clust_7="13000.00000" pt_clust_8="13000.00000" pt_clust_9="21.25797"></scales>
<clustering>
<clus scale="   21.258">  1  9  2 -1</clus>
<clus scale="   77.314">  5  6 -1 -1</clus>
<clus scale="   78.638">  1  5  2 -1</clus>
<clus scale="   93.160">  7  8 -1 -1</clus>
<clus scale="   94.262">  2  5  1 -1</clus>
</clustering>
</event>
<event>
 9    1  0.2333971E-005  0.1972440E+03  0.7546771E-02  0.1153175E+00
          1   -1    0    0  502    0  0.00000000000E+00  0.00000000000E+00  0.55413518918E+03  0.55413518918E+03  0.00000000000E+00 0. -1.
         -2   -1    0    0    0  501 -0.00000000000E+00 -0.00000000000E+00 -0.16473136858E+03  0.16473136858E+03  0.00000000000E+00 0.  1.
         23    2    1    2    0    0  0.12284658932E+03  0.12982638185E+03 -0.71942046380E+02  0.21279720347E+03  0.90337245009E+02 0.  0.
        -24    2    1    2    0    0 -0.10572238264E+03 -0.11101805024E+03  0.44101363813E+03  0.47350570396E+03  0.78818735085E+02 0.  0.
         13    1    4    4    0    0 -0.11251755330E+03 -0.78782242570E+02  0.32329503072E+03  0.35126417186E+03  0.00000000000E+00 0. -1.
        -14    1    4    4    0    0  0.67951706621E+01 -0.32235807669E+02  0.11771860741E+03  0.12224153210E+03  0.00000000000E+00 0.  1.
        -11    1    3    3    0    0  0.63091376168E+02  0.44720382414E+02  0.13134148260E+02  0.78440679501E+02  0.00000000000E+00 0.  1.
         11    1    3    3    0    0  0.59755213152E+02  0.85105999439E+02 -0.85076194640E+02  0.13435652397E+03  0.00000000000E+00 0. -1.
         21    1    1    2  502  501 -0.17124206685E+02 -0.18808331615E+02  0.20332228845E+02  0.32563650325E+02  0.00000000000E+00 0.  1.
<scales pt_clust_5="13000.00000" pt_clust_6="13000.00000" pt_clust_7="13000.00000" pt_clust_8="13000.00000" pt_clust_9="25.43603"></scales>
<clustering>
<clus scale="   25.436">  1  9  2 -1</clus>
<clus scale="   78.819">  5  6 -1 -1</clus>
<clus scale="   90.337">  7  8 -1 -1</clus>
<clus scale="  192.241">  1  5  2 -1</clus>
<clus scale="   25.436">  1  5  2 -1</clus>
</clustering>
</event>
<event>
 9    1  0.2333971E-005  0.9272745E+02  0.7546771E-02  0.1301531E+00
          1   -1    0    0  502    0  0.00000000000E+00  0.00000000000E+00  0.29887122929E+03  0.29887122929E+03  0.00000000000E+00 0. -1.
         -2   -1    0    0    0  501 -0.00000000000E+00 -0.00000000000E+00 -0.75726753303E+02  0.75726753303E+02  0.00000000000E+00 0.  1.
         23    2    1    2    0    0 -0.16957523268E+02  0.11055732173E+01 -0.66891568017E+01  0.90986110835E+02  0.89134435875E+02 0.  0.
        -24    2    1    2    0    0  0.12257506085E+02 -0.25211086347E+02  0.24176868791E+03  0.25630598475E+03  0.80341857300E+02 0.  0.
         13    1    4    4    0    0  0.13103298293E+02 -0.53426366519E+02  0.18335823213E+03  0.19143227093E+03  0.00000000000E+00 0. -1.
        -14    1    4    4    0    0 -0.84579220766E+00  0.28215280172E+02  0.58410455782E+02  0.64873713816E+02  0.00000000000E+00 0.  1.
        -11    1    3    3    0    0  0.36615700515E+02  0.24329153574E+01 -0.71896324821E+01  0.37394109384E+02  0.00000000000E+00 0. -1.
         11    1    3    3    0    0 -0.53573223783E+02 -0.13273421401E+01  0.50047568047E+00  0.53592001452E+02  0.00000000000E+00 0.  1.
         21    1    1    2  502  501  0.47000171828E+01  0.24105513129E+02 -0.11935055119E+02  0.27305887011E+02  0.00000000000E+00 0.  1.
<scales pt_clust_5="13000.00000" pt_clust_6="13000.00000" pt_clust_7="13000.00000" pt_clust_8="13000.00000" pt_clust_9="24.55944"></scales>
<clustering>
<clus scale="   24.559">  2  9  1 -1</clus>
<clus scale="   80.342">  5  6 -1 -1</clus>
<clus scale="   84.310">  1  5  2 -1</clus>
<clus scale="   89.134">  7  8 -1 -1</clus>
<clus scale="   84.310">  1  5  2 -1</clus>
</clustering>
</event>
<event>
 9    1  0.2333971E-005  0.1347480E+03  0.7546771E-02  0.1222925E+00
          1   -1    0    0  502    0  0.00000000000E+00  0.00000000000E+00  0.54411370631E+03  0.54411370631E+03  0.00000000000E+00 0. -1.
         -2   -1    0    0    0  501 -0.00000000000E+00 -0.00000000000E+00 -0.96537142918E+02  0.96537142918E+02  0.00000000000E+00 0.  1.
        -24    2    1    2    0    0  0.50462923494E+02  0.68773734219E+02  0.18391097668E+01  0.11791399317E+03  0.81387924744E+02 0.  0.
         23    2    1    2    0    0 -0.81693478567E+02 -0.61176110840E+02  0.46536032457E+03  0.48507880891E+03  0.91240770437E+02 0.  0.
         11    1    3    3    0    0  0.39774223714E+02 -0.27769401124E+01  0.18064066923E+02  0.43772260420E+02  0.00000000000E+00 0. -1.
        -12    1    3    3    0    0  0.10688699780E+02  0.71550674331E+02 -0.16224957156E+02  0.74141732748E+02  0.00000000000E+00 0.  1.
        -13    1    4    4    0    0 -0.85812858439E+02 -0.16196856838E+02  0.24398194826E+03  0.25913968419E+03  0.00000000000E+00 0.  1.
         13    1    4    4    0    0  0.41193798723E+01 -0.44979254002E+02  0.22137837631E+03  0.22593912472E+03  0.00000000000E+00 0. -1.
         21    1    1    2  502  501  0.31230555073E+02 -0.75976233783E+01 -0.19622870945E+02  0.37658047152E+02  0.00000000000E+00 0. -1.
<scales pt_clust_5="13000.00000" pt_clust_6="13000.00000" pt_clust_7="13000.00000" pt_clust_8="13000.00000" pt_clust_9="32.14143"></scales>
<clustering>
<clus scale="   32.141">  2  9  1 -1</clus>
<clus scale="   81.388">  5  6 -1 -1</clus>
<clus scale="   91.241">  7  8 -1 -1</clus>
<clus scale="  128.282">  2  5  1 -1</clus>
<clus scale="  134.748">  1  5  2 -1</clus>
</clustering>
</event>
<event>
 9    1  0.2333971E-005  0.1775160E+03  0.7546771E-02  0.1171394E+00
          1   -1    0    0  502    0  0.00000000000E+00  0.00000000000E+00  0.21549203691E+03  0.21549203691E+03  0.00000000000E+00 0. -1.
         -2   -1    0    0    0  501 -0.00000000000E+00 -0.00000000000E+00 -0.28800813419E+03  0.28800813419E+03  0.00000000000E+00 0.  1.
        -24    2    1    2    0    0 -0.12646785666E+03  0.60690938294E+02 -0.14897319905E+03  0.22032328268E+03  0.81681246910E+02 0.  0.
         23    2    1    2    0    0  0.14678355358E+03 -0.51329620677E+02  0.13193118944E+03  0.22336270772E+03  0.91131327720E+02 0.  0.
         13    1    3    3    0    0 -0.51826786295E+02  0.46569747226E+00 -0.10000445476E+03  0.11263713253E+03  0.00000000000E+00 0. -1.
        -14    1    3    3    0    0 -0.74641070363E+02  0.60225240822E+02 -0.48968744282E+02  0.10768615015E+03  0.00000000000E+00 0.  1.
        -11    1    4    4    0    0  0.50447239172E+02 -0.46929611662E+01  0.99282366224E+02  0.11146271156E+03  0.00000000000E+00 0. -1.
         11    1    4    4    0    0  0.96336314404E+02 -0.46636659511E+02  0.32648823219E+02  0.11189999616E+03  0.00000000000E+00 0.  1.
         21    1    1    2  502  501 -0.20315696918E+02 -0.93613176168E+01 -0.55474087681E+02  0.59814180700E+02  0.00000000000E+00 0. -1.
<scales pt_clust_5="13000.00000" pt_clust_6="13000.00000" pt_clust_7="13000.00000" pt_clust_8="13000.00000" pt_clust_9="22.36877"></scales>
<clustering>
<clus scale="   22.369">  2  9  1 -1</clus>
<clus scale="   81.681">  5  6 -1 -1</clus>
<clus scale="   91.131">  7  8 -1 -1</clus>
<clus scale="  172.855">  2  5  1 -1</clus>
<clus scale="  177.516">  1  5  2 -1</clus>
</clustering>
</event>
<event>
 9    1  0.2333971E-005  0.9286046E+02  0.7546771E-02  0.1303169E+00
          1   -1    0    0  502    0  0.00000000000E+00  0.00000000000E+00  0.31535008836E+03  0.31535008836E+03  0.00000000000E+00 0. -1.
         -2   -1    0    0    0  501 -0.00000000000E+00 -0.00000000000E+00 -0.88372691194E+02  0.88372691194E+02  0.00000000000E+00 0.  1.
        -24    2    1    2    0    0  0.37307809502E+02 -0.11516834443E+02  0.17539311274E+02  0.91501018991E+02  0.80872114545E+02 0.  0.
         23    2    1    2    0    0  0.74728690267E+01 -0.14852630950E+02  0.23592122783E+03  0.25389496841E+03  0.92343840212E+02 0.  0.
         13    1    3    3    0    0  0.39261365197E+02 -0.39547267360E+02 -0.43307938868E+01  0.55894516086E+02  0.00000000000E+00 0. -1.
        -14    1    3    3    0    0 -0.19535556953E+01  0.28030432917E+02  0.21870105161E+02  0.35606502905E+02  0.00000000000E+00 0.  1.
        -11    1    4    4    0    0  0.81755619265E+01  0.27636897151E+02  0.23278583689E+02  0.37047676789E+02  0.00000000000E+00 0.  1.
         11    1    4    4    0    0 -0.70269289973E+00 -0.42489528101E+02  0.21264264415E+03  0.21684729162E+03  0.00000000000E+00 0. -1.
         21    1    1    2  502  501 -0.44780678529E+02  0.26369465394E+02 -0.26483141947E+02  0.58326792146E+02  0.00000000000E+00 0.  1.
<scales pt_clust_5="13000.00000" pt_clust_6="13000.00000" pt_clust_7="13000.00000" pt_clust_8="13000.00000" pt_clust_9="51.96785"></scales>
<clustering>
<clus scale="   51.968">  2  9  1 -1</clus>
<clus scale="   80.872">  5  6 -1 -1</clus>
<clus scale="   81.462">  2  5  1 -1</clus>
<clus scale="   92.344">  7  8 -1 -1</clus>
<clus scale="   92.860">  1  5  2 -1</clus>
</clustering>
</event>
<event>
 9    1  0.2333971E-005  0.1036382E+03  0.7546771E-02  0.1276039E+00
         -2   -1    0    0    0  501 -0.00000000000E+00  0.00000000000E+00  0.49691234794E+02  0.49691234794E+02  0.00000000000E+00 0.  1.
          1   -1    0    0  502    0  0.00000000000E+00 -0.00000000000E+00 -0.62617525149E+03  0.62617525149E+03  0.00000000000E+00 0. -1.
         23    2    1    2    0    0 -0.20841733266E+01 -0.10492091023E+01 -0.55842074848E+02  0.10602963109E+03  0.90102723199E+02 0.  0.
        -24    2    1    2    0    0 -0.87432392919E+01 -0.62101403738E+02 -0.48601556718E+03  0.49700678868E+03  0.82895041281E+02 0.  0.
         11    1    4    4    0    0  0.24335892015E+02  0.82964488435E+01 -0.14183232266E+03  0.14414393658E+03  0.00000000000E+00 0. -1.
        -12    1    4    4    0    0 -0.33079131307E+02 -0.70397852582E+02 -0.34418324453E+03  0.35286285209E+03  0.00000000000E+00 0.  1.
        -11    1    3    3    0    0 -0.20823884599E+02  0.17185601502E+02  0.14739221605E+02  0.30760749703E+02  0.00000000000E+00 0.  1.
         11    1    3    3    0    0  0.18739711272E+02 -0.18234810605E+02 -0.70581296453E+02  0.75268881388E+02  0.00000000000E+00 0. -1.
         21    1    1    2  502  501  0.10827412619E+02  0.63150612840E+02 -0.34626374666E+02  0.72830066515E+02  0.00000000000E+00 0.  1.
<scales pt_clust_5="13000.00000" pt_clust_6="13000.00000" pt_clust_7="13000.00000" pt_clust_8="13000.00000" pt_clust_9="64.07209"></scales>
<clustering>
<clus scale="   64.072">  1  9  2 -1</clus>
<clus scale="   82.895">  5  6 -1 -1</clus>
<clus scale="   90.103">  7  8 -1 -1</clus>
<clus scale="   97.437">  2  5  1 -1</clus>
<clus scale="   97.437">  2  5  1 -1</clus>
</clustering>
</event>
<event>
 9    1  0.2333971E-005  0.9611975E+02  0.7546771E-02  0.1294698E+00
          3   -1    0    0  502    0  0.00000000000E+00  0.00000000000E+00  0.42733079886E+03  0.42733079886E+03  0.00000000000E+00 0. -1.
         -4   -1    0    0    0  501 -0.00000000000E+00 -0.00000000000E+00 -0.70479575571E+02  0.70479575571E+02  0.00000000000E+00 0.  1.
        -24    2    1    2    0    0  0.19992687625E+02 -0.36029350180E-01 -0.22927723570E+02  0.85900432059E+02  0.80333647143E+02 0.  0.
         23    2    1    2    0    0 -0.20889959444E+02  0.24656088971E+02  0.37439388205E+03  0.38669186641E+03  0.91189404520E+02 0.  0.
         13    1    3    3    0    0  0.33578096623E+02  0.21136930442E+02  0.13254406371E+02  0.41832256568E+02  0.00000000000E+00 0. -1.
        -14    1    3    3    0    0 -0.13585408998E+02 -0.21172959792E+02 -0.36182129941E+02  0.44068175491E+02  0.00000000000E+00 0.  1.
        -13    1    4    4    0    0  0.29350377292E+02 -0.13936502729E+02  0.10306183946E+03  0.10806208173E+03  0.00000000000E+00 0.  1.
         13    1    4    4    0    0 -0.50240336736E+02  0.38592591700E+02  0.27133204259E+03  0.27862978467E+03  0.00000000000E+00 0. -1.
         21    1    1    2  502  501  0.89727181933E+00 -0.24620059621E+02  0.53850648049E+01  0.25218075965E+02  0.00000000000E+00 0. -1.
<scales pt_clust_5="13000.00000" pt_clust_6="13000.00000" pt_clust_7="13000.00000" pt_clust_8="13000.00000" pt_clust_9="24.63640"></scales>
<clustering>
<clus scale="   24.636">  2  9  1 -1</clus>
<clus scale="   80.334">  5  6 -1 -1</clus>
<clus scale="   85.889">  2  5  1 -1</clus>
<clus scale="   91.189">  7  8 -1 -1</clus>
<clus scale="   96.120">  1  5  2 -1</clus>
</clustering>
</event>
<event>
 9    1  0.2333971E-005  0.9202335E+02  0.7546771E-02  0.1299682E+00
         -2   -1    0    0    0  501 -0.00000000000E+00  0.00000000000E+00  0.10659867948E+03  0.10659867948E+03  0.00000000000E+00 0.  1.
          1   -1    0    0  502    0  0.00000000000E+00 -0.00000000000E+00 -0.15107536254E+03  0.15107536254E+03  0.00000000000E+00 0. -1.
         23    2    1    2    0    0  0.19352657266E+02  0.13881384718E+02  0.32886059947E+02  0.93780073689E+02  0.84533964164E+02 0.  0.
        -24    2    1    2    0    0  0.40849157939E+01 -0.33180884163E+02 -0.91040679097E+02  0.13059417185E+03  0.87457274478E+02 0.  0.
         13    1    4    4    0    0 -0.33172414456E+02  0.89686189550E+01 -0.19250170133E+02  0.39387996356E+02  0.00000000000E+00 0. -1.
        -14    1    4    4    0    0  0.37257330250E+02 -0.42149503118E+02 -0.71790508964E+02  0.91206175491E+02  0.00000000000E+00 0.  1.
        -11    1    3    3    0    0  0.37209277357E+02 -0.50116776229E+00  0.51990281548E+02  0.63935677567E+02  0.00000000000E+00 0.  1.
         11    1    3    3    0    0 -0.17856620091E+02  0.14382552481E+02 -0.19104221601E+02  0.29844396122E+02  0.00000000000E+00 0. -1.
         21    1    1    2  502  501 -0.23437573060E+02  0.19299499444E+02  0.13677936088E+02  0.33299796477E+02  0.00000000000E+00 0.  1.
<scales pt_clust_5="13000.00000" pt_clust_6="13000.00000" pt_clust_7="13000.00000" pt_clust_8="13000.00000" pt_clust_9="30.36100"></scales>
<clustering>
<clus scale="   30.361">  1  9  2 -1</clus>
<clus scale="   84.534">  7  8 -1 -1</clus>
<clus scale="   87.457">  5  6 -1 -1</clus>
<clus scale="   89.250">  1  7  2 -1</clus>
<clus scale="   92.023">  2  5  1 -1</clus>
</clustering>
</event>
<event>
 9    1  0.2333971E-005  0.1075747E+03  0.7546771E-02  0.1268336E+00
          1   -1    0    0  502    0  0.00000000000E+00  0.00000000000E+00  0.18362270630E+03  0.18362270630E+03  0.00000000000E+00 0. -1.
         -2   -1    0    0    0  501 -0.00000000000E+00 -0.00000000000E+00 -0.13388939889E+03  0.13388939889E+03  0.00000000000E+00 0.  1.
        -24    2    1    2    0    0  0.30169740291E+02  0.24057249657E+02 -0.67703076197E+02  0.11259037235E+03  0.81264512112E+02 0.  0.
         23    2    1    2    0    0 -0.16445128593E+02 -0.65128663997E+02  0.11681599106E+03  0.16161340883E+03  0.89222939978E+02 0.  0.
         11    1    3    3    0    0 -0.62018748892E+01 -0.24430638138E+02 -0.36662968047E+02  0.44491488601E+02  0.00000000000E+00 0. -1.
        -12    1    3    3    0    0  0.36371615180E+02  0.48487887795E+02 -0.31040108150E+02  0.68098883747E+02  0.00000000000E+00 0.  1.
        -11    1    4    4    0    0 -0.36329044303E+01 -0.86534270849E+02  0.87437878216E+02  0.12307217627E+03  0.00000000000E+00 0. -1.
         11    1    4    4    0    0 -0.12812224163E+02  0.21405606853E+02  0.29378112840E+02  0.38541232554E+02  0.00000000000E+00 0.  1.
         21    1    1    2  502  501 -0.13724611697E+02  0.41071414340E+02  0.62039254460E+00  0.43308324015E+02  0.00000000000E+00 0.  1.
<scales pt_clust_5="13000.00000" pt_clust_6="13000.00000" pt_clust_7="13000.00000" pt_clust_8="13000.00000" pt_clust_9="43.30388"></scales>
<clustering>
<clus scale="   43.304">  2  9  1 -1</clus>
<clus scale="   81.265">  5  6 -1 -1</clus>
<clus scale="   89.223">  7  8 -1 -1</clus>
<clus scale="  101.072">  2  5  1 -1</clus>
<clus scale="  107.575">  1  5  2 -1</clus>
</clustering>
</event>
<event>
 9    1  0.2333971E-005  0.1818722E+03  0.7546771E-02  0.1193786E+00
         -2   -1    0    0    0  501 -0.00000000000E+00  0.00000000000E+00  0.32706494342E+03  0.32706494342E+03  0.00000000000E+00 0.  1.
          1   -1    0    0  502    0  0.00000000000E+00 -0.00000000000E+00 -0.37130164423E+03  0.37130164423E+03  0.00000000000E+00 0. -1.
        -24    2    1    2    0    0 -0.16950124989E+03 -0.38996847168E+02  0.19788260504E+03  0.27575231682E+03  0.81427188651E+02 0.  0.
         23    2    1    2    0    0  0.25831713361E+02  0.22651668851E+02 -0.25931833968E+03  0.27699865579E+03  0.91114644808E+02 0.  0.
         11    1    3    3    0    0 -0.10902512054E+03 -0.27963569923E+02  0.66581720702E+02  0.13077294706E+03  0.00000000000E+00 0. -1.
        -12    1    3    3    0    0 -0.60476129350E+02 -0.11033277245E+02  0.13130088434E+03  0.14497936976E+03  0.00000000000E+00 0.  1.
        -13    1    4    4    0    0 -0.13252864498E+02  0.41337314652E+02 -0.19273056810E+03  0.19755881120E+03  0.00000000000E+00 0. -1.
         13    1    4    4    0    0  0.39084577859E+02 -0.18685645801E+02 -0.66587771573E+02  0.79439844590E+02  0.00000000000E+00 0.  1.
         21    1    1    2  502  501  0.14366953653E+03  0.16345178317E+02  0.17199033830E+02  0.14561561504E+03  0.00000000000E+00 0. -1.
<scales pt_clust_5="13000.00000" pt_clust_6="13000.00000" pt_clust_7="13000.00000" pt_clust_8="13000.00000" pt_clust_9="162.62564"></scales>
<clustering>
<clus scale="   81.427">  5  6 -1 -1</clus>
<clus scale="   91.115">  7  8 -1 -1</clus>
<clus scale="   97.377">  2  7  1 -1</clus>
<clus scale="  162.626">  2  9  1 -1</clus>
<clus scale="   97.377">  2  5  1 -1</clus>
</clustering>
</event>
<event>
 9    1  0.2333971E-005  0.9177867E+02  0.7546771E-02  0.1304701E+00
          3   -1    0    0  502    0  0.00000000000E+00  0.00000000000E+00  0.46232384595E+03  0.46232384595E+03  0.00000000000E+00 0. -1.
         -4   -1    0    0    0  501 -0.00000000000E+00 -0.00000000000E+00 -0.54769122988E+02  0.54769122988E+02  0.00000000000E+00 0.  1.
         23    2    1    2    0    0 -0.56034479710E+01  0.43097602037E+02  0.35706720149E+02  0.10618843052E+03  0.90067813237E+02 0.  0.
        -24    2    1    2    0    0 -0.21023229837E+02  0.66717313300E+01  0.33088896544E+03  0.34116495671E+03  0.80121982282E+02 0.  0.
         11    1    4    4    0    0 -0.48514572149E+02 -0.15758396338E+01  0.14105000910E+03  0.14916853572E+03  0.00000000000E+00 0. -1.
        -12    1    4    4    0    0  0.27491342312E+02  0.82475709638E+01  0.18983895634E+03  0.19199642099E+03  0.00000000000E+00 0.  1.
        -11    1    3    3    0    0 -0.36199524300E+02  0.54663348490E+02  0.32912426860E+02  0.73360173592E+02  0.00000000000E+00 0. -1.
         11    1    3    3    0    0  0.30596076329E+02 -0.11565746453E+02  0.27942932890E+01  0.32828256925E+02  0.00000000000E+00 0.  1.
         21    1    1    2  502  501  0.26626677808E+02 -0.49769333367E+02  0.40959037371E+02  0.69739581711E+02  0.00000000000E+00 0.  1.
<scales pt_clust_5="13000.00000" pt_clust_6="13000.00000" pt_clust_7="13000.00000" pt_clust_8="13000.00000" pt_clust_9="56.44437"></scales>
<clustering>
<clus scale="   56.444">  2  9  1 -1</clus>
<clus scale="   80.122">  5  6 -1 -1</clus>
<clus scale="   82.041">  1  5  2 -1</clus>
<clus scale="   90.068">  7  8 -1 -1</clus>
<clus scale="   82.041">  1  5  2 -1</clus>
</clustering>
</event>
<event>
 9    1  0.2333971E-005  0.1124120E+03  0.7546771E-02  0.1260817E+00
         -2   -1    0    0    0  501 -0.00000000000E+00  0.00000000000E+00  0.68588518269E+02  0.68588518269E+02  0.00000000000E+00 0.  1.
          1   -1    0    0  502    0  0.00000000000E+00 -0.00000000000E+00 -0.51379943032E+03  0.51379943032E+03  0.00000000000E+00 0. -1.
         23    2    1    2    0    0 -0.48620758757E+02 -0.78163348079E+01 -0.26986370428E+02  0.10723654977E+03  0.91358306391E+02 0.  0.
        -24    2    1    2    0    0  0.62604941420E+02  0.27084808249E+02 -0.43414963507E+03  0.44650807437E+03  0.78934082148E+02 0.  0.
         11    1    4    4    0    0  0.53614301221E+02  0.51463669038E+02 -0.36818246936E+03  0.37560795156E+03  0.00000000000E+00 0. -1.
        -12    1    4    4    0    0  0.89906401988E+01 -0.24378860789E+02 -0.65967165704E+02  0.70900122818E+02  0.00000000000E+00 0.  1.
        -13    1    3    3    0    0  0.73394532715E-01 -0.43319290280E+02 -0.79839024805E+01  0.44048938647E+02  0.00000000000E+00 0.  1.
         13    1    3    3    0    0 -0.48694153289E+02  0.35502955472E+02 -0.19002467947E+02  0.63187611127E+02  0.00000000000E+00 0. -1.
         21    1    1    2  502  501 -0.13984182663E+02 -0.19268473441E+02  0.15925093447E+02  0.28643324437E+02  0.00000000000E+00 0.  1.
<scales pt_clust_5="13000.00000" pt_clust_6="13000.00000" pt_clust_7="13000.00000" pt_clust_8="13000.00000" pt_clust_9="23.80822"></scales>
<clustering>
<clus scale="   23.808">  1  9  2 -1</clus>
<clus scale="   78.934">  5  6 -1 -1</clus>
<clus scale="   91.358">  7  8 -1 -1</clus>
<clus scale="  102.570">  2  5  1 -1</clus>
<clus scale="  102.570">  2  5  1 -1</clus>
</clustering>
</event>
<event>
 9    1  0.2333971E-005  0.1304917E+03  0.7546771E-02  0.1244551E+00
         -2   -1    0    0    0  501 -0.00000000000E+00  0.00000000000E+00  0.27170208752E+02  0.27170208752E+02  0.00000000000E+00 0.  1.
          1   -1    0    0  502    0  0.00000000000E+00 -0.00000000000E+00 -0.16847207818E+04  0.16847207818E+04  0.00000000000E+00 0. -1.
         23    2    1    2    0    0 -0.52945313559E+02  0.73429401471E+02 -0.18214214588E+03  0.22335372406E+03  0.92282400920E+02 0.  0.
        -24    2    1    2    0    0 -0.38089314033E+02 -0.18659394286E+02 -0.63204891591E+03  0.63851237136E+03  0.80082753672E+02 0.  0.
         13    1    4    4    0    0 -0.50560451657E+02 -0.32122247110E+02 -0.29806069729E+03  0.30402035672E+03  0.00000000000E+00 0. -1.
        -14    1    4    4    0    0  0.12471137624E+02  0.13462852824E+02 -0.33398821862E+03  0.33449201463E+03  0.00000000000E+00 0.  1.
        -11    1    3    3    0    0 -0.53867223407E+02  0.68520621035E+00 -0.55789165697E+02  0.77553712190E+02  0.00000000000E+00 0.  1.
         11    1    3    3    0    0  0.92190984804E+00  0.72744195260E+02 -0.12635298018E+03  0.14580001187E+03  0.00000000000E+00 0. -1.
         21    1    1    2  502  501  0.91034627592E+02 -0.54770007185E+02 -0.84335951125E+03  0.85002489512E+03  0.00000000000E+00 0. -1.
<scales pt_clust_5="13000.00000" pt_clust_6="13000.00000" pt_clust_7="13000.00000" pt_clust_8="13000.00000" pt_clust_9="92.26068"></scales>
<clustering>
<clus scale="   80.083">  5  6 -1 -1</clus>
<clus scale="   90.621">  2  5  1 -1</clus>
<clus scale="   92.261">  2  9  1 -1</clus>
<clus scale="   92.282">  7  8 -1 -1</clus>
<clus scale="   90.621">  2  5  1 -1</clus>
</clustering>
</event>
<event>
 9    1  0.2333971E-005  0.1445713E+03  0.7546771E-02  0.1232354E+00
         -2   -1    0    0    0  501 -0.00000000000E+00  0.00000000000E+00  0.70702823078E+02  0.70702823078E+02  0.00000000000E+00 0.  1.
          1   -1    0    0  502    0  0.00000000000E+00 -0.00000000000E+00 -0.58449004704E+03  0.58449004704E+03  0.00000000000E+00 0. -1.
         23    2    1    2    0    0  0.99906981470E+02 -0.83944710885E+02 -0.13143612981E+03  0.20581342103E+03  0.89752931002E+02 0.  0.
        -24    2    1    2    0    0 -0.13380278689E+02  0.26666687670E+02 -0.31329830499E+03  0.32473623857E+03  0.80047814734E+02 0.  0.
         11    1    4    4    0    0  0.13897794303E+02  0.48441164440E+02 -0.19377755993E+03  0.20022346973E+03  0.00000000000E+00 0. -1.
        -12    1    4    4    0    0 -0.27278072992E+02 -0.21774476771E+02 -0.11952074506E+03  0.12451276885E+03  0.00000000000E+00 0.  1.
        -11    1    3    3    0    0 -0.15270873185E+02 -0.22287469449E+02 -0.15510951150E+02  0.31153177492E+02  0.00000000000E+00 0. -1.
         11    1    3    3    0    0  0.11517785465E+03 -0.61657241436E+02 -0.11592517866E+03  0.17466024354E+03  0.00000000000E+00 0.  1.
         21    1    1    2  502  501 -0.86526702780E+02  0.57278023215E+02 -0.69052789163E+02  0.12464321052E+03  0.00000000000E+00 0.  1.
<scales pt_clust_5="13000.00000" pt_clust_6="13000.00000" pt_clust_7="13000.00000" pt_clust_8="13000.00000" pt_clust_9="113.33702"></scales>
<clustering>
<clus scale="   80.048">  5  6 -1 -1</clus>
<clus scale="   85.427">  2  5  1 -1</clus>
<clus scale="   89.753">  7  8 -1 -1</clus>
<clus scale="  113.337">  1  9  2 -1</clus>
<clus scale="   85.427">  2  5  1 -1</clus>
</clustering>
</event>
<event>
 9    1  0.2333971E-005  0.1075602E+03  0.7546771E-02  0.1271370E+00
          1   -1    0    0  502    0  0.00000000000E+00  0.00000000000E+00  0.22408744060E+03  0.22408744060E+03  0.00000000000E+00 0. -1.
         -2   -1    0    0    0  501 -0.00000000000E+00 -0.00000000000E+00 -0.84440638460E+02  0.84440638460E+02  0.00000000000E+00 0.  1.
        -24    2    1    2    0    0 -0.37565688540E+02  0.48076986161E+02  0.12953605071E+02  0.10215417766E+03  0.80901808229E+02 0.  0.
         23    2    1    2    0    0  0.11084443938E+02 -0.46412893298E+02  0.14072207717E+03  0.17635998801E+03  0.94990108988E+02 0.  0.
         11    1    3    3    0    0  0.50680790474E+01  0.48441930933E+02  0.28899265175E+02  0.56634562110E+02  0.00000000000E+00 0. -1.
        -12    1    3    3    0    0 -0.42633767588E+02 -0.36494477225E+00 -0.15945660104E+02  0.45519615547E+02  0.00000000000E+00 0.  1.
        -11    1    4    4    0    0  0.50285471671E+02 -0.11071078491E+02  0.86680853595E+02  0.10082047322E+03  0.00000000000E+00 0.  1.
         11    1    4    4    0    0 -0.39201027733E+02 -0.35341814807E+02  0.54041223574E+02  0.75539514789E+02  0.00000000000E+00 0. -1.
         21    1    1    2  502  501  0.26481244603E+02 -0.16640928627E+01 -0.14028880095E+02  0.30013913398E+02  0.00000000000E+00 0.  1.
<scales pt_clust_5="13000.00000" pt_clust_6="13000.00000" pt_clust_7="13000.00000" pt_clust_8="13000.00000" pt_clust_9="26.53348"></scales>
<clustering>
<clus scale="   26.533">  2  9  1 -1</clus>
<clus scale="   80.902">  5  6 -1 -1</clus>
<clus scale="   94.990">  7  8 -1 -1</clus>
<clus scale="   95.348">  2  5  1 -1</clus>
<clus scale="  107.560">  1  5  2 -1</clus>
</clustering>
</event>
<event>
 9    1  0.2333971E-005  0.1683330E+03  0.7546771E-02  0.1201093E+00
         -4   -1    0    0    0  501 -0.00000000000E+00  0.00000000000E+00  0.23038284285E+03  0.23038284285E+03  0.00000000000E+00 0.  1.
          3   -1    0    0  502    0  0.00000000000E+00 -0.00000000000E+00 -0.29165026285E+03  0.29165026285E+03  0.00000000000E+00 0. -1.
         23    2    1    2    0    0 -0.16204238277E+02  0.11563568024E+03  0.10882074619E+02  0.15034756894E+03  0.94083920283E+02 0.  0.
        -24    2    1    2    0    0  0.56148811616E+02  0.38357655469E+02 -0.15903649166E+03  0.19041538853E+03  0.79633006543E+02 0.  0.
         13    1    4    4    0    0  0.45812638520E+02  0.50718084878E+02 -0.16029137349E+03  0.17425397097E+03  0.00000000000E+00 0. -1.
        -14    1    4    4    0    0  0.10336173096E+02 -0.12360429409E+02  0.12548818264E+01  0.16161417569E+02  0.00000000000E+00 0.  1.
        -13    1    3    3    0    0  0.36715696629E+02  0.25147453831E+02  0.95354409427E+01  0.45512212065E+02  0.00000000000E+00 0. -1.
         13    1    3    3    0    0 -0.52919934906E+02  0.90488226410E+02  0.13466336762E+01  0.10483535688E+03  0.00000000000E+00 0.  1.
         21    1    1    2  502  501 -0.39944573338E+02 -0.15399333571E+03  0.86886997043E+02  0.18127014823E+03  0.00000000000E+00 0.  1.
<scales pt_clust_5="13000.00000" pt_clust_6="13000.00000" pt_clust_7="13000.00000" pt_clust_8="13000.00000" pt_clust_9="139.58591"></scales>
<clustering>
<clus scale="   79.633">  5  6 -1 -1</clus>
<clus scale="   94.084">  7  8 -1 -1</clus>
<clus scale="  104.716">  2  5  1 -1</clus>
<clus scale="  139.586">  1  9  2 -1</clus>
<clus scale="  104.716">  2  5  1 -1</clus>
</clustering>
</event>
<event>
 9    1  0.2333971E-005  0.1267477E+03  0.7546771E-02  0.1236342E+00
          1   -1    0    0  502    0  0.00000000000E+00  0.00000000000E+00  0.31293620343E+03  0.31293620343E+03  0.00000000000E+00 0. -1.
         -2   -1    0    0    0  501 -0.00000000000E+00 -0.00000000000E+00 -0.12118578222E+03  0.12118578222E+03  0.00000000000E+00 0.  1.
        -24    2    1    2    0    0 -0.29394340584E+02 -0.90572485859E+02 -0.42005256838E+02  0.13170636087E+03  0.80713824326E+02 0.  0.
         23    2    1    2    0    0  0.10329791205E+02  0.82182860970E+02  0.24741799252E+03  0.27750575355E+03  0.94514829564E+02 0.  0.
         13    1    3    3    0    0  0.25163092924E+02 -0.46250732725E+02 -0.67963073972E+01  0.53089559401E+02  0.00000000000E+00 0. -1.
        -14    1    3    3    0    0 -0.54557433508E+02 -0.44321753134E+02 -0.35208949440E+02  0.78616801464E+02  0.00000000000E+00 0.  1.
        -13    1    4    4    0    0  0.18811324948E+02  0.36022276259E+02  0.19995959113E+02  0.45291375714E+02  0.00000000000E+00 0.  1.
         13    1    4    4    0    0 -0.84815337430E+01  0.46160584711E+02  0.22742203340E+03  0.23221437783E+03  0.00000000000E+00 0. -1.
         21    1    1    2  502  501  0.19064549379E+02  0.83896248887E+01 -0.13662314469E+02  0.24909871245E+02  0.00000000000E+00 0. -1.
<scales pt_clust_5="13000.00000" pt_clust_6="13000.00000" pt_clust_7="13000.00000" pt_clust_8="13000.00000" pt_clust_9="20.82889"></scales>
<clustering>
<clus scale="   20.829">  2  9  1 -1</clus>
<clus scale="   80.714">  5  6 -1 -1</clus>
<clus scale="   94.515">  7  8 -1 -1</clus>
<clus scale="  116.819">  2  5  1 -1</clus>
<clus scale="  126.748">  1  5  2 -1</clus>
</clustering>
</event>
<event>
 9    1  0.2333971E-005  0.1093061E+03  0.7546771E-02  0.1266321E+00
          1   -1    0    0  502    0  0.00000000000E+00  0.00000000000E+00  0.23284802992E+03  0.23284802992E+03  0.00000000000E+00 0. -1.
         -2   -1    0    0    0  501 -0.00000000000E+00 -0.00000000000E+00 -0.15147344928E+03  0.15147344928E+03  0.00000000000E+00 0.  1.
        -24    2    1    2    0    0  0.68461436365E+02  0.61963494568E+01 -0.97217463113E+02  0.14336705105E+03  0.79859333694E+02 0.  0.
         23    2    1    2    0    0 -0.51978323626E+02 -0.30331488276E+02  0.18129188352E+03  0.21160332824E+03  0.91035576462E+02 0.  0.
         13    1    3    3    0    0  0.49297646455E+02  0.41282780953E+02 -0.49701235806E+02  0.81269544049E+02  0.00000000000E+00 0. -1.
        -14    1    3    3    0    0  0.19163789910E+02 -0.35086431496E+02 -0.47516227307E+02  0.62097507006E+02  0.00000000000E+00 0.  1.
        -11    1    4    4    0    0 -0.33325759549E+02  0.20303088150E+02  0.13493485680E+03  0.14046436280E+03  0.00000000000E+00 0. -1.
         11    1    4    4    0    0 -0.18652564077E+02 -0.50634576426E+02  0.46357026722E+02  0.71138965434E+02  0.00000000000E+00 0.  1.
         21    1    1    2  502  501 -0.16483112739E+02  0.24135138819E+02 -0.26998397660E+01  0.29351099914E+02  0.00000000000E+00 0.  1.
<scales pt_clust_5="13000.00000" pt_clust_6="13000.00000" pt_clust_7="13000.00000" pt_clust_8="13000.00000" pt_clust_9="29.22666"></scales>
<clustering>
<clus scale="   29.227">  2  9  1 -1</clus>
<clus scale="   79.859">  5  6 -1 -1</clus>
<clus scale="   91.036">  7  8 -1 -1</clus>
<clus scale="  100.189">  2  5  1 -1</clus>
<clus scale="  109.306">  1  5  2 -1</clus>
</clustering>
</event>
<event>
 9    1  0.2333971E-005  0.1432971E+03  0.7546771E-02  0.1210158E+00
         -2   -1    0    0    0  501 -0.00000000000E+00  0.00000000000E+00  0.53510711929E+03  0.53510711929E+03  0.00000000000E+00 0.  1.
          1   -1    0    0  502    0  0.00000000000E+00 -0.00000000000E+00 -0.15930996855E+03  0.15930996855E+03  0.00000000000E+00 0. -1.
         23    2    1    2    0    0 -0.33329932053E+02  0.94535657290E+02  0.42223974034E+03  0.44334086572E+03  0.90646842335E+02 0.  0.
        -24    2    1    2    0    0  0.64251760561E+02 -0.85707269063E+02 -0.10912846474E+03  0.18062326718E+03  0.96133855247E+02 0.  0.
         13    1    4    4    0    0  0.46564757243E+02 -0.86108693536E+02 -0.12366803026E+03  0.15772369964E+03  0.00000000000E+00 0. -1.
        -14    1    4    4    0    0  0.17687003318E+02  0.40142447304E+00  0.14539565520E+02  0.22899567540E+02  0.00000000000E+00 0.  1.
        -13    1    3    3    0    0 -0.53791851101E+02  0.82356641836E+02  0.39543769201E+03  0.40748883170E+03  0.00000000000E+00 0.  1.
         13    1    3    3    0    0  0.20461919048E+02  0.12179015454E+02  0.26802048327E+02  0.35852034016E+02  0.00000000000E+00 0. -1.
         21    1    1    2  502  501 -0.30921828508E+02 -0.88283882262E+01  0.62685875148E+02  0.70452954941E+02  0.00000000000E+00 0. -1.
<scales pt_clust_5="13000.00000" pt_clust_6="13000.00000" pt_clust_7="13000.00000" pt_clust_8="13000.00000" pt_clust_9="32.15742"></scales>
<clustering>
<clus scale="   32.157">  1  9  2 -1</clus>
<clus scale="   90.647">  7  8 -1 -1</clus>
<clus scale="   96.134">  5  6 -1 -1</clus>
<clus scale="  139.675">  1  7  2 -1</clus>
<clus scale="  143.297">  2  5  1 -1</clus>
</clustering>
</event>
<event>
 9    1  0.2333971E-005  0.9164751E+02  0.7546771E-02  0.1305915E+00
          3   -1    0    0  502    0  0.00000000000E+00  0.00000000000E+00  0.27494735182E+03  0.27494735182E+03  0.00000000000E+00 0. -1.
         -4   -1    0    0    0  501 -0.00000000000E+00 -0.00000000000E+00 -0.70493586596E+02  0.70493586596E+02  0.00000000000E+00 0.  1.
         23    2    1    2    0    0 -0.73905198097E+00 -0.21011924144E+02  0.24620702878E+01  0.94002240220E+02  0.91587729649E+02 0.  0.
        -24    2    1    2    0    0  0.31682381604E+00  0.44350605282E+00  0.21327982215E+03  0.22797255417E+03  0.80516494230E+02 0.  0.
         13    1    4    4    0    0  0.38755187476E+02 -0.79605956741E+00  0.74745313115E+02  0.84198931702E+02  0.00000000000E+00 0. -1.
        -14    1    4    4    0    0 -0.38438363660E+02  0.12395656202E+01  0.13853450903E+03  0.14377362247E+03  0.00000000000E+00 0.  1.
        -13    1    3    3    0    0  0.31275789204E+02 -0.40407749190E+01  0.33705097656E+02  0.46157734566E+02  0.00000000000E+00 0. -1.
         13    1    3    3    0    0 -0.32014841185E+02 -0.16971149225E+02 -0.31243027369E+02  0.47844505654E+02  0.00000000000E+00 0.  1.
         21    1    1    2  502  501  0.42222816493E+00  0.20568418091E+02 -0.11288127214E+02  0.23466144025E+02  0.00000000000E+00 0.  1.
<scales pt_clust_5="13000.00000" pt_clust_6="13000.00000" pt_clust_7="13000.00000" pt_clust_8="13000.00000" pt_clust_9="20.57275"></scales>
<clustering>
<clus scale="   20.573">  2  9  1 -1</clus>
<clus scale="   80.516">  5  6 -1 -1</clus>
<clus scale="   80.584">  1  5  2 -1</clus>
<clus scale="   91.588">  7  8 -1 -1</clus>
<clus scale="   80.584">  1  5  2 -1</clus>
</clustering>
</event>
<event>
 9    1  0.2333971E-005  0.1256232E+03  0.7546771E-02  0.1237186E+00
          1   -1    0    0  502    0  0.00000000000E+00  0.00000000000E+00  0.49837804354E+02  0.49837804354E+02  0.00000000000E+00 0. -1.
         -2   -1    0    0    0  501 -0.00000000000E+00 -0.00000000000E+00 -0.54446890442E+03  0.54446890442E+03  0.00000000000E+00 0.  1.
        -24    2    1    2    0    0 -0.10117705913E+02  0.69130164813E+02 -0.19897210759E+03  0.22511780630E+03  0.78783116575E+02 0.  0.
         23    2    1    2    0    0 -0.30175015160E+02 -0.97983323697E+02 -0.10471372011E+03  0.17191724919E+03  0.89885005016E+02 0.  0.
         11    1    3    3    0    0  0.33813336871E+02  0.20635066151E+02 -0.82706775965E+02  0.91703644944E+02  0.00000000000E+00 0. -1.
        -12    1    3    3    0    0 -0.43931042783E+02  0.48495098661E+02 -0.11626533162E+03  0.13341416136E+03  0.00000000000E+00 0.  1.
        -13    1    4    4    0    0 -0.53989838851E+00 -0.21585778215E+02  0.15394506184E+02  0.26518448900E+02  0.00000000000E+00 0. -1.
         13    1    4    4    0    0 -0.29635116771E+02 -0.76397545482E+02 -0.12010822630E+03  0.14539880029E+03  0.00000000000E+00 0.  1.
         21    1    1    2  502  501  0.40292721072E+02  0.28853158885E+02 -0.19094527237E+03  0.19727165328E+03  0.00000000000E+00 0.  1.
<scales pt_clust_5="13000.00000" pt_clust_6="13000.00000" pt_clust_7="13000.00000" pt_clust_8="13000.00000" pt_clust_9="49.55813"></scales>
<clustering>
<clus scale="   49.558">  2  9  1 -1</clus>
<clus scale="   78.783">  5  6 -1 -1</clus>
<clus scale="   89.885">  7  8 -1 -1</clus>
<clus scale="  117.935">  2  5  1 -1</clus>
<clus scale="  125.623">  1  5  2 -1</clus>
</clustering>
</event>
<event>
 9    1  0.2333971E-005  0.1371917E+03  0.7546771E-02  0.1219735E+00
          1   -1    0    0  502    0  0.00000000000E+00  0.00000000000E+00  0.10343797781E+03  0.10343797781E+03  0.00000000000E+00 0. -1.
         -2   -1    0    0    0  501 -0.00000000000E+00 -0.00000000000E+00 -0.62592728594E+03  0.62592728594E+03  0.00000000000E+00 0.  1.
        -24    2    1    2    0    0  0.38532802253E+02 -0.95152693600E+02 -0.41380848130E+03  0.43376468019E+03  0.79846894990E+02 0.  0.
         23    2    1    2    0    0 -0.65382913269E+02  0.79608480489E+02  0.40365613886E+02  0.14335935224E+03  0.91159670777E+02 0.  0.
         11    1    3    3    0    0  0.11436223711E+02 -0.59768483673E+02 -0.10189269652E+03  0.11868100293E+03  0.00000000000E+00 0. -1.
        -12    1    3    3    0    0  0.27096578542E+02 -0.35384209926E+02 -0.31191578478E+03  0.31508367726E+03  0.00000000000E+00 0.  1.
        -11    1    4    4    0    0  0.73330654672E+01  0.54850470511E+02 -0.24968673701E+01  0.55394785956E+02  0.00000000000E+00 0. -1.
         11    1    4    4    0    0 -0.72715978736E+02  0.24758009978E+02  0.42862481256E+02  0.87964566281E+02  0.00000000000E+00 0.  1.
         21    1    1    2  502  501  0.26850111016E+02  0.15544213111E+02 -0.14904644071E+03  0.15224123131E+03  0.00000000000E+00 0. -1.
<scales pt_clust_5="13000.00000" pt_clust_6="13000.00000" pt_clust_7="13000.00000" pt_clust_8="13000.00000" pt_clust_9="31.02501"></scales>
<clustering>
<clus scale="   31.025">  2  9  1 -1</clus>
<clus scale="   79.847">  5  6 -1 -1</clus>
<clus scale="   91.160">  7  8 -1 -1</clus>
<clus scale="  129.950">  2  5  1 -1</clus>
<clus scale="  137.192">  1  5  2 -1</clus>
</clustering>
</event>
<event>
 9    1  0.2333971E-005  0.9979147E+02  0.7546771E-02  0.1282926E+00
         -2   -1    0    0    0  501 -0.00000000000E+00  0.00000000000E+00  0.32724885517E+03  0.32724885517E+03  0.00000000000E+00 0.  1.
          1   -1    0    0  502    0  0.00000000000E+00 -0.00000000000E+00 -0.42783564076E+02  0.42783564076E+02  0.00000000000E+00 0. -1.
        -24    2    1    2    0    0  0.12910298165E+02  0.55510573604E+02  0.20956723545E+03  0.23172232998E+03  0.80800448376E+02 0.  0.
         23    2    1    2    0    0  0.21353095792E+01 -0.39460064309E+02  0.61619073107E+02  0.11261338640E+03  0.85575746580E+02 0.  0.
         11    1    3    3    0    0 -0.26100480612E+02  0.42959551370E+02  0.69431170679E+02  0.85717242163E+02  0.00000000000E+00 0. -1.
        -12    1    3    3    0    0  0.39010778777E+02  0.12551022234E+02  0.14013606477E+03  0.14600508782E+03  0.00000000000E+00 0.  1.
        -11    1    4    4    0    0 -0.45436839746E+01  0.26829698203E+02  0.22821684190E+02  0.35514884753E+02  0.00000000000E+00 0.  1.
         11    1    4    4    0    0  0.66789935537E+01 -0.66289762512E+02  0.38797388918E+02  0.77098501644E+02  0.00000000000E+00 0. -1.
         21    1    1    2  502  501 -0.15045607744E+02 -0.16050509295E+02  0.13278982536E+02  0.25696702866E+02  0.00000000000E+00 0. -1.
<scales pt_clust_5="13000.00000" pt_clust_6="13000.00000" pt_clust_7="13000.00000" pt_clust_8="13000.00000" pt_clust_9="21.99975"></scales>
<clustering>
<clus scale="   22.000">  2  9  1 -1</clus>
<clus scale="   80.800">  5  6 -1 -1</clus>
<clus scale="   85.576">  7  8 -1 -1</clus>
<clus scale="   95.728">  1  5  2 -1</clus>
<clus scale="   22.000">  2  5  1 -1</clus>
</clustering>
</event>
<event>
 9    1  0.2333971E-005  0.1230567E+03  0.7546771E-02  0.1241490E+00
         -2   -1    0    0    0  501 -0.00000000000E+00  0.00000000000E+00  0.18374741041E+03  0.18374741041E+03  0.00000000000E+00 0.  1.
          1   -1    0    0  502    0  0.00000000000E+00 -0.00000000000E+00 -0.27217498041E+03  0.27217498041E+03  0.00000000000E+00 0. -1.
         23    2    1    2    0    0 -0.28223447664E+02 -0.38327666060E+02  0.81329855589E+02  0.13118899282E+03  0.91271208184E+02 0.  0.
        -24    2    1    2    0    0  0.37353863197E+02  0.79079954618E+02 -0.22569223752E+03  0.25492783449E+03  0.80014151245E+02 0.  0.
         11    1    4    4    0    0  0.44856982701E+02  0.92702877126E+02 -0.19607631634E+03  0.22147662214E+03  0.00000000000E+00 0. -1.
        -12    1    4    4    0    0 -0.75031195040E+01 -0.13622922509E+02 -0.29615921185E+02  0.33451212349E+02  0.00000000000E+00 0.  1.
        -13    1    3    3    0    0  0.12194119130E+02  0.19271843677E+02 -0.10727356245E+01  0.22830927748E+02  0.00000000000E+00 0. -1.
         13    1    3    3    0    0 -0.40417566795E+02 -0.57599509738E+02  0.82402591213E+02  0.10835806507E+03  0.00000000000E+00 0.  1.
         21    1    1    2  502  501 -0.91304155327E+01 -0.40752288557E+02  0.55934811936E+02  0.69805563509E+02  0.00000000000E+00 0.  1.
<scales pt_clust_5="13000.00000" pt_clust_6="13000.00000" pt_clust_7="13000.00000" pt_clust_8="13000.00000" pt_clust_9="41.76259"></scales>
<clustering>
<clus scale="   41.763">  1  9  2 -1</clus>
<clus scale="   80.014">  5  6 -1 -1</clus>
<clus scale="   91.271">  7  8 -1 -1</clus>
<clus scale="  114.956">  2  5  1 -1</clus>
<clus scale="  114.956">  2  5  1 -1</clus>
</clustering>
</event>
<event>
 9    1  0.2333971E-005  0.1129292E+03  0.7546771E-02  0.1259077E+00
          1   -1    0    0  502    0  0.00000000000E+00  0.00000000000E+00  0.30713656838E+02  0.30713656838E+02  0.00000000000E+00 0. -1.
         -2   -1    0    0    0  501 -0.00000000000E+00 -0.00000000000E+00 -0.65038620535E+03  0.65038620535E+03  0.00000000000E+00 0.  1.
        -24    2    1    2    0    0  0.56557896348E+02 -0.47607252931E+02 -0.30393943021E+03  0.32321859390E+03  0.81399238562E+02 0.  0.
         23    2    1    2    0    0 -0.50537851949E+01  0.66131326847E+02 -0.19896092508E+03  0.22891786304E+03  0.91755355038E+02 0.  0.
         11    1    3    3    0    0 -0.12035401511E+02 -0.35636835635E+02 -0.14296043803E+03  0.14782598481E+03  0.00000000000E+00 0. -1.
        -12    1    3    3    0    0  0.68593297859E+02 -0.11970417296E+02 -0.16097899218E+03  0.17539260909E+03  0.00000000000E+00 0.  1.
        -13    1    4    4    0    0  0.39676488202E+02  0.53675040988E+02 -0.11446548275E+03  0.13250502060E+03  0.00000000000E+00 0.  1.
         13    1    4    4    0    0 -0.44730273397E+02  0.12456285859E+02 -0.84495442323E+02  0.96412842448E+02  0.00000000000E+00 0. -1.
         21    1    1    2  502  501 -0.51504111153E+02 -0.18524073916E+02 -0.11677219322E+03  0.12896340524E+03  0.00000000000E+00 0. -1.
<scales pt_clust_5="13000.00000" pt_clust_6="13000.00000" pt_clust_7="13000.00000" pt_clust_8="13000.00000" pt_clust_9="54.73404"></scales>
<clustering>
<clus scale="   54.734">  1  9  2 -1</clus>
<clus scale="   81.399">  5  6 -1 -1</clus>
<clus scale="   91.755">  7  8 -1 -1</clus>
<clus scale="  104.689">  2  5  1 -1</clus>
<clus scale="   54.734">  1  5  2 -1</clus>
</clustering>
</event>
<event>
 9    1  0.2333971E-005  0.1198925E+03  0.7546771E-02  0.1249263E+00
          1   -1    0    0  502    0  0.00000000000E+00  0.00000000000E+00  0.37452494455E+03  0.37452494455E+03  0.00000000000E+00 0. -1.
         -2   -1    0    0    0  501 -0.00000000000E+00 -0.00000000000E+00 -0.81390418607E+02  0.81390418607E+02  0.00000000000E+00 0.  1.
         23    2    1    2    0    0  0.68619465225E+01 -0.86679039243E+02  0.74447240594E+02  0.14662529502E+03  0.91631017415E+02 0.  0.
        -24    2    1    2    0    0 -0.50948155456E+02  0.59391447448E+02  0.23224584702E+03  0.25569864086E+03  0.72942462987E+02 0.  0.
         13    1    4    4    0    0 -0.54285705225E+02  0.10464130783E+02  0.15096013385E+03  0.16076503922E+03  0.00000000000E+00 0. -1.
        -14    1    4    4    0    0  0.33375497684E+01  0.48927316665E+02  0.81285713171E+02  0.94933601639E+02  0.00000000000E+00 0.  1.
        -11    1    3    3    0    0 -0.18136210641E+02 -0.96311962502E+02  0.67335502220E+02  0.11890746872E+03  0.00000000000E+00 0.  1.
         11    1    3    3    0    0  0.24998157163E+02  0.96329232595E+01  0.71117383740E+01  0.27717826300E+02  0.00000000000E+00 0. -1.
         21    1    1    2  502  501  0.44086208934E+02  0.27287591795E+02 -0.13558561664E+02  0.53591427286E+02  0.00000000000E+00 0.  1.
<scales pt_clust_5="13000.00000" pt_clust_6="13000.00000" pt_clust_7="13000.00000" pt_clust_8="13000.00000" pt_clust_9="51.84792"></scales>
<clustering>
<clus scale="   51.848">  2  9  1 -1</clus>
<clus scale="   72.942">  5  6 -1 -1</clus>
<clus scale="   91.631">  7  8 -1 -1</clus>
<clus scale="  106.295">  1  5  2 -1</clus>
<clus scale="  106.295">  1  5  2 -1</clus>
</clustering>
</event>
<event>
 9    1  0.2333971E-005  0.1363469E+03  0.7546771E-02  0.1220620E+00
         -2   -1    0    0    0  501 -0.00000000000E+00  0.00000000000E+00  0.75344476823E+02  0.75344476823E+02  0.00000000000E+00 0.  1.
          1   -1    0    0  502    0  0.00000000000E+00 -0.00000000000E+00 -0.73932745854E+03  0.73932745854E+03  0.00000000000E+00 0. -1.
        -24    2    1    2    0    0  0.14047251648E+03 -0.20426412317E+02 -0.99550993275E+02  0.19164820845E+03  0.81663145496E+02 0.  0.
         23    2    1    2    0    0 -0.87972065371E+02  0.35113266531E+02 -0.55148191158E+03  0.56699065147E+03  0.91509968213E+02 0.  0.
         11    1    3    3    0    0  0.12496969002E+03 -0.24273581500E+02 -0.11341462891E+03  0.17049782472E+03  0.00000000000E+00 0. -1.
        -12    1    3    3    0    0  0.15502826457E+02  0.38471691826E+01  0.13863635633E+02  0.21150383728E+02  0.00000000000E+00 0.  1.
        -11    1    4    4    0    0 -0.10629632279E+03  0.24471011293E+02 -0.48884369180E+03  0.50086514517E+03  0.00000000000E+00 0. -1.
         11    1    4    4    0    0  0.18324257417E+02  0.10642255238E+02 -0.62638219773E+02  0.66125506295E+02  0.00000000000E+00 0.  1.
         21    1    1    2  502  501 -0.52500451108E+02 -0.14686854214E+02 -0.12950076861E+02  0.56033075447E+02  0.00000000000E+00 0. -1.
<scales pt_clust_5="13000.00000" pt_clust_6="13000.00000" pt_clust_7="13000.00000" pt_clust_8="13000.00000" pt_clust_9="54.51606"></scales>
<clustering>
<clus scale="   54.516">  1  9  2 -1</clus>
<clus scale="   81.663">  5  6 -1 -1</clus>
<clus scale="   91.510">  7  8 -1 -1</clus>
<clus scale="  129.943">  1  5  2 -1</clus>
<clus scale="  136.347">  2  5  1 -1</clus>
</clustering>
</event>
<event>
 9    1  0.2333971E-005  0.1564552E+03  0.7546771E-02  0.1194744E+00
          1   -1    0    0  502    0  0.00000000000E+00  0.00000000000E+00  0.11234545019E+04  0.11234545019E+04  0.00000000000E+00 0. -1.
         -2   -1    0    0    0  501 -0.00000000000E+00 -0.00000000000E+00 -0.30800464536E+02  0.30800464536E+02  0.00000000000E+00 0.  1.
         23    2    1    2    0    0 -0.71159571797E+02  0.12124530560E+03  0.35626859171E+03  0.39384527109E+03  0.91775156426E+02 0.  0.
        -24    2    1    2    0    0  0.19792992347E+02 -0.10852747110E+03  0.55468177052E+03  0.57115723338E+03  0.79867040609E+02 0.  0.
         13    1    4    4    0    0 -0.11192325921E+02 -0.96738265682E+02  0.33087687026E+03  0.34491022525E+03  0.00000000000E+00 0. -1.
        -14    1    4    4    0    0  0.30985318268E+02 -0.11789205413E+02  0.22380490025E+03  0.22624700814E+03  0.00000000000E+00 0.  1.
        -13    1    3    3    0    0 -0.37950714058E+02  0.96593330826E+02  0.32727585674E+03  0.34333659091E+03  0.00000000000E+00 0. -1.
         13    1    3    3    0    0 -0.33208857739E+02  0.24651974772E+02  0.28992734975E+02  0.50508680183E+02  0.00000000000E+00 0.  1.
         21    1    1    2  502  501  0.51366579450E+02 -0.12717834502E+02  0.18170367518E+03  0.18925246200E+03  0.00000000000E+00 0.  1.
<scales pt_clust_5="13000.00000" pt_clust_6="13000.00000" pt_clust_7="13000.00000" pt_clust_8="13000.00000" pt_clust_9="52.91757"></scales>
<clustering>
<clus scale="   52.918">  1  9  2 -1</clus>
<clus scale="   79.867">  5  6 -1 -1</clus>
<clus scale="   91.775">  7  8 -1 -1</clus>
<clus scale="  149.781">  1  5  2 -1</clus>
<clus scale="   52.918">  1  5  2 -1</clus>
</clustering>
</event>
<event>
 9    1  0.2333971E-005  0.9668504E+02  0.7546771E-02  0.1288731E+00
          1   -1    0    0  502    0  0.00000000000E+00  0.00000000000E+00  0.36638965931E+03  0.36638965931E+03  0.00000000000E+00 0. -1.
         -2   -1    0    0    0  501 -0.00000000000E+00 -0.00000000000E+00 -0.78857003546E+02  0.78857003546E+02  0.00000000000E+00 0.  1.
         23    2    1    2    0    0  0.54378051879E+02  0.35109307879E+02  0.46470059555E+02  0.12187171733E+03  0.92215036860E+02 0.  0.
        -24    2    1    2    0    0 -0.15140707221E+02 -0.15601508072E+02  0.25979396447E+03  0.27572006513E+03  0.89755235326E+02 0.  0.
         11    1    4    4    0    0 -0.42256146822E+02 -0.26370876358E+02  0.85090506218E+02  0.98597156716E+02  0.00000000000E+00 0. -1.
        -12    1    4    4    0    0  0.27115439600E+02  0.10769368286E+02  0.17470345825E+03  0.17712290841E+03  0.00000000000E+00 0.  1.
        -13    1    3    3    0    0 -0.10341122892E+02  0.45515432580E+02  0.24652548649E+02  0.52785808514E+02  0.00000000000E+00 0.  1.
         13    1    3    3    0    0  0.64719174771E+02 -0.10406124701E+02  0.21817510906E+02  0.69085908813E+02  0.00000000000E+00 0. -1.
         21    1    1    2  502  501 -0.39237344658E+02 -0.19507799807E+02 -0.18731368262E+02  0.47654880402E+02  0.00000000000E+00 0. -1.
<scales pt_clust_5="13000.00000" pt_clust_6="13000.00000" pt_clust_7="13000.00000" pt_clust_8="13000.00000" pt_clust_9="43.81921"></scales>
<clustering>
<clus scale="   43.819">  2  9  1 -1</clus>
<clus scale="   89.755">  5  6 -1 -1</clus>
<clus scale="   92.215">  7  8 -1 -1</clus>
<clus scale="   94.342">  1  5  2 -1</clus>
<clus scale="   94.342">  1  5  2 -1</clus>
</clustering>
</event>
<event>
 9    1  0.2333971E-005  0.1015025E+03  0.7546771E-02  0.1290947E+00
         -2   -1    0    0    0  501 -0.00000000000E+00  0.00000000000E+00  0.36062753237E+03  0.36062753237E+03  0.00000000000E+00 0.  1.
          1   -1    0    0  502    0  0.00000000000E+00 -0.00000000000E+00 -0.53618729997E+02  0.53618729997E+02  0.00000000000E+00 0. -1.
        -24    2    1    2    0    0 -0.49743407128E+02  0.25527501167E+01  0.17908548505E+03  0.19687856552E+03  0.64873997261E+02 0.  0.
         23    2    1    2    0    0  0.39658425522E+02  0.16386182530E+02  0.14816553486E+02  0.10224371998E+03  0.91613046697E+02 0.  0.
         13    1    3    3    0    0 -0.64308080170E+02 -0.63874350933E+01  0.13809338171E+03  0.15246675235E+03  0.00000000000E+00 0. -1.
        -14    1    3    3    0    0  0.14564673041E+02  0.89401852100E+01  0.40992103340E+02  0.44411813166E+02  0.00000000000E+00 0.  1.
        -13    1    4    4    0    0  0.43434260044E+02  0.50632738605E+02  0.96189922293E+01  0.67399808425E+02  0.00000000000E+00 0. -1.
         13    1    4    4    0    0 -0.37758345223E+01 -0.34246556075E+02  0.51975612564E+01  0.34843911554E+02  0.00000000000E+00 0.  1.
         21    1    1    2  502  501  0.10084981607E+02 -0.18938932647E+02  0.11310676384E+03  0.11512397687E+03  0.00000000000E+00 0.  1.
<scales pt_clust_5="13000.00000" pt_clust_6="13000.00000" pt_clust_7="13000.00000" pt_clust_8="13000.00000" pt_clust_9="21.45670"></scales>
<clustering>
<clus scale="   21.457">  1  9  2 -1</clus>
<clus scale="   64.874">  5  6 -1 -1</clus>
<clus scale="   78.220">  1  5  2 -1</clus>
<clus scale="   91.613">  7  8 -1 -1</clus>
<clus scale="  101.503">  2  5  1 -1</clus>
</clustering>
</event>
<event>
 9    1  0.2333971E-005  0.8936716E+02  0.7546771E-02  0.1309731E+00
         -2   -1    0    0    0  501 -0.00000000000E+00  0.00000000000E+00  0.63330550264E+02  0.63330550264E+02  0.00000000000E+00 0.  1.
          1   -1    0    0  502    0  0.00000000000E+00 -0.00000000000E+00 -0.43086549279E+03  0.43086549279E+03  0.00000000000E+00 0. -1.
         23    2    1    2    0    0 -0.54123183431E+01 -0.23940374291E+02 -0.35116116068E+02  0.97530888290E+02  0.87616766957E+02 0.  0.
        -24    2    1    2    0    0 -0.20004204978E+02 -0.10593801185E+02 -0.34280211373E+03  0.35254688658E+03  0.79143042765E+02 0.  0.
         13    1    4    4    0    0  0.12330770270E+02 -0.23524604840E+02 -0.41718121763E+02  0.49455602430E+02  0.00000000000E+00 0. -1.
        -14    1    4    4    0    0 -0.32334975249E+02  0.12930803655E+02 -0.30108399197E+03  0.30309128415E+03  0.00000000000E+00 0.  1.
        -13    1    3    3    0    0 -0.32038525678E+02 -0.46115052547E+02 -0.18663295951E+02  0.59172492044E+02  0.00000000000E+00 0. -1.
         13    1    3    3    0    0  0.26626207335E+02  0.22174678255E+02 -0.16452820118E+02  0.38358396246E+02  0.00000000000E+00 0.  1.
         21    1    1    2  502  501  0.25416523321E+02  0.34534175477E+02  0.10383287268E+02  0.44118268190E+02  0.00000000000E+00 0.  1.
<scales pt_clust_5="13000.00000" pt_clust_6="13000.00000" pt_clust_7="13000.00000" pt_clust_8="13000.00000" pt_clust_9="42.87900"></scales>
<clustering>
<clus scale="   42.879">  1  9  2 -1</clus>
<clus scale="   79.143">  5  6 -1 -1</clus>
<clus scale="   81.077">  2  5  1 -1</clus>
<clus scale="   87.617">  7  8 -1 -1</clus>
<clus scale="   81.077">  2  5  1 -1</clus>
</clustering>
</event>
<event>
 9    1  0.2333971E-005  0.8611616E+02  0.7546771E-02  0.1314586E+00
         -2   -1    0    0    0  501 -0.00000000000E+00  0.00000000000E+00  0.97275437338E+02  0.97275437338E+02  0.00000000000E+00 0.  1.
          1   -1    0    0  502    0  0.00000000000E+00 -0.00000000000E+00 -0.43362651636E+03  0.43362651636E+03  0.00000000000E+00 0. -1.
        -24    2    1    2    0    0 -0.33104237565E+02  0.31899158564E+01  0.54326858284E+02  0.10252312035E+03  0.80333782225E+02 0.  0.
         23    2    1    2    0    0  0.53635642402E+00 -0.21781607685E+02 -0.37956883399E+03  0.38926706961E+03  0.83556122650E+02 0.  0.
         13    1    3    3    0    0 -0.60703487823E+01 -0.36112246494E+02  0.36204037531E+02  0.51494425084E+02  0.00000000000E+00 0. -1.
        -14    1    3    3    0    0 -0.27033888782E+02  0.39302162350E+02  0.18122820753E+02  0.51028695262E+02  0.00000000000E+00 0.  1.
        -11    1    4    4    0    0  0.37073912766E+02 -0.31354059508E+02 -0.20884632028E+03  0.21441627166E+03  0.00000000000E+00 0.  1.
         11    1    4    4    0    0 -0.36537556342E+02  0.95724518232E+01 -0.17072251371E+03  0.17485079795E+03  0.00000000000E+00 0. -1.
         21    1    1    2  502  501  0.32567881141E+02  0.18591691828E+02 -0.11109103321E+02  0.39111763750E+02  0.00000000000E+00 0.  1.
<scales pt_clust_5="13000.00000" pt_clust_6="13000.00000" pt_clust_7="13000.00000" pt_clust_8="13000.00000" pt_clust_9="37.50091"></scales>
<clustering>
<clus scale="   37.501">  1  9  2 -1</clus>
<clus scale="   80.334">  5  6 -1 -1</clus>
<clus scale="   82.993">  1  5  2 -1</clus>
<clus scale="   83.556">  7  8 -1 -1</clus>
<clus scale="   86.116">  2  5  1 -1</clus>
</clustering>
</event>
<event>
 9    1  0.2333971E-005  0.1063482E+03  0.7546771E-02  0.1277091E+00
         -2   -1    0    0    0  501 -0.00000000000E+00  0.00000000000E+00  0.19257429281E+02  0.19257429281E+02  0.00000000000E+00 0.  1.
          1   -1    0    0  502    0  0.00000000000E+00 -0.00000000000E+00 -0.75145024168E+03  0.75145024168E+03  0.00000000000E+00 0. -1.
        -24    2    1    2    0    0  0.15530372959E+02 -0.32331354285E+02 -0.15530981852E+03  0.17958997334E+03  0.82733970285E+02 0.  0.
         23    2    1    2    0    0  0.54282786601E+01  0.20414225500E+02 -0.49379644763E+03  0.50460378427E+03  0.10170467344E+03 0.  0.
         13    1    3    3    0    0  0.53386680457E+01  0.27516534316E+02 -0.35087772554E+02  0.44908939200E+02  0.00000000000E+00 0. -1.
        -14    1    3    3    0    0  0.10191704913E+02 -0.59847888601E+02 -0.12022204597E+03  0.13468103414E+03  0.00000000000E+00 0.  1.
        -13    1    4    4    0    0 -0.25922013882E+02  0.52753144429E+02 -0.28779623091E+03  0.29373715389E+03  0.00000000000E+00 0.  1.
         13    1    4    4    0    0  0.31350292542E+02 -0.32338918929E+02 -0.20600021672E+03  0.21086663038E+03  0.00000000000E+00 0. -1.
         21    1    1    2  502  501 -0.20958651619E+02  0.11917128785E+02 -0.83086546247E+02  0.86513913352E+02  0.00000000000E+00 0.  1.
<scales pt_clust_5="13000.00000" pt_clust_6="13000.00000" pt_clust_7="13000.00000" pt_clust_8="13000.00000" pt_clust_9="24.10981"></scales>
<clustering>
<clus scale="   24.110">  2  9  1 -1</clus>
<clus scale="   82.734">  5  6 -1 -1</clus>
<clus scale="   88.380">  1  5  2 -1</clus>
<clus scale="  101.705">  7  8 -1 -1</clus>
<clus scale="   24.110">  2  5  1 -1</clus>
</clustering>
</event>
<event>
 9    1  0.2333971E-005  0.1152080E+03  0.7546771E-02  0.1254729E+00
          1   -1    0    0  502    0  0.00000000000E+00  0.00000000000E+00  0.43776108427E+03  0.43776108427E+03  0.00000000000E+00 0. -1.
         -2   -1    0    0    0  501 -0.00000000000E+00 -0.00000000000E+00 -0.16518759745E+03  0.16518759745E+03  0.00000000000E+00 0.  1.
        -24    2    1    2    0    0  0.28809545268E+02  0.45865336352E+02 -0.12325541034E+03  0.15648300354E+03  0.79758480680E+02 0.  0.
         23    2    1    2    0    0 -0.69727620698E+02 -0.24199449977E+02  0.38018911499E+03  0.39759541815E+03  0.89948868305E+02 0.  0.
         13    1    3    3    0    0 -0.26064420313E+02  0.24424614259E+02 -0.61587774491E+02  0.71196697639E+02  0.00000000000E+00 0. -1.
        -14    1    3    3    0    0  0.54873965581E+02  0.21440722093E+02 -0.61667635852E+02  0.85286305900E+02  0.00000000000E+00 0.  1.
        -11    1    4    4    0    0 -0.64208400486E+01  0.27430334802E+02  0.49398478940E+02  0.56867039450E+02  0.00000000000E+00 0.  1.
         11    1    4    4    0    0 -0.63306780649E+02 -0.51629784779E+02  0.33079063605E+03  0.34072837870E+03  0.00000000000E+00 0. -1.
         21    1    1    2  502  501  0.40918075430E+02 -0.21665886375E+02  0.15639782171E+02  0.48870260033E+02  0.00000000000E+00 0.  1.
<scales pt_clust_5="13000.00000" pt_clust_6="13000.00000" pt_clust_7="13000.00000" pt_clust_8="13000.00000" pt_clust_9="46.30010"></scales>
<clustering>
<clus scale="   46.300">  2  9  1 -1</clus>
<clus scale="   79.758">  5  6 -1 -1</clus>
<clus scale="   89.949">  7  8 -1 -1</clus>
<clus scale="  107.441">  2  5  1 -1</clus>
<clus scale="  115.208">  1  5  2 -1</clus>
</clustering>
</event>
<event>
 9    1  0.2333971E-005  0.9153570E+02  0.7546771E-02  0.1304197E+00
         -2   -1    0    0    0  501 -0.00000000000E+00  0.00000000000E+00  0.36811033594E+03  0.36811033594E+03  0.00000000000E+00 0.  1.
          1   -1    0    0  502    0  0.00000000000E+00 -0.00000000000E+00 -0.37713211576E+02  0.37713211576E+02  0.00000000000E+00 0. -1.
        -24    2    1    2    0    0  0.25182889631E+02  0.43459593017E+01  0.11624775217E+03  0.14420069844E+03  0.81407839011E+02 0.  0.
         23    2    1    2    0    0  0.29384548763E+01 -0.24762866078E+02  0.79003519157E+02  0.12208051969E+03  0.89667514711E+02 0.  0.
         13    1    3    3    0    0  0.47943450924E+02  0.43926160566E+01  0.34201723509E+02  0.59056138151E+02  0.00000000000E+00 0. -1.
        -14    1    3    3    0    0 -0.22760561292E+02 -0.46656754950E-01  0.82046028661E+02  0.85144560285E+02  0.00000000000E+00 0.  1.
        -13    1    4    4    0    0  0.32877938931E+02  0.39680213106E+01  0.72990831746E+02  0.80152140211E+02  0.00000000000E+00 0.  1.
         13    1    4    4    0    0 -0.29939484055E+02 -0.28730887388E+02  0.60126874113E+01  0.41928379476E+02  0.00000000000E+00 0. -1.
         21    1    1    2  502  501 -0.28121344507E+02  0.20416906776E+02  0.13514585304E+03  0.13954232939E+03  0.00000000000E+00 0. -1.
<scales pt_clust_5="13000.00000" pt_clust_6="13000.00000" pt_clust_7="13000.00000" pt_clust_8="13000.00000" pt_clust_9="34.75140"></scales>
<clustering>
<clus scale="   34.751">  1  9  2 -1</clus>
<clus scale="   81.408">  5  6 -1 -1</clus>
<clus scale="   83.461">  1  5  2 -1</clus>
<clus scale="   89.668">  7  8 -1 -1</clus>
<clus scale="   91.536">  2  5  1 -1</clus>
</clustering>
</event>
<event>
 9    1  0.2333971E-005  0.1068391E+03  0.7546771E-02  0.1270818E+00
         -2   -1    0    0    0  501 -0.00000000000E+00  0.00000000000E+00  0.18638150581E+03  0.18638150581E+03  0.00000000000E+00 0.  1.
          1   -1    0    0  502    0  0.00000000000E+00 -0.00000000000E+00 -0.16866704616E+03  0.16866704616E+03  0.00000000000E+00 0. -1.
        -24    2    1    2    0    0 -0.78395698688E+02  0.34203278714E+02  0.95699654316E+02  0.15115571353E+03  0.79836558358E+02 0.  0.
         23    2    1    2    0    0  0.52620416748E+02  0.17085892467E+02 -0.96935867266E+02  0.14344391593E+03  0.90104154592E+02 0.  0.
         11    1    3    3    0    0 -0.30489203247E+02  0.12261470020E+02 -0.88891645471E+01  0.34043390078E+02  0.00000000000E+00 0. -1.
        -12    1    3    3    0    0 -0.47906495441E+02  0.21941808694E+02  0.10458881886E+03  0.11711232346E+03  0.00000000000E+00 0.  1.
        -11    1    4    4    0    0  0.33977394742E+02 -0.32292906812E+02 -0.69844444761E+02  0.84116238907E+02  0.00000000000E+00 0. -1.
         11    1    4    4    0    0  0.18643022006E+02  0.49378799278E+02 -0.27091422504E+02  0.59327677023E+02  0.00000000000E+00 0.  1.
         21    1    1    2  502  501  0.25775281940E+02 -0.51289171181E+02  0.18950672597E+02  0.60448922500E+02  0.00000000000E+00 0. -1.
<scales pt_clust_5="13000.00000" pt_clust_6="13000.00000" pt_clust_7="13000.00000" pt_clust_8="13000.00000" pt_clust_9="57.40160"></scales>
<clustering>
<clus scale="   57.402">  1  9  2 -1</clus>
<clus scale="   79.837">  5  6 -1 -1</clus>
<clus scale="   90.104">  7  8 -1 -1</clus>
<clus scale="   98.335">  1  5  2 -1</clus>
<clus scale="  106.839">  2  5  1 -1</clus>
</clustering>
</event>
<event>
 9    1  0.2333971E-005  0.1025446E+03  0.7546771E-02  0.1282872E+00
          1   -1    0    0  502    0  0.00000000000E+00  0.00000000000E+00  0.31254662611E+03  0.31254662611E+03  0.00000000000E+00 0. -1.
         -2   -1    0    0    0  501 -0.00000000000E+00 -0.00000000000E+00 -0.45647279129E+02  0.45647279129E+02  0.00000000000E+00 0.  1.
        -24    2    1    2    0    0  0.48009559835E+02  0.16850149476E+02  0.52405951169E+02  0.10864383326E+03  0.80425452536E+02 0.  0.
         23    2    1    2    0    0 -0.28718784793E+02 -0.10046857827E+02  0.20183760602E+03  0.22549622001E+03  0.95835369684E+02 0.  0.
         13    1    3    3    0    0  0.62263915748E+02 -0.11505749005E+02  0.32384532816E+02  0.71119163593E+02  0.00000000000E+00 0. -1.
        -14    1    3    3    0    0 -0.14254355913E+02  0.28355898481E+02  0.20021418353E+02  0.37524669672E+02  0.00000000000E+00 0.  1.
        -11    1    4    4    0    0 -0.54741331774E+02  0.17261739686E+02  0.83761402427E+02  0.10154089618E+03  0.00000000000E+00 0.  1.
         11    1    4    4    0    0  0.26022546982E+02 -0.27308597513E+02  0.11807620359E+03  0.12395532382E+03  0.00000000000E+00 0. -1.
         21    1    1    2  502  501 -0.19290775043E+02 -0.68032916490E+01  0.12655789791E+02  0.24053851963E+02  0.00000000000E+00 0. -1.
<scales pt_clust_5="13000.00000" pt_clust_6="13000.00000" pt_clust_7="13000.00000" pt_clust_8="13000.00000" pt_clust_9="20.45529"></scales>
<clustering>
<clus scale="   20.455">  2  9  1 -1</clus>
<clus scale="   80.425">  5  6 -1 -1</clus>
<clus scale="   88.313">  2  5  1 -1</clus>
<clus scale="   95.835">  7  8 -1 -1</clus>
<clus scale="  102.545">  1  5  2 -1</clus>
</clustering>
</event>
<event>
 9    1  0.2333971E-005  0.9270200E+02  0.7546771E-02  0.1303217E+00
         -2   -1    0    0    0  501 -0.00000000000E+00  0.00000000000E+00  0.82835900448E+02  0.82835900448E+02  0.00000000000E+00 0.  1.
          1   -1    0    0  502    0  0.00000000000E+00 -0.00000000000E+00 -0.43134368860E+03  0.43134368860E+03  0.00000000000E+00 0. -1.
        -24    2    1    2    0    0 -0.88813939725E+01  0.23596606920E+02 -0.29555122673E+02  0.88417913831E+02  0.79426338156E+02 0.  0.
         23    2    1    2    0    0  0.19420271029E+02 -0.54485637113E+01 -0.36422188532E+03  0.37586456441E+03  0.90607699777E+02 0.  0.
         13    1    3    3    0    0 -0.58360324536E+00 -0.25611811849E+02  0.70009559513E+01  0.26557840333E+02  0.00000000000E+00 0. -1.
        -14    1    3    3    0    0 -0.82977907271E+01  0.49208418769E+02 -0.36556078625E+02  0.61860073497E+02  0.00000000000E+00 0.  1.
        -11    1    4    4    0    0 -0.37503151561E+01 -0.42154291625E+02 -0.10807435055E+03  0.11606513005E+03  0.00000000000E+00 0.  1.
         11    1    4    4    0    0  0.23170586185E+02  0.36705727913E+02 -0.25614753477E+03  0.25979943436E+03  0.00000000000E+00 0. -1.
         21    1    1    2  502  501 -0.10538877056E+02 -0.18148043208E+02  0.45269219841E+02  0.49897110807E+02  0.00000000000E+00 0.  1.
<scales pt_clust_5="13000.00000" pt_clust_6="13000.00000" pt_clust_7="13000.00000" pt_clust_8="13000.00000" pt_clust_9="20.98617"></scales>
<clustering>
<clus scale="   20.986">  1  9  2 -1</clus>
<clus scale="   79.426">  5  6 -1 -1</clus>
<clus scale="   81.807">  1  5  2 -1</clus>
<clus scale="   90.608">  7  8 -1 -1</clus>
<clus scale="   92.702">  2  5  1 -1</clus>
</clustering>
</event>
<event>
 9    1  0.2333971E-005  0.2401825E+03  0.7546771E-02  0.1120232E+00
          1   -1    0    0  502    0  0.00000000000E+00  0.00000000000E+00  0.95167965871E+03  0.95167965871E+03  0.00000000000E+00 0. -1.
         -2   -1    0    0    0  501 -0.00000000000E+00 -0.00000000000E+00 -0.16943883600E+03  0.16943883600E+03  0.00000000000E+00 0.  1.
        -24    2    1    2    0    0 -0.23589206609E+03  0.10001515806E+03  0.11055103401E+03  0.29100564461E+03  0.82550926025E+02 0.  0.
         23    2    1    2    0    0  0.18380083836E+03 -0.11233115461E+03  0.72055492954E+03  0.75763539314E+03  0.91711209662E+02 0.  0.
         13    1    3    3    0    0 -0.30092990136E+02  0.10583447552E+02  0.48750553426E+02  0.58259882224E+02  0.00000000000E+00 0. -1.
        -14    1    3    3    0    0 -0.20579907596E+03  0.89431710505E+02  0.61800480587E+02  0.23274576239E+03  0.00000000000E+00 0.  1.
        -11    1    4    4    0    0  0.35856711392E+02  0.11576131318E+02  0.76254247771E+02  0.85055398836E+02  0.00000000000E+00 0.  1.
         11    1    4    4    0    0  0.14794412697E+03 -0.12390728592E+03  0.64430068177E+03  0.67257999430E+03  0.00000000000E+00 0. -1.
         21    1    1    2  502  501  0.52091227733E+02  0.12315996549E+02 -0.48865140841E+02  0.72477456959E+02  0.00000000000E+00 0.  1.
<scales pt_clust_5="13000.00000" pt_clust_6="13000.00000" pt_clust_7="13000.00000" pt_clust_8="13000.00000" pt_clust_9="53.52737"></scales>
<clustering>
<clus scale="   53.527">  2  9  1 -1</clus>
<clus scale="   82.551">  5  6 -1 -1</clus>
<clus scale="   91.711">  7  8 -1 -1</clus>
<clus scale="  236.836">  2  5  1 -1</clus>
<clus scale="  240.183">  1  5  2 -1</clus>
</clustering>
</event>
<event>
 9    1  0.2333971E-005  0.1061679E+03  0.7546771E-02  0.1270656E+00
         -2   -1    0    0    0  501 -0.00000000000E+00  0.00000000000E+00  0.80557563876E+02  0.80557563876E+02  0.00000000000E+00 0.  1.
          1   -1    0    0  502    0  0.00000000000E+00 -0.00000000000E+00 -0.19871745041E+03  0.19871745041E+03  0.00000000000E+00 0. -1.
        -24    2    1    2    0    0  0.24999197769E+02  0.45597106197E+02  0.21451913263E+01  0.98802124412E+02  0.83983343347E+02 0.  0.
         23    2    1    2    0    0 -0.46960014773E+02 -0.34413615858E+02 -0.10931755355E+03  0.15349005032E+03  0.90660510094E+02 0.  0.
         13    1    3    3    0    0 -0.88222298206E+01  0.60743818446E+02 -0.26303665270E+01  0.61437464518E+02  0.00000000000E+00 0. -1.
        -14    1    3    3    0    0  0.33821427590E+02 -0.15146712249E+02  0.47755578532E+01  0.37364659893E+02  0.00000000000E+00 0.  1.
        -13    1    4    4    0    0  0.12127991809E+02  0.16832714642E+02 -0.22098727105E+01  0.20864132019E+02  0.00000000000E+00 0.  1.
         13    1    4    4    0    0 -0.59088006582E+02 -0.51246330499E+02 -0.10710768084E+03  0.13262591830E+03  0.00000000000E+00 0. -1.
         21    1    1    2  502  501  0.21960817004E+02 -0.11183490340E+02 -0.10987524311E+02  0.26982839549E+02  0.00000000000E+00 0.  1.
<scales pt_clust_5="13000.00000" pt_clust_6="13000.00000" pt_clust_7="13000.00000" pt_clust_8="13000.00000" pt_clust_9="24.64443"></scales>
<clustering>
<clus scale="   24.644">  1  9  2 -1</clus>
<clus scale="   83.983">  5  6 -1 -1</clus>
<clus scale="   90.661">  7  8 -1 -1</clus>
<clus scale="  100.526">  1  5  2 -1</clus>
<clus scale="  106.168">  2  5  1 -1</clus>
</clustering>
</event>
<event>
 9    1  0.2333971E-005  0.1176232E+03  0.7546771E-02  0.1250283E+00
          1   -1    0    0  502    0  0.00000000000E+00  0.00000000000E+00  0.74783954947E+02  0.74783954947E+02  0.00000000000E+00 0. -1.
         -2   -1    0    0    0  501 -0.00000000000E+00 -0.00000000000E+00 -0.40080847987E+03  0.40080847987E+03  0.00000000000E+00 0.  1.
         23    2    1    2    0    0  0.24358238998E+02 -0.58080677863E+02 -0.30843267290E+03  0.32754846285E+03  0.90501894230E+02 0.  0.
        -24    2    1    2    0    0 -0.45955945445E+02  0.62190689439E+02  0.10585374422E+02  0.11230450905E+03  0.80750367349E+02 0.  0.
         13    1    4    4    0    0 -0.62129953996E+02  0.29669908905E+02  0.24970092333E+02  0.73238925368E+02  0.00000000000E+00 0. -1.
        -14    1    4    4    0    0  0.16174008551E+02  0.32520780534E+02 -0.14384717910E+02  0.39065583683E+02  0.00000000000E+00 0.  1.
        -11    1    3    3    0    0 -0.13957942193E+02 -0.67693216986E+02 -0.16791837354E+03  0.18158682757E+03  0.00000000000E+00 0.  1.
         11    1    3    3    0    0  0.38316181191E+02  0.96125391239E+01 -0.14051429936E+03  0.14596163528E+03  0.00000000000E+00 0. -1.
         21    1    1    2  502  501  0.21597706447E+02 -0.41100115763E+01 -0.28177226445E+02  0.35739462909E+02  0.00000000000E+00 0. -1.
<scales pt_clust_5="13000.00000" pt_clust_6="13000.00000" pt_clust_7="13000.00000" pt_clust_8="13000.00000" pt_clust_9="21.98529"></scales>
<clustering>
<clus scale="   21.985">  2  9  1 -1</clus>
<clus scale="   80.750">  5  6 -1 -1</clus>
<clus scale="   90.502">  7  8 -1 -1</clus>
<clus scale="  110.296">  1  5  2 -1</clus>
<clus scale="  110.296">  1  5  2 -1</clus>
</clustering>
</event>
<event>
 9    1  0.2333971E-005  0.9492143E+02  0.7546771E-02  0.1291786E+00
         -2   -1    0    0    0  501 -0.00000000000E+00  0.00000000000E+00  0.19091928338E+03  0.19091928338E+03  0.00000000000E+00 0.  1.
          1   -1    0    0  502    0  0.00000000000E+00 -0.00000000000E+00 -0.11002183356E+03  0.11002183356E+03  0.00000000000E+00 0. -1.
        -24    2    1    2    0    0 -0.46822918765E+02 -0.31343532888E+02  0.49692785799E+02  0.11034531470E+03  0.80820249563E+02 0.  0.
         23    2    1    2    0    0  0.25358858023E+02  0.39104863232E+02 -0.49800651694E+02  0.10643639799E+03  0.81708872824E+02 0.  0.
         11    1    3    3    0    0 -0.23727087575E+02  0.26688759901E+02  0.13636928775E+02  0.38226043691E+02  0.00000000000E+00 0. -1.
        -12    1    3    3    0    0 -0.23095831189E+02 -0.58032292788E+02  0.36055857024E+02  0.72119271005E+02  0.00000000000E+00 0.  1.
        -13    1    4    4    0    0  0.24426895359E+02 -0.19666526984E+02 -0.33876175394E+01  0.31542375515E+02  0.00000000000E+00 0.  1.
         13    1    4    4    0    0  0.93196266437E+00  0.58771390216E+02 -0.46413034155E+02  0.74894022470E+02  0.00000000000E+00 0. -1.
         21    1    1    2  502  501  0.21464060741E+02 -0.77613303439E+01  0.81005315710E+02  0.84159404261E+02  0.00000000000E+00 0. -1.
<scales pt_clust_5="13000.00000" pt_clust_6="13000.00000" pt_clust_7="13000.00000" pt_clust_8="13000.00000" pt_clust_9="22.82420"></scales>
<clustering>
<clus scale="   22.824">  1  9  2 -1</clus>
<clus scale="   80.820">  5  6 -1 -1</clus>
<clus scale="   81.709">  7  8 -1 -1</clus>
<clus scale="   94.158">  1  5  2 -1</clus>
<clus scale="   94.921">  2  5  1 -1</clus>
</clustering>
</event>
<event>
 9    1  0.2333971E-005  0.9667738E+02  0.7546771E-02  0.1293428E+00
         -4   -1    0    0    0  501 -0.00000000000E+00  0.00000000000E+00  0.42436407096E+03  0.42436407096E+03  0.00000000000E+00 0.  1.
          3   -1    0    0  502    0  0.00000000000E+00 -0.00000000000E+00 -0.44020388694E+02  0.44020388694E+02  0.00000000000E+00 0. -1.
        -24    2    1    2    0    0 -0.67537037726E+01 -0.12293936723E+01  0.25529803084E+03  0.26794918915E+03  0.81071323496E+02 0.  0.
         23    2    1    2    0    0  0.26260639311E+02  0.25197061597E+02  0.34410939414E+02  0.10467713423E+03  0.91916682870E+02 0.  0.
         11    1    3    3    0    0  0.19437416266E+02  0.91792269699E+01  0.15501770010E+02  0.26502381635E+02  0.00000000000E+00 0. -1.
        -12    1    3    3    0    0 -0.26191120039E+02 -0.10408620642E+02  0.23979626083E+03  0.24144680752E+03  0.00000000000E+00 0.  1.
        -13    1    4    4    0    0 -0.14516611841E+02  0.41729006320E+02 -0.64249664598E+01  0.44646636848E+02  0.00000000000E+00 0.  1.
         13    1    4    4    0    0  0.40777251152E+02 -0.16531944723E+02  0.40835905874E+02  0.60030497386E+02  0.00000000000E+00 0. -1.
         21    1    1    2  502  501 -0.19506935538E+02 -0.23967667925E+02  0.90634712012E+02  0.95758136268E+02  0.00000000000E+00 0. -1.
<scales pt_clust_5="13000.00000" pt_clust_6="13000.00000" pt_clust_7="13000.00000" pt_clust_8="13000.00000" pt_clust_9="30.90258"></scales>
<clustering>
<clus scale="   30.903">  1  9  2 -1</clus>
<clus scale="   81.071">  5  6 -1 -1</clus>
<clus scale="   86.431">  1  5  2 -1</clus>
<clus scale="   91.917">  7  8 -1 -1</clus>
<clus scale="   96.677">  2  5  1 -1</clus>
</clustering>
</event>
<event>
 9    1  0.2333971E-005  0.1022454E+03  0.7546771E-02  0.1282642E+00
         -2   -1    0    0    0  501 -0.00000000000E+00  0.00000000000E+00  0.90065604243E+02  0.90065604243E+02  0.00000000000E+00 0.  1.
          1   -1    0    0  502    0  0.00000000000E+00 -0.00000000000E+00 -0.40475321576E+03  0.40475321576E+03  0.00000000000E+00 0. -1.
        -24    2    1    2    0    0 -0.93766952234E+01 -0.16071262897E+02  0.50214832453E+02  0.96834116265E+02  0.80679047901E+02 0.  0.
         23    2    1    2    0    0  0.25431456414E+01  0.40804175400E+02 -0.35631052210E+03  0.37092485373E+03  0.94639371494E+02 0.  0.
         11    1    3    3    0    0  0.34812386113E+02 -0.86123668518E+01  0.33286594331E+02  0.48929259670E+02  0.00000000000E+00 0. -1.
        -12    1    3    3    0    0 -0.44189081336E+02 -0.74588960449E+01  0.16928238122E+02  0.47904856596E+02  0.00000000000E+00 0.  1.
        -13    1    4    4    0    0 -0.39016473066E+02  0.28232919299E+02 -0.10035449921E+03  0.11131221144E+03  0.00000000000E+00 0.  1.
         13    1    4    4    0    0  0.41559618708E+02  0.12571256101E+02 -0.25595602289E+03  0.25961264230E+03  0.00000000000E+00 0. -1.
         21    1    1    2  502  501  0.68335495819E+01 -0.24732912503E+02 -0.85919218655E+01  0.27059850002E+02  0.00000000000E+00 0. -1.
<scales pt_clust_5="13000.00000" pt_clust_6="13000.00000" pt_clust_7="13000.00000" pt_clust_8="13000.00000" pt_clust_9="25.65959"></scales>
<clustering>
<clus scale="   25.660">  1  9  2 -1</clus>
<clus scale="   80.679">  5  6 -1 -1</clus>
<clus scale="   89.480">  1  5  2 -1</clus>
<clus scale="   94.639">  7  8 -1 -1</clus>
<clus scale="  102.245">  2  5  1 -1</clus>
</clustering>
</event>
<event>
 9    1  0.2333971E-005  0.1683941E+03  0.7546771E-02  0.1181418E+00
         -2   -1    0    0    0  501 -0.00000000000E+00  0.00000000000E+00  0.22453358797E+03  0.22453358797E+03  0.00000000000E+00 0.  1.
          1   -1    0    0  502    0  0.00000000000E+00 -0.00000000000E+00 -0.33445661383E+03  0.33445661383E+03  0.00000000000E+00 0. -1.
        -24    2    1    2    0    0  0.98512386676E+02  0.18870943074E+02  0.10829478806E+03  0.16808816489E+03  0.80405641801E+02 0.  0.
         23    2    1    2    0    0 -0.95798176944E+02 -0.12041169598E+03 -0.22603530532E+03  0.28902463703E+03  0.93632335899E+02 0.  0.
         11    1    3    3    0    0  0.81996816117E+02  0.46728589555E+02  0.67649520523E+02  0.11611845918E+03  0.00000000000E+00 0. -1.
        -12    1    3    3    0    0  0.16515570559E+02 -0.27857646481E+02  0.40645267535E+02  0.51969705708E+02  0.00000000000E+00 0.  1.
        -11    1    4    4    0    0 -0.10870761138E+01 -0.22060432538E+02  0.30885655973E+01  0.22302099804E+02  0.00000000000E+00 0.  1.
         11    1    4    4    0    0 -0.94711100830E+02 -0.98351263443E+02 -0.22912387092E+03  0.26672253723E+03  0.00000000000E+00 0. -1.
         21    1    1    2  502  501 -0.27142097314E+01  0.10154075291E+03  0.78174914004E+01  0.10187739988E+03  0.00000000000E+00 0.  1.
<scales pt_clust_5="13000.00000" pt_clust_6="13000.00000" pt_clust_7="13000.00000" pt_clust_8="13000.00000" pt_clust_9="101.57702"></scales>
<clustering>
<clus scale="   80.406">  5  6 -1 -1</clus>
<clus scale="   93.632">  7  8 -1 -1</clus>
<clus scale="  101.577">  1  9  2 -1</clus>
<clus scale="  161.414">  1  5  2 -1</clus>
<clus scale="  168.394">  2  5  1 -1</clus>
</clustering>
</event>
<event>
 9    1  0.2333971E-005  0.1278231E+03  0.7546771E-02  0.1233278E+00
         -2   -1    0    0    0  501 -0.00000000000E+00  0.00000000000E+00  0.26174173822E+03  0.26174173822E+03  0.00000000000E+00 0.  1.
          1   -1    0    0  502    0  0.00000000000E+00 -0.00000000000E+00 -0.82029280713E+02  0.82029280713E+02  0.00000000000E+00 0. -1.
         23    2    1    2    0    0  0.13563592255E+02  0.75515148163E+02  0.85916592360E+02  0.14686787059E+03  0.91115322158E+02 0.  0.
        -24    2    1    2    0    0 -0.37108794400E+02 -0.92933329294E+02  0.39261960245E+02  0.13500228921E+03  0.81672824447E+02 0.  0.
         11    1    4    4    0    0 -0.58690406730E+02 -0.49821149388E+02  0.40058086437E+02  0.86783414645E+02  0.00000000000E+00 0. -1.
        -12    1    4    4    0    0  0.21581612330E+02 -0.43112179907E+02 -0.79612619226E+00  0.48218874562E+02  0.00000000000E+00 0.  1.
        -13    1    3    3    0    0  0.33879263508E+02  0.85954278417E+02  0.82323640054E+02  0.12374620877E+03  0.00000000000E+00 0.  1.
         13    1    3    3    0    0 -0.20315671253E+02 -0.10439130254E+02  0.35929523060E+01  0.23121661817E+02  0.00000000000E+00 0. -1.
         21    1    1    2  502  501  0.23545202145E+02  0.17418181131E+02  0.54533904905E+02  0.61900859139E+02  0.00000000000E+00 0.  1.
<scales pt_clust_5="13000.00000" pt_clust_6="13000.00000" pt_clust_7="13000.00000" pt_clust_8="13000.00000" pt_clust_9="29.28770"></scales>
<clustering>
<clus scale="   29.288">  1  9  2 -1</clus>
<clus scale="   81.673">  5  6 -1 -1</clus>
<clus scale="   91.115">  7  8 -1 -1</clus>
<clus scale="  121.273">  2  5  1 -1</clus>
<clus scale="  121.273">  2  5  1 -1</clus>
</clustering>
</event>
<event>
 9    1  0.2333971E-005  0.1111529E+03  0.7546771E-02  0.1263515E+00
          1   -1    0    0  502    0  0.00000000000E+00  0.00000000000E+00  0.22808603930E+03  0.22808603930E+03  0.00000000000E+00 0. -1.
         -2   -1    0    0    0  501 -0.00000000000E+00 -0.00000000000E+00 -0.76078324113E+02  0.76078324113E+02  0.00000000000E+00 0.  1.
         23    2    1    2    0    0 -0.38692418836E+02  0.30176201647E+02  0.51664951555E+02  0.11604174246E+03  0.91589914040E+02 0.  0.
        -24    2    1    2    0    0  0.27811064546E+02 -0.73393666912E+02  0.88627152974E+02  0.14204216187E+03  0.78492788533E+02 0.  0.
         13    1    4    4    0    0  0.52767094766E+02 -0.39160670190E+02  0.37551316937E+02  0.75683722051E+02  0.00000000000E+00 0. -1.
        -14    1    4    4    0    0 -0.24956030221E+02 -0.34232996721E+02  0.51075836037E+02  0.66358439823E+02  0.00000000000E+00 0.  1.
        -13    1    3    3    0    0 -0.16435543938E+02  0.30618067411E+02  0.75691556683E+02  0.83287483511E+02  0.00000000000E+00 0.  1.
         13    1    3    3    0    0 -0.22256874899E+02 -0.44186576385E+00 -0.24026605128E+02  0.32754258954E+02  0.00000000000E+00 0. -1.
         21    1    1    2  502  501  0.10881354291E+02  0.43217465265E+02  0.11715610654E+02  0.46080459070E+02  0.00000000000E+00 0.  1.
<scales pt_clust_5="13000.00000" pt_clust_6="13000.00000" pt_clust_7="13000.00000" pt_clust_8="13000.00000" pt_clust_9="44.56628"></scales>
<clustering>
<clus scale="   44.566">  2  9  1 -1</clus>
<clus scale="   78.493">  5  6 -1 -1</clus>
<clus scale="   91.590">  7  8 -1 -1</clus>
<clus scale="  100.635">  1  5  2 -1</clus>
<clus scale="  100.635">  1  5  2 -1</clus>
</clustering>
</event>
<event>
 9    1  0.2333971E-005  0.1061841E+03  0.7546771E-02  0.1274407E+00
         -2   -1    0    0    0  501 -0.00000000000E+00  0.00000000000E+00  0.18759946105E+03  0.18759946105E+03  0.00000000000E+00 0.  1.
          1   -1    0    0  502    0  0.00000000000E+00 -0.00000000000E+00 -0.16995457874E+03  0.16995457874E+03  0.00000000000E+00 0. -1.
        -24    2    1    2    0    0 -0.72714753215E+02  0.42473563970E+01  0.64463320499E+02  0.12422878952E+03  0.77277403444E+02 0.  0.
         23    2    1    2    0    0  0.12934301401E+02 -0.57194097515E+02 -0.90852345058E+02  0.14213289990E+03  0.92245063214E+02 0.  0.
         11    1    3    3    0    0 -0.62196179245E+02  0.35310222883E+02  0.32946652425E+02  0.78744259846E+02  0.00000000000E+00 0. -1.
        -12    1    3    3    0    0 -0.10518573969E+02 -0.31062866486E+02  0.31516668074E+02  0.45484529669E+02  0.00000000000E+00 0.  1.
        -13    1    4    4    0    0  0.21435187060E+02 -0.76441215070E+01 -0.88958565424E+02  0.91823342349E+02  0.00000000000E+00 0. -1.
         13    1    4    4    0    0 -0.85008856590E+01 -0.49549976008E+02 -0.18937796345E+01  0.50309557549E+02  0.00000000000E+00 0.  1.
         21    1    1    2  502  501  0.59780451814E+02  0.52946741118E+02  0.44033906862E+02  0.91192350379E+02  0.00000000000E+00 0. -1.
<scales pt_clust_5="13000.00000" pt_clust_6="13000.00000" pt_clust_7="13000.00000" pt_clust_8="13000.00000" pt_clust_9="79.85650"></scales>
<clustering>
<clus scale="   77.277">  5  6 -1 -1</clus>
<clus scale="   79.856">  1  9  2 -1</clus>
<clus scale="   92.245">  7  8 -1 -1</clus>
<clus scale="   93.476">  1  5  2 -1</clus>
<clus scale="  106.184">  2  5  1 -1</clus>
</clustering>
</event>
<event>
 9    1  0.2333971E-005  0.1252499E+03  0.7546771E-02  0.1237426E+00
         -2   -1    0    0    0  501 -0.00000000000E+00  0.00000000000E+00  0.10337738715E+03  0.10337738715E+03  0.00000000000E+00 0.  1.
          1   -1    0    0  502    0  0.00000000000E+00 -0.00000000000E+00 -0.50233586639E+03  0.50233586639E+03  0.00000000000E+00 0. -1.
        -24    2    1    2    0    0 -0.14047140017E+02  0.90400444993E+02  0.28924173080E+01  0.12194789230E+03  0.80581385953E+02 0.  0.
         23    2    1    2    0    0 -0.69404982414E+02 -0.61152521037E+02 -0.36631626498E+03  0.38846369371E+03  0.90331350740E+02 0.  0.
         13    1    3    3    0    0  0.17598191971E+02  0.11945864406E+02  0.26632491642E+02  0.34083568595E+02  0.00000000000E+00 0. -1.
        -14    1    3    3    0    0 -0.31645331987E+02  0.78454580586E+02 -0.23740074334E+02  0.87864323710E+02  0.00000000000E+00 0.  1.
        -13    1    4    4    0    0  0.20153423194E+02 -0.15700678191E+01 -0.82678319172E+02  0.85113630169E+02  0.00000000000E+00 0.  1.
         13    1    4    4    0    0 -0.89558405608E+02 -0.59582453218E+02 -0.28363794581E+03  0.30335006354E+03  0.00000000000E+00 0. -1.
         21    1    1    2  502  501  0.83452122430E+02 -0.29247923956E+02 -0.35534631564E+02  0.95301667531E+02  0.00000000000E+00 0. -1.
<scales pt_clust_5="13000.00000" pt_clust_6="13000.00000" pt_clust_7="13000.00000" pt_clust_8="13000.00000" pt_clust_9="88.42906"></scales>
<clustering>
<clus scale="   80.581">  5  6 -1 -1</clus>
<clus scale="   88.429">  1  9  2 -1</clus>
<clus scale="   90.331">  7  8 -1 -1</clus>
<clus scale="  118.411">  1  5  2 -1</clus>
<clus scale="  125.250">  2  5  1 -1</clus>
</clustering>
</event>
<event>
 9    1  0.2333971E-005  0.1426195E+03  0.7546771E-02  0.1212604E+00
          1   -1    0    0  502    0  0.00000000000E+00  0.00000000000E+00  0.32819691987E+03  0.32819691987E+03  0.00000000000E+00 0. -1.
         -2   -1    0    0    0  501 -0.00000000000E+00 -0.00000000000E+00 -0.22745432628E+03  0.22745432628E+03  0.00000000000E+00 0.  1.
         23    2    1    2    0    0  0.68521266274E+02 -0.47975196439E+02 -0.16235251650E+03  0.20542688861E+03  0.94048304316E+02 0.  0.
        -24    2    1    2    0    0 -0.92229961835E+02  0.58457861691E+02  0.28530425509E+03  0.31608882418E+03  0.81178441381E+02 0.  0.
         11    1    4    4    0    0 -0.99894646666E+02  0.55973700026E+02  0.20043531417E+03  0.23083827822E+03  0.00000000000E+00 0. -1.
        -12    1    4    4    0    0  0.76646848307E+01  0.24841616657E+01  0.84868940924E+02  0.85250545959E+02  0.00000000000E+00 0.  1.
        -13    1    3    3    0    0  0.41604657310E+02 -0.71254078739E+02 -0.14253414611E+03  0.16469387983E+03  0.00000000000E+00 0.  1.
         13    1    3    3    0    0  0.26916608964E+02  0.23278882299E+02 -0.19818370391E+02  0.40733008779E+02  0.00000000000E+00 0. -1.
         21    1    1    2  502  501  0.23708695562E+02 -0.10482665252E+02 -0.22209144999E+02  0.34135533358E+02  0.00000000000E+00 0. -1.
<scales pt_clust_5="13000.00000" pt_clust_6="13000.00000" pt_clust_7="13000.00000" pt_clust_8="13000.00000" pt_clust_9="25.92274"></scales>
<clustering>
<clus scale="   25.923">  2  9  1 -1</clus>
<clus scale="   81.178">  5  6 -1 -1</clus>
<clus scale="   94.048">  7  8 -1 -1</clus>
<clus scale="  134.481">  1  5  2 -1</clus>
<clus scale="  134.481">  1  5  2 -1</clus>
</clustering>
</event>
<event>
 9    1  0.2333971E-005  0.9033934E+02  0.7546771E-02  0.1309222E+00
         -2   -1    0    0    0  501 -0.00000000000E+00  0.00000000000E+00  0.27076957538E+03  0.27076957538E+03  0.00000000000E+00 0.  1.
          1   -1    0    0  502    0  0.00000000000E+00 -0.00000000000E+00 -0.10354466039E+03  0.10354466039E+03  0.00000000000E+00 0. -1.
        -24    2    1    2    0    0  0.39700508463E+01  0.91668134318E+01  0.22485822736E+03  0.23833495623E+03  0.78374340040E+02 0.  0.
         23    2    1    2    0    0 -0.43676403841E+01 -0.31905472664E+02 -0.60870625010E+02  0.11300788659E+03  0.89601975274E+02 0.  0.
         11    1    3    3    0    0 -0.17082451915E+02 -0.12458816960E+02  0.14069417919E+02  0.25396472276E+02  0.00000000000E+00 0. -1.
        -12    1    3    3    0    0  0.21052502762E+02  0.21625630392E+02  0.21078880944E+03  0.21293848395E+03  0.00000000000E+00 0.  1.
        -13    1    4    4    0    0  0.22054690080E+02 -0.32060915987E+02  0.75701988112E+01  0.39643657733E+02  0.00000000000E+00 0.  1.
         13    1    4    4    0    0 -0.26422330464E+02  0.15544332271E+00 -0.68440823821E+02  0.73364228852E+02  0.00000000000E+00 0. -1.
         21    1    1    2  502  501  0.39758953770E+00  0.22738659232E+02  0.32373126336E+01  0.22971392953E+02  0.00000000000E+00 0.  1.
<scales pt_clust_5="13000.00000" pt_clust_6="13000.00000" pt_clust_7="13000.00000" pt_clust_8="13000.00000" pt_clust_9="22.74213"></scales>
<clustering>
<clus scale="   22.742">  2  9  1 -1</clus>
<clus scale="   78.374">  5  6 -1 -1</clus>
<clus scale="   79.216">  1  5  2 -1</clus>
<clus scale="   89.602">  7  8 -1 -1</clus>
<clus scale="   22.742">  2  5  1 -1</clus>
</clustering>
</event>
<event>
 9    1  0.2333971E-005  0.1063108E+03  0.7546771E-02  0.1275487E+00
          1   -1    0    0  502    0  0.00000000000E+00  0.00000000000E+00  0.20209014704E+03  0.20209014704E+03  0.00000000000E+00 0. -1.
         -2   -1    0    0    0  501 -0.00000000000E+00 -0.00000000000E+00 -0.20718998926E+03  0.20718998926E+03  0.00000000000E+00 0.  1.
        -24    2    1    2    0    0 -0.81425217265E+01 -0.22908653268E+02 -0.33485298405E+02  0.11073995637E+03  0.10271789364E+03 0.  0.
         23    2    1    2    0    0 -0.14199242651E+02  0.25600409155E+02  0.14945172038E+03  0.17540025826E+03  0.87019735882E+02 0.  0.
         13    1    3    3    0    0 -0.47043394494E+01  0.40330467763E+02 -0.37572863155E+01  0.40777379024E+02  0.00000000000E+00 0. -1.
        -14    1    3    3    0    0 -0.34381822771E+01 -0.63239121031E+02 -0.29728012089E+02  0.69962577346E+02  0.00000000000E+00 0.  1.
        -11    1    4    4    0    0 -0.39386704779E+02  0.44852878824E+02  0.89445777050E+02  0.10753436792E+03  0.00000000000E+00 0. -1.
         11    1    4    4    0    0  0.25187462128E+02 -0.19252469669E+02  0.60005943327E+02  0.67865890338E+02  0.00000000000E+00 0.  1.
         21    1    1    2  502  501  0.22341764377E+02 -0.26917558871E+01 -0.12106626419E+03  0.12313992168E+03  0.00000000000E+00 0.  1.
<scales pt_clust_5="13000.00000" pt_clust_6="13000.00000" pt_clust_7="13000.00000" pt_clust_8="13000.00000" pt_clust_9="22.50333"></scales>
<clustering>
<clus scale="   22.503">  2  9  1 -1</clus>
<clus scale="   87.020">  7  8 -1 -1</clus>
<clus scale="   91.233">  1  7  2 -1</clus>
<clus scale="  102.718">  5  6 -1 -1</clus>
<clus scale="   91.233">  1  5  2 -1</clus>
</clustering>
</event>
<event>
 9    1  0.2333971E-005  0.1581561E+03  0.7546771E-02  0.1196201E+00
          1   -1    0    0  502    0  0.00000000000E+00  0.00000000000E+00  0.29399859399E+03  0.29399859399E+03  0.00000000000E+00 0. -1.
         -2   -1    0    0    0  501 -0.00000000000E+00 -0.00000000000E+00 -0.20609503455E+03  0.20609503455E+03  0.00000000000E+00 0.  1.
        -24    2    1    2    0    0  0.93191148401E+02 -0.23328401005E+02 -0.57110405790E+02  0.13778003135E+03  0.80578745056E+02 0.  0.
         23    2    1    2    0    0 -0.11134158888E+03  0.45665658093E+02  0.22501159208E+03  0.27729588229E+03  0.10853795658E+03 0.  0.
         11    1    3    3    0    0  0.47275533126E+01 -0.28464850283E+02 -0.36987493126E+02  0.46911321764E+02  0.00000000000E+00 0. -1.
        -12    1    3    3    0    0  0.88463595089E+02  0.51364492781E+01 -0.20122912664E+02  0.90868709583E+02  0.00000000000E+00 0.  1.
        -11    1    4    4    0    0 -0.10236249136E+02 -0.32614568861E+02  0.46393351987E+02  0.57626677910E+02  0.00000000000E+00 0.  1.
         11    1    4    4    0    0 -0.10110533975E+03  0.78280226954E+02  0.17861824010E+03  0.21966920438E+03  0.00000000000E+00 0. -1.
         21    1    1    2  502  501  0.18150440483E+02 -0.22337257089E+02 -0.79997626861E+02  0.85017714903E+02  0.00000000000E+00 0.  1.
<scales pt_clust_5="13000.00000" pt_clust_6="13000.00000" pt_clust_7="13000.00000" pt_clust_8="13000.00000" pt_clust_9="28.78179"></scales>
<clustering>
<clus scale="   28.782">  2  9  1 -1</clus>
<clus scale="   80.579">  5  6 -1 -1</clus>
<clus scale="  108.538">  7  8 -1 -1</clus>
<clus scale="  140.449">  2  5  1 -1</clus>
<clus scale="  158.156">  1  5  2 -1</clus>
</clustering>
</event>
<event>
 9    1  0.2333971E-005  0.9220170E+02  0.7546771E-02  0.1304343E+00
          1   -1    0    0  502    0  0.00000000000E+00  0.00000000000E+00  0.35833654769E+03  0.35833654769E+03  0.00000000000E+00 0. -1.
         -2   -1    0    0    0  501 -0.00000000000E+00 -0.00000000000E+00 -0.33442938997E+02  0.33442938997E+02  0.00000000000E+00 0.  1.
         23    2    1    2    0    0 -0.17292214023E+02 -0.20483604877E+02  0.10287770820E+03  0.14026071614E+03  0.91491239544E+02 0.  0.
        -24    2    1    2    0    0  0.75358048735E+01 -0.15017915181E+01  0.20904369582E+03  0.22419070314E+03  0.80642178046E+02 0.  0.
         13    1    4    4    0    0  0.78504517866E+00  0.33300031643E+02  0.16142090338E+03  0.16482177177E+03  0.00000000000E+00 0. -1.
        -14    1    4    4    0    0  0.67507596949E+01 -0.34801823161E+02  0.47622792444E+02  0.59368931369E+02  0.00000000000E+00 0.  1.
        -11    1    3    3    0    0 -0.10900624648E+02 -0.56572153065E+02  0.72864465684E+02  0.92889517598E+02  0.00000000000E+00 0.  1.
         11    1    3    3    0    0 -0.63915893750E+01  0.36088548188E+02  0.30013242515E+02  0.47371198542E+02  0.00000000000E+00 0. -1.
         21    1    1    2  502  501  0.97564091497E+01  0.21985396395E+02  0.12972204678E+02  0.27328067410E+02  0.00000000000E+00 0.  1.
<scales pt_clust_5="13000.00000" pt_clust_6="13000.00000" pt_clust_7="13000.00000" pt_clust_8="13000.00000" pt_clust_9="24.05297"></scales>
<clustering>
<clus scale="   24.053">  2  9  1 -1</clus>
<clus scale="   80.642">  5  6 -1 -1</clus>
<clus scale="   81.447">  1  5  2 -1</clus>
<clus scale="   91.491">  7  8 -1 -1</clus>
<clus scale="   81.447">  1  5  2 -1</clus>
</clustering>
</event>
<event>
 9    1  0.2333971E-005  0.1368723E+03  0.7546771E-02  0.1219223E+00
         -2   -1    0    0    0  501 -0.00000000000E+00  0.00000000000E+00  0.14753692568E+03  0.14753692568E+03  0.00000000000E+00 0.  1.
          1   -1    0    0  502    0  0.00000000000E+00 -0.00000000000E+00 -0.49676226444E+03  0.49676226444E+03  0.00000000000E+00 0. -1.
         23    2    1    2    0    0  0.87805693369E+02  0.34802500087E+02  0.56381661951E+02  0.14301080131E+03  0.91390063392E+02 0.  0.
        -24    2    1    2    0    0 -0.10116855627E+03 -0.18201462867E+02 -0.44064897070E+03  0.46027497390E+03  0.84351444522E+02 0.  0.
         11    1    4    4    0    0 -0.67513294412E+02  0.28657245428E+02 -0.28473510061E+03  0.29402952259E+03  0.00000000000E+00 0. -1.
        -12    1    4    4    0    0 -0.33655261857E+02 -0.46858708295E+02 -0.15591387009E+03  0.16624545131E+03  0.00000000000E+00 0.  1.
        -11    1    3    3    0    0  0.16384340064E+02  0.54819677161E+02  0.26267308235E+02  0.62957248076E+02  0.00000000000E+00 0.  1.
         11    1    3    3    0    0  0.71421353304E+02 -0.20017177073E+02  0.30114353716E+02  0.80053553235E+02  0.00000000000E+00 0. -1.
         21    1    1    2  502  501  0.13362862899E+02 -0.16601037221E+02  0.35041969988E+02  0.41013414907E+02  0.00000000000E+00 0.  1.
<scales pt_clust_5="13000.00000" pt_clust_6="13000.00000" pt_clust_7="13000.00000" pt_clust_8="13000.00000" pt_clust_9="21.31104"></scales>
<clustering>
<clus scale="   21.311">  1  9  2 -1</clus>
<clus scale="   84.351">  5  6 -1 -1</clus>
<clus scale="   91.390">  7  8 -1 -1</clus>
<clus scale="  132.276">  2  5  1 -1</clus>
<clus scale="  132.276">  2  5  1 -1</clus>
</clustering>
</event>
<event>
 9    1  0.2333971E-005  0.9328371E+02  0.7546771E-02  0.1304881E+00
          1   -1    0    0  502    0  0.00000000000E+00  0.00000000000E+00  0.97510385236E+02  0.97510385236E+02  0.00000000000E+00 0. -1.
         -2   -1    0    0    0  501 -0.00000000000E+00 -0.00000000000E+00 -0.69628998281E+03  0.69628998281E+03  0.00000000000E+00 0.  1.
        -24    2    1    2    0    0  0.45472466122E+02  0.22046264799E+02 -0.17956530664E+03  0.20102196032E+03  0.74915593941E+02 0.  0.
         23    2    1    2    0    0  0.21681318935E+02  0.17388504134E+02  0.56273982135E+02  0.11095496530E+03  0.91497560579E+02 0.  0.
         11    1    3    3    0    0  0.50549395526E+02  0.29238150684E+02 -0.70246337582E+02  0.91349103922E+02  0.00000000000E+00 0. -1.
        -12    1    3    3    0    0 -0.50769294048E+01 -0.71918858851E+01 -0.10931896906E+03  0.10967285640E+03  0.00000000000E+00 0.  1.
        -11    1    4    4    0    0  0.53376182487E+02  0.22281298283E+02  0.17073531272E+02  0.60307367545E+02  0.00000000000E+00 0. -1.
         11    1    4    4    0    0 -0.31694863552E+02 -0.48927941485E+01  0.39200450862E+02  0.50647597751E+02  0.00000000000E+00 0.  1.
         21    1    1    2  502  501 -0.67153785057E+02 -0.39434768934E+02 -0.47548827306E+03  0.48182344242E+03  0.00000000000E+00 0.  1.
<scales pt_clust_5="13000.00000" pt_clust_6="13000.00000" pt_clust_7="13000.00000" pt_clust_8="13000.00000" pt_clust_9="77.87639"></scales>
<clustering>
<clus scale="   74.916">  5  6 -1 -1</clus>
<clus scale="   77.876">  2  9  1 -1</clus>
<clus scale="   77.876">  2  5  1 -1</clus>
<clus scale="   91.498">  7  8 -1 -1</clus>
<clus scale="   93.284">  1  5  2 -1</clus>
</clustering>
</event>
<event>
 9    1  0.2333971E-005  0.1539232E+03  0.7546771E-02  0.1198882E+00
         -4   -1    0    0    0  501 -0.00000000000E+00  0.00000000000E+00  0.32663882555E+03  0.32663882555E+03  0.00000000000E+00 0.  1.
          3   -1    0    0  502    0  0.00000000000E+00 -0.00000000000E+00 -0.10592790608E+03  0.10592790608E+03  0.00000000000E+00 0. -1.
        -24    2    1    2    0    0  0.12022560951E+03 -0.38064927533E+02  0.67811414687E+02  0.16497585679E+03  0.81948212140E+02 0.  0.
         23    2    1    2    0    0 -0.11256128191E+03  0.61591341581E+01  0.47543630577E+02  0.15724332479E+03  0.98777979657E+02 0.  0.
         13    1    3    3    0    0  0.34479838150E+02 -0.32660144810E+02 -0.10596239639E+02  0.48660297907E+02  0.00000000000E+00 0. -1.
        -14    1    3    3    0    0  0.85745771361E+02 -0.54047827226E+01  0.78407654326E+02  0.11631555889E+03  0.00000000000E+00 0.  1.
        -13    1    4    4    0    0 -0.79798006165E+02 -0.39555757011E+02  0.10006218052E+02  0.89624238353E+02  0.00000000000E+00 0. -1.
         13    1    4    4    0    0 -0.32763275744E+02  0.45714891169E+02  0.37537412524E+02  0.67619086441E+02  0.00000000000E+00 0.  1.
         21    1    1    2  502  501 -0.76643276013E+01  0.31905793375E+02  0.10535587421E+03  0.11034755003E+03  0.00000000000E+00 0.  1.
<scales pt_clust_5="13000.00000" pt_clust_6="13000.00000" pt_clust_7="13000.00000" pt_clust_8="13000.00000" pt_clust_9="32.81344"></scales>
<clustering>
<clus scale="   32.813">  1  9  2 -1</clus>
<clus scale="   81.948">  5  6 -1 -1</clus>
<clus scale="   98.778">  7  8 -1 -1</clus>
<clus scale="  143.704">  1  5  2 -1</clus>
<clus scale="  153.923">  2  5  1 -1</clus>
</clustering>
</event>
<event>
 9    1  0.2333971E-005  0.8930560E+02  0.7546771E-02  0.1308082E+00
          1   -1    0    0  502    0  0.00000000000E+00  0.00000000000E+00  0.23665466524E+03  0.23665466524E+03  0.00000000000E+00 0. -1.
         -2   -1    0    0    0  501 -0.00000000000E+00 -0.00000000000E+00 -0.75867637670E+02  0.75867637670E+02  0.00000000000E+00 0.  1.
         23    2    1    2    0    0  0.24580023786E+01 -0.36098934107E+02 -0.15630715101E+02  0.95079547173E+02  0.86525292353E+02 0.  0.
        -24    2    1    2    0    0  0.11024384276E+02  0.17462808995E+02  0.17565914421E+03  0.19442851274E+03  0.80745432539E+02 0.  0.
         13    1    4    4    0    0 -0.18671887798E+02  0.37527857220E+02  0.12870964730E+03  0.13536304063E+03  0.00000000000E+00 0. -1.
        -14    1    4    4    0    0  0.29696272075E+02 -0.20065048225E+02  0.46949496915E+02  0.59065472113E+02  0.00000000000E+00 0.  1.
        -11    1    3    3    0    0  0.92717299818E+01 -0.59271376742E+02 -0.29895418453E+02  0.67028330743E+02  0.00000000000E+00 0.  1.
         11    1    3    3    0    0 -0.68137276032E+01  0.23172442635E+02  0.14264703352E+02  0.28051216430E+02  0.00000000000E+00 0. -1.
         21    1    1    2  502  501 -0.13482386655E+02  0.18636125112E+02  0.75859846383E+00  0.23014242997E+02  0.00000000000E+00 0. -1.
<scales pt_clust_5="13000.00000" pt_clust_6="13000.00000" pt_clust_7="13000.00000" pt_clust_8="13000.00000" pt_clust_9="23.00174"></scales>
<clustering>
<clus scale="   23.002">  2  9  1 -1</clus>
<clus scale="   80.745">  5  6 -1 -1</clus>
<clus scale="   83.718">  1  5  2 -1</clus>
<clus scale="   86.525">  7  8 -1 -1</clus>
<clus scale="   83.718">  1  5  2 -1</clus>
</clustering>
</event>
<event>
 9    1  0.2333971E-005  0.1053700E+03  0.7546771E-02  0.1278661E+00
         -2   -1    0    0    0  501 -0.00000000000E+00  0.00000000000E+00  0.13655920925E+03  0.13655920925E+03  0.00000000000E+00 0.  1.
          1   -1    0    0  502    0  0.00000000000E+00 -0.00000000000E+00 -0.10522658107E+03  0.10522658107E+03  0.00000000000E+00 0. -1.
        -24    2    1    2    0    0  0.23106046336E+02 -0.90423420888E+01  0.34236869959E+02  0.90604995668E+02  0.80133941920E+02 0.  0.
         23    2    1    2    0    0 -0.44750581211E+02  0.42452408636E+01 -0.33370477653E+02  0.11350202611E+03  0.98734414285E+02 0.  0.
         13    1    3    3    0    0  0.43592031767E+02  0.15426131158E+01  0.47104458385E+02  0.64198714073E+02  0.00000000000E+00 0. -1.
        -14    1    3    3    0    0 -0.20485985432E+02 -0.10584955205E+02 -0.12867588426E+02  0.26406281595E+02  0.00000000000E+00 0.  1.
        -11    1    4    4    0    0 -0.43761571014E+02 -0.31302096414E+02 -0.50713265781E+02  0.73937349585E+02  0.00000000000E+00 0. -1.
         11    1    4    4    0    0 -0.98901019745E+00  0.35547337277E+02  0.17342788128E+02  0.39564676528E+02  0.00000000000E+00 0.  1.
         21    1    1    2  502  501  0.21644534876E+02  0.47971012252E+01  0.30466235871E+02  0.37678768535E+02  0.00000000000E+00 0.  1.
<scales pt_clust_5="13000.00000" pt_clust_6="13000.00000" pt_clust_7="13000.00000" pt_clust_8="13000.00000" pt_clust_9="22.16976"></scales>
<clustering>
<clus scale="   22.170">  1  9  2 -1</clus>
<clus scale="   80.134">  5  6 -1 -1</clus>
<clus scale="   88.180">  1  5  2 -1</clus>
<clus scale="   98.734">  7  8 -1 -1</clus>
<clus scale="  105.370">  2  5  1 -1</clus>
</clustering>
</event>
<event>
 9    1  0.2333971E-005  0.9069303E+02  0.7546771E-02  0.1307169E+00
         -2   -1    0    0    0  501 -0.00000000000E+00  0.00000000000E+00  0.71111241036E+02  0.71111241036E+02  0.00000000000E+00 0.  1.
          1   -1    0    0  502    0  0.00000000000E+00 -0.00000000000E+00 -0.26518904488E+03  0.26518904488E+03  0.00000000000E+00 0. -1.
        -24    2    1    2    0    0  0.26948751514E+02  0.58802813233E+01  0.76378113215E+01  0.85501777577E+02  0.80569255243E+02 0.  0.
         23    2    1    2    0    0 -0.29485235457E+01  0.10887275802E+02 -0.20207031624E+03  0.22151903213E+03  0.90061325355E+02 0.  0.
         13    1    3    3    0    0  0.26681113724E+02 -0.28455736186E+02 -0.17692460938E+02  0.42832626881E+02  0.00000000000E+00 0. -1.
        -14    1    3    3    0    0  0.26763778974E+00  0.34336017509E+02  0.25330272259E+02  0.42669150696E+02  0.00000000000E+00 0.  1.
        -11    1    4    4    0    0  0.38083220791E+02  0.23021689853E+02 -0.72517149718E+02  0.85082706309E+02  0.00000000000E+00 0.  1.
         11    1    4    4    0    0 -0.41031744337E+02 -0.12134414052E+02 -0.12955316652E+03  0.13643632582E+03  0.00000000000E+00 0. -1.
         21    1    1    2  502  501 -0.24000227968E+02 -0.16767557125E+02  0.35470107166E+00  0.29279476213E+02  0.00000000000E+00 0. -1.
<scales pt_clust_5="13000.00000" pt_clust_6="13000.00000" pt_clust_7="13000.00000" pt_clust_8="13000.00000" pt_clust_9="29.27733"></scales>
<clustering>
<clus scale="   29.277">  1  9  2 -1</clus>
<clus scale="   80.569">  5  6 -1 -1</clus>
<clus scale="   81.275">  1  5  2 -1</clus>
<clus scale="   90.061">  7  8 -1 -1</clus>
<clus scale="   90.693">  2  5  1 -1</clus>
</clustering>
</event>
<event>
 9    1  0.2333971E-005  0.1005879E+03  0.7546771E-02  0.1283863E+00
          1   -1    0    0  502    0  0.00000000000E+00  0.00000000000E+00  0.82893815265E+02  0.82893815265E+02  0.00000000000E+00 0. -1.
         -2   -1    0    0    0  501 -0.00000000000E+00 -0.00000000000E+00 -0.15405106712E+03  0.15405106712E+03  0.00000000000E+00 0.  1.
         23    2    1    2    0    0 -0.26721250672E+02 -0.20220228801E+02 -0.37020472904E+02  0.10235557457E+03  0.89349120536E+02 0.  0.
        -24    2    1    2    0    0  0.37430125949E+02  0.41424519036E+02 -0.52266229419E+01  0.97171410302E+02  0.79359689306E+02 0.  0.
         13    1    4    4    0    0  0.15842240866E+02  0.56359179795E+02  0.18899213641E+02  0.61518403905E+02  0.00000000000E+00 0. -1.
        -14    1    4    4    0    0  0.21587885083E+02 -0.14934660758E+02 -0.24125836583E+02  0.35653006397E+02  0.00000000000E+00 0.  1.
        -11    1    3    3    0    0 -0.55693353694E+02 -0.14152632417E+02 -0.34039347888E+01  0.57564167866E+02  0.00000000000E+00 0. -1.
         11    1    3    3    0    0  0.28972103022E+02 -0.60675963841E+01 -0.33616538115E+02  0.44791406700E+02  0.00000000000E+00 0.  1.
         21    1    1    2  502  501 -0.10708875277E+02 -0.21204290235E+02 -0.28910156010E+02  0.37417897517E+02  0.00000000000E+00 0.  1.
<scales pt_clust_5="13000.00000" pt_clust_6="13000.00000" pt_clust_7="13000.00000" pt_clust_8="13000.00000" pt_clust_9="23.75504"></scales>
<clustering>
<clus scale="   23.755">  2  9  1 -1</clus>
<clus scale="   79.360">  5  6 -1 -1</clus>
<clus scale="   89.349">  7  8 -1 -1</clus>
<clus scale="   91.829">  1  5  2 -1</clus>
<clus scale="   91.829">  1  5  2 -1</clus>
</clustering>
</event>
<event>
 9    1  0.2333971E-005  0.1543428E+03  0.7546771E-02  0.1197570E+00
          1   -1    0    0  502    0  0.00000000000E+00  0.00000000000E+00  0.44440135305E+03  0.44440135305E+03  0.00000000000E+00 0. -1.
         -2   -1    0    0    0  501 -0.00000000000E+00 -0.00000000000E+00 -0.91277701689E+02  0.91277701689E+02  0.00000000000E+00 0.  1.
         23    2    1    2    0    0 -0.27175206300E+02 -0.86722336673E+02  0.79265390504E+02  0.15180550541E+03  0.92209835838E+02 0.  0.
        -24    2    1    2    0    0  0.53453697191E+02  0.13337961235E+03  0.28541520947E+03  0.32909195098E+03  0.78690861418E+02 0.  0.
         11    1    4    4    0    0  0.59847577758E+02  0.12469681664E+03  0.20100611757E+03  0.24399690150E+03  0.00000000000E+00 0. -1.
        -12    1    4    4    0    0 -0.63938805663E+01  0.86827957081E+01  0.84409091902E+02  0.85095049479E+02  0.00000000000E+00 0.  1.
        -13    1    3    3    0    0  0.11573158913E+02 -0.62513107367E+02  0.84578638450E+02  0.10580818816E+03  0.00000000000E+00 0.  1.
         13    1    3    3    0    0 -0.38748365213E+02 -0.24209229305E+02 -0.53132479456E+01  0.45997317248E+02  0.00000000000E+00 0. -1.
         21    1    1    2  502  501 -0.26278490892E+02 -0.46657275674E+02 -0.11556948610E+02  0.54781598352E+02  0.00000000000E+00 0.  1.
<scales pt_clust_5="13000.00000" pt_clust_6="13000.00000" pt_clust_7="13000.00000" pt_clust_8="13000.00000" pt_clust_9="53.54867"></scales>
<clustering>
<clus scale="   53.549">  2  9  1 -1</clus>
<clus scale="   78.691">  5  6 -1 -1</clus>
<clus scale="   92.210">  7  8 -1 -1</clus>
<clus scale="  146.667">  1  5  2 -1</clus>
<clus scale="  146.667">  1  5  2 -1</clus>
</clustering>
</event>
<event>
 9    1  0.2333971E-005  0.9369097E+02  0.7546771E-02  0.1308032E+00
         -2   -1    0    0    0  501 -0.00000000000E+00  0.00000000000E+00  0.48061950582E+02  0.48061950582E+02  0.00000000000E+00 0.  1.
          1   -1    0    0  502    0  0.00000000000E+00 -0.00000000000E+00 -0.34063547403E+03  0.34063547403E+03  0.00000000000E+00 0. -1.
         23    2    1    2    0    0  0.36060717237E+01 -0.14454809731E+02 -0.32005610918E+02  0.97775515654E+02  0.91179751336E+02 0.  0.
        -24    2    1    2    0    0 -0.24151160694E+02  0.98520319338E+00 -0.25550770882E+03  0.26583931255E+03  0.69297197935E+02 0.  0.
         11    1    4    4    0    0 -0.47516342729E+02  0.95382837962E+01 -0.16431946795E+03  0.17131745163E+03  0.00000000000E+00 0. -1.
        -12    1    4    4    0    0  0.23365182035E+02 -0.85530806028E+01 -0.91188240867E+02  0.94521860920E+02  0.00000000000E+00 0.  1.
        -11    1    3    3    0    0  0.44430913811E+01  0.29505844648E+02  0.15012324470E+02  0.33402182794E+02  0.00000000000E+00 0.  1.
         11    1    3    3    0    0 -0.83701965742E+00 -0.43960654379E+02 -0.47017935388E+02  0.64373332860E+02  0.00000000000E+00 0. -1.
         21    1    1    2  502  501  0.20545088970E+02  0.13469606538E+02 -0.50602037107E+01  0.25082596410E+02  0.00000000000E+00 0.  1.
<scales pt_clust_5="13000.00000" pt_clust_6="13000.00000" pt_clust_7="13000.00000" pt_clust_8="13000.00000" pt_clust_9="24.56687"></scales>
<clustering>
<clus scale="   24.567">  1  9  2 -1</clus>
<clus scale="   69.297">  5  6 -1 -1</clus>
<clus scale="   72.570">  2  5  1 -1</clus>
<clus scale="   91.180">  7  8 -1 -1</clus>
<clus scale="   72.570">  2  5  1 -1</clus>
</clustering>
</event>
<event>
 9    1  0.2333971E-005  0.1124408E+03  0.7546771E-02  0.1267180E+00
          1   -1    0    0  502    0  0.00000000000E+00  0.00000000000E+00  0.58490791018E+03  0.58490791018E+03  0.00000000000E+00 0. -1.
         -2   -1    0    0    0  501 -0.00000000000E+00 -0.00000000000E+00 -0.75685989178E+02  0.75685989178E+02  0.00000000000E+00 0.  1.
        -24    2    1    2    0    0  0.60081390117E+02 -0.44122887201E+01  0.24005025533E+03  0.25950997783E+03  0.78051660974E+02 0.  0.
         23    2    1    2    0    0 -0.32523029420E+02 -0.11601241375E+02  0.32180747363E+03  0.33954999048E+03  0.10267331547E+03 0.  0.
         13    1    3    3    0    0  0.75041135358E+02 -0.16120563225E+02  0.16321626043E+03  0.18036239138E+03  0.00000000000E+00 0. -1.
        -14    1    3    3    0    0 -0.14959745241E+02  0.11708274505E+02  0.76833994896E+02  0.79147586452E+02  0.00000000000E+00 0.  1.
        -13    1    4    4    0    0 -0.59312152879E+02  0.23812879150E+02  0.19152160792E+03  0.20190470770E+03  0.00000000000E+00 0.  1.
         13    1    4    4    0    0  0.26789123458E+02 -0.35414120526E+02  0.13028586571E+03  0.13764528278E+03  0.00000000000E+00 0. -1.
         21    1    1    2  502  501 -0.27558360697E+02  0.16013530095E+02 -0.52635807955E+02  0.61533931042E+02  0.00000000000E+00 0.  1.
<scales pt_clust_5="13000.00000" pt_clust_6="13000.00000" pt_clust_7="13000.00000" pt_clust_8="13000.00000" pt_clust_9="31.87313"></scales>
<clustering>
<clus scale="   31.873">  2  9  1 -1</clus>
<clus scale="   78.052">  5  6 -1 -1</clus>
<clus scale="   90.516">  2  5  1 -1</clus>
<clus scale="  102.673">  7  8 -1 -1</clus>
<clus scale="  112.441">  1  5  2 -1</clus>
</clustering>
</event>
<event>
 9    1  0.2333971E-005  0.1636634E+03  0.7546771E-02  0.1186018E+00
          1   -1    0    0  502    0  0.00000000000E+00  0.00000000000E+00  0.66033009729E+03  0.66033009729E+03  0.00000000000E+00 0. -1.
         -2   -1    0    0    0  501 -0.00000000000E+00 -0.00000000000E+00 -0.74917644435E+02  0.74917644435E+02  0.00000000000E+00 0.  1.
        -24    2    1    2    0    0 -0.12673365900E+03 -0.11369544191E+03  0.12782569593E+03  0.22771699393E+03  0.80793235807E+02 0.  0.
         23    2    1    2    0    0  0.10215292597E+03  0.75920675649E+02  0.42258807122E+03  0.45046890938E+03  0.90235198814E+02 0.  0.
         13    1    3    3    0    0 -0.31344770770E+02 -0.80884607222E+02  0.69825491669E+02  0.11135714448E+03  0.00000000000E+00 0. -1.
        -14    1    3    3    0    0 -0.95388888229E+02 -0.32810834687E+02  0.58000204262E+02  0.11635984945E+03  0.00000000000E+00 0.  1.
        -11    1    4    4    0    0  0.10838715179E+03  0.33942304683E+02  0.30675007673E+03  0.32710161157E+03  0.00000000000E+00 0. -1.
         11    1    4    4    0    0 -0.62342258182E+01  0.41978370965E+02  0.11583799449E+03  0.12336729781E+03  0.00000000000E+00 0.  1.
         21    1    1    2  502  501  0.24580733025E+02  0.37774766260E+02  0.34998685714E+02  0.57061838419E+02  0.00000000000E+00 0. -1.
<scales pt_clust_5="13000.00000" pt_clust_6="13000.00000" pt_clust_7="13000.00000" pt_clust_8="13000.00000" pt_clust_9="45.06823"></scales>
<clustering>
<clus scale="   45.068">  2  9  1 -1</clus>
<clus scale="   80.793">  5  6 -1 -1</clus>
<clus scale="   90.235">  7  8 -1 -1</clus>
<clus scale="  158.653">  2  5  1 -1</clus>
<clus scale="  163.663">  1  5  2 -1</clus>
</clustering>
</event>
<event>
 9    1  0.2333971E-005  0.1075989E+03  0.7546771E-02  0.1268874E+00
         -2   -1    0    0    0  501 -0.00000000000E+00  0.00000000000E+00  0.41987258577E+02  0.41987258577E+02  0.00000000000E+00 0.  1.
          1   -1    0    0  502    0  0.00000000000E+00 -0.00000000000E+00 -0.70445472439E+03  0.70445472439E+03  0.00000000000E+00 0. -1.
         23    2    1    2    0    0  0.12404369723E+02 -0.37044133512E+02 -0.10444035586E+03  0.14331651576E+03  0.90031658554E+02 0.  0.
        -24    2    1    2    0    0 -0.67688795985E+02  0.14072098350E+02 -0.52315006683E+03  0.53383989639E+03  0.80741844758E+02 0.  0.
         13    1    4    4    0    0 -0.53285600544E+02 -0.26143609827E+02 -0.22728778867E+03  0.23490973253E+03  0.00000000000E+00 0. -1.
        -14    1    4    4    0    0 -0.14403195441E+02  0.40215708177E+02 -0.29586227816E+03  0.29893016385E+03  0.00000000000E+00 0.  1.
        -11    1    3    3    0    0 -0.34967240730E+02 -0.34716137558E+02 -0.40962689585E+02  0.64076985488E+02  0.00000000000E+00 0. -1.
         11    1    3    3    0    0  0.47371610453E+02 -0.23279959533E+01 -0.63477666279E+02  0.79239530275E+02  0.00000000000E+00 0.  1.
         21    1    1    2  502  501  0.55284426262E+02  0.22972035162E+02 -0.34877043117E+02  0.69285570815E+02  0.00000000000E+00 0.  1.
<scales pt_clust_5="13000.00000" pt_clust_6="13000.00000" pt_clust_7="13000.00000" pt_clust_8="13000.00000" pt_clust_9="59.86720"></scales>
<clustering>
<clus scale="   59.867">  1  9  2 -1</clus>
<clus scale="   80.742">  5  6 -1 -1</clus>
<clus scale="   90.032">  7  8 -1 -1</clus>
<clus scale="   99.955">  2  5  1 -1</clus>
<clus scale="   99.955">  2  5  1 -1</clus>
</clustering>
</event>
<event>
 9    1  0.2333971E-005  0.1031932E+03  0.7546771E-02  0.1278103E+00
          1   -1    0    0  502    0  0.00000000000E+00  0.00000000000E+00  0.39238824710E+03  0.39238824710E+03  0.00000000000E+00 0. -1.
         -2   -1    0    0    0  501 -0.00000000000E+00 -0.00000000000E+00 -0.53999576642E+02  0.53999576642E+02  0.00000000000E+00 0.  1.
         23    2    1    2    0    0  0.21387538118E+01 -0.26288203828E+02  0.46318145286E+02  0.10410466385E+03  0.89424641591E+02 0.  0.
        -24    2    1    2    0    0  0.10345121870E+02  0.57907272001E+02  0.29194286290E+03  0.30828861736E+03  0.79692927546E+02 0.  0.
         13    1    4    4    0    0 -0.21488725455E+02  0.42295002266E+02  0.24450314563E+03  0.24906308591E+03  0.00000000000E+00 0. -1.
        -14    1    4    4    0    0  0.31833847325E+02  0.15612269734E+02  0.47439717271E+02  0.59225531459E+02  0.00000000000E+00 0.  1.
        -11    1    3    3    0    0 -0.40929386863E+02 -0.11400825067E+02  0.39530653602E+02  0.58033318839E+02  0.00000000000E+00 0. -1.
         11    1    3    3    0    0  0.43068140675E+02 -0.14887378762E+02  0.67874916832E+01  0.46071345009E+02  0.00000000000E+00 0.  1.
         21    1    1    2  502  501 -0.12483875682E+02 -0.31619068172E+02  0.12766227150E+00  0.33994542529E+02  0.00000000000E+00 0.  1.
<scales pt_clust_5="13000.00000" pt_clust_6="13000.00000" pt_clust_7="13000.00000" pt_clust_8="13000.00000" pt_clust_9="33.99430"></scales>
<clustering>
<clus scale="   33.994">  2  9  1 -1</clus>
<clus scale="   79.693">  5  6 -1 -1</clus>
<clus scale="   89.425">  7  8 -1 -1</clus>
<clus scale="   94.884">  1  5  2 -1</clus>
<clus scale="   94.884">  1  5  2 -1</clus>
</clustering>
</event>
<event>
 9    1  0.2333971E-005  0.1074227E+03  0.7546771E-02  0.1271583E+00
         -4   -1    0    0    0  501 -0.00000000000E+00  0.00000000000E+00  0.23191708445E+03  0.23191708445E+03  0.00000000000E+00 0.  1.
          3   -1    0    0  502    0  0.00000000000E+00 -0.00000000000E+00 -0.22195426914E+03  0.22195426914E+03  0.00000000000E+00 0. -1.
         23    2    1    2    0    0  0.62736768679E+02  0.22600686602E+01  0.94213363710E+02  0.14503868783E+03  0.90658993000E+02 0.  0.
        -24    2    1    2    0    0 -0.54109504502E+02  0.19520872103E+02 -0.18355487515E+03  0.20680233507E+03  0.75933593860E+02 0.  0.
         11    1    4    4    0    0 -0.44614344089E+02  0.26815875722E+02 -0.18718692047E+03  0.19428966540E+03  0.00000000000E+00 0. -1.
        -12    1    4    4    0    0 -0.94951604130E+01 -0.72950036186E+01  0.36320453188E+01  0.12512669670E+02  0.00000000000E+00 0.  1.
        -13    1    3    3    0    0  0.54329308448E+02 -0.39547205323E+02  0.63790840575E+02  0.92654878698E+02  0.00000000000E+00 0.  1.
         13    1    3    3    0    0  0.84074602313E+01  0.41807273983E+02  0.30422523135E+02  0.52383809133E+02  0.00000000000E+00 0. -1.
         21    1    1    2  502  501 -0.86272641770E+01 -0.21780940763E+02  0.99304326748E+02  0.10203033068E+03  0.00000000000E+00 0.  1.
<scales pt_clust_5="13000.00000" pt_clust_6="13000.00000" pt_clust_7="13000.00000" pt_clust_8="13000.00000" pt_clust_9="23.42731"></scales>
<clustering>
<clus scale="   23.427">  1  9  2 -1</clus>
<clus scale="   75.934">  5  6 -1 -1</clus>
<clus scale="   90.659">  7  8 -1 -1</clus>
<clus scale="   95.323">  2  5  1 -1</clus>
<clus scale="   95.323">  2  5  1 -1</clus>
</clustering>
</event>
<event>
 9    1  0.2333971E-005  0.1085747E+03  0.7546771E-02  0.1265670E+00
         -2   -1    0    0    0  501 -0.00000000000E+00  0.00000000000E+00  0.12316385361E+03  0.12316385361E+03  0.00000000000E+00 0.  1.
          1   -1    0    0  502    0  0.00000000000E+00 -0.00000000000E+00 -0.18602258132E+03  0.18602258132E+03  0.00000000000E+00 0. -1.
        -24    2    1    2    0    0  0.51997229178E+02 -0.15141978772E+02  0.19203140841E+01  0.96544991932E+02  0.79901542524E+02 0.  0.
         23    2    1    2    0    0 -0.86171573240E+02 -0.42190892363E+02 -0.16191732857E+02  0.13008436883E+03  0.86337473715E+02 0.  0.
         11    1    3    3    0    0  0.67075355345E+02 -0.18558955623E+02 -0.17461108769E+02  0.71752550114E+02  0.00000000000E+00 0. -1.
        -12    1    3    3    0    0 -0.15078126166E+02  0.34169768513E+01  0.19381422853E+02  0.24792441818E+02  0.00000000000E+00 0.  1.
        -13    1    4    4    0    0 -0.60426094075E+02 -0.75552982167E+01 -0.47113315929E+02  0.76993895304E+02  0.00000000000E+00 0. -1.
         13    1    4    4    0    0 -0.25745479165E+02 -0.34635594147E+02  0.30921583072E+02  0.53090473524E+02  0.00000000000E+00 0.  1.
         21    1    1    2  502  501  0.34174344062E+02  0.57332871135E+02 -0.48587308941E+02  0.82557074166E+02  0.00000000000E+00 0. -1.
<scales pt_clust_5="13000.00000" pt_clust_6="13000.00000" pt_clust_7="13000.00000" pt_clust_8="13000.00000" pt_clust_9="66.74537"></scales>
<clustering>
<clus scale="   66.745">  2  9  1 -1</clus>
<clus scale="   79.902">  5  6 -1 -1</clus>
<clus scale="   86.337">  7  8 -1 -1</clus>
<clus scale="  103.531">  1  5  2 -1</clus>
<clus scale="   66.745">  2  5  1 -1</clus>
</clustering>
</event>
<event>
 9    1  0.2333971E-005  0.2244971E+03  0.7546771E-02  0.1131350E+00
          1   -1    0    0  502    0  0.00000000000E+00  0.00000000000E+00  0.22738248178E+03  0.22738248178E+03  0.00000000000E+00 0. -1.
         -2   -1    0    0    0  501 -0.00000000000E+00 -0.00000000000E+00 -0.31145712784E+03  0.31145712784E+03  0.00000000000E+00 0.  1.
        -24    2    1    2    0    0 -0.23360145890E+02 -0.21986769147E+03  0.82311691538E+01  0.23567544995E+03  0.81164446614E+02 0.  0.
         23    2    1    2    0    0  0.46829071194E+02  0.18396881567E+03 -0.11018504027E+02  0.21125579933E+03  0.92033245474E+02 0.  0.
         13    1    3    3    0    0  0.26032251091E+01 -0.31750467165E+02  0.30956046709E+02  0.44420105515E+02  0.00000000000E+00 0. -1.
        -14    1    3    3    0    0 -0.25963370999E+02 -0.18811722431E+03 -0.22724877556E+02  0.19125534443E+03  0.00000000000E+00 0.  1.
        -11    1    4    4    0    0  0.17056864750E+02  0.11047398442E+03 -0.50515791713E+02  0.12266736763E+03  0.00000000000E+00 0.  1.
         11    1    4    4    0    0  0.29772206444E+02  0.73494831250E+02  0.39497287686E+02  0.88588431702E+02  0.00000000000E+00 0. -1.
         21    1    1    2  502  501 -0.23468925304E+02  0.35898875799E+02 -0.81287311190E+02  0.91908360333E+02  0.00000000000E+00 0. -1.
<scales pt_clust_5="13000.00000" pt_clust_6="13000.00000" pt_clust_7="13000.00000" pt_clust_8="13000.00000" pt_clust_9="42.88962"></scales>
<clustering>
<clus scale="   42.890">  2  9  1 -1</clus>
<clus scale="   81.164">  5  6 -1 -1</clus>
<clus scale="   92.033">  7  8 -1 -1</clus>
<clus scale="  220.265">  2  5  1 -1</clus>
<clus scale="  224.497">  1  5  2 -1</clus>
</clustering>
</event>
<event>
 9    1  0.2333971E-005  0.1327716E+03  0.7546771E-02  0.1239604E+00
          1   -1    0    0  502    0  0.00000000000E+00  0.00000000000E+00  0.41089932587E+03  0.41089932587E+03  0.00000000000E+00 0. -1.
         -2   -1    0    0    0  501 -0.00000000000E+00 -0.00000000000E+00 -0.52456380426E+03  0.52456380426E+03  0.00000000000E+00 0.  1.
        -24    2    1    2    0    0 -0.95521205809E+02  0.22430964986E+02 -0.42331924500E+01  0.12719475169E+03  0.80827816933E+02 0.  0.
         23    2    1    2    0    0 -0.66633214271E+01  0.60184161880E+01  0.33661221266E+03  0.34978626588E+03  0.94667993011E+02 0.  0.
         13    1    3    3    0    0 -0.90161406332E+02 -0.10681055916E+02  0.87810884872E+01  0.91215523143E+02  0.00000000000E+00 0. -1.
        -14    1    3    3    0    0 -0.53597994767E+01  0.33112020901E+02 -0.13014280937E+02  0.35979228548E+02  0.00000000000E+00 0.  1.
        -11    1    4    4    0    0 -0.48922352516E+02  0.83597772694E+01  0.22523644950E+03  0.23063985049E+03  0.00000000000E+00 0. -1.
         11    1    4    4    0    0  0.42259031089E+02 -0.23413610814E+01  0.11137576316E+03  0.11914641539E+03  0.00000000000E+00 0.  1.
         21    1    1    2  502  501  0.10218452724E+03 -0.28449381174E+02 -0.44604349859E+03  0.45848211256E+03  0.00000000000E+00 0.  1.
<scales pt_clust_5="13000.00000" pt_clust_6="13000.00000" pt_clust_7="13000.00000" pt_clust_8="13000.00000" pt_clust_9="105.33360"></scales>
<clustering>
<clus scale="   80.828">  5  6 -1 -1</clus>
<clus scale="   94.668">  7  8 -1 -1</clus>
<clus scale="   95.093">  1  7  2 -1</clus>
<clus scale="  105.334">  2  9  1 -1</clus>
<clus scale="   95.093">  1  5  2 -1</clus>
</clustering>
</event>
<event>
 9    1  0.2333971E-005  0.1264268E+03  0.7546771E-02  0.1237230E+00
          1   -1    0    0  502    0  0.00000000000E+00  0.00000000000E+00  0.35182979355E+03  0.35182979355E+03  0.00000000000E+00 0. -1.
         -2   -1    0    0    0  501 -0.00000000000E+00 -0.00000000000E+00 -0.67162140804E+02  0.67162140804E+02  0.00000000000E+00 0.  1.
         23    2    1    2    0    0  0.86061800585E+02  0.52187760609E+02  0.16386682665E+03  0.21412907619E+03  0.94173926963E+02 0.  0.
        -24    2    1    2    0    0 -0.63363475471E+02 -0.34840711901E+02  0.13550206814E+03  0.17273404586E+03  0.79040716717E+02 0.  0.
         11    1    4    4    0    0 -0.25714228206E+02  0.19170733411E+02  0.14976388177E+02  0.35398174453E+02  0.00000000000E+00 0. -1.
        -12    1    4    4    0    0 -0.37649247265E+02 -0.54011445312E+02  0.12052567996E+03  0.13733587141E+03  0.00000000000E+00 0.  1.
        -13    1    3    3    0    0  0.58653200416E+02  0.76713700340E+02  0.91893711162E+02  0.13330282776E+03  0.00000000000E+00 0. -1.
         13    1    3    3    0    0  0.27408600168E+02 -0.24525939730E+02  0.71973115483E+02  0.80826248430E+02  0.00000000000E+00 0.  1.
         21    1    1    2  502  501 -0.22698325114E+02 -0.17347048708E+02 -0.14701242044E+02  0.32128812295E+02  0.00000000000E+00 0. -1.
<scales pt_clust_5="13000.00000" pt_clust_6="13000.00000" pt_clust_7="13000.00000" pt_clust_8="13000.00000" pt_clust_9="28.56806"></scales>
<clustering>
<clus scale="   28.568">  2  9  1 -1</clus>
<clus scale="   79.041">  5  6 -1 -1</clus>
<clus scale="   94.174">  7  8 -1 -1</clus>
<clus scale="  115.596">  1  5  2 -1</clus>
<clus scale="  115.596">  1  5  2 -1</clus>
</clustering>
</event>
<event>
 9    1  0.2333971E-005  0.1581788E+03  0.7546771E-02  0.1192293E+00
         -2   -1    0    0    0  501 -0.00000000000E+00  0.00000000000E+00  0.27458313988E+03  0.27458313988E+03  0.00000000000E+00 0.  1.
          1   -1    0    0  502    0  0.00000000000E+00 -0.00000000000E+00 -0.39325087297E+03  0.39325087297E+03  0.00000000000E+00 0. -1.
        -24    2    1    2    0    0 -0.19954939172E+02 -0.10723816284E+03  0.14582059984E+03  0.19925014813E+03  0.80862544015E+02 0.  0.
         23    2    1    2    0    0  0.42720367492E+02  0.12495328075E+03 -0.34649261628E+03  0.38165405040E+03  0.90356675901E+02 0.  0.
         13    1    3    3    0    0  0.22227463258E+02 -0.23482443339E+01  0.18817396899E+02  0.29217611134E+02  0.00000000000E+00 0. -1.
        -14    1    3    3    0    0 -0.42182402431E+02 -0.10488991850E+03  0.12700320294E+03  0.17003253699E+03  0.00000000000E+00 0.  1.
        -11    1    4    4    0    0  0.23030326058E+02  0.79819498266E+02 -0.30841344086E+03  0.31940632230E+03  0.00000000000E+00 0. -1.
         11    1    4    4    0    0  0.19690041433E+02  0.45133782484E+02 -0.38079175424E+02  0.62247728103E+02  0.00000000000E+00 0.  1.
         21    1    1    2  502  501 -0.22765428320E+02 -0.17715117911E+02  0.82004283353E+02  0.86929814319E+02  0.00000000000E+00 0.  1.
<scales pt_clust_5="13000.00000" pt_clust_6="13000.00000" pt_clust_7="13000.00000" pt_clust_8="13000.00000" pt_clust_9="28.84597"></scales>
<clustering>
<clus scale="   28.846">  1  9  2 -1</clus>
<clus scale="   80.863">  5  6 -1 -1</clus>
<clus scale="   90.357">  7  8 -1 -1</clus>
<clus scale="  152.954">  1  5  2 -1</clus>
<clus scale="  158.179">  2  5  1 -1</clus>
</clustering>
</event>
<event>
 9    1  0.2333971E-005  0.1291217E+03  0.7546771E-02  0.1234619E+00
         -2   -1    0    0    0  501 -0.00000000000E+00  0.00000000000E+00  0.40392382168E+03  0.40392382168E+03  0.00000000000E+00 0.  1.
          1   -1    0    0  502    0  0.00000000000E+00 -0.00000000000E+00 -0.11822765635E+03  0.11822765635E+03  0.00000000000E+00 0. -1.
        -24    2    1    2    0    0  0.21983038921E+02 -0.33264627629E+02  0.19051194049E+03  0.22329641333E+03  0.10943810711E+03 0.  0.
         23    2    1    2    0    0 -0.52216383230E+02  0.51637589481E+02 -0.65383043688E+02  0.13443648740E+03  0.91680070996E+02 0.  0.
         13    1    3    3    0    0 -0.85045802318E+01 -0.28729924974E+02 -0.34733107867E+00  0.29964263929E+02  0.00000000000E+00 0. -1.
        -14    1    3    3    0    0  0.30487619153E+02 -0.45347026548E+01  0.19085927157E+03  0.19333214941E+03  0.00000000000E+00 0.  1.
        -13    1    4    4    0    0  0.20897376418E+02  0.20377307265E+02  0.32873430012E+01  0.29372463577E+02  0.00000000000E+00 0.  1.
         13    1    4    4    0    0 -0.73113759649E+02  0.31260282216E+02 -0.68670386689E+02  0.10506402382E+03  0.00000000000E+00 0. -1.
         21    1    1    2  502  501  0.30233344309E+02 -0.18372961852E+02  0.16056726853E+03  0.16441857729E+03  0.00000000000E+00 0. -1.
<scales pt_clust_5="13000.00000" pt_clust_6="13000.00000" pt_clust_7="13000.00000" pt_clust_8="13000.00000" pt_clust_9="35.37825"></scales>
<clustering>
<clus scale="   35.378">  1  9  2 -1</clus>
<clus scale="   91.680">  7  8 -1 -1</clus>
<clus scale="  109.438">  5  6 -1 -1</clus>
<clus scale="  114.459">  2  7  1 -1</clus>
<clus scale="  114.459">  2  5  1 -1</clus>
</clustering>
</event>
<event>
 9    1  0.2333971E-005  0.1131682E+03  0.7546771E-02  0.1259020E+00
         -2   -1    0    0    0  501 -0.00000000000E+00  0.00000000000E+00  0.25968598829E+03  0.25968598829E+03  0.00000000000E+00 0.  1.
          1   -1    0    0  502    0  0.00000000000E+00 -0.00000000000E+00 -0.73725435473E+02  0.73725435473E+02  0.00000000000E+00 0. -1.
        -24    2    1    2    0    0  0.50660506049E+02  0.16664416660E+02  0.11688881281E+03  0.15145934719E+03  0.80204424046E+02 0.  0.
         23    2    1    2    0    0 -0.73473126684E+02 -0.23068958138E+01  0.11057680635E+02  0.11798188703E+03  0.91617854442E+02 0.  0.
         11    1    3    3    0    0 -0.11843981971E+02 -0.17891328583E+02  0.12061350145E+02  0.24614136482E+02  0.00000000000E+00 0. -1.
        -12    1    3    3    0    0  0.62504488020E+02  0.34555745243E+02  0.10482746266E+03  0.12684521071E+03  0.00000000000E+00 0.  1.
        -13    1    4    4    0    0 -0.12488102095E+02  0.37647184718E+02 -0.12126920086E+02  0.41476805589E+02  0.00000000000E+00 0. -1.
         13    1    4    4    0    0 -0.60985024590E+02 -0.39954080531E+02  0.23184600721E+02  0.76505081439E+02  0.00000000000E+00 0.  1.
         21    1    1    2  502  501  0.22812620635E+02 -0.14357520846E+02  0.58014059371E+02  0.63970189541E+02  0.00000000000E+00 0. -1.
<scales pt_clust_5="13000.00000" pt_clust_6="13000.00000" pt_clust_7="13000.00000" pt_clust_8="13000.00000" pt_clust_9="26.95467"></scales>
<clustering>
<clus scale="   26.955">  1  9  2 -1</clus>
<clus scale="   80.204">  5  6 -1 -1</clus>
<clus scale="   91.618">  7  8 -1 -1</clus>
<clus scale="  104.144">  1  5  2 -1</clus>
<clus scale="  113.168">  2  5  1 -1</clus>
</clustering>
</event>
<event>
 9    1  0.2333971E-005  0.1062289E+03  0.7546771E-02  0.1274992E+00
          1   -1    0    0  502    0  0.00000000000E+00  0.00000000000E+00  0.21954598047E+03  0.21954598047E+03  0.00000000000E+00 0. -1.
         -2   -1    0    0    0  501 -0.00000000000E+00 -0.00000000000E+00 -0.90062903212E+02  0.90062903212E+02  0.00000000000E+00 0.  1.
         23    2    1    2    0    0 -0.22218143977E+02 -0.70436513839E+02 -0.11307121634E+02  0.11624582330E+03  0.89052187130E+02 0.  0.
        -24    2    1    2    0    0  0.33725189796E+01  0.21507674857E+02  0.10789774229E+03  0.13146715933E+03  0.71886975375E+02 0.  0.
         11    1    4    4    0    0 -0.55800360681E+01 -0.26070804632E+02  0.40293796828E+02  0.48315770919E+02  0.00000000000E+00 0. -1.
        -12    1    4    4    0    0  0.89525550477E+01  0.47578479489E+02  0.67603945460E+02  0.83151388407E+02  0.00000000000E+00 0.  1.
        -11    1    3    3    0    0 -0.44687236746E+02 -0.42325831508E+01  0.26024282314E+01  0.44962612478E+02  0.00000000000E+00 0.  1.
         11    1    3    3    0    0  0.22469092769E+02 -0.66203930688E+02 -0.13909549866E+02  0.71283210827E+02  0.00000000000E+00 0. -1.
         21    1    1    2  502  501  0.18845624998E+02  0.48928838982E+02  0.32892456607E+02  0.61895901054E+02  0.00000000000E+00 0.  1.
<scales pt_clust_5="13000.00000" pt_clust_6="13000.00000" pt_clust_7="13000.00000" pt_clust_8="13000.00000" pt_clust_9="52.43271"></scales>
<clustering>
<clus scale="   52.433">  1  9  2 -1</clus>
<clus scale="   71.887">  5  6 -1 -1</clus>
<clus scale="   89.052">  7  8 -1 -1</clus>
<clus scale="   92.315">  1  5  2 -1</clus>
<clus scale="   52.433">  1  5  2 -1</clus>
</clustering>
</event>
<event>
 9    1  0.2333971E-005  0.1423784E+03  0.7546771E-02  0.1212088E+00
          1   -1    0    0  502    0  0.00000000000E+00  0.00000000000E+00  0.24918907292E+03  0.24918907292E+03  0.00000000000E+00 0. -1.
         -2   -1    0    0    0  501 -0.00000000000E+00 -0.00000000000E+00 -0.15843266997E+03  0.15843266997E+03  0.00000000000E+00 0.  1.
        -24    2    1    2    0    0 -0.41820972223E+02  0.66496245902E+02  0.13794432315E+02  0.11347976807E+03  0.80725627669E+02 0.  0.
         23    2    1    2    0    0  0.99151457105E+02 -0.93774370592E+02  0.13197741693E+03  0.21013257109E+03  0.90072275564E+02 0.  0.
         11    1    3    3    0    0 -0.13917691604E+02  0.67811839309E+02  0.35785604569E+02  0.77927897344E+02  0.00000000000E+00 0. -1.
        -12    1    3    3    0    0 -0.27903280619E+02 -0.13155934080E+01 -0.21991172254E+02  0.35551870730E+02  0.00000000000E+00 0.  1.
        -11    1    4    4    0    0  0.94211912159E+02 -0.53905010871E+02  0.13075909762E+03  0.16993991939E+03  0.00000000000E+00 0.  1.
         11    1    4    4    0    0  0.49395449458E+01 -0.39869359721E+02  0.12183193103E+01  0.40192651701E+02  0.00000000000E+00 0. -1.
         21    1    1    2  502  501 -0.57330484881E+02  0.27278124690E+02 -0.55015446300E+02  0.84009403729E+02  0.00000000000E+00 0.  1.
<scales pt_clust_5="13000.00000" pt_clust_6="13000.00000" pt_clust_7="13000.00000" pt_clust_8="13000.00000" pt_clust_9="63.48922"></scales>
<clustering>
<clus scale="   63.489">  2  9  1 -1</clus>
<clus scale="   80.726">  5  6 -1 -1</clus>
<clus scale="   90.072">  7  8 -1 -1</clus>
<clus scale="  136.657">  2  5  1 -1</clus>
<clus scale="  142.378">  1  5  2 -1</clus>
</clustering>
</event>
<event>
 9    1  0.2333971E-005  0.1381199E+03  0.7546771E-02  0.1220112E+00
         -2   -1    0    0    0  501 -0.00000000000E+00  0.00000000000E+00  0.60768547415E+03  0.60768547415E+03  0.00000000000E+00 0.  1.
          1   -1    0    0  502    0  0.00000000000E+00 -0.00000000000E+00 -0.68473916168E+02  0.68473916168E+02  0.00000000000E+00 0. -1.
        -24    2    1    2    0    0 -0.15587902639E+02 -0.12325599414E+03  0.11342976708E+03  0.18644516054E+03  0.80377005615E+02 0.  0.
         23    2    1    2    0    0  0.30110157078E+02  0.69890532273E+02  0.99990268774E+02  0.15926168510E+03  0.97851532585E+02 0.  0.
         13    1    3    3    0    0 -0.18814809940E+02 -0.47756002772E+02  0.14462940336E+01  0.51349047121E+02  0.00000000000E+00 0. -1.
        -14    1    3    3    0    0  0.32269073009E+01 -0.75499991364E+02  0.11198347305E+03  0.13509611342E+03  0.00000000000E+00 0.  1.
        -13    1    4    4    0    0  0.37652071949E+02 -0.13045282093E+02  0.23956679415E+02  0.46494950216E+02  0.00000000000E+00 0.  1.
         13    1    4    4    0    0 -0.75419148715E+01  0.82935814367E+02  0.76033589360E+02  0.11276673488E+03  0.00000000000E+00 0. -1.
         21    1    1    2  502  501 -0.14522254439E+02  0.53365461862E+02  0.32579152213E+03  0.33045254468E+03  0.00000000000E+00 0.  1.
<scales pt_clust_5="13000.00000" pt_clust_6="13000.00000" pt_clust_7="13000.00000" pt_clust_8="13000.00000" pt_clust_9="55.30613"></scales>
<clustering>
<clus scale="   55.306">  1  9  2 -1</clus>
<clus scale="   80.377">  5  6 -1 -1</clus>
<clus scale="   97.852">  7  8 -1 -1</clus>
<clus scale="  126.343">  1  5  2 -1</clus>
<clus scale="  138.120">  2  5  1 -1</clus>
</clustering>
</event>
<event>
 9    1  0.2333971E-005  0.1179964E+03  0.7546771E-02  0.1249645E+00
          1   -1    0    0  502    0  0.00000000000E+00  0.00000000000E+00  0.73912654298E+03  0.73912654298E+03  0.00000000000E+00 0. -1.
         -2   -1    0    0    0  501 -0.00000000000E+00 -0.00000000000E+00 -0.35534218614E+02  0.35534218614E+02  0.00000000000E+00 0.  1.
        -24    2    1    2    0    0 -0.76395741350E+01 -0.76377985116E+02  0.26890476046E+03  0.29098603850E+03  0.80443425492E+02 0.  0.
         23    2    1    2    0    0 -0.55231721492E+02  0.67397791619E+02  0.37892841388E+03  0.39916125374E+03  0.90277119306E+02 0.  0.
         11    1    3    3    0    0  0.12503962285E+02 -0.68702897836E+02  0.10777488324E+03  0.12842064749E+03  0.00000000000E+00 0. -1.
        -12    1    3    3    0    0 -0.20143536420E+02 -0.76750872800E+01  0.16112987722E+03  0.16256539102E+03  0.00000000000E+00 0.  1.
        -13    1    4    4    0    0 -0.28880728031E+02  0.81713198982E+02  0.20347267674E+03  0.22116119352E+03  0.00000000000E+00 0.  1.
         13    1    4    4    0    0 -0.26350993461E+02 -0.14315407363E+02  0.17545573713E+03  0.17800006022E+03  0.00000000000E+00 0. -1.
         21    1    1    2  502  501  0.62871295627E+02  0.89801934964E+01  0.55759150029E+02  0.84513469346E+02  0.00000000000E+00 0.  1.
<scales pt_clust_5="13000.00000" pt_clust_6="13000.00000" pt_clust_7="13000.00000" pt_clust_8="13000.00000" pt_clust_9="63.50940"></scales>
<clustering>
<clus scale="   63.509">  2  9  1 -1</clus>
<clus scale="   80.443">  5  6 -1 -1</clus>
<clus scale="   90.277">  7  8 -1 -1</clus>
<clus scale="  110.654">  2  5  1 -1</clus>
<clus scale="  117.996">  1  5  2 -1</clus>
</clustering>
</event>
<event>
 9    1  0.2333971E-005  0.1651504E+03  0.7546771E-02  0.1184600E+00
          1   -1    0    0  502    0  0.00000000000E+00  0.00000000000E+00  0.11233602273E+03  0.11233602273E+03  0.00000000000E+00 0. -1.
         -2   -1    0    0    0  501 -0.00000000000E+00 -0.00000000000E+00 -0.51167895533E+03  0.51167895533E+03  0.00000000000E+00 0.  1.
        -24    2    1    2    0    0 -0.66322339625E+02  0.11536783365E+03 -0.25351375959E+03  0.29755906511E+03  0.81017165795E+02 0.  0.
         23    2    1    2    0    0  0.47068573391E+02 -0.13063559458E+03  0.11801187606E+02  0.16692177044E+03  0.91883079209E+02 0.  0.
         11    1    3    3    0    0 -0.45096028280E+02  0.10797221402E+03 -0.14294826744E+03  0.18473185413E+03  0.00000000000E+00 0. -1.
        -12    1    3    3    0    0 -0.21226311346E+02  0.73956196337E+01 -0.11056549215E+03  0.11282721098E+03  0.00000000000E+00 0.  1.
        -13    1    4    4    0    0  0.37220238170E+01 -0.67977105072E+02  0.47269236808E+02  0.82880160616E+02  0.00000000000E+00 0.  1.
         13    1    4    4    0    0  0.43346549574E+02 -0.62658489508E+02 -0.35468049202E+02  0.84041609822E+02  0.00000000000E+00 0. -1.
         21    1    1    2  502  501  0.19253766234E+02  0.15267760928E+02 -0.15763036062E+03  0.15953414251E+03  0.00000000000E+00 0. -1.
<scales pt_clust_5="13000.00000" pt_clust_6="13000.00000" pt_clust_7="13000.00000" pt_clust_8="13000.00000" pt_clust_9="24.57259"></scales>
<clustering>
<clus scale="   24.573">  2  9  1 -1</clus>
<clus scale="   81.017">  5  6 -1 -1</clus>
<clus scale="   91.883">  7  8 -1 -1</clus>
<clus scale="  159.361">  2  5  1 -1</clus>
<clus scale="  165.150">  1  5  2 -1</clus>
</clustering>
</event>
<event>
 9    1  0.2333971E-005  0.1163610E+03  0.7546771E-02  0.1253041E+00
          1   -1    0    0  502    0  0.00000000000E+00  0.00000000000E+00  0.49069894436E+03  0.49069894436E+03  0.00000000000E+00 0. -1.
         -2   -1    0    0    0  501 -0.00000000000E+00 -0.00000000000E+00 -0.11435868997E+03  0.11435868997E+03  0.00000000000E+00 0.  1.
         23    2    1    2    0    0  0.12662134863E+02  0.16327709567E+01 -0.63386785006E+02  0.11164766894E+03  0.91018250186E+02 0.  0.
        -24    2    1    2    0    0 -0.73211510019E+02  0.26328908413E+02  0.40117855535E+03  0.41637706354E+03  0.79827872006E+02 0.  0.
         11    1    4    4    0    0 -0.56856688537E+02  0.34225003063E+02  0.38874198657E+03  0.39436577690E+03  0.00000000000E+00 0. -1.
        -12    1    4    4    0    0 -0.16354821482E+02 -0.78960946500E+01  0.12436568778E+02  0.22011286637E+02  0.00000000000E+00 0.  1.
        -11    1    3    3    0    0  0.30358958281E+02 -0.24755316766E+02 -0.69037097959E+02  0.79376400465E+02  0.00000000000E+00 0.  1.
         11    1    3    3    0    0 -0.17696823419E+02  0.26388087723E+02  0.56503129531E+01  0.32271268479E+02  0.00000000000E+00 0. -1.
         21    1    1    2  502  501  0.60549375157E+02 -0.27961679370E+02  0.38548484049E+02  0.77032901851E+02  0.00000000000E+00 0.  1.
<scales pt_clust_5="13000.00000" pt_clust_6="13000.00000" pt_clust_7="13000.00000" pt_clust_8="13000.00000" pt_clust_9="66.69395"></scales>
<clustering>
<clus scale="   66.694">  2  9  1 -1</clus>
<clus scale="   79.828">  5  6 -1 -1</clus>
<clus scale="   91.018">  7  8 -1 -1</clus>
<clus scale="  107.833">  1  5  2 -1</clus>
<clus scale="  107.833">  1  5  2 -1</clus>
</clustering>
</event>
<event>
 9    1  0.2333971E-005  0.1300206E+03  0.7546771E-02  0.1230364E+00
          1   -1    0    0  502    0  0.00000000000E+00  0.00000000000E+00  0.46248148297E+03  0.46248148297E+03  0.00000000000E+00 0. -1.
         -2   -1    0    0    0  501 -0.00000000000E+00 -0.00000000000E+00 -0.10784699434E+03  0.10784699434E+03  0.00000000000E+00 0.  1.
         23    2    1    2    0    0  0.32599744351E+02 -0.11533599604E+03  0.78497332913E+01  0.15127701230E+03  0.91967281267E+02 0.  0.
        -24    2    1    2    0    0 -0.73482720602E+02  0.53511583819E+02  0.31637292729E+03  0.33893558033E+03  0.80760749523E+02 0.  0.
         11    1    4    4    0    0 -0.42596478356E+02  0.73304382805E+02  0.22787636341E+03  0.24313705910E+03  0.00000000000E+00 0. -1.
        -12    1    4    4    0    0 -0.30886242246E+02 -0.19792798986E+02  0.88496563882E+02  0.95798521235E+02  0.00000000000E+00 0.  1.
        -11    1    3    3    0    0  0.47996706905E+02 -0.29224314888E+02 -0.19727066844E+02  0.59555869742E+02  0.00000000000E+00 0.  1.
         11    1    3    3    0    0 -0.15396962555E+02 -0.86111681148E+02  0.27576800136E+02  0.91721142556E+02  0.00000000000E+00 0. -1.
         21    1    1    2  502  501  0.40882976251E+02  0.61824412217E+02  0.30411828049E+02  0.80115884682E+02  0.00000000000E+00 0.  1.
<scales pt_clust_5="13000.00000" pt_clust_6="13000.00000" pt_clust_7="13000.00000" pt_clust_8="13000.00000" pt_clust_9="74.11933"></scales>
<clustering>
<clus scale="   74.119">  2  9  1 -1</clus>
<clus scale="   80.761">  5  6 -1 -1</clus>
<clus scale="   91.967">  7  8 -1 -1</clus>
<clus scale="  122.351">  1  5  2 -1</clus>
<clus scale="  122.351">  1  5  2 -1</clus>
</clustering>
</event>
<event>
 9    1  0.2333971E-005  0.1036368E+03  0.7546771E-02  0.1281398E+00
         -2   -1    0    0    0  501 -0.00000000000E+00  0.00000000000E+00  0.11401308457E+03  0.11401308457E+03  0.00000000000E+00 0.  1.
          1   -1    0    0  502    0  0.00000000000E+00 -0.00000000000E+00 -0.60208272482E+03  0.60208272482E+03  0.00000000000E+00 0. -1.
        -24    2    1    2    0    0  0.11528411500E+02  0.33584967694E+02  0.80612150715E+02  0.11897719988E+03  0.79977502601E+02 0.  0.
         23    2    1    2    0    0 -0.85589412233E+01 -0.69645386139E+02 -0.53311806939E+03  0.54638450043E+03  0.96940245080E+02 0.  0.
         11    1    3    3    0    0 -0.29559272707E+02  0.18493063677E+02  0.10663133019E+02  0.36461574471E+02  0.00000000000E+00 0. -1.
        -12    1    3    3    0    0  0.41087684207E+02  0.15091904017E+02  0.69949017696E+02  0.82515625412E+02  0.00000000000E+00 0.  1.
        -11    1    4    4    0    0 -0.33076904311E+02 -0.77356903942E+02 -0.48067058597E+03  0.48797785237E+03  0.00000000000E+00 0. -1.
         11    1    4    4    0    0  0.24517963088E+02  0.77115178034E+01 -0.52447483427E+02  0.58406648069E+02  0.00000000000E+00 0.  1.
         21    1    1    2  502  501 -0.29694702766E+01  0.36060418445E+02 -0.35563721566E+02  0.50734109076E+02  0.00000000000E+00 0.  1.
<scales pt_clust_5="13000.00000" pt_clust_6="13000.00000" pt_clust_7="13000.00000" pt_clust_8="13000.00000" pt_clust_9="36.18248"></scales>
<clustering>
<clus scale="   36.182">  2  9  1 -1</clus>
<clus scale="   79.978">  5  6 -1 -1</clus>
<clus scale="   87.975">  1  5  2 -1</clus>
<clus scale="   96.940">  7  8 -1 -1</clus>
<clus scale="   36.182">  2  5  1 -1</clus>
</clustering>
</event>
<event>
 9    1  0.2333971E-005  0.1868638E+03  0.7546771E-02  0.1162607E+00
         -2   -1    0    0    0  501 -0.00000000000E+00  0.00000000000E+00  0.45810223135E+03  0.45810223135E+03  0.00000000000E+00 0.  1.
          1   -1    0    0  502    0  0.00000000000E+00 -0.00000000000E+00 -0.22167590663E+03  0.22167590663E+03  0.00000000000E+00 0. -1.
         23    2    1    2    0    0  0.68634904766E+01  0.18486053831E+03  0.34872076012E+03  0.40485314053E+03  0.89885319864E+02 0.  0.
        -24    2    1    2    0    0 -0.11854432656E+02 -0.16102508161E+03 -0.14749454772E+03  0.23212211896E+03  0.77823081567E+02 0.  0.
         11    1    4    4    0    0 -0.38789858350E+02 -0.13740082111E+03 -0.10973849361E+03  0.18007269569E+03  0.00000000000E+00 0. -1.
        -12    1    4    4    0    0  0.26935425694E+02 -0.23624260500E+02 -0.37756054108E+02  0.52049423275E+02  0.00000000000E+00 0.  1.
        -11    1    3    3    0    0  0.26131753543E+02  0.12628249841E+03  0.29905239481E+03  0.32567233962E+03  0.00000000000E+00 0.  1.
         11    1    3    3    0    0 -0.19268263066E+02  0.58578039900E+02  0.49668365310E+02  0.79180800909E+02  0.00000000000E+00 0. -1.
         21    1    1    2  502  501  0.49909421794E+01 -0.23835456699E+02  0.35200112309E+02  0.42802878483E+02  0.00000000000E+00 0.  1.
<scales pt_clust_5="13000.00000" pt_clust_6="13000.00000" pt_clust_7="13000.00000" pt_clust_8="13000.00000" pt_clust_9="24.35238"></scales>
<clustering>
<clus scale="   24.352">  1  9  2 -1</clus>
<clus scale="   77.823">  5  6 -1 -1</clus>
<clus scale="   89.885">  7  8 -1 -1</clus>
<clus scale="  181.370">  2  5  1 -1</clus>
<clus scale="  181.370">  2  5  1 -1</clus>
</clustering>
</event>
<event>
 9    1  0.2333971E-005  0.1049745E+03  0.7546771E-02  0.1274268E+00
          1   -1    0    0  502    0  0.00000000000E+00  0.00000000000E+00  0.11853025671E+03  0.11853025671E+03  0.00000000000E+00 0. -1.
         -2   -1    0    0    0  501 -0.00000000000E+00 -0.00000000000E+00 -0.31199325987E+03  0.31199325987E+03  0.00000000000E+00 0.  1.
        -24    2    1    2    0    0  0.20242714606E+02  0.29739272753E+01 -0.14755159364E+03  0.17002328937E+03  0.81962396269E+02 0.  0.
         23    2    1    2    0    0 -0.28493483922E+02 -0.51643603674E+02  0.73570438102E+02  0.13122252416E+03  0.91256786362E+02 0.  0.
         11    1    3    3    0    0 -0.85818433534E+01 -0.32580993050E+02 -0.92408372579E+02  0.98358916557E+02  0.00000000000E+00 0. -1.
        -12    1    3    3    0    0  0.28824557960E+02  0.35554920325E+02 -0.55143221064E+02  0.71664372810E+02  0.00000000000E+00 0.  1.
        -11    1    4    4    0    0 -0.15455729885E+02 -0.75329818371E+02  0.69930888733E+02  0.10394128305E+03  0.00000000000E+00 0. -1.
         11    1    4    4    0    0 -0.13037754037E+02  0.23686214697E+02  0.36395493692E+01  0.27281241112E+02  0.00000000000E+00 0.  1.
         21    1    1    2  502  501  0.82507693153E+01  0.48669676399E+02 -0.11948184762E+03  0.12927770305E+03  0.00000000000E+00 0.  1.
<scales pt_clust_5="13000.00000" pt_clust_6="13000.00000" pt_clust_7="13000.00000" pt_clust_8="13000.00000" pt_clust_9="49.36408"></scales>
<clustering>
<clus scale="   49.364">  2  9  1 -1</clus>
<clus scale="   81.962">  5  6 -1 -1</clus>
<clus scale="   91.257">  7  8 -1 -1</clus>
<clus scale="   97.004">  2  5  1 -1</clus>
<clus scale="  104.975">  1  5  2 -1</clus>
</clustering>
</event>
<event>
 9    1  0.2333971E-005  0.3536844E+03  0.7546771E-02  0.1061511E+00
          1   -1    0    0  502    0  0.00000000000E+00  0.00000000000E+00  0.89575101116E+03  0.89575101116E+03  0.00000000000E+00 0. -1.
         -2   -1    0    0    0  501 -0.00000000000E+00 -0.00000000000E+00 -0.50720475943E+03  0.50720475943E+03  0.00000000000E+00 0.  1.
        -24    2    1    2    0    0  0.24625287808E+03 -0.27077546043E+03 -0.20253400220E+03  0.42607957149E+03  0.81018203292E+02 0.  0.
         23    2    1    2    0    0 -0.23434726490E+03  0.24226773591E+03  0.74314755733E+03  0.82170242958E+03  0.96510592082E+02 0.  0.
         13    1    3    3    0    0  0.90356376753E+02 -0.56101292639E+02 -0.83850474555E+02  0.13543460392E+03  0.00000000000E+00 0. -1.
        -14    1    3    3    0    0  0.15589650132E+03 -0.21467416779E+03 -0.11868352764E+03  0.29064496757E+03  0.00000000000E+00 0.  1.
        -13    1    4    4    0    0 -0.76704344978E+02  0.22224459022E+02  0.16274822974E+03  0.18128560174E+03  0.00000000000E+00 0.  1.
         13    1    4    4    0    0 -0.15764291992E+03  0.22004327689E+03  0.58039932759E+03  0.64041682784E+03  0.00000000000E+00 0. -1.
         21    1    1    2  502  501 -0.11905613178E+02  0.28507724516E+02 -0.15206730340E+03  0.15517376952E+03  0.00000000000E+00 0.  1.
<scales pt_clust_5="13000.00000" pt_clust_6="13000.00000" pt_clust_7="13000.00000" pt_clust_8="13000.00000" pt_clust_9="30.89391"></scales>
<clustering>
<clus scale="   30.894">  2  9  1 -1</clus>
<clus scale="   81.018">  5  6 -1 -1</clus>
<clus scale="   96.511">  7  8 -1 -1</clus>
<clus scale="  349.775">  2  5  1 -1</clus>
<clus scale="  353.684">  1  5  2 -1</clus>
</clustering>
</event>
<event>
 9    1  0.2333971E-005  0.1211727E+03  0.7546771E-02  0.1245622E+00
          1   -1    0    0  502    0  0.00000000000E+00  0.00000000000E+00  0.41923688874E+03  0.41923688874E+03  0.00000000000E+00 0. -1.
         -2   -1    0    0    0  501 -0.00000000000E+00 -0.00000000000E+00 -0.52018281145E+02  0.52018281145E+02  0.00000000000E+00 0.  1.
         23    2    1    2    0    0 -0.31696490192E+02  0.46430915964E+02  0.47596887763E+02  0.12034005379E+03  0.95161795763E+02 0.  0.
        -24    2    1    2    0    0  0.37489325907E+02 -0.71562724545E+02  0.28857051619E+03  0.31055000745E+03  0.81496571801E+02 0.  0.
         11    1    4    4    0    0 -0.73927421161E+01 -0.57320680400E+02  0.21931839302E+03  0.22680579921E+03  0.00000000000E+00 0. -1.
        -12    1    4    4    0    0  0.44882068023E+02 -0.14242044145E+02  0.69252123167E+02  0.83744208245E+02  0.00000000000E+00 0.  1.
        -13    1    3    3    0    0 -0.60591158223E+02  0.23569556966E+02  0.68009653175E+01  0.65368689750E+02  0.00000000000E+00 0. -1.
         13    1    3    3    0    0  0.28894668031E+02  0.22861358998E+02  0.40795922445E+02  0.54971364036E+02  0.00000000000E+00 0.  1.
         21    1    1    2  502  501 -0.57928357145E+01  0.25131808581E+02  0.31051203645E+02  0.40365108645E+02  0.00000000000E+00 0. -1.
<scales pt_clust_5="13000.00000" pt_clust_6="13000.00000" pt_clust_7="13000.00000" pt_clust_8="13000.00000" pt_clust_9="25.79079"></scales>
<clustering>
<clus scale="   25.791">  2  9  1 -1</clus>
<clus scale="   81.497">  5  6 -1 -1</clus>
<clus scale="   95.162">  7  8 -1 -1</clus>
<clus scale="  110.764">  1  5  2 -1</clus>
<clus scale="  110.764">  1  5  2 -1</clus>
</clustering>
</event>
<event>
 9    1  0.2333971E-005  0.1463418E+03  0.7546771E-02  0.1217960E+00
          1   -1    0    0  502    0  0.00000000000E+00  0.00000000000E+00  0.14438482704E+03  0.14438482704E+03  0.00000000000E+00 0. -1.
         -2   -1    0    0    0  501 -0.00000000000E+00 -0.00000000000E+00 -0.33785333082E+03  0.33785333082E+03  0.00000000000E+00 0.  1.
         23    2    1    2    0    0  0.63231224892E+02 -0.22591359702E+01 -0.10521195540E+03  0.15304122829E+03  0.91371606648E+02 0.  0.
        -24    2    1    2    0    0 -0.27533958667E+02 -0.11434051477E+03 -0.13497331025E+03  0.19861274520E+03  0.86007882647E+02 0.  0.
         13    1    4    4    0    0  0.24504166432E+02 -0.42287360891E+02 -0.18859143023E+02  0.52386470956E+02  0.00000000000E+00 0. -1.
        -14    1    4    4    0    0 -0.52038125099E+02 -0.72053153880E+02 -0.11611416723E+03  0.14622627424E+03  0.00000000000E+00 0.  1.
        -13    1    3    3    0    0  0.56014208290E+02 -0.27737399274E+02 -0.22890033706E+02  0.66565069608E+02  0.00000000000E+00 0.  1.
         13    1    3    3    0    0  0.72170166021E+01  0.25478263304E+02 -0.82321921691E+02  0.86476158683E+02  0.00000000000E+00 0. -1.
         21    1    1    2  502  501 -0.35697266225E+02  0.11659965074E+03  0.46716761868E+02  0.13058418437E+03  0.00000000000E+00 0. -1.
<scales pt_clust_5="13000.00000" pt_clust_6="13000.00000" pt_clust_7="13000.00000" pt_clust_8="13000.00000" pt_clust_9="118.40002"></scales>
<clustering>
<clus scale="   86.008">  5  6 -1 -1</clus>
<clus scale="   91.372">  7  8 -1 -1</clus>
<clus scale="  111.140">  2  7  1 -1</clus>
<clus scale="  118.400">  1  9  2 -1</clus>
<clus scale="  118.400">  1  5  2 -1</clus>
</clustering>
</event>
<event>
 9    1  0.2333971E-005  0.9614176E+02  0.7546771E-02  0.1297267E+00
         -2   -1    0    0    0  501 -0.00000000000E+00  0.00000000000E+00  0.23333768497E+03  0.23333768497E+03  0.00000000000E+00 0.  1.
          1   -1    0    0  502    0  0.00000000000E+00 -0.00000000000E+00 -0.87498063574E+02  0.87498063574E+02  0.00000000000E+00 0. -1.
        -24    2    1    2    0    0 -0.27808157651E+01 -0.12999858172E+02  0.16590242802E+03  0.18414129873E+03  0.78788787439E+02 0.  0.
         23    2    1    2    0    0 -0.24290704740E+02  0.88614086489E+01 -0.37686835853E+02  0.10412758946E+03  0.93561179933E+02 0.  0.
         11    1    3    3    0    0  0.22923031471E+02 -0.10776565397E+02  0.11887820318E+02  0.27980707737E+02  0.00000000000E+00 0. -1.
        -12    1    3    3    0    0 -0.25703847236E+02 -0.22232927758E+01  0.15401460770E+03  0.15616059099E+03  0.00000000000E+00 0.  1.
        -11    1    4    4    0    0  0.63075753478E+01 -0.25449088237E+02 -0.50067513709E+02  0.56517232132E+02  0.00000000000E+00 0. -1.
         11    1    4    4    0    0 -0.30598280088E+02  0.34310496886E+02  0.12380677856E+02  0.47610357330E+02  0.00000000000E+00 0.  1.
         21    1    1    2  502  501  0.27071520505E+02  0.41384495235E+01  0.17624029230E+02  0.32566860352E+02  0.00000000000E+00 0. -1.
<scales pt_clust_5="13000.00000" pt_clust_6="13000.00000" pt_clust_7="13000.00000" pt_clust_8="13000.00000" pt_clust_9="27.38602"></scales>
<clustering>
<clus scale="   27.386">  1  9  2 -1</clus>
<clus scale="   78.789">  5  6 -1 -1</clus>
<clus scale="   81.837">  1  5  2 -1</clus>
<clus scale="   93.561">  7  8 -1 -1</clus>
<clus scale="   96.142">  2  5  1 -1</clus>
</clustering>
</event>
<event>
 9    1  0.2333971E-005  0.9820150E+02  0.7546771E-02  0.1294305E+00
         -4   -1    0    0    0  501 -0.00000000000E+00  0.00000000000E+00  0.50361726207E+03  0.50361726207E+03  0.00000000000E+00 0.  1.
          3   -1    0    0  502    0  0.00000000000E+00 -0.00000000000E+00 -0.53801947679E+02  0.53801947679E+02  0.00000000000E+00 0. -1.
        -24    2    1    2    0    0 -0.12263616688E+02 -0.23609775681E+02  0.19979904534E+03  0.21696125756E+03  0.80278957129E+02 0.  0.
         23    2    1    2    0    0  0.11594358315E+02 -0.57003316068E+01  0.10223445742E+02  0.98879541725E+02  0.97497292289E+02 0.  0.
         13    1    3    3    0    0 -0.46733119815E+02 -0.14092953382E+02  0.11465061201E+03  0.12460882255E+03  0.00000000000E+00 0. -1.
        -14    1    3    3    0    0  0.34469503127E+02 -0.95168222988E+01  0.85148433329E+02  0.92352435002E+02  0.00000000000E+00 0.  1.
        -11    1    4    4    0    0 -0.35323489897E+02 -0.23963484751E+02 -0.11252934960E+02  0.44143245068E+02  0.00000000000E+00 0. -1.
         11    1    4    4    0    0  0.46917848212E+02  0.18263153144E+02  0.21476380702E+02  0.54736296657E+02  0.00000000000E+00 0.  1.
         21    1    1    2  502  501  0.66925837337E+00  0.29310107288E+02  0.23979282331E+03  0.24157841047E+03  0.00000000000E+00 0.  1.
<scales pt_clust_5="13000.00000" pt_clust_6="13000.00000" pt_clust_7="13000.00000" pt_clust_8="13000.00000" pt_clust_9="29.31775"></scales>
<clustering>
<clus scale="   29.318">  1  9  2 -1</clus>
<clus scale="   80.279">  5  6 -1 -1</clus>
<clus scale="   81.133">  1  5  2 -1</clus>
<clus scale="   97.497">  7  8 -1 -1</clus>
<clus scale="   98.202">  2  5  1 -1</clus>
</clustering>
</event>
<event>
 9    1  0.2333971E-005  0.1020363E+03  0.7546771E-02  0.1279265E+00
          1   -1    0    0  502    0  0.00000000000E+00  0.00000000000E+00  0.68268052391E+03  0.68268052391E+03  0.00000000000E+00 0. -1.
         -2   -1    0    0    0  501 -0.00000000000E+00 -0.00000000000E+00 -0.49615382328E+02  0.49615382328E+02  0.00000000000E+00 0.  1.
         23    2    1    2    0    0 -0.23012365743E+02  0.32501596085E+02  0.93024451598E+02  0.13449980816E+03  0.88604328759E+02 0.  0.
        -24    2    1    2    0    0  0.32621276775E+01 -0.53799966833E+02  0.55608348240E+03  0.56461381834E+03  0.81577242907E+02 0.  0.
         13    1    4    4    0    0  0.19081196606E+02 -0.68200468267E+02  0.32960848304E+03  0.33713075806E+03  0.00000000000E+00 0. -1.
        -14    1    4    4    0    0 -0.15819068929E+02  0.14400501435E+02  0.22647499936E+03  0.22748306029E+03  0.00000000000E+00 0.  1.
        -11    1    3    3    0    0  0.35101168465E+01  0.40583933808E+02  0.36215112898E+01  0.40896111644E+02  0.00000000000E+00 0.  1.
         11    1    3    3    0    0 -0.26522482589E+02 -0.80823377225E+01  0.89402940308E+02  0.93603696516E+02  0.00000000000E+00 0. -1.
         21    1    1    2  502  501  0.19750238065E+02  0.21298370747E+02 -0.16042792412E+02  0.33182279736E+02  0.00000000000E+00 0. -1.
<scales pt_clust_5="13000.00000" pt_clust_6="13000.00000" pt_clust_7="13000.00000" pt_clust_8="13000.00000" pt_clust_9="29.04639"></scales>
<clustering>
<clus scale="   29.046">  2  9  1 -1</clus>
<clus scale="   81.577">  5  6 -1 -1</clus>
<clus scale="   88.604">  7  8 -1 -1</clus>
<clus scale="   95.998">  1  5  2 -1</clus>
<clus scale="   95.998">  1  5  2 -1</clus>
</clustering>
</event>
<event>
 9    1  0.2333971E-005  0.1008199E+03  0.7546771E-02  0.1281882E+00
          1   -1    0    0  502    0  0.00000000000E+00  0.00000000000E+00  0.89195415831E+03  0.89195415831E+03  0.00000000000E+00 0. -1.
         -2   -1    0    0    0  501 -0.00000000000E+00 -0.00000000000E+00 -0.30666703915E+02  0.30666703915E+02  0.00000000000E+00 0.  1.
         23    2    1    2    0    0  0.28473929401E+02  0.50051543077E+02  0.87035312344E+02  0.13670886294E+03  0.88307677989E+02 0.  0.
        -24    2    1    2    0    0 -0.40518882141E+02 -0.26174245748E+02  0.71084884760E+03  0.71709932631E+03  0.81231082183E+02 0.  0.
         11    1    4    4    0    0 -0.28790046088E+02  0.13686918896E+02  0.10272309767E+03  0.10755572182E+03  0.00000000000E+00 0. -1.
        -12    1    4    4    0    0 -0.11728836053E+02 -0.39861164644E+02  0.60812574993E+03  0.60954360448E+03  0.00000000000E+00 0.  1.
        -11    1    3    3    0    0  0.24476688055E+02  0.26694070123E+01 -0.11594432392E+02  0.27215158541E+02  0.00000000000E+00 0.  1.
         11    1    3    3    0    0  0.39972413458E+01  0.47382136065E+02  0.98629744736E+02  0.10949370440E+03  0.00000000000E+00 0. -1.
         21    1    1    2  502  501  0.12044952740E+02 -0.23877297329E+02  0.63403294455E+02  0.68812672975E+02  0.00000000000E+00 0.  1.
<scales pt_clust_5="13000.00000" pt_clust_6="13000.00000" pt_clust_7="13000.00000" pt_clust_8="13000.00000" pt_clust_9="26.74334"></scales>
<clustering>
<clus scale="   26.743">  2  9  1 -1</clus>
<clus scale="   81.231">  5  6 -1 -1</clus>
<clus scale="   88.308">  7  8 -1 -1</clus>
<clus scale="   94.683">  1  5  2 -1</clus>
<clus scale="   94.683">  1  5  2 -1</clus>
</clustering>
</event>
<event>
 9    1  0.2482468E-005  0.1675844E+03  0.7546771E-02  0.1182063E+00
          1   -1    0    0  502    0  0.00000000000E+00  0.00000000000E+00  0.69843376077E+03  0.69843376077E+03  0.00000000000E+00 0. -1.
         -2   -1    0    0    0  501 -0.00000000000E+00 -0.00000000000E+00 -0.28499550516E+03  0.28499550516E+03  0.00000000000E+00 0.  1.
        -24    2    1    2    0    0 -0.11229146529E+03 -0.62018439315E+00 -0.23514006648E+03  0.27257548357E+03  0.79979907300E+02 0.  0.
         23    2    1    2    0    0  0.14120863163E+03 -0.69649274187E+01  0.65820419382E+03  0.67944687488E+03  0.91798187143E+02 0.  0.
         13    1    3    3    0    0 -0.14666024679E+02 -0.31721543622E+02 -0.69849495056E+02  0.78104420933E+02  0.00000000000E+00 0. -1.
        -14    1    3    3    0    0 -0.97625440610E+02  0.31101359229E+02 -0.16529057143E+03  0.19447106264E+03  0.00000000000E+00 0.  1.
        -13    1    4    4    0    0  0.99481690522E+02 -0.37484469632E+02  0.54102153842E+03  0.55136738863E+03  0.00000000000E+00 0. -1.
         13    1    4    4    0    0  0.41726941111E+02  0.30519542213E+02  0.11718265540E+03  0.12807948625E+03  0.00000000000E+00 0.  1.
         21    1    1    2  502  501 -0.28917166344E+02  0.75851118119E+01 -0.96258717237E+01  0.31406907473E+02  0.00000000000E+00 0.  1.
<scales pt_clust_5="13000.00000" pt_clust_6="13000.00000" pt_clust_7="13000.00000" pt_clust_8="13000.00000" pt_clust_9="29.89542"></scales>
<clustering>
<clus scale="   29.895">  2  9  1 -1</clus>
<clus scale="   79.980">  5  6 -1 -1</clus>
<clus scale="   91.798">  7  8 -1 -1</clus>
<clus scale="  161.414">  2  5  1 -1</clus>
<clus scale="  167.584">  1  5  2 -1</clus>
</clustering>
</event>
<event>
 9    1  0.2333971E-005  0.1125143E+03  0.7546771E-02  0.1259029E+00
          1   -1    0    0  502    0  0.00000000000E+00  0.00000000000E+00  0.60658273196E+03  0.60658273196E+03  0.00000000000E+00 0. -1.
         -2   -1    0    0    0  501 -0.00000000000E+00 -0.00000000000E+00 -0.63836928681E+02  0.63836928681E+02  0.00000000000E+00 0.  1.
        -24    2    1    2    0    0  0.44687955579E+02  0.59610960867E+02  0.89549551127E+01  0.10977263958E+03  0.80120915811E+02 0.  0.
         23    2    1    2    0    0 -0.53899835914E+02  0.79570351630E+00  0.40536298993E+03  0.41842346952E+03  0.88618399810E+02 0.  0.
         11    1    3    3    0    0  0.97759522961E+01  0.70736344917E+02 -0.22862654843E+01  0.71445270980E+02  0.00000000000E+00 0. -1.
        -12    1    3    3    0    0  0.34912003283E+02 -0.11125384050E+02  0.11241220597E+02  0.38327368602E+02  0.00000000000E+00 0.  1.
        -11    1    4    4    0    0  0.24347081957E+02  0.57723982667E+01  0.85065586928E+02  0.88669358073E+02  0.00000000000E+00 0.  1.
         11    1    4    4    0    0 -0.78246917871E+02 -0.49766947504E+01  0.32029740300E+03  0.32975411144E+03  0.00000000000E+00 0. -1.
         21    1    1    2  502  501  0.92118803354E+01 -0.60406664384E+02  0.12842785824E+03  0.14222355154E+03  0.00000000000E+00 0. -1.
<scales pt_clust_5="13000.00000" pt_clust_6="13000.00000" pt_clust_7="13000.00000" pt_clust_8="13000.00000" pt_clust_9="61.10502"></scales>
<clustering>
<clus scale="   61.105">  1  9  2 -1</clus>
<clus scale="   80.121">  5  6 -1 -1</clus>
<clus scale="   88.618">  7  8 -1 -1</clus>
<clus scale="  105.951">  2  5  1 -1</clus>
<clus scale="   61.105">  1  5  2 -1</clus>
</clustering>
</event>
<event>
 9    1  0.2333971E-005  0.1223394E+03  0.7546771E-02  0.1240938E+00
         -2   -1    0    0    0  501 -0.00000000000E+00  0.00000000000E+00  0.69627808537E+02  0.69627808537E+02  0.00000000000E+00 0.  1.
          1   -1    0    0  502    0  0.00000000000E+00 -0.00000000000E+00 -0.27879881421E+03  0.27879881421E+03  0.00000000000E+00 0. -1.
         23    2    1    2    0    0 -0.87528923064E+02  0.20137640279E+02 -0.10208206949E+03  0.16202019293E+03  0.88107644821E+02 0.  0.
        -24    2    1    2    0    0  0.70670787613E+02  0.43951115181E+00 -0.10860868554E+03  0.15976200207E+03  0.93453182598E+02 0.  0.
         13    1    4    4    0    0  0.37760910146E+02 -0.39847023671E+02 -0.88185564741E+02  0.10387668391E+03  0.00000000000E+00 0. -1.
        -14    1    4    4    0    0  0.32909877467E+02  0.40286534823E+02 -0.20423120801E+02  0.55885318163E+02  0.00000000000E+00 0.  1.
        -11    1    3    3    0    0 -0.87700823976E+02  0.45644508651E+02 -0.90393832157E+02  0.13396231033E+03  0.00000000000E+00 0. -1.
         11    1    3    3    0    0  0.17190091237E+00 -0.25506868372E+02 -0.11688237336E+02  0.28057882602E+02  0.00000000000E+00 0.  1.
         21    1    1    2  502  501  0.16858135450E+02 -0.20577151431E+02  0.15197493643E+01  0.26644427748E+02  0.00000000000E+00 0.  1.
<scales pt_clust_5="13000.00000" pt_clust_6="13000.00000" pt_clust_7="13000.00000" pt_clust_8="13000.00000" pt_clust_9="26.60105"></scales>
<clustering>
<clus scale="   26.601">  1  9  2 -1</clus>
<clus scale="   88.108">  7  8 -1 -1</clus>
<clus scale="   93.453">  5  6 -1 -1</clus>
<clus scale="  118.306">  1  7  2 -1</clus>
<clus scale="  122.339">  2  5  1 -1</clus>
</clustering>
</event>
<event>
 9    1  0.2333971E-005  0.9199433E+02  0.7546771E-02  0.1303699E+00
          1   -1    0    0  502    0  0.00000000000E+00  0.00000000000E+00  0.24667384766E+03  0.24667384766E+03  0.00000000000E+00 0. -1.
         -2   -1    0    0    0  501 -0.00000000000E+00 -0.00000000000E+00 -0.74857999005E+02  0.74857999005E+02  0.00000000000E+00 0.  1.
         23    2    1    2    0    0  0.23140579961E+02 -0.19862993813E+02  0.23918977289E+02  0.97951632895E+02  0.89957656417E+02 0.  0.
        -24    2    1    2    0    0  0.37022679650E+01  0.18982156245E+02  0.16975206777E+03  0.18895415466E+03  0.80708605525E+02 0.  0.
         13    1    4    4    0    0  0.12778439160E+02  0.36792852453E+02  0.16340207287E+03  0.16797987951E+03  0.00000000000E+00 0. -1.
        -14    1    4    4    0    0 -0.90761711949E+01 -0.17810696208E+02  0.63499948983E+01  0.20974275153E+02  0.00000000000E+00 0.  1.
        -13    1    3    3    0    0 -0.20275911268E+02 -0.41494228543E+02  0.15533162219E+02  0.48725380539E+02  0.00000000000E+00 0.  1.
         13    1    3    3    0    0  0.43416491229E+02  0.21631234730E+02  0.83858150701E+01  0.49226252356E+02  0.00000000000E+00 0. -1.
         21    1    1    2  502  501 -0.26842847926E+02  0.88083756808E+00 -0.21855196407E+02  0.34626059111E+02  0.00000000000E+00 0.  1.
<scales pt_clust_5="13000.00000" pt_clust_6="13000.00000" pt_clust_7="13000.00000" pt_clust_8="13000.00000" pt_clust_9="26.85730"></scales>
<clustering>
<clus scale="   26.857">  2  9  1 -1</clus>
<clus scale="   80.709">  5  6 -1 -1</clus>
<clus scale="   82.973">  1  5  2 -1</clus>
<clus scale="   89.958">  7  8 -1 -1</clus>
<clus scale="   82.973">  1  5  2 -1</clus>
</clustering>
</event>
<event>
 9    1  0.2333971E-005  0.1728473E+03  0.7546771E-02  0.1176766E+00
         -4   -1    0    0    0  501 -0.00000000000E+00  0.00000000000E+00  0.57554631296E+02  0.57554631296E+02  0.00000000000E+00 0.  1.
          3   -1    0    0  502    0  0.00000000000E+00 -0.00000000000E+00 -0.10157117249E+04  0.10157117249E+04  0.00000000000E+00 0. -1.
        -24    2    1    2    0    0 -0.62570191362E+02 -0.13981516901E+03 -0.28822214229E+03  0.33565559498E+03  0.78290259949E+02 0.  0.
         23    2    1    2    0    0  0.89978493251E+02  0.11289573321E+03 -0.67716408003E+03  0.69851944076E+03  0.92393950046E+02 0.  0.
         13    1    3    3    0    0 -0.29674090737E+02 -0.96242165157E+02 -0.24851486313E+03  0.26814686873E+03  0.00000000000E+00 0. -1.
        -14    1    3    3    0    0 -0.32896100625E+02 -0.43573003857E+02 -0.39707279161E+02  0.67508726249E+02  0.00000000000E+00 0.  1.
        -11    1    4    4    0    0  0.10909307569E+03  0.89254820155E+02 -0.55070764816E+03  0.56845988058E+03  0.00000000000E+00 0. -1.
         11    1    4    4    0    0 -0.19114582443E+02  0.23640913057E+02 -0.12645643187E+03  0.13005956018E+03  0.00000000000E+00 0.  1.
         21    1    1    2  502  501 -0.27408301889E+02  0.26919435802E+02  0.72291286812E+01  0.39091320492E+02  0.00000000000E+00 0.  1.
<scales pt_clust_5="13000.00000" pt_clust_6="13000.00000" pt_clust_7="13000.00000" pt_clust_8="13000.00000" pt_clust_9="38.41707"></scales>
<clustering>
<clus scale="   38.417">  1  9  2 -1</clus>
<clus scale="   78.290">  5  6 -1 -1</clus>
<clus scale="   92.394">  7  8 -1 -1</clus>
<clus scale="  165.737">  1  5  2 -1</clus>
<clus scale="  172.847">  2  5  1 -1</clus>
</clustering>
</event>
<event>
 9    1  0.2333971E-005  0.1354891E+03  0.7546771E-02  0.1221525E+00
         -2   -1    0    0    0  501 -0.00000000000E+00  0.00000000000E+00  0.29211298165E+02  0.29211298165E+02  0.00000000000E+00 0.  1.
          1   -1    0    0  502    0  0.00000000000E+00 -0.00000000000E+00 -0.82683067912E+03  0.82683067912E+03  0.00000000000E+00 0. -1.
         23    2    1    2    0    0  0.77910675720E+02 -0.58789692447E+02 -0.24037227941E+03  0.27450599959E+03  0.89712929805E+02 0.  0.
        -24    2    1    2    0    0 -0.69422329126E+02  0.85658300120E+02 -0.43215583263E+03  0.45331039652E+03  0.81085434971E+02 0.  0.
         11    1    4    4    0    0 -0.31912569040E+01  0.59967522866E+02 -0.26438220292E+03  0.27111664859E+03  0.00000000000E+00 0. -1.
        -12    1    4    4    0    0 -0.66231072222E+02  0.25690777254E+02 -0.16777362970E+03  0.18219374794E+03  0.00000000000E+00 0.  1.
        -13    1    3    3    0    0  0.24064138270E+02 -0.33932913544E+02 -0.19747076628E+02  0.46048587466E+02  0.00000000000E+00 0.  1.
         13    1    3    3    0    0  0.53846537450E+02 -0.24856778903E+02 -0.22062520278E+03  0.22845741212E+03  0.00000000000E+00 0. -1.
         21    1    1    2  502  501 -0.84883465933E+01 -0.26868607673E+02 -0.12509126892E+03  0.12822558117E+03  0.00000000000E+00 0.  1.
<scales pt_clust_5="13000.00000" pt_clust_6="13000.00000" pt_clust_7="13000.00000" pt_clust_8="13000.00000" pt_clust_9="28.17755"></scales>
<clustering>
<clus scale="   28.178">  2  9  1 -1</clus>
<clus scale="   81.085">  5  6 -1 -1</clus>
<clus scale="   89.713">  7  8 -1 -1</clus>
<clus scale="  129.937">  2  5  1 -1</clus>
<clus scale="   28.178">  2  5  1 -1</clus>
</clustering>
</event>
<event>
 9    1  0.2333971E-005  0.2846824E+03  0.7546771E-02  0.1111883E+00
         -2   -1    0    0    0  501 -0.00000000000E+00  0.00000000000E+00  0.36360891574E+03  0.36360891574E+03  0.00000000000E+00 0.  1.
          1   -1    0    0  502    0  0.00000000000E+00 -0.00000000000E+00 -0.10843086769E+04  0.10843086769E+04  0.00000000000E+00 0. -1.
         23    2    1    2    0    0 -0.12832433861E+03  0.78519312889E+02  0.13372317923E+03  0.22065848359E+03  0.90420458633E+02 0.  0.
        -24    2    1    2    0    0  0.95170367996E+02 -0.27066035158E+03 -0.96023162317E+03  0.10054194330E+04  0.80678628864E+02 0.  0.
         11    1    4    4    0    0  0.14190284640E+02 -0.16107726819E+03 -0.53222450815E+03  0.55624650792E+03  0.00000000000E+00 0. -1.
        -12    1    4    4    0    0  0.80980083357E+02 -0.10958308339E+03 -0.42800711503E+03  0.44917292503E+03  0.00000000000E+00 0.  1.
        -11    1    3    3    0    0 -0.55732084471E+02  0.46009170448E+02  0.91343330356E+01  0.72844663804E+02  0.00000000000E+00 0. -1.
         11    1    3    3    0    0 -0.72592254134E+02  0.32510142441E+02  0.12458884620E+03  0.14781381978E+03  0.00000000000E+00 0.  1.
         21    1    1    2  502  501  0.33153970609E+02  0.19214103869E+03  0.10580868281E+03  0.22183967606E+03  0.00000000000E+00 0.  1.
<scales pt_clust_5="13000.00000" pt_clust_6="13000.00000" pt_clust_7="13000.00000" pt_clust_8="13000.00000" pt_clust_9="273.01102"></scales>
<clustering>
<clus scale="   80.679">  5  6 -1 -1</clus>
<clus scale="   90.420">  7  8 -1 -1</clus>
<clus scale="  175.523">  1  7  2 -1</clus>
<clus scale="  273.011">  1  9  2 -1</clus>
<clus scale="  284.682">  2  5  1 -1</clus>
</clustering>
</event>
<event>
 9    1  0.2333971E-005  0.1520106E+03  0.7546771E-02  0.1200028E+00
          1   -1    0    0  502    0  0.00000000000E+00  0.00000000000E+00  0.51188399526E+03  0.51188399526E+03  0.00000000000E+00 0. -1.
         -2   -1    0    0    0  501 -0.00000000000E+00 -0.00000000000E+00 -0.69314590955E+02  0.69314590955E+02  0.00000000000E+00 0.  1.
        -24    2    1    2    0    0 -0.12673684741E+02 -0.11984389441E+03  0.59454693555E+02  0.15685429989E+03  0.80902592635E+02 0.  0.
         23    2    1    2    0    0 -0.10441172109E+02  0.12118621358E+03  0.36270804528E+03  0.39348119472E+03  0.92060893143E+02 0.  0.
         13    1    3    3    0    0 -0.36380795972E+02 -0.11214466278E+03  0.37725989010E+02  0.12378706699E+03  0.00000000000E+00 0. -1.
        -14    1    3    3    0    0  0.23707111231E+02 -0.76992316298E+01  0.21728704545E+02  0.33067232903E+02  0.00000000000E+00 0.  1.
        -13    1    4    4    0    0 -0.43062943606E+02  0.55542350919E+02  0.24440287520E+03  0.25430716715E+03  0.00000000000E+00 0. -1.
         13    1    4    4    0    0  0.32621771497E+02  0.65643862665E+02  0.11830517008E+03  0.13917402756E+03  0.00000000000E+00 0.  1.
         21    1    1    2  502  501  0.23114856850E+02 -0.13423191694E+01  0.20406665463E+02  0.30863091602E+02  0.00000000000E+00 0.  1.
<scales pt_clust_5="13000.00000" pt_clust_6="13000.00000" pt_clust_7="13000.00000" pt_clust_8="13000.00000" pt_clust_9="23.15380"></scales>
<clustering>
<clus scale="   23.154">  2  9  1 -1</clus>
<clus scale="   80.903">  5  6 -1 -1</clus>
<clus scale="   92.061">  7  8 -1 -1</clus>
<clus scale="  145.524">  2  5  1 -1</clus>
<clus scale="  152.011">  1  5  2 -1</clus>
</clustering>
</event>
<event>
 9    1  0.2333971E-005  0.1235841E+03  0.7546771E-02  0.1239530E+00
          1   -1    0    0  502    0  0.00000000000E+00  0.00000000000E+00  0.17347853108E+03  0.17347853108E+03  0.00000000000E+00 0. -1.
         -2   -1    0    0    0  501 -0.00000000000E+00 -0.00000000000E+00 -0.21341509145E+03  0.21341509145E+03  0.00000000000E+00 0.  1.
        -24    2    1    2    0    0  0.18937351858E+02  0.20470754220E+02 -0.10262164925E+03  0.13543142153E+03  0.83861743181E+02 0.  0.
         23    2    1    2    0    0 -0.95652785067E+02 -0.30374386667E+02  0.96986178268E+02  0.16684598292E+03  0.91428685781E+02 0.  0.
         13    1    3    3    0    0  0.48494489771E+02  0.30107811072E+02 -0.70800705843E+02  0.90944685241E+02  0.00000000000E+00 0. -1.
        -14    1    3    3    0    0 -0.29557137914E+02 -0.96370568515E+01 -0.31820943410E+02  0.44486736292E+02  0.00000000000E+00 0.  1.
        -13    1    4    4    0    0 -0.72391740206E+01  0.25850419893E+02  0.38245770929E+02  0.46726746549E+02  0.00000000000E+00 0. -1.
         13    1    4    4    0    0 -0.88413611047E+02 -0.56224806560E+02  0.58740407339E+02  0.12011923637E+03  0.00000000000E+00 0.  1.
         21    1    1    2  502  501  0.76715433210E+02  0.99036324472E+01 -0.34301089388E+02  0.84616218076E+02  0.00000000000E+00 0. -1.
<scales pt_clust_5="13000.00000" pt_clust_6="13000.00000" pt_clust_7="13000.00000" pt_clust_8="13000.00000" pt_clust_9="77.35205"></scales>
<clustering>
<clus scale="   77.352">  2  9  1 -1</clus>
<clus scale="   83.862">  5  6 -1 -1</clus>
<clus scale="   91.429">  7  8 -1 -1</clus>
<clus scale="  118.096">  2  5  1 -1</clus>
<clus scale="  123.584">  1  5  2 -1</clus>
</clustering>
</event>
<event>
 9    1  0.2333971E-005  0.9303342E+02  0.7546771E-02  0.1302872E+00
          1   -1    0    0  502    0  0.00000000000E+00  0.00000000000E+00  0.99432234845E+02  0.99432234845E+02  0.00000000000E+00 0. -1.
         -2   -1    0    0    0  501 -0.00000000000E+00 -0.00000000000E+00 -0.24731639975E+03  0.24731639975E+03  0.00000000000E+00 0.  1.
         23    2    1    2    0    0  0.11321270439E+01 -0.48889653912E+02 -0.10465981083E+03  0.14777106474E+03  0.92147336370E+02 0.  0.
        -24    2    1    2    0    0 -0.12096195387E+02 -0.11288369628E+00  0.48287365170E+02  0.94594361216E+02  0.80436887391E+02 0.  0.
         13    1    4    4    0    0 -0.34575174317E+02 -0.21269333456E+02  0.42500428961E+01  0.40815316847E+02  0.00000000000E+00 0. -1.
        -14    1    4    4    0    0  0.22478978931E+02  0.21156449759E+02  0.44037322274E+02  0.53779044369E+02  0.00000000000E+00 0.  1.
        -13    1    3    3    0    0  0.12991559672E+02 -0.74179986231E+02 -0.85287691236E+02  0.11377803503E+03  0.00000000000E+00 0. -1.
         13    1    3    3    0    0 -0.11859432628E+02  0.25290332319E+02 -0.19372119598E+02  0.33993029708E+02  0.00000000000E+00 0.  1.
         21    1    1    2  502  501  0.10964068343E+02  0.49002537608E+02 -0.91511719241E+02  0.10438320864E+03  0.00000000000E+00 0.  1.
<scales pt_clust_5="13000.00000" pt_clust_6="13000.00000" pt_clust_7="13000.00000" pt_clust_8="13000.00000" pt_clust_9="50.21414"></scales>
<clustering>
<clus scale="   50.214">  2  9  1 -1</clus>
<clus scale="   80.437">  5  6 -1 -1</clus>
<clus scale="   81.450">  1  5  2 -1</clus>
<clus scale="   92.147">  7  8 -1 -1</clus>
<clus scale="   81.450">  1  5  2 -1</clus>
</clustering>
</event>
<event>
 9    1  0.2333971E-005  0.9788709E+02  0.7546771E-02  0.1290542E+00
         -2   -1    0    0    0  501 -0.00000000000E+00  0.00000000000E+00  0.12786948834E+03  0.12786948834E+03  0.00000000000E+00 0.  1.
          1   -1    0    0  502    0  0.00000000000E+00 -0.00000000000E+00 -0.20220100029E+03  0.20220100029E+03  0.00000000000E+00 0. -1.
        -24    2    1    2    0    0  0.41269256907E+02  0.17285247196E+02  0.75479269671E+02  0.12138207807E+03  0.83872268296E+02 0.  0.
         23    2    1    2    0    0 -0.20904621596E+02 -0.11076174898E+02 -0.15829332540E+03  0.18577063364E+03  0.94309419487E+02 0.  0.
         13    1    3    3    0    0 -0.22908077988E+02 -0.14257905481E+01  0.38933035968E+02  0.45195068375E+02  0.00000000000E+00 0. -1.
        -14    1    3    3    0    0  0.64177334895E+02  0.18711037744E+02  0.36546233703E+02  0.76187009690E+02  0.00000000000E+00 0.  1.
        -13    1    4    4    0    0  0.28266426191E+02 -0.28053182969E+02 -0.10001965586E+03  0.10765641404E+03  0.00000000000E+00 0. -1.
         13    1    4    4    0    0 -0.49171047787E+02  0.16977008071E+02 -0.58273669534E+02  0.78114219605E+02  0.00000000000E+00 0.  1.
         21    1    1    2  502  501 -0.20364635311E+02 -0.62090722987E+01  0.84825437739E+01  0.22917776922E+02  0.00000000000E+00 0. -1.
<scales pt_clust_5="13000.00000" pt_clust_6="13000.00000" pt_clust_7="13000.00000" pt_clust_8="13000.00000" pt_clust_9="21.29016"></scales>
<clustering>
<clus scale="   21.290">  1  9  2 -1</clus>
<clus scale="   83.872">  5  6 -1 -1</clus>
<clus scale="   87.876">  1  5  2 -1</clus>
<clus scale="   94.309">  7  8 -1 -1</clus>
<clus scale="   97.887">  2  5  1 -1</clus>
</clustering>
</event>
<event>
 9    1  0.2333971E-005  0.9229850E+02  0.7546771E-02  0.1304357E+00
          3   -1    0    0  502    0  0.00000000000E+00  0.00000000000E+00  0.59952058263E+02  0.59952058263E+02  0.00000000000E+00 0. -1.
         -4   -1    0    0    0  501 -0.00000000000E+00 -0.00000000000E+00 -0.20646234553E+03  0.20646234553E+03  0.00000000000E+00 0.  1.
         23    2    1    2    0    0  0.20363564048E+00 -0.24774721016E+02 -0.10611370935E+03  0.14230315987E+03  0.91521810121E+02 0.  0.
        -24    2    1    2    0    0  0.13764680608E+02 -0.18643097260E+00 -0.95061019077E+01  0.82011428301E+02  0.80287030147E+02 0.  0.
         11    1    4    4    0    0  0.33569743129E+02 -0.10448545572E+02  0.23417548059E+02  0.42243121516E+02  0.00000000000E+00 0. -1.
        -12    1    4    4    0    0 -0.19805062520E+02  0.10262114600E+02 -0.32923649966E+02  0.39768306786E+02  0.00000000000E+00 0.  1.
        -13    1    3    3    0    0  0.40492942271E+02 -0.33450373198E+02 -0.48677594000E+02  0.71610851122E+02  0.00000000000E+00 0. -1.
         13    1    3    3    0    0 -0.40289306630E+02  0.86756521816E+01 -0.57436115348E+02  0.70692308746E+02  0.00000000000E+00 0.  1.
         21    1    1    2  502  501 -0.13968316249E+02  0.24961151989E+02 -0.30890476013E+02  0.42099815626E+02  0.00000000000E+00 0. -1.
<scales pt_clust_5="13000.00000" pt_clust_6="13000.00000" pt_clust_7="13000.00000" pt_clust_8="13000.00000" pt_clust_9="28.60372"></scales>
<clustering>
<clus scale="   28.604">  2  9  1 -1</clus>
<clus scale="   80.287">  5  6 -1 -1</clus>
<clus scale="   81.171">  1  5  2 -1</clus>
<clus scale="   91.522">  7  8 -1 -1</clus>
<clus scale="   81.171">  1  5  2 -1</clus>
</clustering>
</event>
<event>
 9    1  0.2333971E-005  0.1018439E+03  0.7546771E-02  0.1279461E+00
          1   -1    0    0  502    0  0.00000000000E+00  0.00000000000E+00  0.35359130482E+03  0.35359130482E+03  0.00000000000E+00 0. -1.
         -2   -1    0    0    0  501 -0.00000000000E+00 -0.00000000000E+00 -0.43086603402E+03  0.43086603402E+03  0.00000000000E+00 0.  1.
        -24    2    1    2    0    0  0.19030102916E+02  0.47078842266E+00 -0.21095938895E+03  0.22833872321E+03  0.85278029227E+02 0.  0.
         23    2    1    2    0    0 -0.44992257021E+02 -0.58223910304E+01  0.33644418000E+03  0.35163366229E+03  0.91615188562E+02 0.  0.
         13    1    3    3    0    0  0.30295574487E+02 -0.15075745705E+01 -0.18478507930E+02  0.35518303308E+02  0.00000000000E+00 0. -1.
        -14    1    3    3    0    0 -0.11265471571E+02  0.19783629932E+01 -0.19248088102E+03  0.19282041990E+03  0.00000000000E+00 0.  1.
        -13    1    4    4    0    0 -0.84260228785E+00 -0.43331811104E+02  0.12063827589E+03  0.12818716567E+03  0.00000000000E+00 0.  1.
         13    1    4    4    0    0 -0.44149654734E+02  0.37509420073E+02  0.21580590410E+03  0.22344649662E+03  0.00000000000E+00 0. -1.
         21    1    1    2  502  501  0.25962154106E+02  0.53516026078E+01 -0.20275952024E+03  0.20448495334E+03  0.00000000000E+00 0.  1.
<scales pt_clust_5="13000.00000" pt_clust_6="13000.00000" pt_clust_7="13000.00000" pt_clust_8="13000.00000" pt_clust_9="26.50798"></scales>
<clustering>
<clus scale="   26.508">  2  9  1 -1</clus>
<clus scale="   85.278">  5  6 -1 -1</clus>
<clus scale="   91.615">  7  8 -1 -1</clus>
<clus scale="   96.183">  2  5  1 -1</clus>
<clus scale="  101.844">  1  5  2 -1</clus>
</clustering>
</event>
<event>
 9    1  0.2333971E-005  0.1246659E+03  0.7546771E-02  0.1239100E+00
         -2   -1    0    0    0  501 -0.00000000000E+00  0.00000000000E+00  0.40791088689E+02  0.40791088689E+02  0.00000000000E+00 0.  1.
          1   -1    0    0  502    0  0.00000000000E+00 -0.00000000000E+00 -0.62210862099E+03  0.62210862099E+03  0.00000000000E+00 0. -1.
        -24    2    1    2    0    0 -0.56331633639E+02 -0.76692972572E+02 -0.10031364314E+03  0.15926975241E+03  0.79050376611E+02 0.  0.
         23    2    1    2    0    0  0.22367538082E+02  0.53454622421E+02 -0.35339617713E+03  0.36955047012E+03  0.91219452615E+02 0.  0.
         11    1    3    3    0    0 -0.45714936641E+02 -0.10343867185E+02 -0.72969142556E+02  0.86725698531E+02  0.00000000000E+00 0. -1.
        -12    1    3    3    0    0 -0.10616696999E+02 -0.66349105387E+02 -0.27344500581E+02  0.72544053877E+02  0.00000000000E+00 0.  1.
        -11    1    4    4    0    0 -0.33225774152E+02  0.31974082785E+02 -0.11704383508E+03  0.12579965568E+03  0.00000000000E+00 0. -1.
         11    1    4    4    0    0  0.55593312234E+02  0.21480539636E+02 -0.23635234205E+03  0.24375081444E+03  0.00000000000E+00 0.  1.
         21    1    1    2  502  501  0.33964095558E+02  0.23238350151E+02 -0.12760771204E+03  0.13407948716E+03  0.00000000000E+00 0.  1.
<scales pt_clust_5="13000.00000" pt_clust_6="13000.00000" pt_clust_7="13000.00000" pt_clust_8="13000.00000" pt_clust_9="41.15314"></scales>
<clustering>
<clus scale="   41.153">  2  9  1 -1</clus>
<clus scale="   79.050">  5  6 -1 -1</clus>
<clus scale="   91.219">  7  8 -1 -1</clus>
<clus scale="  116.058">  1  5  2 -1</clus>
<clus scale="   41.153">  2  5  1 -1</clus>
</clustering>
</event>
<event>
 9    1  0.2333971E-005  0.1990142E+03  0.7546771E-02  0.1151706E+00
         -2   -1    0    0    0  501 -0.00000000000E+00  0.00000000000E+00  0.28634065877E+03  0.28634065877E+03  0.00000000000E+00 0.  1.
          1   -1    0    0  502    0  0.00000000000E+00 -0.00000000000E+00 -0.16231076312E+03  0.16231076312E+03  0.00000000000E+00 0. -1.
         23    2    1    2    0    0  0.16911561895E+03  0.72398824297E+02  0.91449434969E+02  0.22492588135E+03  0.91580405176E+02 0.  0.
        -24    2    1    2    0    0 -0.16450192271E+03 -0.51963134607E+02  0.62214876331E+01  0.19005509258E+03  0.79505857483E+02 0.  0.
         13    1    4    4    0    0 -0.13710526143E+03 -0.41502140392E+02 -0.26968300331E+02  0.14576546090E+03  0.00000000000E+00 0. -1.
        -14    1    4    4    0    0 -0.27396661278E+02 -0.10460994215E+02  0.33189787964E+02  0.44289631679E+02  0.00000000000E+00 0.  1.
        -11    1    3    3    0    0  0.48428446870E+02  0.28364646920E+02 -0.14990374744E+02  0.58091126656E+02  0.00000000000E+00 0.  1.
         11    1    3    3    0    0  0.12068717208E+03  0.44034177376E+02  0.10643980971E+03  0.16683475470E+03  0.00000000000E+00 0. -1.
         21    1    1    2  502  501 -0.46136962491E+01 -0.20435689689E+02  0.26358973046E+02  0.33670447966E+02  0.00000000000E+00 0. -1.
<scales pt_clust_5="13000.00000" pt_clust_6="13000.00000" pt_clust_7="13000.00000" pt_clust_8="13000.00000" pt_clust_9="20.95003"></scales>
<clustering>
<clus scale="   20.950">  1  9  2 -1</clus>
<clus scale="   79.506">  5  6 -1 -1</clus>
<clus scale="   91.580">  7  8 -1 -1</clus>
<clus scale="  193.755">  2  5  1 -1</clus>
<clus scale="  193.755">  2  5  1 -1</clus>
</clustering>
</event>
<event>
 9    1  0.2333971E-005  0.1246978E+03  0.7546771E-02  0.1236363E+00
          3   -1    0    0  502    0  0.00000000000E+00  0.00000000000E+00  0.50589478480E+03  0.50589478480E+03  0.00000000000E+00 0. -1.
         -4   -1    0    0    0  501 -0.00000000000E+00 -0.00000000000E+00 -0.21955623752E+03  0.21955623752E+03  0.00000000000E+00 0.  1.
        -24    2    1    2    0    0  0.29484008122E+02 -0.11061181179E+03 -0.14853794243E+03  0.20764372193E+03  0.89152202856E+02 0.  0.
         23    2    1    2    0    0 -0.26882781272E+02  0.78328032509E+02  0.46028876162E+03  0.47663944461E+03  0.91986148321E+02 0.  0.
         11    1    3    3    0    0  0.16964785209E+02 -0.13193551977E+02 -0.91656572756E+02  0.94142451000E+02  0.00000000000E+00 0. -1.
        -12    1    3    3    0    0  0.12519222913E+02 -0.97418259811E+02 -0.56881369675E+02  0.11350127093E+03  0.00000000000E+00 0.  1.
        -13    1    4    4    0    0  0.28977473959E+02  0.36598738239E+01  0.82695914693E+02  0.87702354475E+02  0.00000000000E+00 0.  1.
         13    1    4    4    0    0 -0.55860255231E+02  0.74668158686E+02  0.37759284693E+03  0.38893709014E+03  0.00000000000E+00 0. -1.
         21    1    1    2  502  501 -0.26012268500E+01  0.32283779279E+02 -0.25412271902E+02  0.41167855772E+02  0.00000000000E+00 0. -1.
<scales pt_clust_5="13000.00000" pt_clust_6="13000.00000" pt_clust_7="13000.00000" pt_clust_8="13000.00000" pt_clust_9="32.38841"></scales>
<clustering>
<clus scale="   32.388">  2  9  1 -1</clus>
<clus scale="   89.152">  5  6 -1 -1</clus>
<clus scale="   91.986">  7  8 -1 -1</clus>
<clus scale="  122.622">  2  5  1 -1</clus>
<clus scale="  124.698">  1  5  2 -1</clus>
</clustering>
</event>
<event>
 9    1  0.2333971E-005  0.1901383E+03  0.7546771E-02  0.1159261E+00
          1   -1    0    0  502    0  0.00000000000E+00  0.00000000000E+00  0.26185442311E+03  0.26185442311E+03  0.00000000000E+00 0. -1.
         -2   -1    0    0    0  501 -0.00000000000E+00 -0.00000000000E+00 -0.23636175124E+03  0.23636175124E+03  0.00000000000E+00 0.  1.
        -24    2    1    2    0    0 -0.64753050828E+02  0.13938651255E+03 -0.13281622501E+03  0.21804323004E+03  0.79253662821E+02 0.  0.
         23    2    1    2    0    0  0.51585396504E+02 -0.16454801624E+03  0.16061873117E+03  0.25168042383E+03  0.88360376617E+02 0.  0.
         11    1    3    3    0    0 -0.37017706270E+02  0.70681667210E+02 -0.18645329123E+02  0.81938128824E+02  0.00000000000E+00 0. -1.
        -12    1    3    3    0    0 -0.27735344558E+02  0.68704845337E+02 -0.11417089589E+03  0.13610510122E+03  0.00000000000E+00 0.  1.
        -11    1    4    4    0    0  0.53283471598E+02 -0.34111914891E+02  0.55153582320E+02  0.83932524839E+02  0.00000000000E+00 0. -1.
         11    1    4    4    0    0 -0.16980750943E+01 -0.13043610135E+03  0.10546514885E+03  0.16774789899E+03  0.00000000000E+00 0.  1.
         21    1    1    2  502  501  0.13167654325E+02  0.25161503696E+02 -0.23098342945E+01  0.28492520477E+02  0.00000000000E+00 0.  1.
<scales pt_clust_5="13000.00000" pt_clust_6="13000.00000" pt_clust_7="13000.00000" pt_clust_8="13000.00000" pt_clust_9="28.39874"></scales>
<clustering>
<clus scale="   28.399">  2  9  1 -1</clus>
<clus scale="   79.254">  5  6 -1 -1</clus>
<clus scale="   88.360">  7  8 -1 -1</clus>
<clus scale="  186.081">  2  5  1 -1</clus>
<clus scale="  190.138">  1  5  2 -1</clus>
</clustering>
</event>
<event>
 9    1  0.2333971E-005  0.9202178E+02  0.7546771E-02  0.1302458E+00
         -2   -1    0    0    0  501 -0.00000000000E+00  0.00000000000E+00  0.69543948264E+02  0.69543948264E+02  0.00000000000E+00 0.  1.
          1   -1    0    0  502    0  0.00000000000E+00 -0.00000000000E+00 -0.38835534043E+03  0.38835534043E+03  0.00000000000E+00 0. -1.
         23    2    1    2    0    0 -0.28213647213E+02  0.53010616088E+02 -0.46500788591E+01  0.10699175934E+03  0.88427812513E+02 0.  0.
        -24    2    1    2    0    0 -0.13675869808E+02 -0.20121367282E+02 -0.26604137308E+03  0.27913035352E+03  0.80894024690E+02 0.  0.
         13    1    4    4    0    0  0.81785776959E+01 -0.46253793670E+02 -0.19145103797E+03  0.19712889819E+03  0.00000000000E+00 0. -1.
        -14    1    4    4    0    0 -0.21854447504E+02  0.26132426388E+02 -0.74590335109E+02  0.82001455330E+02  0.00000000000E+00 0.  1.
        -13    1    3    3    0    0  0.25462269655E+02  0.20930578746E+02  0.21348544250E+02  0.39270556963E+02  0.00000000000E+00 0.  1.
         13    1    3    3    0    0 -0.53675916868E+02  0.32080037342E+02 -0.25998623109E+02  0.67721202375E+02  0.00000000000E+00 0. -1.
         21    1    1    2  502  501  0.41889517021E+02 -0.32889248807E+02 -0.48119940228E+02  0.71777175835E+02  0.00000000000E+00 0. -1.
<scales pt_clust_5="13000.00000" pt_clust_6="13000.00000" pt_clust_7="13000.00000" pt_clust_8="13000.00000" pt_clust_9="53.25819"></scales>
<clustering>
<clus scale="   53.258">  1  9  2 -1</clus>
<clus scale="   80.894">  5  6 -1 -1</clus>
<clus scale="   84.808">  2  5  1 -1</clus>
<clus scale="   88.428">  7  8 -1 -1</clus>
<clus scale="   84.808">  2  5  1 -1</clus>
</clustering>
</event>
<event>
 9    1  0.2333971E-005  0.9856289E+02  0.7546771E-02  0.1288886E+00
          1   -1    0    0  502    0  0.00000000000E+00  0.00000000000E+00  0.26049832897E+03  0.26049832897E+03  0.00000000000E+00 0. -1.
         -2   -1    0    0    0  501 -0.00000000000E+00 -0.00000000000E+00 -0.91666494804E+02  0.91666494804E+02  0.00000000000E+00 0.  1.
         23    2    1    2    0    0 -0.85361103149E+01  0.37718389408E+01 -0.29220968561E+02  0.95332486893E+02  0.90262539878E+02 0.  0.
        -24    2    1    2    0    0  0.41582102992E+02 -0.15400266998E+02  0.20202142621E+03  0.22157601910E+03  0.79479784092E+02 0.  0.
         11    1    4    4    0    0  0.64182992145E+02 -0.12895873549E+01  0.13640031480E+03  0.15075199963E+03  0.00000000000E+00 0. -1.
        -12    1    4    4    0    0 -0.22600889153E+02 -0.14110679643E+02  0.65621111414E+02  0.70824019469E+02  0.00000000000E+00 0.  1.
        -13    1    3    3    0    0  0.25059360448E+02 -0.32549110650E+02 -0.10194713290E+02  0.42324323139E+02  0.00000000000E+00 0. -1.
         13    1    3    3    0    0 -0.33595470762E+02  0.36320949590E+02 -0.19026255271E+02  0.53008163754E+02  0.00000000000E+00 0.  1.
         21    1    1    2  502  501 -0.33045992677E+02  0.11628428057E+02 -0.39686234848E+01  0.35256317781E+02  0.00000000000E+00 0.  1.
<scales pt_clust_5="13000.00000" pt_clust_6="13000.00000" pt_clust_7="13000.00000" pt_clust_8="13000.00000" pt_clust_9="35.03224"></scales>
<clustering>
<clus scale="   35.032">  2  9  1 -1</clus>
<clus scale="   79.480">  5  6 -1 -1</clus>
<clus scale="   88.794">  1  5  2 -1</clus>
<clus scale="   90.263">  7  8 -1 -1</clus>
<clus scale="   88.794">  1  5  2 -1</clus>
</clustering>
</event>
<event>
 9    1  0.2697423E-005  0.1324865E+03  0.7546771E-02  0.1229098E+00
         -2   -1    0    0    0  501 -0.00000000000E+00  0.00000000000E+00  0.85689256163E+03  0.85689256163E+03  0.00000000000E+00 0.  1.
          1   -1    0    0  502    0  0.00000000000E+00 -0.00000000000E+00 -0.41199946443E+03  0.41199946443E+03  0.00000000000E+00 0. -1.
         23    2    1    2    0    0 -0.19539609966E+02  0.14459672767E+03  0.69776388686E+03  0.71960941320E+03  0.98352710992E+02 0.  0.
        -24    2    1    2    0    0  0.14959377040E+00 -0.88068091820E+02 -0.38582127985E+03  0.40351810332E+03  0.78821244280E+02 0.  0.
         11    1    4    4    0    0 -0.26733256025E+02 -0.81326586444E+02 -0.33346818908E+03  0.34428144558E+03  0.00000000000E+00 0. -1.
        -12    1    4    4    0    0  0.26882849795E+02 -0.67415053761E+01 -0.52353090770E+02  0.59236657746E+02  0.00000000000E+00 0.  1.
        -13    1    3    3    0    0 -0.23682782854E+02 -0.66431593318E+01  0.10483430448E+03  0.10768118297E+03  0.00000000000E+00 0. -1.
         13    1    3    3    0    0  0.41431728884E+01  0.15123988700E+03  0.59292958238E+03  0.61192823023E+03  0.00000000000E+00 0.  1.
         21    1    1    2  502  501  0.19390016195E+02 -0.56528635847E+02  0.13295049019E+03  0.14576450953E+03  0.00000000000E+00 0.  1.
<scales pt_clust_5="13000.00000" pt_clust_6="13000.00000" pt_clust_7="13000.00000" pt_clust_8="13000.00000" pt_clust_9="59.76169"></scales>
<clustering>
<clus scale="   59.762">  1  9  2 -1</clus>
<clus scale="   78.821">  5  6 -1 -1</clus>
<clus scale="   98.353">  7  8 -1 -1</clus>
<clus scale="  118.711">  2  5  1 -1</clus>
<clus scale="  118.711">  2  5  1 -1</clus>
</clustering>
</event>
<event>
 9    1  0.2333971E-005  0.9862671E+02  0.7546771E-02  0.1288156E+00
         -2   -1    0    0    0  501 -0.00000000000E+00  0.00000000000E+00  0.69725245575E+02  0.69725245575E+02  0.00000000000E+00 0.  1.
          1   -1    0    0  502    0  0.00000000000E+00 -0.00000000000E+00 -0.31268001193E+03  0.31268001193E+03  0.00000000000E+00 0. -1.
        -24    2    1    2    0    0  0.63163200428E+01  0.20717405751E+02 -0.19633557557E+02  0.86412208980E+02  0.81317196697E+02 0.  0.
         23    2    1    2    0    0  0.14604835489E+02 -0.41901246001E+02 -0.24099306219E+03  0.26137016246E+03  0.90926839621E+02 0.  0.
         11    1    3    3    0    0 -0.16954554419E+02 -0.25742512794E+02 -0.14895307045E+02  0.34234544724E+02  0.00000000000E+00 0. -1.
        -12    1    3    3    0    0  0.23270874462E+02  0.46459918544E+02 -0.47382505125E+01  0.52177664257E+02  0.00000000000E+00 0.  1.
        -13    1    4    4    0    0 -0.30778417773E+02 -0.34898569570E+02 -0.68074987585E+02  0.82458626555E+02  0.00000000000E+00 0.  1.
         13    1    4    4    0    0  0.45383253262E+02 -0.70026764312E+01 -0.17291807461E+03  0.17891153591E+03  0.00000000000E+00 0. -1.
         21    1    1    2  502  501 -0.20921155531E+02  0.21183840251E+02  0.17671853400E+02  0.34622886060E+02  0.00000000000E+00 0.  1.
<scales pt_clust_5="13000.00000" pt_clust_6="13000.00000" pt_clust_7="13000.00000" pt_clust_8="13000.00000" pt_clust_9="29.77331"></scales>
<clustering>
<clus scale="   29.773">  1  9  2 -1</clus>
<clus scale="   81.317">  5  6 -1 -1</clus>
<clus scale="   89.844">  1  5  2 -1</clus>
<clus scale="   90.927">  7  8 -1 -1</clus>
<clus scale="   98.627">  2  5  1 -1</clus>
</clustering>
</event>
<event>
 9    1  0.2333971E-005  0.1881158E+03  0.7546771E-02  0.1161357E+00
          1   -1    0    0  502    0  0.00000000000E+00  0.00000000000E+00  0.35339260333E+03  0.35339260333E+03  0.00000000000E+00 0. -1.
         -2   -1    0    0    0  501 -0.00000000000E+00 -0.00000000000E+00 -0.35274621126E+03  0.35274621126E+03  0.00000000000E+00 0.  1.
        -24    2    1    2    0    0 -0.15636709294E+03 -0.92760722989E+02 -0.11808463385E+03  0.23133457109E+03  0.80724739376E+02 0.  0.
         23    2    1    2    0    0  0.14160520022E+03  0.77298201885E+02  0.26691250536E+03  0.32508866687E+03  0.91724102969E+02 0.  0.
         13    1    3    3    0    0 -0.85167706440E+02 -0.36141632654E+02 -0.14788970658E+02  0.93693486883E+02  0.00000000000E+00 0. -1.
        -14    1    3    3    0    0 -0.71199386497E+02 -0.56619090335E+02 -0.10329566319E+03  0.13764108421E+03  0.00000000000E+00 0.  1.
        -11    1    4    4    0    0  0.86410219927E+02  0.64064073495E+02  0.93163819506E+02  0.14230400165E+03  0.00000000000E+00 0.  1.
         11    1    4    4    0    0  0.55194980297E+02  0.13234128390E+02  0.17374868585E+03  0.18278466522E+03  0.00000000000E+00 0. -1.
         21    1    1    2  502  501  0.14761892713E+02  0.15462521103E+02 -0.14818147945E+03  0.14971557663E+03  0.00000000000E+00 0.  1.
<scales pt_clust_5="13000.00000" pt_clust_6="13000.00000" pt_clust_7="13000.00000" pt_clust_8="13000.00000" pt_clust_9="21.37763"></scales>
<clustering>
<clus scale="   21.378">  2  9  1 -1</clus>
<clus scale="   80.725">  5  6 -1 -1</clus>
<clus scale="   91.724">  7  8 -1 -1</clus>
<clus scale="  183.005">  2  5  1 -1</clus>
<clus scale="  188.116">  1  5  2 -1</clus>
</clustering>
</event>
<event>
 9    1  0.2333971E-005  0.1022771E+03  0.7546771E-02  0.1279968E+00
         -2   -1    0    0    0  501 -0.00000000000E+00  0.00000000000E+00  0.28429162692E+03  0.28429162692E+03  0.00000000000E+00 0.  1.
          1   -1    0    0  502    0  0.00000000000E+00 -0.00000000000E+00 -0.83239174886E+02  0.83239174886E+02  0.00000000000E+00 0. -1.
        -24    2    1    2    0    0 -0.32963378651E+02 -0.53293936706E+01  0.13732268479E+03  0.16203546271E+03  0.79265280227E+02 0.  0.
         23    2    1    2    0    0  0.52010520836E+02  0.18785790839E+02 -0.30019880235E+02  0.10888858647E+03  0.88868052970E+02 0.  0.
         11    1    3    3    0    0 -0.62696509033E+00  0.34471853272E+02  0.49202700909E+02  0.60080009404E+02  0.00000000000E+00 0. -1.
        -12    1    3    3    0    0 -0.32336413560E+02 -0.39801246942E+02  0.88119983880E+02  0.10195545331E+03  0.00000000000E+00 0.  1.
        -11    1    4    4    0    0 -0.14564408185E+02  0.29317333017E+02 -0.25203448268E+02  0.41313942025E+02  0.00000000000E+00 0.  1.
         11    1    4    4    0    0  0.66574929021E+02 -0.10531542177E+02 -0.48164319666E+01  0.67574644444E+02  0.00000000000E+00 0. -1.
         21    1    1    2  502  501 -0.19047142185E+02 -0.13456397169E+02  0.93749647484E+02  0.96606752629E+02  0.00000000000E+00 0.  1.
<scales pt_clust_5="13000.00000" pt_clust_6="13000.00000" pt_clust_7="13000.00000" pt_clust_8="13000.00000" pt_clust_9="23.32098"></scales>
<clustering>
<clus scale="   23.321">  1  9  2 -1</clus>
<clus scale="   79.265">  5  6 -1 -1</clus>
<clus scale="   88.868">  7  8 -1 -1</clus>
<clus scale="   94.054">  1  5  2 -1</clus>
<clus scale="  102.277">  2  5  1 -1</clus>
</clustering>
</event>
<event>
 9    1  0.2333971E-005  0.1086165E+03  0.7546771E-02  0.1268092E+00
         -2   -1    0    0    0  501 -0.00000000000E+00  0.00000000000E+00  0.27669453996E+03  0.27669453996E+03  0.00000000000E+00 0.  1.
          1   -1    0    0  502    0  0.00000000000E+00 -0.00000000000E+00 -0.10416497921E+03  0.10416497921E+03  0.00000000000E+00 0. -1.
        -24    2    1    2    0    0 -0.62020266837E+02 -0.34619388629E+02  0.32481920782E+02  0.11048178840E+03  0.78141761074E+02 0.  0.
         23    2    1    2    0    0  0.38521218043E+02  0.38693060885E+02 -0.20918590768E+02  0.10765426123E+03  0.90392562306E+02 0.  0.
         13    1    3    3    0    0 -0.72986541369E+02 -0.40992061067E+01  0.20677896692E+02  0.75969823768E+02  0.00000000000E+00 0. -1.
        -14    1    3    3    0    0  0.10966274533E+02 -0.30520182522E+02  0.11804024090E+02  0.34511964636E+02  0.00000000000E+00 0.  1.
        -13    1    4    4    0    0 -0.11988843449E+02  0.35786483100E+02  0.19882849984E+02  0.42658322323E+02  0.00000000000E+00 0.  1.
         13    1    4    4    0    0  0.50510061493E+02  0.29065777847E+01 -0.40801440752E+02  0.64995938903E+02  0.00000000000E+00 0. -1.
         21    1    1    2  502  501  0.23499048794E+02 -0.40736722566E+01  0.16096623073E+03  0.16272346953E+03  0.00000000000E+00 0.  1.
<scales pt_clust_5="13000.00000" pt_clust_6="13000.00000" pt_clust_7="13000.00000" pt_clust_8="13000.00000" pt_clust_9="23.84953"></scales>
<clustering>
<clus scale="   23.850">  1  9  2 -1</clus>
<clus scale="   78.142">  5  6 -1 -1</clus>
<clus scale="   90.393">  7  8 -1 -1</clus>
<clus scale="   98.655">  1  5  2 -1</clus>
<clus scale="  108.616">  2  5  1 -1</clus>
</clustering>
</event>
<event>
 9    1  0.2333971E-005  0.9737554E+02  0.7546771E-02  0.1290918E+00
          1   -1    0    0  502    0  0.00000000000E+00  0.00000000000E+00  0.12943713811E+03  0.12943713811E+03  0.00000000000E+00 0. -1.
         -2   -1    0    0    0  501 -0.00000000000E+00 -0.00000000000E+00 -0.20853872185E+03  0.20853872185E+03  0.00000000000E+00 0.  1.
        -24    2    1    2    0    0 -0.11220144795E+02  0.29866650516E+02 -0.29336152319E+02  0.91746176056E+02  0.80863109795E+02 0.  0.
         23    2    1    2    0    0  0.42718573929E+02 -0.82421431423E+01  0.68831045710E+02  0.12163074833E+03  0.90352180958E+02 0.  0.
         11    1    3    3    0    0 -0.15515011667E+02  0.56789560039E+02 -0.25720382408E+02  0.64244126484E+02  0.00000000000E+00 0. -1.
        -12    1    3    3    0    0  0.42948668713E+01 -0.26922909523E+02 -0.36157699108E+01  0.27502049572E+02  0.00000000000E+00 0.  1.
        -13    1    4    4    0    0  0.13538500325E+02 -0.47017860647E+02  0.48880348787E+02  0.69161106906E+02  0.00000000000E+00 0. -1.
         13    1    4    4    0    0  0.29180073604E+02  0.38775717505E+02  0.19950696923E+02  0.52469641425E+02  0.00000000000E+00 0.  1.
         21    1    1    2  502  501 -0.31498429134E+02 -0.21624507374E+02 -0.11859647713E+03  0.12459893557E+03  0.00000000000E+00 0.  1.
<scales pt_clust_5="13000.00000" pt_clust_6="13000.00000" pt_clust_7="13000.00000" pt_clust_8="13000.00000" pt_clust_9="38.20694"></scales>
<clustering>
<clus scale="   38.207">  2  9  1 -1</clus>
<clus scale="   80.863">  5  6 -1 -1</clus>
<clus scale="   88.642">  2  5  1 -1</clus>
<clus scale="   90.352">  7  8 -1 -1</clus>
<clus scale="   97.376">  1  5  2 -1</clus>
</clustering>
</event>
<event>
 9    1  0.2333971E-005  0.1050457E+03  0.7546771E-02  0.1274834E+00
          1   -1    0    0  502    0  0.00000000000E+00  0.00000000000E+00  0.20239925951E+03  0.20239925951E+03  0.00000000000E+00 0. -1.
         -2   -1    0    0    0  501 -0.00000000000E+00 -0.00000000000E+00 -0.10743809731E+03  0.10743809731E+03  0.00000000000E+00 0.  1.
        -24    2    1    2    0    0  0.31271317385E+02 -0.14979869266E+02 -0.26399320301E+02  0.91532239529E+02  0.80491831801E+02 0.  0.
         23    2    1    2    0    0 -0.27166447553E+02  0.52680942856E+02  0.13892332453E+03  0.17651188428E+03  0.91342528875E+02 0.  0.
         11    1    3    3    0    0  0.97652802857E+01 -0.20258050998E+02  0.26160426488E+02  0.34498075937E+02  0.00000000000E+00 0. -1.
        -12    1    3    3    0    0  0.21506037100E+02  0.52781817312E+01 -0.52559746790E+02  0.57034163593E+02  0.00000000000E+00 0.  1.
        -13    1    4    4    0    0 -0.40702698007E+02  0.70427915327E+02  0.82608767907E+02  0.11593536741E+03  0.00000000000E+00 0. -1.
         13    1    4    4    0    0  0.13536250453E+02 -0.17746972471E+02  0.56314556620E+02  0.60576516865E+02  0.00000000000E+00 0.  1.
         21    1    1    2  502  501 -0.41048698320E+01 -0.37701073590E+02 -0.17562842028E+02  0.41793233020E+02  0.00000000000E+00 0. -1.
<scales pt_clust_5="13000.00000" pt_clust_6="13000.00000" pt_clust_7="13000.00000" pt_clust_8="13000.00000" pt_clust_9="37.92388"></scales>
<clustering>
<clus scale="   37.924">  2  9  1 -1</clus>
<clus scale="   80.492">  5  6 -1 -1</clus>
<clus scale="   91.343">  7  8 -1 -1</clus>
<clus scale="   95.761">  2  5  1 -1</clus>
<clus scale="  105.046">  1  5  2 -1</clus>
</clustering>
</event>
<event>
 9    1  0.2333971E-005  0.1392643E+03  0.7546771E-02  0.1218050E+00
          1   -1    0    0  502    0  0.00000000000E+00  0.00000000000E+00  0.30131036790E+03  0.30131036790E+03  0.00000000000E+00 0. -1.
         -2   -1    0    0    0  501 -0.00000000000E+00 -0.00000000000E+00 -0.46197090734E+03  0.46197090734E+03  0.00000000000E+00 0.  1.
         23    2    1    2    0    0  0.47513381746E+02 -0.45945199506E+02 -0.19906742097E+03  0.23130164766E+03  0.97489134349E+02 0.  0.
        -24    2    1    2    0    0  0.19114923190E+02  0.10222650411E+03  0.26117025459E+03  0.29275079017E+03  0.81715878705E+02 0.  0.
         11    1    4    4    0    0  0.32823665097E+02  0.64598925662E+02  0.23241751458E+03  0.24345084775E+03  0.00000000000E+00 0. -1.
        -12    1    4    4    0    0 -0.13708741907E+02  0.37627578452E+02  0.28752740011E+02  0.49299942424E+02  0.00000000000E+00 0.  1.
        -11    1    3    3    0    0  0.62732610104E+02 -0.65428354476E+02 -0.13478740689E+03  0.16243120080E+03  0.00000000000E+00 0.  1.
         11    1    3    3    0    0 -0.15219228358E+02  0.19483154970E+02 -0.64280014088E+02  0.68870446859E+02  0.00000000000E+00 0. -1.
         21    1    1    2  502  501 -0.66628304936E+02 -0.56281304608E+02 -0.22276337306E+03  0.23922883740E+03  0.00000000000E+00 0.  1.
<scales pt_clust_5="13000.00000" pt_clust_6="13000.00000" pt_clust_7="13000.00000" pt_clust_8="13000.00000" pt_clust_9="87.21764"></scales>
<clustering>
<clus scale="   81.716">  5  6 -1 -1</clus>
<clus scale="   87.218">  2  9  1 -1</clus>
<clus scale="   97.489">  7  8 -1 -1</clus>
<clus scale="  128.716">  1  5  2 -1</clus>
<clus scale="  128.716">  1  5  2 -1</clus>
</clustering>
</event>
<event>
 9    1  0.2333971E-005  0.1316968E+03  0.7546771E-02  0.1226040E+00
          1   -1    0    0  502    0  0.00000000000E+00  0.00000000000E+00  0.10723639653E+03  0.10723639653E+03  0.00000000000E+00 0. -1.
         -2   -1    0    0    0  501 -0.00000000000E+00 -0.00000000000E+00 -0.46739137429E+03  0.46739137429E+03  0.00000000000E+00 0.  1.
        -24    2    1    2    0    0  0.48334469964E+02 -0.90335114338E+02 -0.12772646052E+03  0.18467755252E+03  0.85411333092E+02 0.  0.
         23    2    1    2    0    0 -0.71736991180E+02  0.63572839729E+02  0.21912808565E+02  0.13313626354E+03  0.89762974745E+02 0.  0.
         13    1    3    3    0    0  0.76837321099E+01 -0.45641642070E+02 -0.33508185065E+01  0.46405034368E+02  0.00000000000E+00 0. -1.
        -14    1    3    3    0    0  0.40650737854E+02 -0.44693472268E+02 -0.12437564201E+03  0.13827251816E+03  0.00000000000E+00 0.  1.
        -11    1    4    4    0    0 -0.97363287556E+01  0.42508754434E+02 -0.27099732895E+02  0.51343800251E+02  0.00000000000E+00 0.  1.
         11    1    4    4    0    0 -0.62000662424E+02  0.21064085295E+02  0.49012541460E+02  0.81792463288E+02  0.00000000000E+00 0. -1.
         21    1    1    2  502  501  0.23402521216E+02  0.26762274609E+02 -0.25434132581E+03  0.25681395475E+03  0.00000000000E+00 0.  1.
<scales pt_clust_5="13000.00000" pt_clust_6="13000.00000" pt_clust_7="13000.00000" pt_clust_8="13000.00000" pt_clust_9="35.55133"></scales>
<clustering>
<clus scale="   35.551">  2  9  1 -1</clus>
<clus scale="   85.411">  5  6 -1 -1</clus>
<clus scale="   89.763">  7  8 -1 -1</clus>
<clus scale="  128.770">  2  5  1 -1</clus>
<clus scale="  131.697">  1  5  2 -1</clus>
</clustering>
</event>
<event>
 9    1  0.2333971E-005  0.9519639E+02  0.7546771E-02  0.1298348E+00
         -2   -1    0    0    0  501 -0.00000000000E+00  0.00000000000E+00  0.84143719451E+02  0.84143719451E+02  0.00000000000E+00 0.  1.
          1   -1    0    0  502    0  0.00000000000E+00 -0.00000000000E+00 -0.36526526682E+03  0.36526526682E+03  0.00000000000E+00 0. -1.
         23    2    1    2    0    0 -0.17734865401E+02  0.13465829588E+02  0.25240260534E+02  0.94087265022E+02  0.87860620703E+02 0.  0.
        -24    2    1    2    0    0  0.37868478244E+02 -0.49110175029E+01 -0.31924127413E+03  0.32993613821E+03  0.74058925536E+02 0.  0.
         11    1    4    4    0    0  0.59033465232E+02 -0.21143934653E+01 -0.19087342061E+03  0.19980511348E+03  0.00000000000E+00 0. -1.
        -12    1    4    4    0    0 -0.21164986988E+02 -0.27966240376E+01 -0.12836785352E+03  0.13013102473E+03  0.00000000000E+00 0.  1.
        -11    1    3    3    0    0  0.30147483842E+02 -0.86733164665E+01 -0.71625573416E+01  0.32177623097E+02  0.00000000000E+00 0. -1.
         11    1    3    3    0    0 -0.47882349243E+02  0.22139146055E+02  0.32402817876E+02  0.61909641925E+02  0.00000000000E+00 0.  1.
         21    1    1    2  502  501 -0.20133612843E+02 -0.85548120853E+01  0.12879466227E+02  0.25385583039E+02  0.00000000000E+00 0.  1.
<scales pt_clust_5="13000.00000" pt_clust_6="13000.00000" pt_clust_7="13000.00000" pt_clust_8="13000.00000" pt_clust_9="21.87572"></scales>
<clustering>
<clus scale="   21.876">  1  9  2 -1</clus>
<clus scale="   74.059">  5  6 -1 -1</clus>
<clus scale="   82.629">  2  5  1 -1</clus>
<clus scale="   87.861">  7  8 -1 -1</clus>
<clus scale="   82.629">  2  5  1 -1</clus>
</clustering>
</event>
<event>
 9    1  0.2333971E-005  0.1399989E+03  0.7546771E-02  0.1237376E+00
          3   -1    0    0  502    0  0.00000000000E+00  0.00000000000E+00  0.21186172259E+03  0.21186172259E+03  0.00000000000E+00 0. -1.
         -4   -1    0    0    0  501 -0.00000000000E+00 -0.00000000000E+00 -0.22734981910E+03  0.22734981910E+03  0.00000000000E+00 0.  1.
         23    2    1    2    0    0  0.75404176135E+02 -0.74024163213E+02 -0.13183754503E+03  0.19019812255E+03  0.87343122365E+02 0.  0.
        -24    2    1    2    0    0  0.35232401820E+01 -0.25705745238E+02  0.14569959607E+02  0.86118802738E+02  0.80814391679E+02 0.  0.
         13    1    4    4    0    0 -0.18616253465E+02 -0.86056700419E+01 -0.28287120656E+02  0.34939714437E+02  0.00000000000E+00 0. -1.
        -14    1    4    4    0    0  0.22139493647E+02 -0.17100075196E+02  0.42857080263E+02  0.51179088301E+02  0.00000000000E+00 0.  1.
        -13    1    3    3    0    0  0.74291913160E+02 -0.27433994000E+02 -0.11701258860E+03  0.14129351817E+03  0.00000000000E+00 0. -1.
         13    1    3    3    0    0  0.11122629754E+01 -0.46590169212E+02 -0.14824956436E+02  0.48904604379E+02  0.00000000000E+00 0.  1.
         21    1    1    2  502  501 -0.78927416317E+02  0.99729908451E+02  0.10177948892E+03  0.16289461640E+03  0.00000000000E+00 0. -1.
<scales pt_clust_5="13000.00000" pt_clust_6="13000.00000" pt_clust_7="13000.00000" pt_clust_8="13000.00000" pt_clust_9="109.41152"></scales>
<clustering>
<clus scale="   80.814">  5  6 -1 -1</clus>
<clus scale="   84.877">  1  5  2 -1</clus>
<clus scale="   87.343">  7  8 -1 -1</clus>
<clus scale="  109.412">  1  9  2 -1</clus>
<clus scale="   84.877">  1  5  2 -1</clus>
</clustering>
</event>
<event>
 9    1  0.2333971E-005  0.9328562E+02  0.7546771E-02  0.1296513E+00
          1   -1    0    0  502    0  0.00000000000E+00  0.00000000000E+00  0.17748485426E+03  0.17748485426E+03  0.00000000000E+00 0. -1.
         -2   -1    0    0    0  501 -0.00000000000E+00 -0.00000000000E+00 -0.84699955333E+02  0.84699955333E+02  0.00000000000E+00 0.  1.
        -24    2    1    2    0    0  0.15572005770E+01  0.36753319841E+02  0.49475881003E+01  0.95217383933E+02  0.87684891412E+02 0.  0.
         23    2    1    2    0    0 -0.12322674153E+02 -0.16038804459E+02  0.10355910187E+03  0.13882206579E+03  0.90210791062E+02 0.  0.
         11    1    3    3    0    0  0.41002707157E+02  0.35550108590E+02 -0.50625238128E+01  0.54503773835E+02  0.00000000000E+00 0. -1.
        -12    1    3    3    0    0 -0.39445506580E+02  0.12032112514E+01  0.10010111913E+02  0.40713610098E+02  0.00000000000E+00 0.  1.
        -11    1    4    4    0    0 -0.18438503637E+02  0.24614464188E+02  0.38804960245E+01  0.30998524368E+02  0.00000000000E+00 0.  1.
         11    1    4    4    0    0  0.61158294838E+01 -0.40653268646E+02  0.99678605846E+02  0.10782354142E+03  0.00000000000E+00 0. -1.
         21    1    1    2  502  501  0.10765473576E+02 -0.20714515382E+02 -0.15721791039E+02  0.28145359872E+02  0.00000000000E+00 0.  1.
<scales pt_clust_5="13000.00000" pt_clust_6="13000.00000" pt_clust_7="13000.00000" pt_clust_8="13000.00000" pt_clust_9="23.34495"></scales>
<clustering>
<clus scale="   23.345">  2  9  1 -1</clus>
<clus scale="   87.685">  5  6 -1 -1</clus>
<clus scale="   90.211">  7  8 -1 -1</clus>
<clus scale="   90.845">  2  5  1 -1</clus>
<clus scale="   93.286">  1  5  2 -1</clus>
</clustering>
</event>
<event>
 9    1  0.2333971E-005  0.1887459E+03  0.7546771E-02  0.1160445E+00
         -2   -1    0    0    0  501 -0.00000000000E+00  0.00000000000E+00  0.31582104202E+02  0.31582104202E+02  0.00000000000E+00 0.  1.
          1   -1    0    0  502    0  0.00000000000E+00 -0.00000000000E+00 -0.12853010465E+04  0.12853010465E+04  0.00000000000E+00 0. -1.
        -24    2    1    2    0    0 -0.17823002853E+03  0.16683488687E+02 -0.59614384615E+03  0.62796443722E+03  0.83111775626E+02 0.  0.
         23    2    1    2    0    0  0.15254877982E+03 -0.21110294897E+02 -0.58858277998E+03  0.61516871118E+03  0.91027905347E+02 0.  0.
         11    1    3    3    0    0 -0.91184180987E+02  0.35516845166E+02 -0.41134606576E+03  0.42282571701E+03  0.00000000000E+00 0. -1.
        -12    1    3    3    0    0 -0.87045847547E+02 -0.18833356479E+02 -0.18479778039E+03  0.20513872021E+03  0.00000000000E+00 0.  1.
        -13    1    4    4    0    0  0.26674388990E+02 -0.63689151979E+01 -0.23707454049E+02  0.36250923936E+02  0.00000000000E+00 0.  1.
         13    1    4    4    0    0  0.12587439083E+03 -0.14741379699E+02 -0.56487532593E+03  0.57891778725E+03  0.00000000000E+00 0. -1.
         21    1    1    2  502  501  0.25681248711E+02  0.44268062105E+01 -0.68992316158E+02  0.73750002288E+02  0.00000000000E+00 0.  1.
<scales pt_clust_5="13000.00000" pt_clust_6="13000.00000" pt_clust_7="13000.00000" pt_clust_8="13000.00000" pt_clust_9="26.05999"></scales>
<clustering>
<clus scale="   26.060">  1  9  2 -1</clus>
<clus scale="   83.112">  5  6 -1 -1</clus>
<clus scale="   91.028">  7  8 -1 -1</clus>
<clus scale="  185.058">  1  5  2 -1</clus>
<clus scale="  188.746">  2  5  1 -1</clus>
</clustering>
</event>
<event>
 9    1  0.2333971E-005  0.9355107E+02  0.7546771E-02  0.1300958E+00
         -2   -1    0    0    0  501 -0.00000000000E+00  0.00000000000E+00  0.18443339399E+03  0.18443339399E+03  0.00000000000E+00 0.  1.
          1   -1    0    0  502    0  0.00000000000E+00 -0.00000000000E+00 -0.18170390356E+03  0.18170390356E+03  0.00000000000E+00 0. -1.
        -24    2    1    2    0    0  0.84921918864E+00  0.82703241588E+01  0.83502736443E+02  0.11523502688E+03  0.78976483794E+02 0.  0.
         23    2    1    2    0    0 -0.48017108557E+01  0.29780764210E+02 -0.14666267056E+03  0.17471222025E+03  0.90024833376E+02 0.  0.
         11    1    3    3    0    0  0.37950186754E+02  0.13906825535E+02  0.32222734236E+02  0.51690628481E+02  0.00000000000E+00 0. -1.
        -12    1    3    3    0    0 -0.37100967565E+02 -0.56365013757E+01  0.51280002208E+02  0.63544398403E+02  0.00000000000E+00 0.  1.
        -13    1    4    4    0    0 -0.28642047979E+02  0.29588866712E+01 -0.58290967194E+01  0.29378568572E+02  0.00000000000E+00 0.  1.
         13    1    4    4    0    0  0.23840337124E+02  0.26821877539E+02 -0.14083357384E+03  0.14533365168E+03  0.00000000000E+00 0. -1.
         21    1    1    2  502  501  0.39524916670E+01 -0.38051088369E+02  0.65889424547E+02  0.76190050424E+02  0.00000000000E+00 0.  1.
<scales pt_clust_5="13000.00000" pt_clust_6="13000.00000" pt_clust_7="13000.00000" pt_clust_8="13000.00000" pt_clust_9="38.25582"></scales>
<clustering>
<clus scale="   38.256">  1  9  2 -1</clus>
<clus scale="   78.976">  5  6 -1 -1</clus>
<clus scale="   82.974">  1  5  2 -1</clus>
<clus scale="   90.025">  7  8 -1 -1</clus>
<clus scale="   93.551">  2  5  1 -1</clus>
</clustering>
</event>
<event>
 9    1  0.2333971E-005  0.1930834E+03  0.7546771E-02  0.1156850E+00
         -2   -1    0    0    0  501 -0.00000000000E+00  0.00000000000E+00  0.65325693152E+03  0.65325693152E+03  0.00000000000E+00 0.  1.
          1   -1    0    0  502    0  0.00000000000E+00 -0.00000000000E+00 -0.70760273479E+02  0.70760273479E+02  0.00000000000E+00 0. -1.
         23    2    1    2    0    0 -0.14066428149E+02  0.16321832818E+03  0.32895415045E+03  0.37897443776E+03  0.92588899563E+02 0.  0.
        -24    2    1    2    0    0  0.48789095558E+02 -0.16722636705E+03  0.17900946064E+03  0.26272081941E+03  0.81442054674E+02 0.  0.
         13    1    4    4    0    0  0.34216960183E+00 -0.77681855389E+02  0.32263893078E+02  0.84116267946E+02  0.00000000000E+00 0. -1.
        -14    1    4    4    0    0  0.48446925956E+02 -0.89544511657E+02  0.14674556756E+03  0.17860455146E+03  0.00000000000E+00 0.  1.
        -11    1    3    3    0    0  0.63765266763E+01  0.40334315005E+02  0.19229171864E+02  0.45136217276E+02  0.00000000000E+00 0. -1.
         11    1    3    3    0    0 -0.20442954825E+02  0.12288401318E+03  0.30972497859E+03  0.33383822049E+03  0.00000000000E+00 0.  1.
         21    1    1    2  502  501 -0.34722667409E+02  0.40080388618E+01  0.74533046948E+02  0.82321947833E+02  0.00000000000E+00 0.  1.
<scales pt_clust_5="13000.00000" pt_clust_6="13000.00000" pt_clust_7="13000.00000" pt_clust_8="13000.00000" pt_clust_9="34.95323"></scales>
<clustering>
<clus scale="   34.953">  1  9  2 -1</clus>
<clus scale="   81.442">  5  6 -1 -1</clus>
<clus scale="   92.589">  7  8 -1 -1</clus>
<clus scale="  187.993">  2  5  1 -1</clus>
<clus scale="  187.993">  2  5  1 -1</clus>
</clustering>
</event>
<event>
 9    1  0.2333971E-005  0.1356749E+03  0.7546771E-02  0.1221715E+00
         -2   -1    0    0    0  501 -0.00000000000E+00  0.00000000000E+00  0.34023208924E+02  0.34023208924E+02  0.00000000000E+00 0.  1.
          1   -1    0    0  502    0  0.00000000000E+00 -0.00000000000E+00 -0.10415666209E+04  0.10415666209E+04  0.00000000000E+00 0. -1.
         23    2    1    2    0    0  0.50091778466E+02 -0.10062412831E+03 -0.17933389968E+03  0.23118576988E+03  0.93015112480E+02 0.  0.
        -24    2    1    2    0    0 -0.55934538231E+02  0.78413118421E+02 -0.78736718237E+03  0.79754722783E+03  0.82808278827E+02 0.  0.
         11    1    4    4    0    0 -0.64245012677E+02  0.22396355597E+02 -0.35226079303E+03  0.35877107562E+03  0.00000000000E+00 0. -1.
        -12    1    4    4    0    0  0.83104744462E+01  0.56016762824E+02 -0.43510638934E+03  0.43877615221E+03  0.00000000000E+00 0.  1.
        -13    1    3    3    0    0  0.38412922520E+02  0.36753668821E+01 -0.31106313735E+02  0.49564742432E+02  0.00000000000E+00 0.  1.
         13    1    3    3    0    0  0.11678855946E+02 -0.10429949519E+03 -0.14822758595E+03  0.18162102744E+03  0.00000000000E+00 0. -1.
         21    1    1    2  502  501  0.58427597642E+01  0.22211009892E+02 -0.40842329920E+02  0.46856832110E+02  0.00000000000E+00 0.  1.
<scales pt_clust_5="13000.00000" pt_clust_6="13000.00000" pt_clust_7="13000.00000" pt_clust_8="13000.00000" pt_clust_9="22.96665"></scales>
<clustering>
<clus scale="   22.967">  1  9  2 -1</clus>
<clus scale="   82.808">  5  6 -1 -1</clus>
<clus scale="   93.015">  7  8 -1 -1</clus>
<clus scale="  128.892">  2  5  1 -1</clus>
<clus scale="  128.892">  2  5  1 -1</clus>
</clustering>
</event>
<event>
 9    1  0.2333971E-005  0.9993095E+02  0.7546771E-02  0.1286002E+00
          1   -1    0    0  502    0  0.00000000000E+00  0.00000000000E+00  0.22040256715E+03  0.22040256715E+03  0.00000000000E+00 0. -1.
         -2   -1    0    0    0  501 -0.00000000000E+00 -0.00000000000E+00 -0.17680306951E+03  0.17680306951E+03  0.00000000000E+00 0.  1.
         23    2    1    2    0    0  0.30661650428E+02  0.29215985758E+02 -0.12880034800E+03  0.16370731532E+03  0.91743363876E+02 0.  0.
        -24    2    1    2    0    0 -0.29784612081E+02  0.15813868491E+02  0.16647167342E+03  0.18807145488E+03  0.80751795886E+02 0.  0.
         11    1    4    4    0    0  0.72396682571E+01  0.40717915208E+02  0.97697895743E+02  0.10609071707E+03  0.00000000000E+00 0. -1.
        -12    1    4    4    0    0 -0.37024280338E+02 -0.24904046717E+02  0.68773777673E+02  0.81980737816E+02  0.00000000000E+00 0.  1.
        -11    1    3    3    0    0  0.42466597616E+02  0.50401466080E+02 -0.12176116981E+03  0.13845397131E+03  0.00000000000E+00 0. -1.
         11    1    3    3    0    0 -0.11804947188E+02 -0.21185480322E+02 -0.70391781848E+01  0.25253344018E+02  0.00000000000E+00 0.  1.
         21    1    1    2  502  501 -0.87703834789E+00 -0.45029854249E+02  0.59281722205E+01  0.45426866454E+02  0.00000000000E+00 0.  1.
<scales pt_clust_5="13000.00000" pt_clust_6="13000.00000" pt_clust_7="13000.00000" pt_clust_8="13000.00000" pt_clust_9="45.03839"></scales>
<clustering>
<clus scale="   45.038">  1  9  2 -1</clus>
<clus scale="   80.752">  5  6 -1 -1</clus>
<clus scale="   89.946">  1  5  2 -1</clus>
<clus scale="   91.743">  7  8 -1 -1</clus>
<clus scale="   45.038">  1  5  2 -1</clus>
</clustering>
</event>
<event>
 9    1  0.2333971E-005  0.2296342E+03  0.7546771E-02  0.1127568E+00
         -2   -1    0    0    0  501 -0.00000000000E+00  0.00000000000E+00  0.10093267856E+03  0.10093267856E+03  0.00000000000E+00 0.  1.
          1   -1    0    0  502    0  0.00000000000E+00 -0.00000000000E+00 -0.62545206095E+03  0.62545206095E+03  0.00000000000E+00 0. -1.
         23    2    1    2    0    0  0.79449591757E+02  0.20425951970E+03 -0.26762009054E+03  0.35856838089E+03  0.94427654291E+02 0.  0.
        -24    2    1    2    0    0 -0.65077665286E+02 -0.19016343191E+03 -0.26740170659E+03  0.34511057354E+03  0.84855182050E+02 0.  0.
         11    1    4    4    0    0 -0.90246761554E+01 -0.11294612258E+03 -0.19424344269E+03  0.22487504622E+03  0.00000000000E+00 0. -1.
        -12    1    4    4    0    0 -0.56052989130E+02 -0.77217309328E+02 -0.73158263906E+02  0.12023552731E+03  0.00000000000E+00 0.  1.
        -11    1    3    3    0    0  0.28093304737E+02  0.74324645088E+02 -0.17141045517E+03  0.18893102122E+03  0.00000000000E+00 0. -1.
         11    1    3    3    0    0  0.51356287020E+02  0.12993487461E+03 -0.96209635367E+02  0.16963735966E+03  0.00000000000E+00 0.  1.
         21    1    1    2  502  501 -0.14371926471E+02 -0.14096087784E+02  0.10502414743E+02  0.22705785094E+02  0.00000000000E+00 0. -1.
<scales pt_clust_5="13000.00000" pt_clust_6="13000.00000" pt_clust_7="13000.00000" pt_clust_8="13000.00000" pt_clust_9="20.13087"></scales>
<clustering>
<clus scale="   20.131">  1  9  2 -1</clus>
<clus scale="   84.855">  5  6 -1 -1</clus>
<clus scale="   94.428">  7  8 -1 -1</clus>
<clus scale="  225.867">  2  5  1 -1</clus>
<clus scale="  225.867">  2  5  1 -1</clus>
</clustering>
</event>
<event>
 9    1  0.2333971E-005  0.9365921E+02  0.7546771E-02  0.1300712E+00
         -2   -1    0    0    0  501 -0.00000000000E+00  0.00000000000E+00  0.95510944269E+02  0.95510944269E+02  0.00000000000E+00 0.  1.
          1   -1    0    0  502    0  0.00000000000E+00 -0.00000000000E+00 -0.17445554882E+03  0.17445554882E+03  0.00000000000E+00 0. -1.
        -24    2    1    2    0    0 -0.19599542439E+02  0.12399150809E+02  0.47650638231E+02  0.95969009495E+02  0.80009914730E+02 0.  0.
         23    2    1    2    0    0  0.25624934878E+02  0.10838199090E+02 -0.10535311819E+03  0.14194272355E+03  0.90963472941E+02 0.  0.
         13    1    3    3    0    0 -0.51471672340E+01 -0.29385947421E+02 -0.14837418221E+01  0.29870197960E+02  0.00000000000E+00 0. -1.
        -14    1    3    3    0    0 -0.14452375205E+02  0.41785098231E+02  0.49134380053E+02  0.66098811535E+02  0.00000000000E+00 0.  1.
        -11    1    4    4    0    0 -0.10695938889E+02  0.41232462542E+02 -0.27141269353E+02  0.50509084114E+02  0.00000000000E+00 0.  1.
         11    1    4    4    0    0  0.36320873767E+02 -0.30394263452E+02 -0.78211848837E+02  0.91433639435E+02  0.00000000000E+00 0. -1.
         21    1    1    2  502  501 -0.60253924393E+01 -0.23237349899E+02 -0.21242124596E+02  0.32054760048E+02  0.00000000000E+00 0.  1.
<scales pt_clust_5="13000.00000" pt_clust_6="13000.00000" pt_clust_7="13000.00000" pt_clust_8="13000.00000" pt_clust_9="24.00583"></scales>
<clustering>
<clus scale="   24.006">  2  9  1 -1</clus>
<clus scale="   80.010">  5  6 -1 -1</clus>
<clus scale="   83.062">  1  5  2 -1</clus>
<clus scale="   90.963">  7  8 -1 -1</clus>
<clus scale="   24.006">  2  5  1 -1</clus>
</clustering>
</event>
<event>
 9    1  0.2333971E-005  0.1299562E+03  0.7546771E-02  0.1250041E+00
         -2   -1    0    0    0  501 -0.00000000000E+00  0.00000000000E+00  0.57716435255E+02  0.57716435255E+02  0.00000000000E+00 0.  1.
          1   -1    0    0  502    0  0.00000000000E+00 -0.00000000000E+00 -0.63670427814E+03  0.63670427814E+03  0.00000000000E+00 0. -1.
         23    2    1    2    0    0  0.78768593576E+02  0.45185999437E+02 -0.56705092303E+02  0.13950008214E+03  0.89434554533E+02 0.  0.
        -24    2    1    2    0    0  0.60594777145E+01  0.17165292708E+02 -0.23533879555E+03  0.24927325495E+03  0.80133902943E+02 0.  0.
         13    1    4    4    0    0 -0.29804087075E+02 -0.15169108398E+02 -0.10927315370E+03  0.11427601488E+03  0.00000000000E+00 0. -1.
        -14    1    4    4    0    0  0.35863564789E+02  0.32334401106E+02 -0.12606564185E+03  0.13499724008E+03  0.00000000000E+00 0.  1.
        -11    1    3    3    0    0  0.60094586889E+02  0.28126932674E+02 -0.80810493584E+02  0.10456012427E+03  0.00000000000E+00 0. -1.
         11    1    3    3    0    0  0.18674006687E+02  0.17059066762E+02  0.24105401282E+02  0.34939957864E+02  0.00000000000E+00 0.  1.
         21    1    1    2  502  501 -0.84828071291E+02 -0.62351292144E+02 -0.28694395503E+03  0.30564737630E+03  0.00000000000E+00 0. -1.
<scales pt_clust_5="13000.00000" pt_clust_6="13000.00000" pt_clust_7="13000.00000" pt_clust_8="13000.00000" pt_clust_9="94.28719"></scales>
<clustering>
<clus scale="   80.134">  5  6 -1 -1</clus>
<clus scale="   82.175">  2  5  1 -1</clus>
<clus scale="   89.435">  7  8 -1 -1</clus>
<clus scale="   94.287">  2  9  1 -1</clus>
<clus scale="   82.175">  2  5  1 -1</clus>
</clustering>
</event>
<event>
 9    1  0.2333971E-005  0.1655800E+03  0.7546771E-02  0.1186573E+00
          1   -1    0    0  502    0  0.00000000000E+00  0.00000000000E+00  0.59642222505E+03  0.59642222505E+03  0.00000000000E+00 0. -1.
         -2   -1    0    0    0  501 -0.00000000000E+00 -0.00000000000E+00 -0.10058621548E+03  0.10058621548E+03  0.00000000000E+00 0.  1.
        -24    2    1    2    0    0 -0.67126493648E+02  0.11479427526E+03  0.26107923886E+02  0.15618495091E+03  0.77642922530E+02 0.  0.
         23    2    1    2    0    0  0.94374167420E+02 -0.89631812954E+02  0.47523967649E+03  0.50332731824E+03  0.10269028097E+03 0.  0.
         13    1    3    3    0    0  0.17030401153E+02  0.17545684841E+02 -0.20310160828E+01  0.24535905248E+02  0.00000000000E+00 0. -1.
        -14    1    3    3    0    0 -0.84156894802E+02  0.97248590415E+02  0.28138939969E+02  0.13164904566E+03  0.00000000000E+00 0.  1.
        -11    1    4    4    0    0  0.82946644928E+02 -0.82635922525E+01  0.22512926480E+03  0.24006586332E+03  0.00000000000E+00 0.  1.
         11    1    4    4    0    0  0.11427522492E+02 -0.81368220702E+02  0.25011041170E+03  0.26326145493E+03  0.00000000000E+00 0. -1.
         21    1    1    2  502  501 -0.27247673772E+02 -0.25162462302E+02 -0.55115908150E+01  0.37496171383E+02  0.00000000000E+00 0.  1.
<scales pt_clust_5="13000.00000" pt_clust_6="13000.00000" pt_clust_7="13000.00000" pt_clust_8="13000.00000" pt_clust_9="37.08888"></scales>
<clustering>
<clus scale="   37.089">  2  9  1 -1</clus>
<clus scale="   77.643">  5  6 -1 -1</clus>
<clus scale="  102.690">  7  8 -1 -1</clus>
<clus scale="  151.327">  2  5  1 -1</clus>
<clus scale="  165.580">  1  5  2 -1</clus>
</clustering>
</event>
<event>
 9    1  0.2333971E-005  0.9402278E+02  0.7546771E-02  0.1300325E+00
         -2   -1    0    0    0  501 -0.00000000000E+00  0.00000000000E+00  0.85490676120E+03  0.85490676120E+03  0.00000000000E+00 0.  1.
          1   -1    0    0  502    0  0.00000000000E+00 -0.00000000000E+00 -0.31717974855E+02  0.31717974855E+02  0.00000000000E+00 0. -1.
         23    2    1    2    0    0 -0.19557146814E+02 -0.48554214381E+02  0.29283949158E+03  0.31153818891E+03  0.92526113038E+02 0.  0.
        -24    2    1    2    0    0 -0.25726861370E+02 -0.55895786241E+01  0.72526711317E+02  0.11185473732E+03  0.80982983532E+02 0.  0.
         11    1    4    4    0    0 -0.21702031603E+02  0.19378105568E+02 -0.56947534926E+01  0.29646574312E+02  0.00000000000E+00 0. -1.
        -12    1    4    4    0    0 -0.40248297678E+01 -0.24967684192E+02  0.78221464809E+02  0.82208163010E+02  0.00000000000E+00 0.  1.
        -13    1    3    3    0    0  0.26537668774E+02 -0.49475583903E+02  0.11727696886E+03  0.13002295448E+03  0.00000000000E+00 0.  1.
         13    1    3    3    0    0 -0.46094815588E+02  0.92136952284E+00  0.17556252273E+03  0.18151523444E+03  0.00000000000E+00 0. -1.
         21    1    1    2  502  501  0.45284008185E+02  0.54143793005E+02  0.45782258344E+03  0.46323180982E+03  0.00000000000E+00 0.  1.
<scales pt_clust_5="13000.00000" pt_clust_6="13000.00000" pt_clust_7="13000.00000" pt_clust_8="13000.00000" pt_clust_9="70.58464"></scales>
<clustering>
<clus scale="   70.585">  1  9  2 -1</clus>
<clus scale="   80.983">  5  6 -1 -1</clus>
<clus scale="   82.689">  2  5  1 -1</clus>
<clus scale="   92.526">  7  8 -1 -1</clus>
<clus scale="   82.689">  2  5  1 -1</clus>
</clustering>
</event>
<event>
 9    1  0.2333971E-005  0.1326933E+03  0.7546771E-02  0.1226139E+00
         -2   -1    0    0    0  501 -0.00000000000E+00  0.00000000000E+00  0.77074156641E+02  0.77074156641E+02  0.00000000000E+00 0.  1.
          1   -1    0    0  502    0  0.00000000000E+00 -0.00000000000E+00 -0.49497093412E+03  0.49497093412E+03  0.00000000000E+00 0. -1.
         23    2    1    2    0    0 -0.79272474007E+02 -0.61891785185E+02 -0.14656723329E+03  0.20001973564E+03  0.91712717562E+02 0.  0.
        -24    2    1    2    0    0  0.58220812336E+02  0.74676561748E+02 -0.30545899532E+03  0.32993684831E+03  0.81159560063E+02 0.  0.
         11    1    4    4    0    0  0.62192797362E+02  0.17329830364E+02 -0.19508518273E+03  0.20549086496E+03  0.00000000000E+00 0. -1.
        -12    1    4    4    0    0 -0.39719850257E+01  0.57346731384E+02 -0.11037381259E+03  0.12444598335E+03  0.00000000000E+00 0.  1.
        -13    1    3    3    0    0 -0.46641853726E+02 -0.14064959100E+02 -0.13144104290E+03  0.14017857665E+03  0.00000000000E+00 0. -1.
         13    1    3    3    0    0 -0.32630620281E+02 -0.47826826085E+02 -0.15126190389E+02  0.59841158988E+02  0.00000000000E+00 0.  1.
         21    1    1    2  502  501  0.21051661671E+02 -0.12784776563E+02  0.34129451130E+02  0.42088506808E+02  0.00000000000E+00 0.  1.
<scales pt_clust_5="13000.00000" pt_clust_6="13000.00000" pt_clust_7="13000.00000" pt_clust_8="13000.00000" pt_clust_9="24.62972"></scales>
<clustering>
<clus scale="   24.630">  1  9  2 -1</clus>
<clus scale="   81.160">  5  6 -1 -1</clus>
<clus scale="   91.713">  7  8 -1 -1</clus>
<clus scale="  125.631">  2  5  1 -1</clus>
<clus scale="  125.631">  2  5  1 -1</clus>
</clustering>
</event>
<event>
 9    1  0.2333971E-005  0.1009183E+03  0.7546771E-02  0.1283549E+00
          1   -1    0    0  502    0  0.00000000000E+00  0.00000000000E+00  0.48727235956E+03  0.48727235956E+03  0.00000000000E+00 0. -1.
         -2   -1    0    0    0  501 -0.00000000000E+00 -0.00000000000E+00 -0.39286628806E+02  0.39286628806E+02  0.00000000000E+00 0.  1.
         23    2    1    2    0    0 -0.23941931028E+02 -0.14633402935E+02  0.11126849662E+03  0.14657402381E+03  0.91191631048E+02 0.  0.
        -24    2    1    2    0    0  0.45768454241E+02  0.17007049947E+02  0.34413766040E+03  0.35680967510E+03  0.80612801639E+02 0.  0.
         11    1    4    4    0    0  0.55612505840E+02  0.17369970252E+02  0.34174062308E+03  0.34667148734E+03  0.00000000000E+00 0. -1.
        -12    1    4    4    0    0 -0.98440515989E+01 -0.36292030589E+00  0.23970373138E+01  0.10138187753E+02  0.00000000000E+00 0.  1.
        -13    1    3    3    0    0  0.31296142054E+02 -0.21277348856E+02  0.31057957516E+02  0.48956825948E+02  0.00000000000E+00 0.  1.
         13    1    3    3    0    0 -0.55238073083E+02  0.66439459206E+01  0.80210539099E+02  0.97617197859E+02  0.00000000000E+00 0. -1.
         21    1    1    2  502  501 -0.21826523212E+02 -0.23736470115E+01 -0.74204262599E+01  0.23175289460E+02  0.00000000000E+00 0. -1.
<scales pt_clust_5="13000.00000" pt_clust_6="13000.00000" pt_clust_7="13000.00000" pt_clust_8="13000.00000" pt_clust_9="21.95521"></scales>
<clustering>
<clus scale="   21.955">  2  9  1 -1</clus>
<clus scale="   80.613">  5  6 -1 -1</clus>
<clus scale="   91.192">  7  8 -1 -1</clus>
<clus scale="   91.471">  1  5  2 -1</clus>
<clus scale="   91.471">  1  5  2 -1</clus>
</clustering>
</event>
<event>
 9    1  0.2333971E-005  0.9688910E+02  0.7546771E-02  0.1293005E+00
         -2   -1    0    0    0  501 -0.00000000000E+00  0.00000000000E+00  0.72928655445E+03  0.72928655445E+03  0.00000000000E+00 0.  1.
          1   -1    0    0  502    0  0.00000000000E+00 -0.00000000000E+00 -0.29204823348E+02  0.29204823348E+02  0.00000000000E+00 0. -1.
        -24    2    1    2    0    0 -0.76882806281E+01 -0.12693169869E+02  0.38769444219E+03  0.39619465359E+03  0.80268280179E+02 0.  0.
         23    2    1    2    0    0  0.27132117120E+02 -0.33566232490E+02  0.93200293105E+02  0.13743913770E+03  0.91325671050E+02 0.  0.
         13    1    3    3    0    0 -0.14273586187E+01 -0.46572398286E+02  0.24581363810E+03  0.25019066792E+03  0.00000000000E+00 0. -1.
        -14    1    3    3    0    0 -0.62609220094E+01  0.33879228417E+02  0.14188080409E+03  0.14600398567E+03  0.00000000000E+00 0.  1.
        -13    1    4    4    0    0  0.22559704486E+02  0.23905119674E+02  0.65914312384E+02  0.73655221066E+02  0.00000000000E+00 0.  1.
         13    1    4    4    0    0  0.45724126331E+01 -0.57471352163E+02  0.27285980720E+02  0.63783916630E+02  0.00000000000E+00 0. -1.
         21    1    1    2  502  501 -0.19443836491E+02  0.46259402359E+02  0.21918699581E+03  0.22485758652E+03  0.00000000000E+00 0.  1.
<scales pt_clust_5="13000.00000" pt_clust_6="13000.00000" pt_clust_7="13000.00000" pt_clust_8="13000.00000" pt_clust_9="50.17963"></scales>
<clustering>
<clus scale="   50.180">  1  9  2 -1</clus>
<clus scale="   80.268">  5  6 -1 -1</clus>
<clus scale="   86.545">  1  5  2 -1</clus>
<clus scale="   91.326">  7  8 -1 -1</clus>
<clus scale="   96.889">  2  5  1 -1</clus>
</clustering>
</event>
<event>
 9    1  0.2333971E-005  0.1000021E+03  0.7546771E-02  0.1299480E+00
         -2   -1    0    0    0  501 -0.00000000000E+00  0.00000000000E+00  0.10027191226E+03  0.10027191226E+03  0.00000000000E+00 0.  1.
          1   -1    0    0  502    0  0.00000000000E+00 -0.00000000000E+00 -0.19180439907E+03  0.19180439907E+03  0.00000000000E+00 0. -1.
         23    2    1    2    0    0 -0.37858773189E+02 -0.30175935170E+02  0.12064755754E+01  0.11085194762E+03  0.99713714892E+02 0.  0.
        -24    2    1    2    0    0 -0.42414800966E+01 -0.14712389488E+02 -0.96183248730E+02  0.11958625759E+03  0.69391722196E+02 0.  0.
         11    1    4    4    0    0 -0.30151810697E+02 -0.10521011051E+02 -0.17023852902E+02  0.36188878533E+02  0.00000000000E+00 0. -1.
        -12    1    4    4    0    0  0.25910330601E+02 -0.41913784364E+01 -0.79159395828E+02  0.83397379053E+02  0.00000000000E+00 0.  1.
        -13    1    3    3    0    0 -0.42157966235E+02 -0.63440852283E+02  0.81284306766E+01  0.76603571984E+02  0.00000000000E+00 0. -1.
         13    1    3    3    0    0  0.42991930462E+01  0.33264917113E+02 -0.69219551012E+01  0.34248375638E+02  0.00000000000E+00 0.  1.
         21    1    1    2  502  501  0.42100253286E+02  0.44888324658E+02  0.34442863456E+01  0.61638106117E+02  0.00000000000E+00 0. -1.
<scales pt_clust_5="13000.00000" pt_clust_6="13000.00000" pt_clust_7="13000.00000" pt_clust_8="13000.00000" pt_clust_9="61.54180"></scales>
<clustering>
<clus scale="   61.542">  1  9  2 -1</clus>
<clus scale="   69.392">  5  6 -1 -1</clus>
<clus scale="   69.805">  2  5  1 -1</clus>
<clus scale="   99.714">  7  8 -1 -1</clus>
<clus scale="   69.805">  2  5  1 -1</clus>
</clustering>
</event>
<event>
 9    1  0.2333971E-005  0.1559732E+03  0.7546771E-02  0.1195011E+00
          1   -1    0    0  502    0  0.00000000000E+00  0.00000000000E+00  0.34630821976E+03  0.34630821976E+03  0.00000000000E+00 0. -1.
         -2   -1    0    0    0  501 -0.00000000000E+00 -0.00000000000E+00 -0.23205891231E+03  0.23205891231E+03  0.00000000000E+00 0.  1.
         23    2    1    2    0    0  0.99206428735E+02 -0.85049329180E+02 -0.78001347978E+02  0.17744729900E+03  0.91258039312E+02 0.  0.
        -24    2    1    2    0    0 -0.10702332930E+03  0.66613579847E+02  0.27638615171E+03  0.31443421275E+03  0.81167772248E+02 0.  0.
         13    1    4    4    0    0 -0.84640053189E+02  0.39474172629E+02  0.25873680303E+03  0.27507613883E+03  0.00000000000E+00 0. -1.
        -14    1    4    4    0    0 -0.22383276114E+02  0.27139407218E+02  0.17649348679E+02  0.39358073918E+02  0.00000000000E+00 0.  1.
        -11    1    3    3    0    0  0.46392160374E+02 -0.61002580044E+02 -0.89978327494E+02  0.11819326011E+03  0.00000000000E+00 0.  1.
         11    1    3    3    0    0  0.52814268362E+02 -0.24046749135E+02  0.11976979516E+02  0.59254038891E+02  0.00000000000E+00 0. -1.
         21    1    1    2  502  501  0.78169005679E+01  0.18435749332E+02 -0.84135496289E+02  0.86485620329E+02  0.00000000000E+00 0.  1.
<scales pt_clust_5="13000.00000" pt_clust_6="13000.00000" pt_clust_7="13000.00000" pt_clust_8="13000.00000" pt_clust_9="20.02450"></scales>
<clustering>
<clus scale="   20.025">  2  9  1 -1</clus>
<clus scale="   81.168">  5  6 -1 -1</clus>
<clus scale="   91.258">  7  8 -1 -1</clus>
<clus scale="  150.292">  1  5  2 -1</clus>
<clus scale="  150.292">  1  5  2 -1</clus>
</clustering>
</event>
<event>
 9    1  0.2333971E-005  0.1328306E+03  0.7546771E-02  0.1226015E+00
         -2   -1    0    0    0  501 -0.00000000000E+00  0.00000000000E+00  0.11813382929E+03  0.11813382929E+03  0.00000000000E+00 0.  1.
          1   -1    0    0  502    0  0.00000000000E+00 -0.00000000000E+00 -0.47250609939E+03  0.47250609939E+03  0.00000000000E+00 0. -1.
        -24    2    1    2    0    0 -0.68550986179E+02  0.66544125096E+02 -0.52289799004E+02  0.13288960491E+03  0.76145030840E+02 0.  0.
         23    2    1    2    0    0  0.14824415550E+02 -0.10534844666E+03 -0.34987561763E+03  0.37604044298E+03  0.87609408344E+02 0.  0.
         11    1    3    3    0    0 -0.65280433610E+02  0.54772684480E+02 -0.70746987003E+02  0.11075521725E+03  0.00000000000E+00 0. -1.
        -12    1    3    3    0    0 -0.32705525697E+01  0.11771440615E+02  0.18457187999E+02  0.22134387661E+02  0.00000000000E+00 0.  1.
        -11    1    4    4    0    0  0.36606864349E+02 -0.10907675301E+03 -0.30595396550E+03  0.32687249742E+03  0.00000000000E+00 0.  1.
         11    1    4    4    0    0 -0.21782448799E+02  0.37283063572E+01 -0.43921652131E+02  0.49167945553E+02  0.00000000000E+00 0. -1.
         21    1    1    2  502  501  0.53726570630E+02  0.38804321561E+02  0.47793146539E+02  0.81709880795E+02  0.00000000000E+00 0.  1.
<scales pt_clust_5="13000.00000" pt_clust_6="13000.00000" pt_clust_7="13000.00000" pt_clust_8="13000.00000" pt_clust_9="66.27458"></scales>
<clustering>
<clus scale="   66.275">  1  9  2 -1</clus>
<clus scale="   76.145">  5  6 -1 -1</clus>
<clus scale="   87.609">  7  8 -1 -1</clus>
<clus scale="  125.565">  1  5  2 -1</clus>
<clus scale="  132.831">  2  5  1 -1</clus>
</clustering>
</event>
<event>
 9    1  0.2333971E-005  0.1069292E+03  0.7546771E-02  0.1293762E+00
         -2   -1    0    0    0  501 -0.00000000000E+00  0.00000000000E+00  0.35813599382E+03  0.35813599382E+03  0.00000000000E+00 0.  1.
          1   -1    0    0  502    0  0.00000000000E+00 -0.00000000000E+00 -0.22719915556E+03  0.22719915556E+03  0.00000000000E+00 0. -1.
         23    2    1    2    0    0 -0.35305967371E+02 -0.13903517305E+02  0.26631762347E+03  0.28529272879E+03  0.95010764685E+02 0.  0.
        -24    2    1    2    0    0 -0.18715666465E+02 -0.26186035873E+02 -0.19812780468E+03  0.20804949885E+03  0.54717294710E+02 0.  0.
         13    1    4    4    0    0 -0.33382616042E+02 -0.18132019101E+02 -0.77970873055E+02  0.86733074518E+02  0.00000000000E+00 0. -1.
        -14    1    4    4    0    0  0.14666949578E+02 -0.80540167719E+01 -0.12015693163E+03  0.12131642434E+03  0.00000000000E+00 0.  1.
        -11    1    3    3    0    0 -0.30697676239E+02 -0.53354701151E+02  0.18104479673E+03  0.19122314160E+03  0.00000000000E+00 0. -1.
         11    1    3    3    0    0 -0.46082911325E+01  0.39451183846E+02  0.85272826739E+02  0.94069587190E+02  0.00000000000E+00 0.  1.
         21    1    1    2  502  501  0.54021633836E+02  0.40089553178E+02  0.62747019477E+02  0.91992921736E+02  0.00000000000E+00 0.  1.
<scales pt_clust_5="13000.00000" pt_clust_6="13000.00000" pt_clust_7="13000.00000" pt_clust_8="13000.00000" pt_clust_9="49.05915"></scales>
<clustering>
<clus scale="   54.717">  5  6 -1 -1</clus>
<clus scale="   63.482">  2  5  1 -1</clus>
<clus scale="   49.059">  2  9  1 -1</clus>
<clus scale="   95.011">  7  8 -1 -1</clus>
<clus scale="   63.482">  2  5  1 -1</clus>
</clustering>
</event>
<event>
 9    1  0.2333971E-005  0.1130966E+03  0.7546771E-02  0.1258577E+00
         -2   -1    0    0    0  501 -0.00000000000E+00  0.00000000000E+00  0.83481697554E+02  0.83481697554E+02  0.00000000000E+00 0.  1.
          1   -1    0    0  502    0  0.00000000000E+00 -0.00000000000E+00 -0.21211243253E+03  0.21211243253E+03  0.00000000000E+00 0. -1.
        -24    2    1    2    0    0  0.71410630271E+02 -0.21947296380E+02 -0.75503628908E+02  0.13270384432E+03  0.79550929504E+02 0.  0.
         23    2    1    2    0    0 -0.53092924391E+02  0.36728518314E+02 -0.72712042794E+02  0.13227015158E+03  0.89668886213E+02 0.  0.
         13    1    3    3    0    0  0.48352564206E+02 -0.12350697931E+02 -0.90661062603E+02  0.10348883262E+03  0.00000000000E+00 0. -1.
        -14    1    3    3    0    0  0.23058066065E+02 -0.95965984488E+01  0.15157433695E+02  0.29215011700E+02  0.00000000000E+00 0.  1.
        -11    1    4    4    0    0 -0.23768568744E+02 -0.88988179858E+00  0.17969061455E+02  0.29809795694E+02  0.00000000000E+00 0.  1.
         11    1    4    4    0    0 -0.29324355647E+02  0.37618400112E+02 -0.90681104249E+02  0.10246035589E+03  0.00000000000E+00 0. -1.
         21    1    1    2  502  501 -0.18317705880E+02 -0.14781221934E+02  0.19584936728E+02  0.30620134180E+02  0.00000000000E+00 0.  1.
<scales pt_clust_5="13000.00000" pt_clust_6="13000.00000" pt_clust_7="13000.00000" pt_clust_8="13000.00000" pt_clust_9="23.53769"></scales>
<clustering>
<clus scale="   23.538">  1  9  2 -1</clus>
<clus scale="   79.551">  5  6 -1 -1</clus>
<clus scale="   89.669">  7  8 -1 -1</clus>
<clus scale="  105.255">  1  5  2 -1</clus>
<clus scale="  113.097">  2  5  1 -1</clus>
</clustering>
</event>
<event>
 9    1  0.2333971E-005  0.3624540E+03  0.7546771E-02  0.1057865E+00
          1   -1    0    0  502    0  0.00000000000E+00  0.00000000000E+00  0.63989647378E+03  0.63989647378E+03  0.00000000000E+00 0. -1.
         -2   -1    0    0    0  501 -0.00000000000E+00 -0.00000000000E+00 -0.66683900062E+03  0.66683900062E+03  0.00000000000E+00 0.  1.
        -24    2    1    2    0    0  0.11961913705E+03  0.30611689734E+03 -0.44663385741E+03  0.56031517997E+03  0.80343049119E+02 0.  0.
         23    2    1    2    0    0 -0.20562786435E+03 -0.28879684121E+03  0.50523886651E+03  0.62388105001E+03  0.90966027918E+02 0.  0.
         11    1    3    3    0    0 -0.12892464027E+01  0.25642790180E+02 -0.10205106860E+02  0.27628953120E+02  0.00000000000E+00 0. -1.
        -12    1    3    3    0    0  0.12090838345E+03  0.28047410716E+03 -0.43642875055E+03  0.53268622685E+03  0.00000000000E+00 0.  1.
        -13    1    4    4    0    0 -0.38613771620E+02 -0.68713321647E+02  0.56749738902E+02  0.97124027902E+02  0.00000000000E+00 0.  1.
         13    1    4    4    0    0 -0.16701409273E+03 -0.22008351956E+03  0.44848912761E+03  0.52675702211E+03  0.00000000000E+00 0. -1.
         21    1    1    2  502  501  0.86008727302E+02 -0.17320056134E+02 -0.85547535943E+02  0.12253924442E+03  0.00000000000E+00 0. -1.
<scales pt_clust_5="13000.00000" pt_clust_6="13000.00000" pt_clust_7="13000.00000" pt_clust_8="13000.00000" pt_clust_9="87.73532"></scales>
<clustering>
<clus scale="   80.343">  5  6 -1 -1</clus>
<clus scale="   87.735">  2  9  1 -1</clus>
<clus scale="   90.966">  7  8 -1 -1</clus>
<clus scale="  359.935">  2  5  1 -1</clus>
<clus scale="  362.454">  1  5  2 -1</clus>
</clustering>
</event>
<event>
 9    1  0.2333971E-005  0.1255235E+03  0.7546771E-02  0.1236071E+00
          1   -1    0    0  502    0  0.00000000000E+00  0.00000000000E+00  0.58713930597E+03  0.58713930597E+03  0.00000000000E+00 0. -1.
         -2   -1    0    0    0  501 -0.00000000000E+00 -0.00000000000E+00 -0.90090936091E+02  0.90090936091E+02  0.00000000000E+00 0.  1.
        -24    2    1    2    0    0  0.76290936696E+02  0.88114299850E+02 -0.27973629603E+01  0.14140850676E+03  0.80025643911E+02 0.  0.
         23    2    1    2    0    0 -0.51979050530E+02 -0.70949647532E+02  0.48863835451E+03  0.50402081665E+03  0.86797856756E+02 0.  0.
         11    1    3    3    0    0  0.66088565062E+02  0.33059634938E+02 -0.29259860648E+02  0.79478156366E+02  0.00000000000E+00 0. -1.
        -12    1    3    3    0    0  0.10202371633E+02  0.55054664912E+02  0.26462497687E+02  0.61930350389E+02  0.00000000000E+00 0.  1.
        -13    1    4    4    0    0  0.94128344823E+01 -0.18965356272E+02  0.22129289938E+02  0.30626649583E+02  0.00000000000E+00 0.  1.
         13    1    4    4    0    0 -0.61391885012E+02 -0.51984291260E+02  0.46650906458E+03  0.47339416707E+03  0.00000000000E+00 0. -1.
         21    1    1    2  502  501 -0.24311886165E+02 -0.17164652318E+02  0.11207378320E+02  0.31800918649E+02  0.00000000000E+00 0.  1.
<scales pt_clust_5="13000.00000" pt_clust_6="13000.00000" pt_clust_7="13000.00000" pt_clust_8="13000.00000" pt_clust_9="29.76060"></scales>
<clustering>
<clus scale="   29.761">  2  9  1 -1</clus>
<clus scale="   80.026">  5  6 -1 -1</clus>
<clus scale="   86.798">  7  8 -1 -1</clus>
<clus scale="  120.940">  2  5  1 -1</clus>
<clus scale="  125.524">  1  5  2 -1</clus>
</clustering>
</event>
<event>
 9    1  0.2333971E-005  0.9864123E+02  0.7546771E-02  0.1286099E+00
          1   -1    0    0  502    0  0.00000000000E+00  0.00000000000E+00  0.20756927642E+03  0.20756927642E+03  0.00000000000E+00 0. -1.
         -2   -1    0    0    0  501 -0.00000000000E+00 -0.00000000000E+00 -0.70112583154E+02  0.70112583154E+02  0.00000000000E+00 0.  1.
        -24    2    1    2    0    0  0.32537051779E+02  0.49762086046E+02  0.41463700272E+02  0.10905523478E+03  0.81479327719E+02 0.  0.
         23    2    1    2    0    0 -0.22257730543E+02 -0.30965909205E+02  0.10795009675E+03  0.14409230111E+03  0.87493278303E+02 0.  0.
         13    1    3    3    0    0 -0.25751295167E+02  0.63806903750E+01  0.20208793891E+02  0.33350228830E+02  0.00000000000E+00 0. -1.
        -14    1    3    3    0    0  0.58288346946E+02  0.43381395671E+02  0.21254906381E+02  0.75705005946E+02  0.00000000000E+00 0.  1.
        -13    1    4    4    0    0 -0.39105841778E+02 -0.31649744956E+01  0.10423350213E+03  0.11137282833E+03  0.00000000000E+00 0. -1.
         13    1    4    4    0    0  0.16848111235E+02 -0.27800934709E+02  0.37165946176E+01  0.32719472771E+02  0.00000000000E+00 0.  1.
         21    1    1    2  502  501 -0.10279321236E+02 -0.18796176841E+02 -0.11957103754E+02  0.24534323694E+02  0.00000000000E+00 0. -1.
<scales pt_clust_5="13000.00000" pt_clust_6="13000.00000" pt_clust_7="13000.00000" pt_clust_8="13000.00000" pt_clust_9="21.42337"></scales>
<clustering>
<clus scale="   21.423">  2  9  1 -1</clus>
<clus scale="   81.479">  5  6 -1 -1</clus>
<clus scale="   87.493">  7  8 -1 -1</clus>
<clus scale="   93.348">  2  5  1 -1</clus>
<clus scale="   98.641">  1  5  2 -1</clus>
</clustering>
</event>
<event>
 9    1  0.2333971E-005  0.1034277E+03  0.7546771E-02  0.1277564E+00
         -2   -1    0    0    0  501 -0.00000000000E+00  0.00000000000E+00  0.87351961672E+03  0.87351961672E+03  0.00000000000E+00 0.  1.
          1   -1    0    0  502    0  0.00000000000E+00 -0.00000000000E+00 -0.58404309380E+02  0.58404309380E+02  0.00000000000E+00 0. -1.
        -24    2    1    2    0    0  0.49879540092E+02 -0.16134890766E+02  0.76936354993E+03  0.77548876492E+03  0.81940523179E+02 0.  0.
         23    2    1    2    0    0 -0.48326507027E+02 -0.39164754113E+01 -0.32430455679E+01  0.10347328889E+03  0.91353238086E+02 0.  0.
         13    1    3    3    0    0 -0.21737730241E+02 -0.64611738559E-01  0.11635160343E+03  0.11836481196E+03  0.00000000000E+00 0. -1.
        -14    1    3    3    0    0  0.71617270333E+02 -0.16070279027E+02  0.65301194650E+03  0.65712395296E+03  0.00000000000E+00 0.  1.
        -11    1    4    4    0    0 -0.68608220877E+02  0.20528157606E+02 -0.82292804336E+00  0.71618226990E+02  0.00000000000E+00 0. -1.
         11    1    4    4    0    0  0.20281713850E+02 -0.24444633017E+02 -0.24201175245E+01  0.31855061903E+02  0.00000000000E+00 0.  1.
         21    1    1    2  502  501 -0.15530330656E+01  0.20051366177E+02  0.48994802986E+02  0.52961872294E+02  0.00000000000E+00 0. -1.
<scales pt_clust_5="13000.00000" pt_clust_6="13000.00000" pt_clust_7="13000.00000" pt_clust_8="13000.00000" pt_clust_9="20.11142"></scales>
<clustering>
<clus scale="   20.111">  1  9  2 -1</clus>
<clus scale="   81.941">  5  6 -1 -1</clus>
<clus scale="   91.353">  7  8 -1 -1</clus>
<clus scale="   95.216">  1  5  2 -1</clus>
<clus scale="  103.428">  2  5  1 -1</clus>
</clustering>
</event>
<event>
 9    1  0.2333971E-005  0.1352809E+03  0.7546771E-02  0.1222663E+00
         -2   -1    0    0    0  501 -0.00000000000E+00  0.00000000000E+00  0.19230135215E+03  0.19230135215E+03  0.00000000000E+00 0.  1.
          1   -1    0    0  502    0  0.00000000000E+00 -0.00000000000E+00 -0.11895037329E+03  0.11895037329E+03  0.00000000000E+00 0. -1.
         23    2    1    2    0    0  0.36409757679E+02  0.11014700313E+03  0.51295728545E+02  0.15639496202E+03  0.91488248578E+02 0.  0.
        -24    2    1    2    0    0 -0.44525830472E+02 -0.78047424046E+02  0.13963095445E+02  0.12077250628E+03  0.79480062021E+02 0.  0.
         13    1    4    4    0    0  0.11282672598E+02 -0.18977628878E+02 -0.22659937320E+02  0.31637349101E+02  0.00000000000E+00 0. -1.
        -14    1    4    4    0    0 -0.55808503070E+02 -0.59069795168E+02  0.36623032766E+02  0.89135157177E+02  0.00000000000E+00 0.  1.
        -11    1    3    3    0    0  0.20045144067E+02 -0.73713759859E+01 -0.91478137024E+01  0.23234187744E+02  0.00000000000E+00 0.  1.
         11    1    3    3    0    0  0.16364613612E+02  0.11751837911E+03  0.60443542248E+02  0.13316077428E+03  0.00000000000E+00 0. -1.
         21    1    1    2  502  501  0.81160727931E+01 -0.32099579080E+02  0.80921548692E+01  0.34084257145E+02  0.00000000000E+00 0.  1.
<scales pt_clust_5="13000.00000" pt_clust_6="13000.00000" pt_clust_7="13000.00000" pt_clust_8="13000.00000" pt_clust_9="33.10972"></scales>
<clustering>
<clus scale="   33.110">  1  9  2 -1</clus>
<clus scale="   79.480">  5  6 -1 -1</clus>
<clus scale="   91.488">  7  8 -1 -1</clus>
<clus scale="  127.467">  2  5  1 -1</clus>
<clus scale="  127.467">  2  5  1 -1</clus>
</clustering>
</event>
<event>
 9    1  0.2333971E-005  0.1658921E+03  0.7546771E-02  0.1183710E+00
          1   -1    0    0  502    0  0.00000000000E+00  0.00000000000E+00  0.31910434970E+03  0.31910434970E+03  0.00000000000E+00 0. -1.
         -2   -1    0    0    0  501 -0.00000000000E+00 -0.00000000000E+00 -0.13950070622E+03  0.13950070622E+03  0.00000000000E+00 0.  1.
        -24    2    1    2    0    0  0.15092880743E+03  0.32867796916E+02 -0.15316580408E+02  0.17500993736E+03  0.80833678332E+02 0.  0.
         23    2    1    2    0    0 -0.13223874430E+03 -0.20630171511E+02  0.20310907339E+03  0.25980152296E+03  0.91273469138E+02 0.  0.
         13    1    3    3    0    0  0.33027026895E+02  0.38183100574E+02  0.15900360808E+02  0.52929718956E+02  0.00000000000E+00 0. -1.
        -14    1    3    3    0    0  0.11790178054E+03 -0.53153036581E+01 -0.31216941216E+02  0.12208021841E+03  0.00000000000E+00 0.  1.
        -13    1    4    4    0    0 -0.11466521139E+03 -0.31694622545E+02  0.20692697724E+03  0.23868689472E+03  0.00000000000E+00 0. -1.
         13    1    4    4    0    0 -0.17573532917E+02  0.11064451034E+02 -0.38179038543E+01  0.21114628240E+02  0.00000000000E+00 0.  1.
         21    1    1    2  502  501 -0.18690063132E+02 -0.12237625405E+02 -0.81888494916E+01  0.23793595597E+02  0.00000000000E+00 0. -1.
<scales pt_clust_5="13000.00000" pt_clust_6="13000.00000" pt_clust_7="13000.00000" pt_clust_8="13000.00000" pt_clust_9="22.34005"></scales>
<clustering>
<clus scale="   22.340">  2  9  1 -1</clus>
<clus scale="   80.834">  5  6 -1 -1</clus>
<clus scale="   91.273">  7  8 -1 -1</clus>
<clus scale="  160.385">  2  5  1 -1</clus>
<clus scale="  165.892">  1  5  2 -1</clus>
</clustering>
</event>
<event>
 9    1  0.2333971E-005  0.1613124E+03  0.7546771E-02  0.1189108E+00
          1   -1    0    0  502    0  0.00000000000E+00  0.00000000000E+00  0.32781980814E+03  0.32781980814E+03  0.00000000000E+00 0. -1.
         -2   -1    0    0    0  501 -0.00000000000E+00 -0.00000000000E+00 -0.18835569613E+03  0.18835569613E+03  0.00000000000E+00 0.  1.
         23    2    1    2    0    0  0.45773971766E+02 -0.95373409199E+02 -0.10582716386E+03  0.17456305356E+03  0.89897315770E+02 0.  0.
        -24    2    1    2    0    0 -0.45790733669E+02  0.13074011074E+03  0.25894055862E+03  0.30370325950E+03  0.77431835111E+02 0.  0.
         13    1    4    4    0    0 -0.43329115605E+02  0.74175971272E+02  0.21657500546E+03  0.23298974218E+03  0.00000000000E+00 0. -1.
        -14    1    4    4    0    0 -0.24616180639E+01  0.56564139464E+02  0.42365553158E+02  0.70713517316E+02  0.00000000000E+00 0.  1.
        -13    1    3    3    0    0  0.56418941091E+02 -0.77351527993E+02 -0.37030633468E+02  0.10265292793E+03  0.00000000000E+00 0. -1.
         13    1    3    3    0    0 -0.10644969325E+02 -0.18021881206E+02 -0.68796530394E+02  0.71910125632E+02  0.00000000000E+00 0.  1.
         21    1    1    2  502  501  0.16761902661E-01 -0.35366701537E+02 -0.13649282747E+02  0.37909191208E+02  0.00000000000E+00 0. -1.
<scales pt_clust_5="13000.00000" pt_clust_6="13000.00000" pt_clust_7="13000.00000" pt_clust_8="13000.00000" pt_clust_9="35.36671"></scales>
<clustering>
<clus scale="   35.367">  2  9  1 -1</clus>
<clus scale="   77.432">  5  6 -1 -1</clus>
<clus scale="   89.897">  7  8 -1 -1</clus>
<clus scale="  154.712">  1  5  2 -1</clus>
<clus scale="  154.712">  1  5  2 -1</clus>
</clustering>
</event>
<event>
 9    1  0.2333971E-005  0.1494454E+03  0.7546771E-02  0.1209294E+00
          3   -1    0    0  502    0  0.00000000000E+00  0.00000000000E+00  0.26325116735E+03  0.26325116735E+03  0.00000000000E+00 0. -1.
         -4   -1    0    0    0  501 -0.00000000000E+00 -0.00000000000E+00 -0.10395178648E+03  0.10395178648E+03  0.00000000000E+00 0.  1.
        -24    2    1    2    0    0  0.29428166030E+02 -0.88767826857E+02  0.42652365751E+02  0.13006064118E+03  0.79691919536E+02 0.  0.
         23    2    1    2    0    0  0.12455431742E+02  0.10351013268E+03  0.11541376865E+03  0.19272280972E+03  0.11380798762E+03 0.  0.
         11    1    3    3    0    0  0.33593912092E+02 -0.12303696748E+01  0.21512213603E+02  0.39910400565E+02  0.00000000000E+00 0. -1.
        -12    1    3    3    0    0 -0.41657460622E+01 -0.87537457182E+02  0.21140152147E+02  0.90150240615E+02  0.00000000000E+00 0.  1.
        -11    1    4    4    0    0 -0.43877049331E+02  0.28598994754E+02  0.13142262311E+02  0.53998305692E+02  0.00000000000E+00 0.  1.
         11    1    4    4    0    0  0.56332481072E+02  0.74911137929E+02  0.10227150634E+03  0.13872450403E+03  0.00000000000E+00 0. -1.
         21    1    1    2  502  501 -0.41883597771E+02 -0.14742305826E+02  0.12332464738E+01  0.44419502926E+02  0.00000000000E+00 0.  1.
<scales pt_clust_5="13000.00000" pt_clust_6="13000.00000" pt_clust_7="13000.00000" pt_clust_8="13000.00000" pt_clust_9="44.40238"></scales>
<clustering>
<clus scale="   44.402">  2  9  1 -1</clus>
<clus scale="   79.692">  5  6 -1 -1</clus>
<clus scale="  113.808">  7  8 -1 -1</clus>
<clus scale="  125.429">  2  5  1 -1</clus>
<clus scale="  149.445">  1  5  2 -1</clus>
</clustering>
</event>
<event>
 9    1  0.2333971E-005  0.1466110E+03  0.7546771E-02  0.1211755E+00
          1   -1    0    0  502    0  0.00000000000E+00  0.00000000000E+00  0.33697327720E+03  0.33697327720E+03  0.00000000000E+00 0. -1.
         -2   -1    0    0    0  501 -0.00000000000E+00 -0.00000000000E+00 -0.18265916724E+03  0.18265916724E+03  0.00000000000E+00 0.  1.
        -24    2    1    2    0    0 -0.74490982170E+02 -0.32061479044E+02  0.53104492684E+02  0.12619094890E+03  0.80791234530E+02 0.  0.
         23    2    1    2    0    0  0.11348038210E+03 -0.36165171337E+02  0.20615680116E+03  0.26233481938E+03  0.11015086952E+03 0.  0.
         13    1    3    3    0    0  0.79145322127E+01 -0.23317291687E+02  0.32544633601E+02  0.40810404164E+02  0.00000000000E+00 0. -1.
        -14    1    3    3    0    0 -0.82405514383E+02 -0.87441873571E+01  0.20559859083E+02  0.85380544732E+02  0.00000000000E+00 0.  1.
        -11    1    4    4    0    0  0.11022628033E+03  0.76383700195E+01  0.10665426568E+03  0.15356858390E+03  0.00000000000E+00 0.  1.
         11    1    4    4    0    0  0.32541017613E+01 -0.43803541356E+02  0.99502535481E+02  0.10876623548E+03  0.00000000000E+00 0. -1.
         21    1    1    2  502  501 -0.38989399925E+02  0.68226650381E+02 -0.10494718388E+03  0.13110667616E+03  0.00000000000E+00 0.  1.
<scales pt_clust_5="13000.00000" pt_clust_6="13000.00000" pt_clust_7="13000.00000" pt_clust_8="13000.00000" pt_clust_9="78.58148"></scales>
<clustering>
<clus scale="   78.581">  2  9  1 -1</clus>
<clus scale="   80.791">  5  6 -1 -1</clus>
<clus scale="  110.151">  7  8 -1 -1</clus>
<clus scale="  126.051">  2  5  1 -1</clus>
<clus scale="  146.611">  1  5  2 -1</clus>
</clustering>
</event>
<event>
 9    1  0.2333971E-005  0.1214816E+03  0.7546771E-02  0.1251178E+00
          1   -1    0    0  502    0  0.00000000000E+00  0.00000000000E+00  0.68629278418E+03  0.68629278418E+03  0.00000000000E+00 0. -1.
         -2   -1    0    0    0  501 -0.00000000000E+00 -0.00000000000E+00 -0.30896944498E+02  0.30896944498E+02  0.00000000000E+00 0.  1.
        -24    2    1    2    0    0  0.46885952037E+02  0.26070792826E+02  0.12593586933E+03  0.15898284462E+03  0.80856186915E+02 0.  0.
         23    2    1    2    0    0 -0.36227037376E+02 -0.45618251918E+02  0.51960206541E+03  0.53385747116E+03  0.10781498039E+03 0.  0.
         11    1    3    3    0    0 -0.47671792966E+01 -0.23146480980E+02  0.18489976158E+02  0.30006079359E+02  0.00000000000E+00 0. -1.
        -12    1    3    3    0    0  0.51653131333E+02  0.49217273806E+02  0.10744589317E+03  0.12897676526E+03  0.00000000000E+00 0.  1.
        -11    1    4    4    0    0  0.12498969901E+02  0.26160680640E+02  0.66819897884E+02  0.72838892176E+02  0.00000000000E+00 0.  1.
         11    1    4    4    0    0 -0.48726007276E+02 -0.71778932559E+02  0.45278216752E+03  0.46101857899E+03  0.00000000000E+00 0. -1.
         21    1    1    2  502  501 -0.10658914661E+02  0.19547459092E+02  0.98579049531E+01  0.24349412904E+02  0.00000000000E+00 0.  1.
<scales pt_clust_5="13000.00000" pt_clust_6="13000.00000" pt_clust_7="13000.00000" pt_clust_8="13000.00000" pt_clust_9="22.26467"></scales>
<clustering>
<clus scale="   22.265">  2  9  1 -1</clus>
<clus scale="   80.856">  5  6 -1 -1</clus>
<clus scale="   98.343">  2  5  1 -1</clus>
<clus scale="  107.815">  7  8 -1 -1</clus>
<clus scale="  121.482">  1  5  2 -1</clus>
</clustering>
</event>
<event>
 9    1  0.2333971E-005  0.1552616E+03  0.7546771E-02  0.1195567E+00
         -2   -1    0    0    0  501 -0.00000000000E+00  0.00000000000E+00  0.48653038608E+02  0.48653038608E+02  0.00000000000E+00 0.  1.
          1   -1    0    0  502    0  0.00000000000E+00 -0.00000000000E+00 -0.70256774700E+03  0.70256774700E+03  0.00000000000E+00 0. -1.
         23    2    1    2    0    0  0.12455642318E+03 -0.50338403143E+02 -0.15962051751E+03  0.22742517292E+03  0.90527577446E+02 0.  0.
        -24    2    1    2    0    0 -0.10685016310E+03  0.62247990245E+02 -0.46041357400E+03  0.48375505686E+03  0.82137240449E+02 0.  0.
         13    1    4    4    0    0 -0.55134423487E+02  0.20314956082E+02 -0.34940311308E+03  0.35430923997E+03  0.00000000000E+00 0. -1.
        -14    1    4    4    0    0 -0.51715739609E+02  0.41933034163E+02 -0.11101046092E+03  0.12944581689E+03  0.00000000000E+00 0.  1.
        -11    1    3    3    0    0  0.11626406202E+03 -0.21032869950E+02 -0.81379501706E+02  0.14346545589E+03  0.00000000000E+00 0.  1.
         11    1    3    3    0    0  0.82923611665E+01 -0.29305533193E+02 -0.78241015803E+02  0.83959717028E+02  0.00000000000E+00 0. -1.
         21    1    1    2  502  501 -0.17706260088E+02 -0.11909587102E+02 -0.33880616880E+02  0.40040555833E+02  0.00000000000E+00 0. -1.
<scales pt_clust_5="13000.00000" pt_clust_6="13000.00000" pt_clust_7="13000.00000" pt_clust_8="13000.00000" pt_clust_9="21.33893"></scales>
<clustering>
<clus scale="   21.339">  1  9  2 -1</clus>
<clus scale="   82.137">  5  6 -1 -1</clus>
<clus scale="   90.528">  7  8 -1 -1</clus>
<clus scale="  150.524">  2  5  1 -1</clus>
<clus scale="  150.524">  2  5  1 -1</clus>
</clustering>
</event>
<event>
 9    1  0.2333971E-005  0.9368123E+02  0.7546771E-02  0.1302191E+00
         -2   -1    0    0    0  501 -0.00000000000E+00  0.00000000000E+00  0.26238128204E+02  0.26238128204E+02  0.00000000000E+00 0.  1.
          1   -1    0    0  502    0  0.00000000000E+00 -0.00000000000E+00 -0.69127328225E+03  0.69127328225E+03  0.00000000000E+00 0. -1.
         23    2    1    2    0    0  0.71332790520E+00  0.18354243916E+02 -0.92030975979E+02  0.13122669718E+03  0.91724361030E+02 0.  0.
        -24    2    1    2    0    0  0.18816324378E+02 -0.87111766777E+01 -0.54393471987E+03  0.54996076162E+03  0.78497905560E+02 0.  0.
         11    1    4    4    0    0  0.45637779919E+02 -0.29750270855E+01 -0.21107701385E+03  0.21597491410E+03  0.00000000000E+00 0. -1.
        -12    1    4    4    0    0 -0.26821455541E+02 -0.57361495922E+01 -0.33285770602E+03  0.33398584752E+03  0.00000000000E+00 0.  1.
        -11    1    3    3    0    0  0.41458521791E+02  0.11143057064E+02 -0.75128914968E+02  0.86529362728E+02  0.00000000000E+00 0. -1.
         11    1    3    3    0    0 -0.40745193886E+02  0.72111868515E+01 -0.16902061011E+02  0.44697334451E+02  0.00000000000E+00 0.  1.
         21    1    1    2  502  501 -0.19529652283E+02 -0.96430672379E+01 -0.29069458195E+02  0.36323951655E+02  0.00000000000E+00 0.  1.
<scales pt_clust_5="13000.00000" pt_clust_6="13000.00000" pt_clust_7="13000.00000" pt_clust_8="13000.00000" pt_clust_9="21.78064"></scales>
<clustering>
<clus scale="   21.781">  1  9  2 -1</clus>
<clus scale="   78.498">  5  6 -1 -1</clus>
<clus scale="   80.776">  2  5  1 -1</clus>
<clus scale="   91.724">  7  8 -1 -1</clus>
<clus scale="   80.776">  2  5  1 -1</clus>
</clustering>
</event>
<event>
 9    1  0.2333971E-005  0.1303280E+03  0.7546771E-02  0.1228167E+00
          1   -1    0    0  502    0  0.00000000000E+00  0.00000000000E+00  0.10547916658E+04  0.10547916658E+04  0.00000000000E+00 0. -1.
         -2   -1    0    0    0  501 -0.00000000000E+00 -0.00000000000E+00 -0.40210786866E+02  0.40210786866E+02  0.00000000000E+00 0.  1.
         23    2    1    2    0    0 -0.50312326252E+02  0.47112892212E+02  0.17337316222E+03  0.20702062412E+03  0.89712488803E+02 0.  0.
        -24    2    1    2    0    0  0.46953460972E+02 -0.92616997921E+02  0.83029149214E+03  0.84106627065E+03  0.85005728679E+02 0.  0.
         11    1    4    4    0    0  0.38912193698E+02  0.20928756100E+01  0.22227872539E+03  0.22566871894E+03  0.00000000000E+00 0. -1.
        -12    1    4    4    0    0  0.80412672742E+01 -0.94709873531E+02  0.60801276675E+03  0.61539755171E+03  0.00000000000E+00 0.  1.
        -13    1    3    3    0    0 -0.32011940168E+02  0.13885264307E+02  0.60039010482E+01  0.35406379453E+02  0.00000000000E+00 0.  1.
         13    1    3    3    0    0 -0.18300386084E+02  0.33227627905E+02  0.16736926117E+03  0.17161424467E+03  0.00000000000E+00 0. -1.
         21    1    1    2  502  501  0.33588652794E+01  0.45504105709E+02  0.10916224558E+02  0.46915557877E+02  0.00000000000E+00 0.  1.
<scales pt_clust_5="13000.00000" pt_clust_6="13000.00000" pt_clust_7="13000.00000" pt_clust_8="13000.00000" pt_clust_9="45.62790"></scales>
<clustering>
<clus scale="   45.628">  2  9  1 -1</clus>
<clus scale="   85.006">  5  6 -1 -1</clus>
<clus scale="   89.712">  7  8 -1 -1</clus>
<clus scale="  127.134">  1  5  2 -1</clus>
<clus scale="  127.134">  1  5  2 -1</clus>
</clustering>
</event>
<event>
 9    1  0.2333971E-005  0.9337780E+02  0.7546771E-02  0.1297210E+00
          1   -1    0    0  502    0  0.00000000000E+00  0.00000000000E+00  0.65923188108E+03  0.65923188108E+03  0.00000000000E+00 0. -1.
         -2   -1    0    0    0  501 -0.00000000000E+00 -0.00000000000E+00 -0.72710255657E+02  0.72710255657E+02  0.00000000000E+00 0.  1.
        -24    2    1    2    0    0 -0.39364210132E+02  0.74328946670E+01  0.16956933802E+03  0.19458371968E+03  0.86627216313E+02 0.  0.
         23    2    1    2    0    0  0.15393461495E+02 -0.33540508838E+01  0.47003715646E+03  0.47896974454E+03  0.90713171148E+02 0.  0.
         13    1    3    3    0    0 -0.78675044897E+01 -0.38624966244E+02  0.76857090137E+02  0.86375910695E+02  0.00000000000E+00 0. -1.
        -14    1    3    3    0    0 -0.31496705642E+02  0.46057860911E+02  0.92712247880E+02  0.10820780898E+03  0.00000000000E+00 0.  1.
        -13    1    4    4    0    0  0.50246314317E+02 -0.19155438578E+02  0.26858705911E+03  0.27391719780E+03  0.00000000000E+00 0. -1.
         13    1    4    4    0    0 -0.34852852822E+02  0.15801387694E+02  0.20145009735E+03  0.20505254674E+03  0.00000000000E+00 0.  1.
         21    1    1    2  502  501  0.23970748636E+02 -0.40788437832E+01 -0.53084869049E+02  0.58388672521E+02  0.00000000000E+00 0.  1.
<scales pt_clust_5="13000.00000" pt_clust_6="13000.00000" pt_clust_7="13000.00000" pt_clust_8="13000.00000" pt_clust_9="24.31530"></scales>
<clustering>
<clus scale="   24.315">  2  9  1 -1</clus>
<clus scale="   86.627">  5  6 -1 -1</clus>
<clus scale="   89.414">  2  5  1 -1</clus>
<clus scale="   90.713">  7  8 -1 -1</clus>
<clus scale="   93.378">  1  5  2 -1</clus>
</clustering>
</event>
<event>
 9    1  0.2333971E-005  0.9611700E+02  0.7546771E-02  0.1296087E+00
         -2   -1    0    0    0  501 -0.00000000000E+00  0.00000000000E+00  0.77951356473E+02  0.77951356473E+02  0.00000000000E+00 0.  1.
          1   -1    0    0  502    0  0.00000000000E+00 -0.00000000000E+00 -0.50605693863E+03  0.50605693863E+03  0.00000000000E+00 0. -1.
        -24    2    1    2    0    0  0.20108556107E+02 -0.39521463476E+02  0.20617794200E+02  0.93276609735E+02  0.79430047098E+02 0.  0.
         23    2    1    2    0    0 -0.49613291473E+01  0.24491144206E+02 -0.45768323720E+03  0.46758804503E+03  0.92413220402E+02 0.  0.
         13    1    3    3    0    0  0.13163792853E+02  0.22570543704E+02  0.15974476816E+02  0.30625133386E+02  0.00000000000E+00 0. -1.
        -14    1    3    3    0    0  0.69447632539E+01 -0.62092007181E+02  0.46433173837E+01  0.62651476349E+02  0.00000000000E+00 0.  1.
        -13    1    4    4    0    0  0.41356353822E+02 -0.26566458306E+01 -0.22574116338E+03  0.22951356956E+03  0.00000000000E+00 0.  1.
         13    1    4    4    0    0 -0.46317682970E+02  0.27147790036E+02 -0.23194207382E+03  0.23807447547E+03  0.00000000000E+00 0. -1.
         21    1    1    2  502  501 -0.15147226959E+02  0.15030319271E+02  0.89598608436E+01  0.23143640342E+02  0.00000000000E+00 0.  1.
<scales pt_clust_5="13000.00000" pt_clust_6="13000.00000" pt_clust_7="13000.00000" pt_clust_8="13000.00000" pt_clust_9="21.33891"></scales>
<clustering>
<clus scale="   21.339">  1  9  2 -1</clus>
<clus scale="   79.430">  5  6 -1 -1</clus>
<clus scale="   83.710">  1  5  2 -1</clus>
<clus scale="   92.413">  7  8 -1 -1</clus>
<clus scale="   96.117">  2  5  1 -1</clus>
</clustering>
</event>
<event>
 9    1  0.2333971E-005  0.1036566E+03  0.7546771E-02  0.1275507E+00
          1   -1    0    0  502    0  0.00000000000E+00  0.00000000000E+00  0.14381567350E+03  0.14381567350E+03  0.00000000000E+00 0. -1.
         -2   -1    0    0    0  501 -0.00000000000E+00 -0.00000000000E+00 -0.21426532910E+03  0.21426532910E+03  0.00000000000E+00 0.  1.
        -24    2    1    2    0    0  0.24878310221E+02 -0.65119221573E+02 -0.15839783699E+03  0.19170139437E+03  0.82462758268E+02 0.  0.
         23    2    1    2    0    0 -0.85779412316E+01  0.51082917354E+02  0.98601241975E+02  0.14237528435E+03  0.88687491532E+02 0.  0.
         13    1    3    3    0    0  0.77841447692E+01 -0.33010466272E+02 -0.52828162171E+01  0.34324800662E+02  0.00000000000E+00 0. -1.
        -14    1    3    3    0    0  0.17094165452E+02 -0.32108755300E+02 -0.15311502078E+03  0.15737659371E+03  0.00000000000E+00 0.  1.
        -11    1    4    4    0    0 -0.32370274608E+02  0.44436988008E+02  0.10349616640E+03  0.11719188130E+03  0.00000000000E+00 0. -1.
         11    1    4    4    0    0  0.23792333376E+02  0.66459293460E+01 -0.48949244290E+01  0.25183403057E+02  0.00000000000E+00 0.  1.
         21    1    1    2  502  501 -0.16300368990E+02  0.14036304219E+02 -0.10653060584E+02  0.24004323884E+02  0.00000000000E+00 0.  1.
<scales pt_clust_5="13000.00000" pt_clust_6="13000.00000" pt_clust_7="13000.00000" pt_clust_8="13000.00000" pt_clust_9="21.51092"></scales>
<clustering>
<clus scale="   21.511">  2  9  1 -1</clus>
<clus scale="   82.463">  5  6 -1 -1</clus>
<clus scale="   88.687">  7  8 -1 -1</clus>
<clus scale="   98.384">  2  5  1 -1</clus>
<clus scale="  103.657">  1  5  2 -1</clus>
</clustering>
</event>
<event>
 9    1  0.2393049E-005  0.2607404E+03  0.7546771E-02  0.1107509E+00
          1   -1    0    0  502    0  0.00000000000E+00  0.00000000000E+00  0.78631459657E+03  0.78631459657E+03  0.00000000000E+00 0. -1.
         -2   -1    0    0    0  501 -0.00000000000E+00 -0.00000000000E+00 -0.25991287209E+03  0.25991287209E+03  0.00000000000E+00 0.  1.
        -24    2    1    2    0    0  0.22939964735E+03 -0.21734555545E+02 -0.15091963773E+03  0.28685013714E+03  0.80060446021E+02 0.  0.
         23    2    1    2    0    0 -0.24393289313E+03  0.18672877693E+01  0.68514030293E+03  0.73354983850E+03  0.95767362608E+02 0.  0.
         13    1    3    3    0    0  0.67710498102E+02 -0.41938166716E+02 -0.35690762345E+02  0.87277442089E+02  0.00000000000E+00 0. -1.
        -14    1    3    3    0    0  0.16168914925E+03  0.20203611170E+02 -0.11522887538E+03  0.19957269505E+03  0.00000000000E+00 0.  1.
        -11    1    4    4    0    0 -0.21362410357E+03  0.35176969608E+02  0.58387311543E+03  0.62272023553E+03  0.00000000000E+00 0. -1.
         11    1    4    4    0    0 -0.30308789554E+02 -0.33309681839E+02  0.10126718750E+03  0.11082960296E+03  0.00000000000E+00 0.  1.
         21    1    1    2  502  501  0.14533245778E+02  0.19867267776E+02 -0.78189407252E+01  0.25827493022E+02  0.00000000000E+00 0. -1.
<scales pt_clust_5="13000.00000" pt_clust_6="13000.00000" pt_clust_7="13000.00000" pt_clust_8="13000.00000" pt_clust_9="24.61551"></scales>
<clustering>
<clus scale="   24.616">  2  9  1 -1</clus>
<clus scale="   80.060">  5  6 -1 -1</clus>
<clus scale="   95.767">  7  8 -1 -1</clus>
<clus scale="  255.390">  2  5  1 -1</clus>
<clus scale="  260.740">  1  5  2 -1</clus>
</clustering>
</event>
<event>
 9    1  0.2333971E-005  0.1408727E+03  0.7546771E-02  0.1227237E+00
         -4   -1    0    0    0  501 -0.00000000000E+00  0.00000000000E+00  0.19491967705E+03  0.19491967705E+03  0.00000000000E+00 0.  1.
          3   -1    0    0  502    0  0.00000000000E+00 -0.00000000000E+00 -0.36123891190E+03  0.36123891190E+03  0.00000000000E+00 0. -1.
         23    2    1    2    0    0  0.22114505121E+02 -0.12100371446E+03  0.10395542459E+03  0.20489775492E+03  0.12667047571E+03 0.  0.
        -24    2    1    2    0    0 -0.25764738365E+02  0.52194313887E+02 -0.26346564333E+03  0.28201907994E+03  0.82052105933E+02 0.  0.
         13    1    4    4    0    0 -0.50666461296E+02  0.45881281372E+02 -0.22931074046E+03  0.23928142003E+03  0.00000000000E+00 0. -1.
        -14    1    4    4    0    0  0.24901722930E+02  0.63130325154E+01 -0.34154902874E+02  0.42737659912E+02  0.00000000000E+00 0.  1.
        -13    1    3    3    0    0  0.52132423470E+02 -0.43491706167E+02 -0.47461269186E+01  0.68057650583E+02  0.00000000000E+00 0. -1.
         13    1    3    3    0    0 -0.30017918349E+02 -0.77512008297E+02  0.10870155151E+03  0.13684010433E+03  0.00000000000E+00 0.  1.
         21    1    1    2  502  501  0.36502332447E+01  0.68809400577E+02 -0.68090161114E+01  0.69241754100E+02  0.00000000000E+00 0.  1.
<scales pt_clust_5="13000.00000" pt_clust_6="13000.00000" pt_clust_7="13000.00000" pt_clust_8="13000.00000" pt_clust_9="68.90615"></scales>
<clustering>
<clus scale="   68.906">  1  9  2 -1</clus>
<clus scale="   82.052">  5  6 -1 -1</clus>
<clus scale="  102.627">  2  5  1 -1</clus>
<clus scale="  126.670">  7  8 -1 -1</clus>
<clus scale="  102.627">  2  5  1 -1</clus>
</clustering>
</event>
<event>
 9    1  0.2333971E-005  0.3073711E+03  0.7546771E-02  0.1081769E+00
         -2   -1    0    0    0  501 -0.00000000000E+00  0.00000000000E+00  0.38757788732E+03  0.38757788732E+03  0.00000000000E+00 0.  1.
          1   -1    0    0  502    0  0.00000000000E+00 -0.00000000000E+00 -0.96157074318E+03  0.96157074318E+03  0.00000000000E+00 0. -1.
        -24    2    1    2    0    0  0.26322663561E+03  0.31360301912E+03 -0.22557933086E+03  0.47434164942E+03  0.80491307369E+02 0.  0.
         23    2    1    2    0    0 -0.21089897082E+03 -0.16273180598E+03 -0.55036004865E+03  0.61735270189E+03  0.85253497316E+02 0.  0.
         11    1    3    3    0    0  0.10250331212E+03  0.17901438386E+03 -0.13096664266E+03  0.24434676202E+03  0.00000000000E+00 0. -1.
        -12    1    3    3    0    0  0.16072332350E+03  0.13458863527E+03 -0.94612688202E+02  0.22999488739E+03  0.00000000000E+00 0.  1.
        -11    1    4    4    0    0 -0.11352524879E+03 -0.61989861839E+02 -0.34766333230E+03  0.37094543765E+03  0.00000000000E+00 0.  1.
         11    1    4    4    0    0 -0.97373722031E+02 -0.10074194414E+03 -0.20269671635E+03  0.24640726424E+03  0.00000000000E+00 0. -1.
         21    1    1    2  502  501 -0.52327664791E+02 -0.15087121314E+03  0.20194652366E+03  0.25745427919E+03  0.00000000000E+00 0. -1.
<scales pt_clust_5="13000.00000" pt_clust_6="13000.00000" pt_clust_7="13000.00000" pt_clust_8="13000.00000" pt_clust_9="159.68816"></scales>
<clustering>
<clus scale="   80.491">  5  6 -1 -1</clus>
<clus scale="   85.253">  7  8 -1 -1</clus>
<clus scale="  159.688">  1  9  2 -1</clus>
<clus scale="  306.084">  1  5  2 -1</clus>
<clus scale="  307.371">  2  5  1 -1</clus>
</clustering>
</event>
<event>
 9    1  0.2333971E-005  0.1060420E+03  0.7546771E-02  0.1280619E+00
          1   -1    0    0  502    0  0.00000000000E+00  0.00000000000E+00  0.46739813032E+03  0.46739813032E+03  0.00000000000E+00 0. -1.
         -2   -1    0    0    0  501 -0.00000000000E+00 -0.00000000000E+00 -0.42583708597E+02  0.42583708597E+02  0.00000000000E+00 0.  1.
        -24    2    1    2    0    0  0.62902606151E+01  0.54788744565E+01  0.28557661750E+02  0.87379724791E+02  0.82158936313E+02 0.  0.
         23    2    1    2    0    0  0.16305286567E+02 -0.81522294584E+01  0.37986322302E+03  0.39455833347E+03  0.10510893918E+03 0.  0.
         11    1    3    3    0    0 -0.71339197221E+01  0.21760499449E+02  0.51406924289E+02  0.56276851473E+02  0.00000000000E+00 0. -1.
        -12    1    3    3    0    0  0.13424180337E+02 -0.16281624992E+02 -0.22849262539E+02  0.31102873319E+02  0.00000000000E+00 0.  1.
        -11    1    4    4    0    0  0.61254270170E+02 -0.75605790582E+01  0.22186186333E+03  0.23028663524E+03  0.00000000000E+00 0.  1.
         11    1    4    4    0    0 -0.44948983603E+02 -0.59165040022E+00  0.15800135969E+03  0.16427169824E+03  0.00000000000E+00 0. -1.
         21    1    1    2  502  501 -0.22595547182E+02  0.26733550020E+01  0.16393536959E+02  0.28043780656E+02  0.00000000000E+00 0. -1.
<scales pt_clust_5="13000.00000" pt_clust_6="13000.00000" pt_clust_7="13000.00000" pt_clust_8="13000.00000" pt_clust_9="22.75314"></scales>
<clustering>
<clus scale="   22.753">  2  9  1 -1</clus>
<clus scale="   82.159">  5  6 -1 -1</clus>
<clus scale="   83.349">  2  5  1 -1</clus>
<clus scale="  105.109">  7  8 -1 -1</clus>
<clus scale="  106.042">  1  5  2 -1</clus>
</clustering>
</event>
<event>
 9    1  0.2333971E-005  0.9443597E+02  0.7546771E-02  0.1293625E+00
         -2   -1    0    0    0  501 -0.00000000000E+00  0.00000000000E+00  0.44372904172E+03  0.44372904172E+03  0.00000000000E+00 0.  1.
          1   -1    0    0  502    0  0.00000000000E+00 -0.00000000000E+00 -0.85998685015E+02  0.85998685015E+02  0.00000000000E+00 0. -1.
        -24    2    1    2    0    0  0.75785764710E+01  0.66947061655E+01  0.18309043367E+03  0.20374514203E+03  0.88812848652E+02 0.  0.
         23    2    1    2    0    0  0.19744447092E+02 -0.21890439381E+02 -0.43917345105E+02  0.10520048086E+03  0.90936095388E+02 0.  0.
         11    1    3    3    0    0  0.42050119790E+02  0.26367032112E+02  0.97897067276E+02  0.10976005074E+03  0.00000000000E+00 0. -1.
        -12    1    3    3    0    0 -0.34471543319E+02 -0.19672325946E+02  0.85193366395E+02  0.93985091289E+02  0.00000000000E+00 0.  1.
        -11    1    4    4    0    0  0.32734358842E+02  0.21311089741E+02 -0.45618518817E+02  0.60056224106E+02  0.00000000000E+00 0.  1.
         11    1    4    4    0    0 -0.12989911750E+02 -0.43201529122E+02  0.17011737126E+01  0.45144256752E+02  0.00000000000E+00 0. -1.
         21    1    1    2  502  501 -0.27323023563E+02  0.15195733215E+02  0.21855726814E+03  0.22078210385E+03  0.00000000000E+00 0.  1.
<scales pt_clust_5="13000.00000" pt_clust_6="13000.00000" pt_clust_7="13000.00000" pt_clust_8="13000.00000" pt_clust_9="31.26432"></scales>
<clustering>
<clus scale="   31.264">  1  9  2 -1</clus>
<clus scale="   88.813">  5  6 -1 -1</clus>
<clus scale="   90.936">  7  8 -1 -1</clus>
<clus scale="   92.393">  1  5  2 -1</clus>
<clus scale="   94.436">  2  5  1 -1</clus>
</clustering>
</event>
<event>
 9    1  0.2333971E-005  0.2471193E+03  0.7546771E-02  0.1115806E+00
         -2   -1    0    0    0  501 -0.00000000000E+00  0.00000000000E+00  0.13836950828E+03  0.13836950828E+03  0.00000000000E+00 0.  1.
          1   -1    0    0  502    0  0.00000000000E+00 -0.00000000000E+00 -0.97017608472E+03  0.97017608472E+03  0.00000000000E+00 0. -1.
         23    2    1    2    0    0  0.15754051377E+03 -0.52600421117E+02  0.10961649271E+02  0.19009388949E+03  0.91813459183E+02 0.  0.
        -24    2    1    2    0    0 -0.23444697029E+03  0.61671354509E+02 -0.77353549985E+03  0.81457651294E+03  0.80056155626E+02 0.  0.
         13    1    4    4    0    0 -0.23844498473E+03  0.67053463740E+02 -0.76185301288E+03  0.80110685365E+03  0.00000000000E+00 0. -1.
        -14    1    4    4    0    0  0.39980144435E+01 -0.53821092314E+01 -0.11682486978E+02  0.13469659285E+02  0.00000000000E+00 0.  1.
        -13    1    3    3    0    0  0.87658220029E+02 -0.70681738442E+01 -0.35245742162E+02  0.94742730385E+02  0.00000000000E+00 0. -1.
         13    1    3    3    0    0  0.69882293741E+02 -0.45532247273E+02  0.46207391433E+02  0.95351159109E+02  0.00000000000E+00 0.  1.
         21    1    1    2  502  501  0.76906456515E+02 -0.90709333912E+01 -0.69232725856E+02  0.10387519057E+03  0.00000000000E+00 0.  1.
<scales pt_clust_5="13000.00000" pt_clust_6="13000.00000" pt_clust_7="13000.00000" pt_clust_8="13000.00000" pt_clust_9="77.43956"></scales>
<clustering>
<clus scale="   77.440">  1  9  2 -1</clus>
<clus scale="   80.056">  5  6 -1 -1</clus>
<clus scale="   91.813">  7  8 -1 -1</clus>
<clus scale="  242.996">  2  5  1 -1</clus>
<clus scale="  242.996">  2  5  1 -1</clus>
</clustering>
</event>
<event>
 9    1  0.2333971E-005  0.1414198E+03  0.7546771E-02  0.1211817E+00
         -2   -1    0    0    0  501 -0.00000000000E+00  0.00000000000E+00  0.26180796367E+03  0.26180796367E+03  0.00000000000E+00 0.  1.
          1   -1    0    0  502    0  0.00000000000E+00 -0.00000000000E+00 -0.16682193401E+03  0.16682193401E+03  0.00000000000E+00 0. -1.
         23    2    1    2    0    0 -0.74640089837E+02 -0.22270838379E+02  0.10943554923E+03  0.16252453994E+03  0.91492914459E+02 0.  0.
        -24    2    1    2    0    0  0.10749843447E+03  0.40140744132E+02 -0.96063397458E+02  0.17632880508E+03  0.93254910947E+02 0.  0.
         13    1    4    4    0    0  0.85319756851E+02  0.61668134445E+02 -0.99966813872E+02  0.14517501021E+03  0.00000000000E+00 0. -1.
        -14    1    4    4    0    0  0.22178677621E+02 -0.21527390313E+02  0.39034164136E+01  0.31153794864E+02  0.00000000000E+00 0.  1.
        -13    1    3    3    0    0 -0.36383169358E+02 -0.39892360497E+02  0.10510075224E+02  0.55005428094E+02  0.00000000000E+00 0. -1.
         13    1    3    3    0    0 -0.38256920479E+02  0.17621522118E+02  0.98925474003E+02  0.10751911185E+03  0.00000000000E+00 0.  1.
         21    1    1    2  502  501 -0.32858344635E+02 -0.17869905753E+02  0.81613877889E+02  0.89776552662E+02  0.00000000000E+00 0.  1.
<scales pt_clust_5="13000.00000" pt_clust_6="13000.00000" pt_clust_7="13000.00000" pt_clust_8="13000.00000" pt_clust_9="37.40327"></scales>
<clustering>
<clus scale="   37.403">  1  9  2 -1</clus>
<clus scale="   91.493">  7  8 -1 -1</clus>
<clus scale="   93.255">  5  6 -1 -1</clus>
<clus scale="  140.264">  1  7  2 -1</clus>
<clus scale="  141.420">  2  5  1 -1</clus>
</clustering>
</event>
<event>
 9    1  0.2333971E-005  0.2211576E+03  0.7546771E-02  0.1133301E+00
          1   -1    0    0  502    0  0.00000000000E+00  0.00000000000E+00  0.90006591498E+03  0.90006591498E+03  0.00000000000E+00 0. -1.
         -2   -1    0    0    0  501 -0.00000000000E+00 -0.00000000000E+00 -0.15071178530E+03  0.15071178530E+03  0.00000000000E+00 0.  1.
        -24    2    1    2    0    0  0.20225777988E+03 -0.53558038322E+02  0.20113774223E+02  0.22741221856E+03  0.86804839984E+02 0.  0.
         23    2    1    2    0    0 -0.17504610351E+03  0.99935342656E+02  0.73666037220E+03  0.76908485593E+03  0.90525137875E+02 0.  0.
         13    1    3    3    0    0  0.63727324185E+02  0.22928585928E+02  0.13315320824E+02  0.69023109674E+02  0.00000000000E+00 0. -1.
        -14    1    3    3    0    0  0.13853045569E+03 -0.76486624249E+02  0.67984533988E+01  0.15838910888E+03  0.00000000000E+00 0.  1.
        -13    1    4    4    0    0 -0.13222995734E+03  0.41129057341E+02  0.58087316995E+03  0.59715157251E+03  0.00000000000E+00 0. -1.
         13    1    4    4    0    0 -0.42816146166E+02  0.58806285315E+02  0.15578720225E+03  0.17193328343E+03  0.00000000000E+00 0.  1.
         21    1    1    2  502  501 -0.27211676373E+02 -0.46377304334E+02 -0.74200167478E+01  0.54280625797E+02  0.00000000000E+00 0.  1.
<scales pt_clust_5="13000.00000" pt_clust_6="13000.00000" pt_clust_7="13000.00000" pt_clust_8="13000.00000" pt_clust_9="53.77109"></scales>
<clustering>
<clus scale="   53.771">  2  9  1 -1</clus>
<clus scale="   86.805">  5  6 -1 -1</clus>
<clus scale="   90.525">  7  8 -1 -1</clus>
<clus scale="  219.661">  2  5  1 -1</clus>
<clus scale="  221.158">  1  5  2 -1</clus>
</clustering>
</event>
<event>
 9    1  0.2333971E-005  0.1016731E+03  0.7546771E-02  0.1280342E+00
         -2   -1    0    0    0  501 -0.00000000000E+00  0.00000000000E+00  0.87890140377E+03  0.87890140377E+03  0.00000000000E+00 0.  1.
          1   -1    0    0  502    0  0.00000000000E+00 -0.00000000000E+00 -0.17086598134E+02  0.17086598134E+02  0.00000000000E+00 0. -1.
        -24    2    1    2    0    0  0.23986776706E+02 -0.37022006535E+02  0.56353514254E+03  0.57150686543E+03  0.84274823818E+02 0.  0.
         23    2    1    2    0    0 -0.41668963531E+02  0.23038839614E+02  0.26362099303E+03  0.28313609930E+03  0.91667508482E+02 0.  0.
         11    1    3    3    0    0  0.40163279077E+02  0.11147476119E+02  0.18907524592E+03  0.19361509195E+03  0.00000000000E+00 0. -1.
        -12    1    3    3    0    0 -0.16176502371E+02 -0.48169482654E+02  0.37445989662E+03  0.37789177348E+03  0.00000000000E+00 0.  1.
        -13    1    4    4    0    0 -0.23895654611E+02 -0.25825560180E+02  0.18862273569E+03  0.19187625774E+03  0.00000000000E+00 0.  1.
         13    1    4    4    0    0 -0.17773308920E+02  0.48864399795E+02  0.74998257341E+02  0.91259841559E+02  0.00000000000E+00 0. -1.
         21    1    1    2  502  501  0.17682186825E+02  0.13983166921E+02  0.34658670074E+02  0.41345037179E+02  0.00000000000E+00 0.  1.
<scales pt_clust_5="13000.00000" pt_clust_6="13000.00000" pt_clust_7="13000.00000" pt_clust_8="13000.00000" pt_clust_9="22.54304"></scales>
<clustering>
<clus scale="   22.543">  2  9  1 -1</clus>
<clus scale="   84.275">  5  6 -1 -1</clus>
<clus scale="   91.668">  7  8 -1 -1</clus>
<clus scale="   95.062">  1  5  2 -1</clus>
<clus scale="   22.543">  2  5  1 -1</clus>
</clustering>
</event>
<event>
 9    1  0.2333971E-005  0.2710304E+03  0.7546771E-02  0.1118378E+00
          1   -1    0    0  502    0  0.00000000000E+00  0.00000000000E+00  0.13212572339E+04  0.13212572339E+04  0.00000000000E+00 0. -1.
         -2   -1    0    0    0  501 -0.00000000000E+00 -0.00000000000E+00 -0.13074552682E+03  0.13074552682E+03  0.00000000000E+00 0.  1.
         23    2    1    2    0    0 -0.11539508231E+03 -0.50057571208E+02  0.90195615175E+02  0.19479625351E+03  0.11827318346E+03 0.  0.
        -24    2    1    2    0    0 -0.10961654056E+03 -0.20228720285E+03  0.64947982874E+03  0.69368059690E+03  0.80204888729E+02 0.  0.
         11    1    4    4    0    0 -0.49268611677E+02 -0.10353348945E+03  0.21050591428E+03  0.23970673641E+03  0.00000000000E+00 0. -1.
        -12    1    4    4    0    0 -0.60347928887E+02 -0.98753713392E+02  0.43897391446E+03  0.45397386049E+03  0.00000000000E+00 0.  1.
        -13    1    3    3    0    0 -0.51538533040E+02 -0.20295612385E+02  0.10866134350E+03  0.12196483034E+03  0.00000000000E+00 0. -1.
         13    1    3    3    0    0 -0.63856549274E+02 -0.29761958823E+02 -0.18465728320E+02  0.72831423167E+02  0.00000000000E+00 0.  1.
         21    1    1    2  502  501  0.22501162288E+03  0.25234477405E+03  0.45083626320E+03  0.56352591035E+03  0.00000000000E+00 0. -1.
<scales pt_clust_5="13000.00000" pt_clust_6="13000.00000" pt_clust_7="13000.00000" pt_clust_8="13000.00000" pt_clust_9="258.89117"></scales>
<clustering>
<clus scale="   80.205">  5  6 -1 -1</clus>
<clus scale="  118.273">  7  8 -1 -1</clus>
<clus scale="  172.657">  2  7  1 -1</clus>
<clus scale="  258.891">  2  9  1 -1</clus>
<clus scale="  271.030">  1  5  2 -1</clus>
</clustering>
</event>
<event>
 9    1  0.2333971E-005  0.1668192E+03  0.7546771E-02  0.1181795E+00
         -2   -1    0    0    0  501 -0.00000000000E+00  0.00000000000E+00  0.29135783957E+03  0.29135783957E+03  0.00000000000E+00 0.  1.
          1   -1    0    0  502    0  0.00000000000E+00 -0.00000000000E+00 -0.16730899342E+03  0.16730899342E+03  0.00000000000E+00 0. -1.
        -24    2    1    2    0    0 -0.42497873246E+02  0.91393677985E+02  0.84213476584E+02  0.15746139331E+03  0.86852214365E+02 0.  0.
         23    2    1    2    0    0  0.26688430949E+02 -0.16477602094E+03 -0.37148314011E+02  0.19368151555E+03  0.90934717281E+02 0.  0.
         13    1    3    3    0    0  0.87344964370E+01  0.26183242328E+02 -0.12295973084E+02  0.30216627225E+02  0.00000000000E+00 0. -1.
        -14    1    3    3    0    0 -0.51232369683E+02  0.65210435657E+02  0.96509449667E+02  0.12724476609E+03  0.00000000000E+00 0.  1.
        -13    1    4    4    0    0 -0.95799117385E+01 -0.89011659429E+02  0.20451228889E+02  0.91831927924E+02  0.00000000000E+00 0.  1.
         13    1    4    4    0    0  0.36268342688E+02 -0.75764361514E+02 -0.57599542900E+02  0.10184958762E+03  0.00000000000E+00 0. -1.
         21    1    1    2  502  501  0.15809442296E+02  0.73382342957E+02  0.76983683578E+02  0.10752392413E+03  0.00000000000E+00 0.  1.
<scales pt_clust_5="13000.00000" pt_clust_6="13000.00000" pt_clust_7="13000.00000" pt_clust_8="13000.00000" pt_clust_9="75.06602"></scales>
<clustering>
<clus scale="   75.066">  1  9  2 -1</clus>
<clus scale="   86.852">  5  6 -1 -1</clus>
<clus scale="   90.935">  7  8 -1 -1</clus>
<clus scale="  164.629">  1  5  2 -1</clus>
<clus scale="  166.819">  2  5  1 -1</clus>
</clustering>
</event>
<event>
 9    1  0.2333971E-005  0.1590689E+03  0.7546771E-02  0.1216367E+00
         -2   -1    0    0    0  501 -0.00000000000E+00  0.00000000000E+00  0.86829452274E+02  0.86829452274E+02  0.00000000000E+00 0.  1.
          1   -1    0    0  502    0  0.00000000000E+00 -0.00000000000E+00 -0.73032221006E+03  0.73032221006E+03  0.00000000000E+00 0. -1.
        -24    2    1    2    0    0 -0.33647268300E+02 -0.17696186097E+02  0.17159686892E+02  0.91128440268E+02  0.81022491352E+02 0.  0.
         23    2    1    2    0    0 -0.31089330543E+02  0.13862412752E+03 -0.39536840306E+03  0.42737624488E+03  0.78428855304E+02 0.  0.
         13    1    3    3    0    0  0.10237426788E+02 -0.24963531042E+02  0.34140587301E+02  0.43515083484E+02  0.00000000000E+00 0. -1.
        -14    1    3    3    0    0 -0.43884695088E+02  0.72673449451E+01 -0.16980900409E+02  0.47613356784E+02  0.00000000000E+00 0.  1.
        -13    1    4    4    0    0 -0.37110181788E+02  0.17746910518E+02 -0.93400939666E+02  0.10205809108E+03  0.00000000000E+00 0.  1.
         13    1    4    4    0    0  0.60208512448E+01  0.12087721700E+03 -0.30196746340E+03  0.32531815380E+03  0.00000000000E+00 0. -1.
         21    1    1    2  502  501  0.64736598843E+02 -0.12092794142E+03 -0.26528404162E+03  0.29864697719E+03  0.00000000000E+00 0.  1.
<scales pt_clust_5="13000.00000" pt_clust_6="13000.00000" pt_clust_7="13000.00000" pt_clust_8="13000.00000" pt_clust_9="138.39008"></scales>
<clustering>
<clus scale="   78.429">  7  8 -1 -1</clus>
<clus scale="   81.022">  5  6 -1 -1</clus>
<clus scale="   89.498">  1  5  2 -1</clus>
<clus scale="  138.390">  1  9  2 -1</clus>
<clus scale="  159.069">  2  5  1 -1</clus>
</clustering>
</event>
<event>
 9    1  0.2333971E-005  0.1000414E+03  0.7546771E-02  0.1284121E+00
          1   -1    0    0  502    0  0.00000000000E+00  0.00000000000E+00  0.36128032792E+02  0.36128032792E+02  0.00000000000E+00 0. -1.
         -2   -1    0    0    0  501 -0.00000000000E+00 -0.00000000000E+00 -0.67745249615E+03  0.67745249615E+03  0.00000000000E+00 0.  1.
        -24    2    1    2    0    0 -0.46813811041E+02  0.34935107909E+02 -0.36661790333E+03  0.38026160979E+03  0.82329886262E+02 0.  0.
         23    2    1    2    0    0  0.39862421953E+02 -0.72510773552E+01 -0.57987717903E+02  0.11472847130E+03  0.90324171143E+02 0.  0.
         13    1    3    3    0    0 -0.63187060088E+02  0.47684618225E+02 -0.31042662142E+03  0.32036091313E+03  0.00000000000E+00 0. -1.
        -14    1    3    3    0    0  0.16373249047E+02 -0.12749510315E+02 -0.56191281912E+02  0.59900696662E+02  0.00000000000E+00 0.  1.
        -13    1    4    4    0    0  0.10329784931E+02 -0.25093449096E+02 -0.72412817815E+02  0.77330471537E+02  0.00000000000E+00 0.  1.
         13    1    4    4    0    0  0.29532637022E+02  0.17842371741E+02  0.14425099913E+02  0.37397999763E+02  0.00000000000E+00 0. -1.
         21    1    1    2  502  501  0.69513890883E+01 -0.27684030554E+02 -0.21671884213E+03  0.21859044785E+03  0.00000000000E+00 0.  1.
<scales pt_clust_5="13000.00000" pt_clust_6="13000.00000" pt_clust_7="13000.00000" pt_clust_8="13000.00000" pt_clust_9="28.54343"></scales>
<clustering>
<clus scale="   28.543">  2  9  1 -1</clus>
<clus scale="   82.330">  5  6 -1 -1</clus>
<clus scale="   90.324">  7  8 -1 -1</clus>
<clus scale="   92.887">  2  5  1 -1</clus>
<clus scale="  100.041">  1  5  2 -1</clus>
</clustering>
</event>
<event>
 9    1  0.2333971E-005  0.1437874E+03  0.7546771E-02  0.1228599E+00
          1   -1    0    0  502    0  0.00000000000E+00  0.00000000000E+00  0.79149064786E+03  0.79149064786E+03  0.00000000000E+00 0. -1.
         -2   -1    0    0    0  501 -0.00000000000E+00 -0.00000000000E+00 -0.43628579101E+02  0.43628579101E+02  0.00000000000E+00 0.  1.
        -24    2    1    2    0    0 -0.15586502991E+02 -0.47657360576E+02  0.10591052848E+03  0.14149360305E+03  0.79304707100E+02 0.  0.
         23    2    1    2    0    0 -0.78834695489E+02 -0.46680110473E+02  0.31809254997E+03  0.34334064455E+03  0.91137181896E+02 0.  0.
         13    1    3    3    0    0  0.16570029943E+02  0.15652909646E+02  0.24392776236E+02  0.33385431032E+02  0.00000000000E+00 0. -1.
        -14    1    3    3    0    0 -0.32156532934E+02 -0.63310270222E+02  0.81517752245E+02  0.10810817202E+03  0.00000000000E+00 0.  1.
        -11    1    4    4    0    0 -0.45107107553E+01  0.19990250916E+02  0.18715620566E+02  0.27753037606E+02  0.00000000000E+00 0. -1.
         11    1    4    4    0    0 -0.74323984734E+02 -0.66670361388E+02  0.29937692940E+03  0.31558760694E+03  0.00000000000E+00 0.  1.
         21    1    1    2  502  501  0.94421198480E+02  0.94337471048E+02  0.32385899031E+03  0.35028497937E+03  0.00000000000E+00 0. -1.
<scales pt_clust_5="13000.00000" pt_clust_6="13000.00000" pt_clust_7="13000.00000" pt_clust_8="13000.00000" pt_clust_9="111.21530"></scales>
<clustering>
<clus scale="   79.305">  5  6 -1 -1</clus>
<clus scale="   91.137">  7  8 -1 -1</clus>
<clus scale="   93.826">  2  5  1 -1</clus>
<clus scale="  111.215">  2  9  1 -1</clus>
<clus scale="  143.787">  1  5  2 -1</clus>
</clustering>
</event>
<event>
 9    1  0.2333971E-005  0.1281844E+03  0.7546771E-02  0.1233529E+00
          1   -1    0    0  502    0  0.00000000000E+00  0.00000000000E+00  0.51520567049E+03  0.51520567049E+03  0.00000000000E+00 0. -1.
         -2   -1    0    0    0  501 -0.00000000000E+00 -0.00000000000E+00 -0.62381222831E+02  0.62381222831E+02  0.00000000000E+00 0.  1.
        -24    2    1    2    0    0  0.57291157499E+02  0.86135848988E+02  0.24471091961E+03  0.27737434947E+03  0.79695886717E+02 0.  0.
         23    2    1    2    0    0 -0.55802048126E+01 -0.80927101808E+02  0.21524562528E+03  0.24775284041E+03  0.92035081547E+02 0.  0.
         11    1    3    3    0    0  0.65542954203E+02  0.29760823530E+02  0.11455189246E+03  0.13529124705E+03  0.00000000000E+00 0. -1.
        -12    1    3    3    0    0 -0.82517967043E+01  0.56375025458E+02  0.13015902714E+03  0.14208310241E+03  0.00000000000E+00 0.  1.
        -13    1    4    4    0    0 -0.22031038965E+02  0.12317868521E+02  0.26547693548E+02  0.36631633809E+02  0.00000000000E+00 0.  1.
         13    1    4    4    0    0  0.16450834153E+02 -0.93244970329E+02  0.18869793173E+03  0.21112120660E+03  0.00000000000E+00 0. -1.
         21    1    1    2  502  501 -0.51710952686E+02 -0.52087471794E+01 -0.71320972258E+01  0.52459703447E+02  0.00000000000E+00 0.  1.
<scales pt_clust_5="13000.00000" pt_clust_6="13000.00000" pt_clust_7="13000.00000" pt_clust_8="13000.00000" pt_clust_9="51.97262"></scales>
<clustering>
<clus scale="   51.973">  2  9  1 -1</clus>
<clus scale="   79.696">  5  6 -1 -1</clus>
<clus scale="   92.035">  7  8 -1 -1</clus>
<clus scale="  119.634">  2  5  1 -1</clus>
<clus scale="  128.184">  1  5  2 -1</clus>
</clustering>
</event>
<event>
 9    1  0.2333971E-005  0.3457249E+03  0.7546771E-02  0.1064730E+00
          1   -1    0    0  502    0  0.00000000000E+00  0.00000000000E+00  0.60162221488E+03  0.60162221488E+03  0.00000000000E+00 0. -1.
         -2   -1    0    0    0  501 -0.00000000000E+00 -0.00000000000E+00 -0.84561586252E+03  0.84561586252E+03  0.00000000000E+00 0.  1.
         23    2    1    2    0    0  0.33530596262E+03 -0.36146824597E+02 -0.66241980619E+03  0.74893807064E+03  0.91496188566E+02 0.  0.
        -24    2    1    2    0    0 -0.33314450068E+03  0.62169003670E+01  0.50310022150E+03  0.60846588620E+03  0.78083247979E+02 0.  0.
         13    1    4    4    0    0 -0.26187383904E+03 -0.19883663888E+02  0.42471661852E+03  0.49935706034E+03  0.00000000000E+00 0. -1.
        -14    1    4    4    0    0 -0.71270661643E+02  0.26100564255E+02  0.78383602979E+02  0.10910882586E+03  0.00000000000E+00 0.  1.
        -11    1    3    3    0    0  0.23520066142E+03  0.36038679567E+01 -0.51677464644E+03  0.56779254503E+03  0.00000000000E+00 0.  1.
         11    1    3    3    0    0  0.10010530120E+03 -0.39750692554E+02 -0.14564515975E+03  0.18114552560E+03  0.00000000000E+00 0. -1.
         21    1    1    2  502  501 -0.21614619353E+01  0.29929924230E+02 -0.84674062941E+02  0.89834120561E+02  0.00000000000E+00 0. -1.
<scales pt_clust_5="13000.00000" pt_clust_6="13000.00000" pt_clust_7="13000.00000" pt_clust_8="13000.00000" pt_clust_9="30.00787"></scales>
<clustering>
<clus scale="   30.008">  2  9  1 -1</clus>
<clus scale="   78.083">  5  6 -1 -1</clus>
<clus scale="   91.496">  7  8 -1 -1</clus>
<clus scale="  342.420">  1  5  2 -1</clus>
<clus scale="  342.420">  1  5  2 -1</clus>
</clustering>
</event>
<event>
 9    1  0.2333971E-005  0.1008940E+03  0.7546771E-02  0.1282907E+00
         -2   -1    0    0    0  501 -0.00000000000E+00  0.00000000000E+00  0.23250158505E+03  0.23250158505E+03  0.00000000000E+00 0.  1.
          1   -1    0    0  502    0  0.00000000000E+00 -0.00000000000E+00 -0.17564940622E+03  0.17564940622E+03  0.00000000000E+00 0. -1.
        -24    2    1    2    0    0 -0.37697433080E+02  0.60811176127E+02  0.84952243023E+02  0.13694168315E+03  0.80106462829E+02 0.  0.
         23    2    1    2    0    0  0.21205656958E+02 -0.37197403217E+02 -0.13101151338E+03  0.16434324556E+03  0.89506195482E+02 0.  0.
         11    1    3    3    0    0 -0.18179811982E+02  0.26770320978E+02 -0.10270850053E+02  0.33950640786E+02  0.00000000000E+00 0. -1.
        -12    1    3    3    0    0 -0.19517621098E+02  0.34040855149E+02  0.95223093076E+02  0.10299104237E+03  0.00000000000E+00 0.  1.
        -13    1    4    4    0    0 -0.27336533932E+02  0.12182801208E+02 -0.37217706464E+02  0.47758396195E+02  0.00000000000E+00 0.  1.
         13    1    4    4    0    0  0.48542190889E+02 -0.49380204425E+02 -0.93793806918E+02  0.11658484937E+03  0.00000000000E+00 0. -1.
         21    1    1    2  502  501  0.16491776122E+02 -0.23613772910E+02  0.10291144919E+03  0.10686606255E+03  0.00000000000E+00 0.  1.
<scales pt_clust_5="13000.00000" pt_clust_6="13000.00000" pt_clust_7="13000.00000" pt_clust_8="13000.00000" pt_clust_9="28.80259"></scales>
<clustering>
<clus scale="   28.803">  1  9  2 -1</clus>
<clus scale="   80.106">  5  6 -1 -1</clus>
<clus scale="   89.506">  7  8 -1 -1</clus>
<clus scale="   92.657">  1  5  2 -1</clus>
<clus scale="  100.894">  2  5  1 -1</clus>
</clustering>
</event>
<event>
 9    1  0.2333971E-005  0.1562372E+03  0.7546771E-02  0.1196456E+00
         -2   -1    0    0    0  501 -0.00000000000E+00  0.00000000000E+00  0.85514059305E+02  0.85514059305E+02  0.00000000000E+00 0.  1.
          1   -1    0    0  502    0  0.00000000000E+00 -0.00000000000E+00 -0.61354773015E+03  0.61354773015E+03  0.00000000000E+00 0. -1.
         23    2    1    2    0    0  0.43373595873E+01 -0.67355114611E+02 -0.54285346046E+02  0.12604337024E+03  0.91566960376E+02 0.  0.
        -24    2    1    2    0    0  0.34426733076E+02  0.14876267097E+03 -0.44908797485E+03  0.47954126708E+03  0.70457685576E+02 0.  0.
         11    1    4    4    0    0 -0.10754080644E+02  0.82154985790E+02 -0.17060156946E+03  0.18965755309E+03  0.00000000000E+00 0. -1.
        -12    1    4    4    0    0  0.45180813720E+02  0.66607685178E+02 -0.27848640539E+03  0.28988371400E+03  0.00000000000E+00 0.  1.
        -11    1    3    3    0    0  0.19861599424E+02  0.13981579448E+02 -0.32218602949E+02  0.40348557243E+02  0.00000000000E+00 0. -1.
         11    1    3    3    0    0 -0.15524239837E+02 -0.81336694060E+02 -0.22066743096E+02  0.85694812993E+02  0.00000000000E+00 0.  1.
         21    1    1    2  502  501 -0.38764092664E+02 -0.81407556357E+02 -0.24660349950E+02  0.93477152137E+02  0.00000000000E+00 0.  1.
<scales pt_clust_5="13000.00000" pt_clust_6="13000.00000" pt_clust_7="13000.00000" pt_clust_8="13000.00000" pt_clust_9="90.16565"></scales>
<clustering>
<clus scale="   70.458">  5  6 -1 -1</clus>
<clus scale="   90.166">  1  9  2 -1</clus>
<clus scale="   91.567">  7  8 -1 -1</clus>
<clus scale="  144.879">  2  5  1 -1</clus>
<clus scale="  144.879">  2  5  1 -1</clus>
</clustering>
</event>
<event>
 9    1  0.2333971E-005  0.9731467E+02  0.7546771E-02  0.1292757E+00
          1   -1    0    0  502    0  0.00000000000E+00  0.00000000000E+00  0.16295321734E+04  0.16295321734E+04  0.00000000000E+00 0. -1.
         -2   -1    0    0    0  501 -0.00000000000E+00 -0.00000000000E+00 -0.14035921552E+02  0.14035921552E+02  0.00000000000E+00 0.  1.
         23    2    1    2    0    0  0.70717980823E+01 -0.44904518728E+02  0.26448408715E+03  0.28386419772E+03  0.92523641633E+02 0.  0.
        -24    2    1    2    0    0 -0.11781682140E+02 -0.21744102002E+02  0.87446827425E+03  0.87849884616E+03  0.80335832794E+02 0.  0.
         11    1    4    4    0    0 -0.10941398984E+01  0.21827420727E+02  0.85260695318E+02  0.88017155168E+02  0.00000000000E+00 0. -1.
        -12    1    4    4    0    0 -0.10687542241E+02 -0.43571522729E+02  0.78920757893E+03  0.79048169099E+03  0.00000000000E+00 0.  1.
        -13    1    3    3    0    0 -0.52548608122E-01 -0.73431768976E+02  0.17960898620E+03  0.19404024165E+03  0.00000000000E+00 0.  1.
         13    1    3    3    0    0  0.71243466904E+01  0.28527250248E+02  0.84875100953E+02  0.89823956071E+02  0.00000000000E+00 0. -1.
         21    1    1    2  502  501  0.47098840573E+01  0.66648620730E+02  0.47654389040E+03  0.48120505102E+03  0.00000000000E+00 0. -1.
<scales pt_clust_5="13000.00000" pt_clust_6="13000.00000" pt_clust_7="13000.00000" pt_clust_8="13000.00000" pt_clust_9="66.81483"></scales>
<clustering>
<clus scale="   66.815">  1  9  2 -1</clus>
<clus scale="   80.336">  5  6 -1 -1</clus>
<clus scale="   85.810">  1  5  2 -1</clus>
<clus scale="   92.524">  7  8 -1 -1</clus>
<clus scale="   66.815">  1  5  2 -1</clus>
</clustering>
</event>
<event>
 9    1  0.2333971E-005  0.1581190E+03  0.7546771E-02  0.1212277E+00
          1   -1    0    0  502    0  0.00000000000E+00  0.00000000000E+00  0.29400518369E+03  0.29400518369E+03  0.00000000000E+00 0. -1.
         -2   -1    0    0    0  501 -0.00000000000E+00 -0.00000000000E+00 -0.18007311093E+03  0.18007311093E+03  0.00000000000E+00 0.  1.
         23    2    1    2    0    0  0.39437802936E+00  0.11551847885E+03 -0.46307708819E+02  0.15360693595E+03  0.90033395956E+02 0.  0.
        -24    2    1    2    0    0 -0.27621708182E+01  0.59968737416E+02  0.37082733982E+02  0.10606746903E+03  0.79191538516E+02 0.  0.
         13    1    4    4    0    0 -0.25756313571E+02 -0.82455257275E+01  0.62503749791E+01  0.27756865289E+02  0.00000000000E+00 0. -1.
        -14    1    4    4    0    0  0.22994142752E+02  0.68214263143E+02  0.30832359003E+02  0.78310603744E+02  0.00000000000E+00 0.  1.
        -11    1    3    3    0    0 -0.35410589383E+02  0.84258437789E+02 -0.52929681375E+02  0.10561697472E+03  0.00000000000E+00 0.  1.
         11    1    3    3    0    0  0.35804967413E+02  0.31260041062E+02  0.66219725551E+01  0.47989961233E+02  0.00000000000E+00 0. -1.
         21    1    1    2  502  501  0.23677927888E+01 -0.17548721627E+03  0.12315704760E+03  0.21440388963E+03  0.00000000000E+00 0. -1.
<scales pt_clust_5="13000.00000" pt_clust_6="13000.00000" pt_clust_7="13000.00000" pt_clust_8="13000.00000" pt_clust_9="129.98308"></scales>
<clustering>
<clus scale="   79.192">  5  6 -1 -1</clus>
<clus scale="   90.033">  7  8 -1 -1</clus>
<clus scale="   99.374">  1  5  2 -1</clus>
<clus scale="  129.983">  1  9  2 -1</clus>
<clus scale="   99.374">  1  5  2 -1</clus>
</clustering>
</event>
<event>
 9    1  0.2333971E-005  0.1539038E+03  0.7546771E-02  0.1196080E+00
          1   -1    0    0  502    0  0.00000000000E+00  0.00000000000E+00  0.68277715098E+03  0.68277715098E+03  0.00000000000E+00 0. -1.
         -2   -1    0    0    0  501 -0.00000000000E+00 -0.00000000000E+00 -0.66978339226E+02  0.66978339226E+02  0.00000000000E+00 0.  1.
         23    2    1    2    0    0 -0.72797568005E+02  0.77451031588E+02  0.18823476916E+03  0.23423687403E+03  0.90202198606E+02 0.  0.
        -24    2    1    2    0    0  0.98438193276E+02 -0.94020435886E+02  0.44952085967E+03  0.47791424623E+03  0.88335175401E+02 0.  0.
         13    1    4    4    0    0  0.70979457929E+02 -0.10901566873E+03  0.38079930790E+03  0.40240602925E+03  0.00000000000E+00 0. -1.
        -14    1    4    4    0    0  0.27458735347E+02  0.14995232840E+02  0.68721551764E+02  0.75508216981E+02  0.00000000000E+00 0.  1.
        -13    1    3    3    0    0  0.11066712618E+02  0.32303114337E+02  0.16648650670E+02  0.37988694281E+02  0.00000000000E+00 0.  1.
         13    1    3    3    0    0 -0.83864280623E+02  0.45147917251E+02  0.17158611849E+03  0.19624817975E+03  0.00000000000E+00 0. -1.
         21    1    1    2  502  501 -0.25640625271E+02  0.16569404297E+02 -0.21956817073E+02  0.37604369946E+02  0.00000000000E+00 0.  1.
<scales pt_clust_5="13000.00000" pt_clust_6="13000.00000" pt_clust_7="13000.00000" pt_clust_8="13000.00000" pt_clust_9="30.52846"></scales>
<clustering>
<clus scale="   30.528">  2  9  1 -1</clus>
<clus scale="   88.335">  5  6 -1 -1</clus>
<clus scale="   90.202">  7  8 -1 -1</clus>
<clus scale="  152.817">  1  5  2 -1</clus>
<clus scale="  152.817">  1  5  2 -1</clus>
</clustering>
</event>
<event>
 9    1  0.2333971E-005  0.1313600E+03  0.7546771E-02  0.1227973E+00
          1   -1    0    0  502    0  0.00000000000E+00  0.00000000000E+00  0.19005859394E+03  0.19005859394E+03  0.00000000000E+00 0. -1.
         -2   -1    0    0    0  501 -0.00000000000E+00 -0.00000000000E+00 -0.32787940821E+03  0.32787940821E+03  0.00000000000E+00 0.  1.
         23    2    1    2    0    0  0.67272673943E+01 -0.76958797032E+02 -0.23595448709E+03  0.26450279671E+03  0.91210179941E+02 0.  0.
        -24    2    1    2    0    0  0.10709476267E+02  0.95648756688E+02  0.14984113803E+03  0.19575490915E+03  0.81266476925E+02 0.  0.
         13    1    4    4    0    0  0.36848992634E+02  0.89570599689E+02  0.13120789817E+03  0.16308357712E+03  0.00000000000E+00 0. -1.
        -14    1    4    4    0    0 -0.26139516367E+02  0.60781569992E+01  0.18633239868E+02  0.32671332027E+02  0.00000000000E+00 0.  1.
        -13    1    3    3    0    0 -0.32498326966E+02 -0.33581976133E+02 -0.17022101510E+03  0.17651935973E+03  0.00000000000E+00 0.  1.
         13    1    3    3    0    0  0.39225594361E+02 -0.43376820899E+02 -0.65733471986E+02  0.87983436984E+02  0.00000000000E+00 0. -1.
         21    1    1    2  502  501 -0.17436743661E+02 -0.18689959656E+02 -0.51707465214E+02  0.57680296292E+02  0.00000000000E+00 0.  1.
<scales pt_clust_5="13000.00000" pt_clust_6="13000.00000" pt_clust_7="13000.00000" pt_clust_8="13000.00000" pt_clust_9="25.56080"></scales>
<clustering>
<clus scale="   25.561">  2  9  1 -1</clus>
<clus scale="   81.266">  5  6 -1 -1</clus>
<clus scale="   91.210">  7  8 -1 -1</clus>
<clus scale="  124.661">  1  5  2 -1</clus>
<clus scale="  124.661">  1  5  2 -1</clus>
</clustering>
</event>
<event>
 9    1  0.2333971E-005  0.1229232E+03  0.7546771E-02  0.1247494E+00
         -2   -1    0    0    0  501 -0.00000000000E+00  0.00000000000E+00  0.14638704427E+03  0.14638704427E+03  0.00000000000E+00 0.  1.
          1   -1    0    0  502    0  0.00000000000E+00 -0.00000000000E+00 -0.67333945058E+03  0.67333945058E+03  0.00000000000E+00 0. -1.
        -24    2    1    2    0    0 -0.49045105298E+02  0.37305967867E+02  0.98224013122E+02  0.14087915075E+03  0.80011379007E+02 0.  0.
         23    2    1    2    0    0  0.11904764267E+03 -0.33257865756E+02 -0.56022633566E+03  0.58326881224E+03  0.10521660186E+03 0.  0.
         13    1    3    3    0    0 -0.13936385083E+02  0.56541198536E+02  0.41740994912E+02  0.71648032892E+02  0.00000000000E+00 0. -1.
        -14    1    3    3    0    0 -0.35108720215E+02 -0.19235230669E+02  0.56483018211E+02  0.69231117860E+02  0.00000000000E+00 0.  1.
        -13    1    4    4    0    0  0.11156853350E+03 -0.53725572625E+02 -0.53828571365E+03  0.55234543932E+03  0.00000000000E+00 0. -1.
         13    1    4    4    0    0  0.74791091680E+01  0.20467706869E+02 -0.21940622009E+02  0.30923372917E+02  0.00000000000E+00 0.  1.
         21    1    1    2  502  501 -0.70002537374E+02 -0.40481021108E+01 -0.64950083779E+02  0.95578531859E+02  0.00000000000E+00 0.  1.
<scales pt_clust_5="13000.00000" pt_clust_6="13000.00000" pt_clust_7="13000.00000" pt_clust_8="13000.00000" pt_clust_9="70.11949"></scales>
<clustering>
<clus scale="   70.119">  2  9  1 -1</clus>
<clus scale="   80.011">  5  6 -1 -1</clus>
<clus scale="  102.183">  1  5  2 -1</clus>
<clus scale="  105.217">  7  8 -1 -1</clus>
<clus scale="   70.119">  2  5  1 -1</clus>
</clustering>
</event>
<event>
 9    1  0.2333971E-005  0.9319640E+02  0.7546771E-02  0.1299146E+00
          1   -1    0    0  502    0  0.00000000000E+00  0.00000000000E+00  0.38835949946E+03  0.38835949946E+03  0.00000000000E+00 0. -1.
         -2   -1    0    0    0  501 -0.00000000000E+00 -0.00000000000E+00 -0.38834262900E+02  0.38834262900E+02  0.00000000000E+00 0.  1.
         23    2    1    2    0    0  0.70533348380E+01  0.49710624171E+02  0.11222016036E+03  0.15203954662E+03  0.89452577706E+02 0.  0.
        -24    2    1    2    0    0  0.11405238521E+02 -0.15498295228E+02  0.21298002704E+03  0.22929671473E+03  0.82741856678E+02 0.  0.
         13    1    4    4    0    0 -0.93756799122E+01 -0.44166966815E+02  0.15421346099E+03  0.16068732334E+03  0.00000000000E+00 0. -1.
        -14    1    4    4    0    0  0.20780918433E+02  0.28668671587E+02  0.58766566056E+02  0.68609391394E+02  0.00000000000E+00 0.  1.
        -13    1    3    3    0    0 -0.37332416239E+02  0.15744244145E+02  0.22527855025E+02  0.46358330190E+02  0.00000000000E+00 0.  1.
         13    1    3    3    0    0  0.44385751077E+02  0.33966380025E+02  0.89692305330E+02  0.10568121643E+03  0.00000000000E+00 0. -1.
         21    1    1    2  502  501 -0.18458573359E+02 -0.34212328942E+02  0.24325049159E+02  0.45857501008E+02  0.00000000000E+00 0.  1.
<scales pt_clust_5="13000.00000" pt_clust_6="13000.00000" pt_clust_7="13000.00000" pt_clust_8="13000.00000" pt_clust_9="38.87419"></scales>
<clustering>
<clus scale="   38.874">  2  9  1 -1</clus>
<clus scale="   82.742">  5  6 -1 -1</clus>
<clus scale="   86.776">  1  5  2 -1</clus>
<clus scale="   89.453">  7  8 -1 -1</clus>
<clus scale="   86.776">  1  5  2 -1</clus>
</clustering>
</event>
<event>
 9    1  0.2333971E-005  0.1648422E+03  0.7546771E-02  0.1184666E+00
         -2   -1    0    0    0  501 -0.00000000000E+00  0.00000000000E+00  0.18122350229E+03  0.18122350229E+03  0.00000000000E+00 0.  1.
          1   -1    0    0  502    0  0.00000000000E+00 -0.00000000000E+00 -0.59539303599E+03  0.59539303599E+03  0.00000000000E+00 0. -1.
        -24    2    1    2    0    0 -0.15206709080E+03  0.10673360460E+02 -0.59246584040E+02  0.18336434222E+03  0.82909610705E+02 0.  0.
         23    2    1    2    0    0  0.13346365010E+03  0.25581598283E+01 -0.45896609929E+03  0.48673394355E+03  0.91874705019E+02 0.  0.
         11    1    3    3    0    0 -0.78310312787E+02  0.28110156534E+01 -0.73951490896E+02  0.10774613637E+03  0.00000000000E+00 0. -1.
        -12    1    3    3    0    0 -0.73756778015E+02  0.78623448071E+01  0.14704906857E+02  0.75618205841E+02  0.00000000000E+00 0.  1.
        -13    1    4    4    0    0  0.23161954150E+02 -0.34410187846E+02 -0.17529708047E+03  0.18013773500E+03  0.00000000000E+00 0.  1.
         13    1    4    4    0    0  0.11030169595E+03  0.36968347675E+02 -0.28366901882E+03  0.30659620855E+03  0.00000000000E+00 0. -1.
         21    1    1    2  502  501  0.18603440698E+02 -0.13231520289E+02  0.10404314962E+03  0.10651825251E+03  0.00000000000E+00 0.  1.
<scales pt_clust_5="13000.00000" pt_clust_6="13000.00000" pt_clust_7="13000.00000" pt_clust_8="13000.00000" pt_clust_9="22.82895"></scales>
<clustering>
<clus scale="   22.829">  1  9  2 -1</clus>
<clus scale="   82.910">  5  6 -1 -1</clus>
<clus scale="   91.875">  7  8 -1 -1</clus>
<clus scale="  160.019">  1  5  2 -1</clus>
<clus scale="  164.842">  2  5  1 -1</clus>
</clustering>
</event>
<event>
 9    1  0.2333971E-005  0.9532158E+02  0.7546771E-02  0.1296810E+00
         -2   -1    0    0    0  501 -0.00000000000E+00  0.00000000000E+00  0.29577598951E+02  0.29577598951E+02  0.00000000000E+00 0.  1.
          1   -1    0    0  502    0  0.00000000000E+00 -0.00000000000E+00 -0.65813634504E+03  0.65813634504E+03  0.00000000000E+00 0. -1.
        -24    2    1    2    0    0 -0.45028400332E+02 -0.21509603703E+02 -0.86737015196E+02  0.12819540670E+03  0.80128226021E+02 0.  0.
         23    2    1    2    0    0  0.22065006664E+02  0.56936165703E+01 -0.50296788762E+03  0.51169506988E+03  0.91300968126E+02 0.  0.
         13    1    3    3    0    0 -0.28768835620E+02  0.26589877353E+02 -0.18993088147E+02  0.43536247863E+02  0.00000000000E+00 0. -1.
        -14    1    3    3    0    0 -0.16259564711E+02 -0.48099481057E+02 -0.67743927048E+02  0.84659158834E+02  0.00000000000E+00 0.  1.
        -11    1    4    4    0    0 -0.34466592196E+02  0.13415629048E+02 -0.18897135105E+03  0.19255673605E+03  0.00000000000E+00 0.  1.
         11    1    4    4    0    0  0.56531598860E+02 -0.77220124778E+01 -0.31399653657E+03  0.31913833384E+03  0.00000000000E+00 0. -1.
         21    1    1    2  502  501  0.22963393668E+02  0.15815987133E+02 -0.38853843276E+02  0.47823467409E+02  0.00000000000E+00 0. -1.
<scales pt_clust_5="13000.00000" pt_clust_6="13000.00000" pt_clust_7="13000.00000" pt_clust_8="13000.00000" pt_clust_9="27.88302"></scales>
<clustering>
<clus scale="   27.883">  1  9  2 -1</clus>
<clus scale="   80.128">  5  6 -1 -1</clus>
<clus scale="   84.681">  1  5  2 -1</clus>
<clus scale="   91.301">  7  8 -1 -1</clus>
<clus scale="   95.322">  2  5  1 -1</clus>
</clustering>
</event>
<event>
 9    1  0.2333971E-005  0.1094270E+03  0.7546771E-02  0.1265985E+00
         -4   -1    0    0    0  501 -0.00000000000E+00  0.00000000000E+00  0.63710805455E+02  0.63710805455E+02  0.00000000000E+00 0.  1.
          3   -1    0    0  502    0  0.00000000000E+00 -0.00000000000E+00 -0.32554505288E+03  0.32554505288E+03  0.00000000000E+00 0. -1.
        -24    2    1    2    0    0 -0.35079437635E+02 -0.65927465159E+02 -0.92348631388E+02  0.14383635189E+03  0.81139563701E+02 0.  0.
         23    2    1    2    0    0  0.20523703833E+02  0.46899803336E+02 -0.18779073181E+03  0.21526990339E+03  0.91950847631E+02 0.  0.
         13    1    3    3    0    0 -0.41365323193E+02 -0.27447266183E+02 -0.92348615564E+02  0.10484612144E+03  0.00000000000E+00 0. -1.
        -14    1    3    3    0    0  0.62858855576E+01 -0.38480198976E+02 -0.15824096778E-04  0.38990230449E+02  0.00000000000E+00 0.  1.
        -13    1    4    4    0    0 -0.17272295513E+02  0.55992909119E+02 -0.70319486658E+02  0.91533427051E+02  0.00000000000E+00 0.  1.
         13    1    4    4    0    0  0.37795999346E+02 -0.90931057824E+01 -0.11747124515E+03  0.12373647634E+03  0.00000000000E+00 0. -1.
         21    1    1    2  502  501  0.14555733802E+02  0.19027661823E+02  0.18305115775E+02  0.30149603057E+02  0.00000000000E+00 0. -1.
<scales pt_clust_5="13000.00000" pt_clust_6="13000.00000" pt_clust_7="13000.00000" pt_clust_8="13000.00000" pt_clust_9="23.95665"></scales>
<clustering>
<clus scale="   23.957">  1  9  2 -1</clus>
<clus scale="   81.140">  5  6 -1 -1</clus>
<clus scale="   91.951">  7  8 -1 -1</clus>
<clus scale="  100.513">  1  5  2 -1</clus>
<clus scale="  109.427">  2  5  1 -1</clus>
</clustering>
</event>
<event>
 9    1  0.2333971E-005  0.1700507E+03  0.7546771E-02  0.1179703E+00
         -2   -1    0    0    0  501 -0.00000000000E+00  0.00000000000E+00  0.32766632670E+03  0.32766632670E+03  0.00000000000E+00 0.  1.
          1   -1    0    0  502    0  0.00000000000E+00 -0.00000000000E+00 -0.24189852103E+03  0.24189852103E+03  0.00000000000E+00 0. -1.
        -24    2    1    2    0    0 -0.13136110697E+02 -0.13899777136E+03  0.10954169563E+03  0.19516297425E+03  0.81217397086E+02 0.  0.
         23    2    1    2    0    0  0.55820855346E+02  0.14212963940E+03 -0.16067215495E+03  0.23096920293E+03  0.64918633973E+02 0.  0.
         11    1    3    3    0    0 -0.34274774772E+02 -0.29647099461E+02  0.54651222909E+02  0.70996245376E+02  0.00000000000E+00 0. -1.
        -12    1    3    3    0    0  0.21138664075E+02 -0.10935067190E+03  0.54890472718E+02  0.12416672887E+03  0.00000000000E+00 0.  1.
        -13    1    4    4    0    0  0.26157160775E+02  0.13201127942E+03 -0.13106696728E+03  0.18785559578E+03  0.00000000000E+00 0. -1.
         13    1    4    4    0    0  0.29663694571E+02  0.10118359981E+02 -0.29605187668E+02  0.43113607147E+02  0.00000000000E+00 0.  1.
         21    1    1    2  502  501 -0.42684744649E+02 -0.31318680452E+01  0.13689826500E+03  0.14343267056E+03  0.00000000000E+00 0. -1.
<scales pt_clust_5="13000.00000" pt_clust_6="13000.00000" pt_clust_7="13000.00000" pt_clust_8="13000.00000" pt_clust_9="42.79949"></scales>
<clustering>
<clus scale="   42.799">  1  9  2 -1</clus>
<clus scale="   64.919">  7  8 -1 -1</clus>
<clus scale="   81.217">  5  6 -1 -1</clus>
<clus scale="  162.897">  2  7  1 -1</clus>
<clus scale="  162.897">  2  5  1 -1</clus>
</clustering>
</event>
<event>
 9    1  0.2333971E-005  0.1148162E+03  0.7546771E-02  0.1258393E+00
         -2   -1    0    0    0  501 -0.00000000000E+00  0.00000000000E+00  0.91061434082E+03  0.91061434082E+03  0.00000000000E+00 0.  1.
          1   -1    0    0  502    0  0.00000000000E+00 -0.00000000000E+00 -0.21946710400E+02  0.21946710400E+02  0.00000000000E+00 0. -1.
        -24    2    1    2    0    0  0.54281627328E+02  0.22706300922E+02  0.32448681824E+03  0.33882405543E+03  0.77768722282E+02 0.  0.
         23    2    1    2    0    0 -0.39562515355E+02 -0.63142418125E+02  0.26193296760E+03  0.28844125165E+03  0.95064812364E+02 0.  0.
         13    1    3    3    0    0  0.38539009429E+02 -0.14195033848E+02  0.69717690210E+02  0.80915453171E+02  0.00000000000E+00 0. -1.
        -14    1    3    3    0    0  0.15742617898E+02  0.36901334770E+02  0.25476912803E+03  0.25790860226E+03  0.00000000000E+00 0.  1.
        -11    1    4    4    0    0 -0.59062544637E+02 -0.45266668907E+02  0.24720881994E+03  0.25816594692E+03  0.00000000000E+00 0.  1.
         11    1    4    4    0    0  0.19500029282E+02 -0.17875749218E+02  0.14724147656E+02  0.30275304726E+02  0.00000000000E+00 0. -1.
         21    1    1    2  502  501 -0.14719111972E+02  0.40436117203E+02  0.30224784458E+03  0.30529574414E+03  0.00000000000E+00 0.  1.
<scales pt_clust_5="13000.00000" pt_clust_6="13000.00000" pt_clust_7="13000.00000" pt_clust_8="13000.00000" pt_clust_9="43.03175"></scales>
<clustering>
<clus scale="   43.032">  1  9  2 -1</clus>
<clus scale="   77.769">  5  6 -1 -1</clus>
<clus scale="   95.065">  7  8 -1 -1</clus>
<clus scale="  100.962">  1  5  2 -1</clus>
<clus scale="  114.816">  2  5  1 -1</clus>
</clustering>
</event>
<event>
 9    1  0.2333971E-005  0.1209782E+03  0.7546771E-02  0.1244751E+00
         -2   -1    0    0    0  501 -0.00000000000E+00  0.00000000000E+00  0.72792788794E+02  0.72792788794E+02  0.00000000000E+00 0.  1.
          1   -1    0    0  502    0  0.00000000000E+00 -0.00000000000E+00 -0.53734248244E+03  0.53734248244E+03  0.00000000000E+00 0. -1.
         23    2    1    2    0    0  0.29559867289E+02  0.26662310566E+00  0.63512738216E+01  0.95370207136E+02  0.90450433321E+02 0.  0.
        -24    2    1    2    0    0 -0.87064052383E+02  0.17418074658E+02 -0.41777002154E+03  0.43450064325E+03  0.79846600114E+02 0.  0.
         11    1    4    4    0    0 -0.10082216934E+03  0.22033579880E+02 -0.33738100492E+03  0.35281231690E+03  0.00000000000E+00 0. -1.
        -12    1    4    4    0    0  0.13758116952E+02 -0.46155052221E+01 -0.80389016616E+02  0.81688326357E+02  0.00000000000E+00 0.  1.
        -13    1    3    3    0    0  0.45638853556E+02  0.34207228651E+02 -0.12634846736E+01  0.57049415767E+02  0.00000000000E+00 0.  1.
         13    1    3    3    0    0 -0.16078986267E+02 -0.33940605545E+02  0.76147584951E+01  0.38320791368E+02  0.00000000000E+00 0. -1.
         21    1    1    2  502  501  0.57504185095E+02 -0.17684697763E+02 -0.53130945933E+02  0.80264420849E+02  0.00000000000E+00 0.  1.
<scales pt_clust_5="13000.00000" pt_clust_6="13000.00000" pt_clust_7="13000.00000" pt_clust_8="13000.00000" pt_clust_9="60.16211"></scales>
<clustering>
<clus scale="   60.162">  1  9  2 -1</clus>
<clus scale="   79.847">  5  6 -1 -1</clus>
<clus scale="   90.450">  7  8 -1 -1</clus>
<clus scale="  113.269">  2  5  1 -1</clus>
<clus scale="  113.269">  2  5  1 -1</clus>
</clustering>
</event>
<event>
 9    1  0.2333971E-005  0.1336060E+03  0.7546771E-02  0.1225128E+00
         -4   -1    0    0    0  501 -0.00000000000E+00  0.00000000000E+00  0.45395932924E+03  0.45395932924E+03  0.00000000000E+00 0.  1.
          3   -1    0    0  502    0  0.00000000000E+00 -0.00000000000E+00 -0.90308403828E+02  0.90308403828E+02  0.00000000000E+00 0. -1.
        -24    2    1    2    0    0  0.90607074703E+02  0.83766059836E+02  0.32381107500E+03  0.35566255995E+03  0.80098998060E+02 0.  0.
         23    2    1    2    0    0 -0.81952026796E+02 -0.42778647423E+02 -0.51048733010E+00  0.13044137350E+03  0.92024692073E+02 0.  0.
         11    1    3    3    0    0  0.88822623781E+02  0.72209262826E+02  0.19347242490E+03  0.22480038997E+03  0.00000000000E+00 0. -1.
        -12    1    3    3    0    0  0.17844509218E+01  0.11556797011E+02  0.13033865010E+03  0.13086216998E+03  0.00000000000E+00 0.  1.
        -13    1    4    4    0    0 -0.92626578583E+02 -0.23419398538E+02  0.22894682599E+02  0.98246209999E+02  0.00000000000E+00 0.  1.
         13    1    4    4    0    0  0.10674551787E+02 -0.19359248885E+02 -0.23405169929E+02  0.32195163498E+02  0.00000000000E+00 0. -1.
         21    1    1    2  502  501 -0.86550479070E+01 -0.40987412413E+02  0.40350337744E+02  0.58163799623E+02  0.00000000000E+00 0. -1.
<scales pt_clust_5="13000.00000" pt_clust_6="13000.00000" pt_clust_7="13000.00000" pt_clust_8="13000.00000" pt_clust_9="41.89126"></scales>
<clustering>
<clus scale="   41.891">  1  9  2 -1</clus>
<clus scale="   80.099">  5  6 -1 -1</clus>
<clus scale="   92.025">  7  8 -1 -1</clus>
<clus scale="  125.690">  1  5  2 -1</clus>
<clus scale="  133.606">  2  5  1 -1</clus>
</clustering>
</event>
<event>
 9    1  0.2333971E-005  0.1085909E+03  0.7546771E-02  0.1263943E+00
         -2   -1    0    0    0  501 -0.00000000000E+00  0.00000000000E+00  0.31708478125E+02  0.31708478125E+02  0.00000000000E+00 0.  1.
          1   -1    0    0  502    0  0.00000000000E+00 -0.00000000000E+00 -0.48429983431E+03  0.48429983431E+03  0.00000000000E+00 0. -1.
        -24    2    1    2    0    0  0.52953766591E+02 -0.68620369329E+01 -0.13182210285E+03  0.16488957440E+03  0.83428508311E+02 0.  0.
         23    2    1    2    0    0 -0.75917612803E+02  0.28039314868E+01 -0.29494324615E+03  0.31632234311E+03  0.85422247310E+02 0.  0.
         13    1    3    3    0    0  0.29720756071E+02 -0.37778538145E+02 -0.31756685299E+02  0.57611008904E+02  0.00000000000E+00 0. -1.
        -14    1    3    3    0    0  0.23233010520E+02  0.30916501212E+02 -0.10006541755E+03  0.10727856550E+03  0.00000000000E+00 0.  1.
        -11    1    4    4    0    0 -0.24464674143E+02  0.11800368726E+02 -0.13986604161E+02  0.30551498800E+02  0.00000000000E+00 0.  1.
         11    1    4    4    0    0 -0.51452938660E+02 -0.89964372388E+01 -0.28095664199E+03  0.28577084431E+03  0.00000000000E+00 0. -1.
         21    1    1    2  502  501  0.22963846212E+02  0.40581054461E+01 -0.25826007186E+02  0.34796394925E+02  0.00000000000E+00 0. -1.
<scales pt_clust_5="13000.00000" pt_clust_6="13000.00000" pt_clust_7="13000.00000" pt_clust_8="13000.00000" pt_clust_9="23.31966"></scales>
<clustering>
<clus scale="   23.320">  1  9  2 -1</clus>
<clus scale="   83.429">  5  6 -1 -1</clus>
<clus scale="   85.422">  7  8 -1 -1</clus>
<clus scale="  107.030">  1  5  2 -1</clus>
<clus scale="  108.591">  2  5  1 -1</clus>
</clustering>
</event>
<event>
 9    1  0.2333971E-005  0.1266392E+03  0.7546771E-02  0.1235739E+00
         -2   -1    0    0    0  501 -0.00000000000E+00  0.00000000000E+00  0.12511058735E+03  0.12511058735E+03  0.00000000000E+00 0.  1.
          1   -1    0    0  502    0  0.00000000000E+00 -0.00000000000E+00 -0.37516927380E+03  0.37516927380E+03  0.00000000000E+00 0. -1.
        -24    2    1    2    0    0  0.93347757612E+02  0.83637274357E+02  0.29665867965E+02  0.15109751167E+03  0.79002511335E+02 0.  0.
         23    2    1    2    0    0 -0.63280847833E+02 -0.53968580744E+02 -0.28117903016E+03  0.30691692692E+03  0.90660242753E+02 0.  0.
         11    1    3    3    0    0 -0.45968987499E+01  0.41049861764E+02  0.65640589403E+01  0.41824747443E+02  0.00000000000E+00 0. -1.
        -12    1    3    3    0    0  0.97944656362E+02  0.42587412593E+02  0.23101809025E+02  0.10927276423E+03  0.00000000000E+00 0.  1.
        -11    1    4    4    0    0  0.18553821032E+02  0.78880386458E+01 -0.54394004558E+02  0.58010112570E+02  0.00000000000E+00 0.  1.
         11    1    4    4    0    0 -0.81834668865E+02 -0.61856619390E+02 -0.22678502560E+03  0.24890681435E+03  0.00000000000E+00 0. -1.
         21    1    1    2  502  501 -0.30066909779E+02 -0.29668693613E+02  0.14544757471E+01  0.42265422559E+02  0.00000000000E+00 0.  1.
<scales pt_clust_5="13000.00000" pt_clust_6="13000.00000" pt_clust_7="13000.00000" pt_clust_8="13000.00000" pt_clust_9="42.24039"></scales>
<clustering>
<clus scale="   42.240">  1  9  2 -1</clus>
<clus scale="   79.003">  5  6 -1 -1</clus>
<clus scale="   90.660">  7  8 -1 -1</clus>
<clus scale="  118.573">  1  5  2 -1</clus>
<clus scale="  126.639">  2  5  1 -1</clus>
</clustering>
</event>
<event>
 9    1  0.2333971E-005  0.9344113E+02  0.7546771E-02  0.1302586E+00
         -2   -1    0    0    0  501 -0.00000000000E+00  0.00000000000E+00  0.90642764671E+02  0.90642764671E+02  0.00000000000E+00 0.  1.
          1   -1    0    0  502    0  0.00000000000E+00 -0.00000000000E+00 -0.22993868783E+03  0.22993868783E+03  0.00000000000E+00 0. -1.
         23    2    1    2    0    0  0.11855643518E+02 -0.33818607371E+02  0.34698036811E+02  0.10447712610E+03  0.91800117823E+02 0.  0.
        -24    2    1    2    0    0 -0.73313465198E+01  0.13303123660E+02 -0.17746548261E+03  0.19481099870E+03  0.78908845867E+02 0.  0.
         11    1    4    4    0    0  0.19392737515E+02  0.32681670750E+02 -0.13910429672E+03  0.14420185587E+03  0.00000000000E+00 0. -1.
        -12    1    4    4    0    0 -0.26724084035E+02 -0.19378547091E+02 -0.38361185888E+02  0.50609142826E+02  0.00000000000E+00 0.  1.
        -11    1    3    3    0    0  0.47065065107E+02  0.25421917698E+01  0.10106711144E+02  0.48205069264E+02  0.00000000000E+00 0. -1.
         11    1    3    3    0    0 -0.35209421589E+02 -0.36360799141E+02  0.24591325667E+02  0.56272056839E+02  0.00000000000E+00 0.  1.
         21    1    1    2  502  501 -0.45242969982E+01  0.20515483711E+02  0.34715226344E+01  0.21293327702E+02  0.00000000000E+00 0. -1.
<scales pt_clust_5="13000.00000" pt_clust_6="13000.00000" pt_clust_7="13000.00000" pt_clust_8="13000.00000" pt_clust_9="21.00843"></scales>
<clustering>
<clus scale="   21.008">  1  9  2 -1</clus>
<clus scale="   78.909">  5  6 -1 -1</clus>
<clus scale="   80.812">  2  5  1 -1</clus>
<clus scale="   91.800">  7  8 -1 -1</clus>
<clus scale="   80.812">  2  5  1 -1</clus>
</clustering>
</event>
<event>
 9    1  0.2333971E-005  0.2114113E+03  0.7546771E-02  0.1153208E+00
         -2   -1    0    0    0  501 -0.00000000000E+00  0.00000000000E+00  0.12845602985E+03  0.12845602985E+03  0.00000000000E+00 0.  1.
          1   -1    0    0  502    0  0.00000000000E+00 -0.00000000000E+00 -0.14384056786E+04  0.14384056786E+04  0.00000000000E+00 0. -1.
         23    2    1    2    0    0  0.13697733320E+03  0.88219073592E+00 -0.41950539825E+03  0.45067306102E+03  0.91421336142E+02 0.  0.
        -24    2    1    2    0    0  0.25998723058E+02  0.13096936356E+03 -0.89301597105E+03  0.90653979567E+03  0.80671982632E+02 0.  0.
         11    1    4    4    0    0  0.24256256670E+02  0.14144664671E+03 -0.78565082303E+03  0.79865057164E+03  0.00000000000E+00 0. -1.
        -12    1    4    4    0    0  0.17424663876E+01 -0.10477283150E+02 -0.10736514802E+03  0.10788922402E+03  0.00000000000E+00 0.  1.
        -13    1    3    3    0    0  0.94379387502E+01 -0.31058525795E+02 -0.67082376109E+02  0.74523498957E+02  0.00000000000E+00 0.  1.
         13    1    3    3    0    0  0.12753939445E+03  0.31940716531E+02 -0.35242302214E+03  0.37614956207E+03  0.00000000000E+00 0. -1.
         21    1    1    2  502  501 -0.16297605626E+03 -0.13185155430E+03  0.25717205767E+01  0.20964885173E+03  0.00000000000E+00 0.  1.
<scales pt_clust_5="13000.00000" pt_clust_6="13000.00000" pt_clust_7="13000.00000" pt_clust_8="13000.00000" pt_clust_9="190.62239"></scales>
<clustering>
<clus scale="   80.672">  5  6 -1 -1</clus>
<clus scale="   91.421">  7  8 -1 -1</clus>
<clus scale="  156.003">  2  5  1 -1</clus>
<clus scale="  190.622">  1  9  2 -1</clus>
<clus scale="  156.003">  2  5  1 -1</clus>
</clustering>
</event>
<event>
 9    1  0.2333971E-005  0.1299033E+03  0.7546771E-02  0.1230303E+00
         -2   -1    0    0    0  501 -0.00000000000E+00  0.00000000000E+00  0.50020375584E+02  0.50020375584E+02  0.00000000000E+00 0.  1.
          1   -1    0    0  502    0  0.00000000000E+00 -0.00000000000E+00 -0.54535498895E+03  0.54535498895E+03  0.00000000000E+00 0. -1.
         23    2    1    2    0    0  0.24690892868E+02 -0.10730481534E+03 -0.25952576952E+03  0.29627378341E+03  0.91107442664E+02 0.  0.
        -24    2    1    2    0    0 -0.51000967787E+02  0.65310102185E+02 -0.21735756379E+03  0.24622223061E+03  0.80712874728E+02 0.  0.
         13    1    4    4    0    0 -0.40512528641E+02  0.75672966681E+02 -0.21472390385E+03  0.23124449777E+03  0.00000000000E+00 0. -1.
        -14    1    4    4    0    0 -0.10488439146E+02 -0.10362864497E+02 -0.26336599351E+01  0.14977732837E+02  0.00000000000E+00 0.  1.
        -11    1    3    3    0    0 -0.23281392800E+02 -0.88215599275E+02 -0.16203886725E+03  0.18595862364E+03  0.00000000000E+00 0. -1.
         11    1    3    3    0    0  0.47972285669E+02 -0.19089216063E+02 -0.97486902266E+02  0.11031515977E+03  0.00000000000E+00 0.  1.
         21    1    1    2  502  501  0.26310074918E+02  0.41994713154E+02 -0.18451280063E+02  0.52879350516E+02  0.00000000000E+00 0.  1.
<scales pt_clust_5="13000.00000" pt_clust_6="13000.00000" pt_clust_7="13000.00000" pt_clust_8="13000.00000" pt_clust_9="49.55579"></scales>
<clustering>
<clus scale="   49.556">  1  9  2 -1</clus>
<clus scale="   80.713">  5  6 -1 -1</clus>
<clus scale="   91.107">  7  8 -1 -1</clus>
<clus scale="  122.837">  2  5  1 -1</clus>
<clus scale="  122.837">  2  5  1 -1</clus>
</clustering>
</event>
<event>
 9    1  0.2333971E-005  0.9497318E+02  0.7546771E-02  0.1299893E+00
         -2   -1    0    0    0  501 -0.00000000000E+00  0.00000000000E+00  0.42398284486E+02  0.42398284486E+02  0.00000000000E+00 0.  1.
          1   -1    0    0  502    0  0.00000000000E+00 -0.00000000000E+00 -0.38834804561E+03  0.38834804561E+03  0.00000000000E+00 0. -1.
        -24    2    1    2    0    0 -0.18686835071E+02 -0.53097463626E+01 -0.22529233889E+02  0.80911914782E+02  0.75244802894E+02 0.  0.
         23    2    1    2    0    0  0.29704540156E+02 -0.15272318284E+02 -0.30582044974E+03  0.32059789811E+03  0.90228938713E+02 0.  0.
         11    1    3    3    0    0 -0.31342533842E+02 -0.20556301629E+02 -0.39767878624E+02  0.54647965512E+02  0.00000000000E+00 0. -1.
        -12    1    3    3    0    0  0.12655698772E+02  0.15246555267E+02  0.17238644736E+02  0.26263949269E+02  0.00000000000E+00 0.  1.
        -13    1    4    4    0    0 -0.19066545585E+02  0.24842073723E+02 -0.13194238114E+03  0.13560772002E+03  0.00000000000E+00 0.  1.
         13    1    4    4    0    0  0.48771085741E+02 -0.40114392007E+02 -0.17387806860E+03  0.18499017809E+03  0.00000000000E+00 0. -1.
         21    1    1    2  502  501 -0.11017705085E+02  0.20582064647E+02 -0.17600077493E+02  0.29236517204E+02  0.00000000000E+00 0.  1.
<scales pt_clust_5="13000.00000" pt_clust_6="13000.00000" pt_clust_7="13000.00000" pt_clust_8="13000.00000" pt_clust_9="23.34548"></scales>
<clustering>
<clus scale="   23.345">  1  9  2 -1</clus>
<clus scale="   75.245">  5  6 -1 -1</clus>
<clus scale="   80.873">  1  5  2 -1</clus>
<clus scale="   90.229">  7  8 -1 -1</clus>
<clus scale="   94.973">  2  5  1 -1</clus>
</clustering>
</event>
<event>
 9    1  0.2333971E-005  0.1769251E+03  0.7546771E-02  0.1171938E+00
          1   -1    0    0  502    0  0.00000000000E+00  0.00000000000E+00  0.55556360799E+03  0.55556360799E+03  0.00000000000E+00 0. -1.
         -2   -1    0    0    0  501 -0.00000000000E+00 -0.00000000000E+00 -0.13011897511E+03  0.13011897511E+03  0.00000000000E+00 0.  1.
        -24    2    1    2    0    0 -0.15729523705E+02  0.13306602847E+03  0.59818164457E+02  0.16829024506E+03  0.82397863657E+02 0.  0.
         23    2    1    2    0    0 -0.81853114235E+00 -0.15788028279E+03  0.41858379158E+03  0.45661353078E+03  0.91414835971E+02 0.  0.
         13    1    3    3    0    0 -0.86129225941E+01  0.20433047092E+02  0.50373685811E+02  0.55038169221E+02  0.00000000000E+00 0. -1.
        -14    1    3    3    0    0 -0.71166011105E+01  0.11263298137E+03  0.94444786460E+01  0.11325207584E+03  0.00000000000E+00 0.  1.
        -11    1    4    4    0    0 -0.40767126331E+02 -0.66163821372E+02  0.23535394868E+03  0.24785296247E+03  0.00000000000E+00 0. -1.
         11    1    4    4    0    0  0.39948595189E+02 -0.91716461417E+02  0.18322984290E+03  0.20876056831E+03  0.00000000000E+00 0.  1.
         21    1    1    2  502  501  0.16548054847E+02  0.24814254324E+02 -0.52957323151E+02  0.60778807262E+02  0.00000000000E+00 0. -1.
<scales pt_clust_5="13000.00000" pt_clust_6="13000.00000" pt_clust_7="13000.00000" pt_clust_8="13000.00000" pt_clust_9="29.82592"></scales>
<clustering>
<clus scale="   29.826">  2  9  1 -1</clus>
<clus scale="   82.398">  5  6 -1 -1</clus>
<clus scale="   91.415">  7  8 -1 -1</clus>
<clus scale="  172.439">  2  5  1 -1</clus>
<clus scale="  176.925">  1  5  2 -1</clus>
</clustering>
</event>
<event>
 9    1  0.2333971E-005  0.1951865E+03  0.7546771E-02  0.1154182E+00
         -2   -1    0    0    0  501 -0.00000000000E+00  0.00000000000E+00  0.33691641901E+03  0.33691641901E+03  0.00000000000E+00 0.  1.
          1   -1    0    0  502    0  0.00000000000E+00 -0.00000000000E+00 -0.12928918812E+03  0.12928918812E+03  0.00000000000E+00 0. -1.
        -24    2    1    2    0    0 -0.23025635219E+02 -0.17435552442E+03  0.13838273764E+03  0.24078323331E+03  0.88863685461E+02 0.  0.
         23    2    1    2    0    0  0.42728821344E+02  0.16237443507E+03  0.62681800568E+02  0.20144674076E+03  0.91981367152E+02 0.  0.
         11    1    3    3    0    0 -0.32341238763E+02 -0.85266120963E+02  0.21801813584E+02  0.93763458684E+02  0.00000000000E+00 0. -1.
        -12    1    3    3    0    0  0.93156035439E+01 -0.89089403455E+02  0.11658092405E+03  0.14701977462E+03  0.00000000000E+00 0.  1.
        -11    1    4    4    0    0 -0.29306438036E+02  0.48716729799E+02  0.20288536540E+02  0.60363994132E+02  0.00000000000E+00 0. -1.
         11    1    4    4    0    0  0.72035259380E+02  0.11365770527E+03  0.42393264027E+02  0.14108274663E+03  0.00000000000E+00 0.  1.
         21    1    1    2  502  501 -0.19703186125E+02  0.11981089346E+02  0.65626926881E+01  0.23975633062E+02  0.00000000000E+00 0. -1.
<scales pt_clust_5="13000.00000" pt_clust_6="13000.00000" pt_clust_7="13000.00000" pt_clust_8="13000.00000" pt_clust_9="23.05997"></scales>
<clustering>
<clus scale="   23.060">  2  9  1 -1</clus>
<clus scale="   88.864">  5  6 -1 -1</clus>
<clus scale="   91.981">  7  8 -1 -1</clus>
<clus scale="  193.737">  1  5  2 -1</clus>
<clus scale="   23.060">  2  5  1 -1</clus>
</clustering>
</event>
<event>
 9    1  0.2333971E-005  0.1220690E+03  0.7546771E-02  0.1255660E+00
         -2   -1    0    0    0  501 -0.00000000000E+00  0.00000000000E+00  0.15067157497E+03  0.15067157497E+03  0.00000000000E+00 0.  1.
          1   -1    0    0  502    0  0.00000000000E+00 -0.00000000000E+00 -0.29144523179E+03  0.29144523179E+03  0.00000000000E+00 0. -1.
        -24    2    1    2    0    0  0.82028390524E+02 -0.51638880406E+02 -0.61993177743E+01  0.12314420274E+03  0.75702260906E+02 0.  0.
         23    2    1    2    0    0 -0.85044525799E+00  0.17856313235E+01 -0.18934924238E+03  0.20908404557E+03  0.88651513164E+02 0.  0.
         11    1    3    3    0    0  0.94777514710E+02 -0.54951948217E+02 -0.80073493555E+01  0.10984812948E+03  0.00000000000E+00 0. -1.
        -12    1    3    3    0    0 -0.12749124187E+02  0.33130678109E+01  0.18080315811E+01  0.13296073257E+02  0.00000000000E+00 0.  1.
        -13    1    4    4    0    0  0.37557185777E+02  0.23668712853E+02 -0.90543235850E+02  0.10084060556E+03  0.00000000000E+00 0. -1.
         13    1    4    4    0    0 -0.38407631035E+02 -0.21883081530E+02 -0.98806006532E+02  0.10824344001E+03  0.00000000000E+00 0.  1.
         21    1    1    2  502  501 -0.81177945266E+02  0.49853249082E+02  0.54774903331E+02  0.10988855844E+03  0.00000000000E+00 0.  1.
<scales pt_clust_5="13000.00000" pt_clust_6="13000.00000" pt_clust_7="13000.00000" pt_clust_8="13000.00000" pt_clust_9="95.76015"></scales>
<clustering>
<clus scale="   75.702">  5  6 -1 -1</clus>
<clus scale="   88.652">  7  8 -1 -1</clus>
<clus scale="   88.674">  2  7  1 -1</clus>
<clus scale="   95.760">  1  9  2 -1</clus>
<clus scale="   88.674">  2  5  1 -1</clus>
</clustering>
</event>
<event>
 9    1  0.2333971E-005  0.9914184E+02  0.7546771E-02  0.1287968E+00
          1   -1    0    0  502    0  0.00000000000E+00  0.00000000000E+00  0.26636626978E+03  0.26636626978E+03  0.00000000000E+00 0. -1.
         -2   -1    0    0    0  501 -0.00000000000E+00 -0.00000000000E+00 -0.99709958947E+02  0.99709958947E+02  0.00000000000E+00 0.  1.
         23    2    1    2    0    0  0.40909671515E+02  0.35970790227E+02 -0.25883524393E+02  0.10957459277E+03  0.91482979686E+02 0.  0.
        -24    2    1    2    0    0 -0.86033876061E+01 -0.36145587873E+02  0.20394096891E+03  0.22224214993E+03  0.80119489528E+02 0.  0.
         13    1    4    4    0    0  0.28827241641E+02 -0.40876123684E+02  0.10360291419E+03  0.11504534401E+03  0.00000000000E+00 0. -1.
        -14    1    4    4    0    0 -0.37430629247E+02  0.47305358110E+01  0.10033805472E+03  0.10719680592E+03  0.00000000000E+00 0.  1.
        -11    1    3    3    0    0  0.16862037950E+02  0.20025331972E+02 -0.59660372919E+02  0.65151380194E+02  0.00000000000E+00 0.  1.
         11    1    3    3    0    0  0.24047633565E+02  0.15945458254E+02  0.33776848526E+02  0.44423212574E+02  0.00000000000E+00 0. -1.
         21    1    1    2  502  501 -0.32306283909E+02  0.17479764615E+00 -0.11401133682E+02  0.34259486036E+02  0.00000000000E+00 0.  1.
<scales pt_clust_5="13000.00000" pt_clust_6="13000.00000" pt_clust_7="13000.00000" pt_clust_8="13000.00000" pt_clust_9="32.30676"></scales>
<clustering>
<clus scale="   32.307">  2  9  1 -1</clus>
<clus scale="   80.119">  5  6 -1 -1</clus>
<clus scale="   88.764">  1  5  2 -1</clus>
<clus scale="   91.483">  7  8 -1 -1</clus>
<clus scale="   88.764">  1  5  2 -1</clus>
</clustering>
</event>
<event>
 9    1  0.2333971E-005  0.1127888E+03  0.7546771E-02  0.1259389E+00
         -2   -1    0    0    0  501 -0.00000000000E+00  0.00000000000E+00  0.36599749895E+03  0.36599749895E+03  0.00000000000E+00 0.  1.
          1   -1    0    0  502    0  0.00000000000E+00 -0.00000000000E+00 -0.56111041754E+03  0.56111041754E+03  0.00000000000E+00 0. -1.
        -24    2    1    2    0    0  0.20995467337E+02 -0.36376117761E+02  0.12000314145E+03  0.15009849443E+03  0.79779524194E+02 0.  0.
         23    2    1    2    0    0 -0.69390833291E+02 -0.47875131622E+01 -0.53556764762E+03  0.54758523322E+03  0.90437129759E+02 0.  0.
         11    1    3    3    0    0  0.41971776870E+02 -0.86621551704E+01  0.26605615141E+02  0.50443252699E+02  0.00000000000E+00 0. -1.
        -12    1    3    3    0    0 -0.20976309533E+02 -0.27713962591E+02  0.93397526312E+02  0.99655241735E+02  0.00000000000E+00 0.  1.
        -11    1    4    4    0    0 -0.71428665060E+02  0.28989596221E+02 -0.42574524643E+03  0.43266784689E+03  0.00000000000E+00 0. -1.
         11    1    4    4    0    0  0.20378317689E+01 -0.33777109383E+02 -0.10982240119E+03  0.11491738633E+03  0.00000000000E+00 0.  1.
         21    1    1    2  502  501  0.48395365954E+02  0.41163630923E+02  0.22045158757E+03  0.22942418883E+03  0.00000000000E+00 0.  1.
<scales pt_clust_5="13000.00000" pt_clust_6="13000.00000" pt_clust_7="13000.00000" pt_clust_8="13000.00000" pt_clust_9="63.53390"></scales>
<clustering>
<clus scale="   63.534">  1  9  2 -1</clus>
<clus scale="   79.780">  5  6 -1 -1</clus>
<clus scale="   90.437">  7  8 -1 -1</clus>
<clus scale="  104.438">  1  5  2 -1</clus>
<clus scale="  112.789">  2  5  1 -1</clus>
</clustering>
</event>
<event>
 9    1  0.2333971E-005  0.1512547E+03  0.7546771E-02  0.1200931E+00
          1   -1    0    0  502    0  0.00000000000E+00  0.00000000000E+00  0.59113378466E+03  0.59113378466E+03  0.00000000000E+00 0. -1.
         -2   -1    0    0    0  501 -0.00000000000E+00 -0.00000000000E+00 -0.56470710365E+02  0.56470710365E+02  0.00000000000E+00 0.  1.
        -24    2    1    2    0    0 -0.21015910177E+02  0.10999097627E+03  0.10540163378E+03  0.17373108557E+03  0.80828846028E+02 0.  0.
         23    2    1    2    0    0  0.20151593784E+02 -0.14109785286E+03  0.35823985662E+03  0.39633341852E+03  0.91813359338E+02 0.  0.
         13    1    3    3    0    0  0.11440307272E+02  0.72351910760E+02  0.99683322877E+02  0.12370304960E+03  0.00000000000E+00 0. -1.
        -14    1    3    3    0    0 -0.32456217449E+02  0.37639065507E+02  0.57183108989E+01  0.50028035968E+02  0.00000000000E+00 0.  1.
        -13    1    4    4    0    0 -0.35213818968E+02 -0.67620245670E+02  0.18698534785E+03  0.20193075789E+03  0.00000000000E+00 0.  1.
         13    1    4    4    0    0  0.55365412752E+02 -0.73477607191E+02  0.17125450877E+03  0.19440266063E+03  0.00000000000E+00 0. -1.
         21    1    1    2  502  501  0.86431639268E+00  0.31106876595E+02  0.71021583905E+02  0.77539990938E+02  0.00000000000E+00 0. -1.
<scales pt_clust_5="13000.00000" pt_clust_6="13000.00000" pt_clust_7="13000.00000" pt_clust_8="13000.00000" pt_clust_9="31.11888"></scales>
<clustering>
<clus scale="   31.119">  1  9  2 -1</clus>
<clus scale="   80.829">  5  6 -1 -1</clus>
<clus scale="   91.813">  7  8 -1 -1</clus>
<clus scale="  144.850">  2  5  1 -1</clus>
<clus scale="   31.119">  1  5  2 -1</clus>
</clustering>
</event>
<event>
 9    1  0.2333971E-005  0.1174235E+03  0.7546771E-02  0.1259092E+00
         -2   -1    0    0    0  501 -0.00000000000E+00  0.00000000000E+00  0.14657093587E+03  0.14657093587E+03  0.00000000000E+00 0.  1.
          1   -1    0    0  502    0  0.00000000000E+00 -0.00000000000E+00 -0.18872950124E+03  0.18872950124E+03  0.00000000000E+00 0. -1.
         23    2    1    2    0    0  0.19921413020E+02 -0.45141110177E+02  0.19309038448E+02  0.10453212056E+03  0.90108505364E+02 0.  0.
        -24    2    1    2    0    0  0.96326340815E+01 -0.48383490977E+02 -0.89105665698E+02  0.12886564148E+03  0.78947983225E+02 0.  0.
         13    1    4    4    0    0  0.37903205772E+02 -0.51424423494E+02 -0.53695908835E+02  0.83452830780E+02  0.00000000000E+00 0. -1.
        -14    1    4    4    0    0 -0.28270571691E+02  0.30409325172E+01 -0.35409756863E+02  0.45412810697E+02  0.00000000000E+00 0.  1.
        -13    1    3    3    0    0  0.39930998139E+02 -0.60340630387E+02 -0.78038647135E+00  0.72360799408E+02  0.00000000000E+00 0.  1.
         13    1    3    3    0    0 -0.20009585119E+02  0.15199520210E+02  0.20089424919E+02  0.32171321155E+02  0.00000000000E+00 0. -1.
         21    1    1    2  502  501 -0.29554047102E+02  0.93524601154E+02  0.27638061884E+02  0.10190267507E+03  0.00000000000E+00 0. -1.
<scales pt_clust_5="13000.00000" pt_clust_6="13000.00000" pt_clust_7="13000.00000" pt_clust_8="13000.00000" pt_clust_9="75.29103"></scales>
<clustering>
<clus scale="   78.948">  5  6 -1 -1</clus>
<clus scale="   90.109">  7  8 -1 -1</clus>
<clus scale="   93.094">  2  5  1 -1</clus>
<clus scale="   75.291">  2  9  1 -1</clus>
<clus scale="   93.094">  2  5  1 -1</clus>
</clustering>
</event>
<event>
 9    1  0.2333971E-005  0.1790257E+03  0.7546771E-02  0.1171472E+00
         -2   -1    0    0    0  501 -0.00000000000E+00  0.00000000000E+00  0.11534105921E+03  0.11534105921E+03  0.00000000000E+00 0.  1.
          1   -1    0    0  502    0  0.00000000000E+00 -0.00000000000E+00 -0.89360888912E+03  0.89360888912E+03  0.00000000000E+00 0. -1.
         23    2    1    2    0    0 -0.15925097883E+02 -0.10297205657E+03 -0.52793035473E+02  0.15464839353E+03  0.10135170373E+03 0.  0.
        -24    2    1    2    0    0  0.85642537162E+02  0.13274583048E+03 -0.75302468893E+03  0.77364180252E+03  0.80742533918E+02 0.  0.
         13    1    4    4    0    0  0.93002308805E+02  0.10410519908E+03 -0.69059376087E+03  0.70456161155E+03  0.00000000000E+00 0. -1.
        -14    1    4    4    0    0 -0.73597716425E+01  0.28640631402E+02 -0.62430928068E+02  0.69080190975E+02  0.00000000000E+00 0.  1.
        -13    1    3    3    0    0 -0.36533165204E+02 -0.10082909137E+03 -0.10754648899E+02  0.10778144692E+03  0.00000000000E+00 0.  1.
         13    1    3    3    0    0  0.20608067321E+02 -0.21429651967E+01 -0.42038386574E+02  0.46866946607E+02  0.00000000000E+00 0. -1.
         21    1    1    2  502  501 -0.69717439279E+02 -0.29773773911E+02  0.27549894496E+02  0.80659752288E+02  0.00000000000E+00 0.  1.
<scales pt_clust_5="13000.00000" pt_clust_6="13000.00000" pt_clust_7="13000.00000" pt_clust_8="13000.00000" pt_clust_9="75.80896"></scales>
<clustering>
<clus scale="   75.809">  1  9  2 -1</clus>
<clus scale="   80.743">  5  6 -1 -1</clus>
<clus scale="  101.352">  7  8 -1 -1</clus>
<clus scale="  168.218">  2  5  1 -1</clus>
<clus scale="  168.218">  2  5  1 -1</clus>
</clustering>
</event>
<event>
 9    1  0.2333971E-005  0.1009737E+03  0.7546771E-02  0.1283590E+00
         -2   -1    0    0    0  501 -0.00000000000E+00  0.00000000000E+00  0.14014954454E+03  0.14014954454E+03  0.00000000000E+00 0.  1.
          1   -1    0    0  502    0  0.00000000000E+00 -0.00000000000E+00 -0.14136339814E+03  0.14136339814E+03  0.00000000000E+00 0. -1.
        -24    2    1    2    0    0 -0.32210923863E+02  0.38810078257E+02  0.69412223803E+01  0.95926745906E+02  0.81301870960E+02 0.  0.
         23    2    1    2    0    0  0.28003812269E+01 -0.39662880532E+02 -0.66430626282E+02  0.12030413911E+03  0.92081874171E+02 0.  0.
         13    1    3    3    0    0  0.33317782633E+01  0.25660524970E+02 -0.32291174455E+02  0.41379744270E+02  0.00000000000E+00 0. -1.
        -14    1    3    3    0    0 -0.35542702126E+02  0.13149553287E+02  0.39232396835E+02  0.54547001636E+02  0.00000000000E+00 0.  1.
        -11    1    4    4    0    0 -0.39314734238E+02 -0.14948817642E+02 -0.56560659534E+02  0.70485627500E+02  0.00000000000E+00 0.  1.
         11    1    4    4    0    0  0.42115115465E+02 -0.24714062890E+02 -0.98699667483E+01  0.49818511607E+02  0.00000000000E+00 0. -1.
         21    1    1    2  502  501  0.29410542636E+02  0.85280227484E+00  0.58275550305E+02  0.65282057666E+02  0.00000000000E+00 0.  1.
<scales pt_clust_5="13000.00000" pt_clust_6="13000.00000" pt_clust_7="13000.00000" pt_clust_8="13000.00000" pt_clust_9="29.42290"></scales>
<clustering>
<clus scale="   29.423">  1  9  2 -1</clus>
<clus scale="   81.302">  5  6 -1 -1</clus>
<clus scale="   91.250">  1  5  2 -1</clus>
<clus scale="   92.082">  7  8 -1 -1</clus>
<clus scale="  100.974">  2  5  1 -1</clus>
</clustering>
</event>
<event>
 9    1  0.2333971E-005  0.9630553E+02  0.7546771E-02  0.1297673E+00
         -2   -1    0    0    0  501 -0.00000000000E+00  0.00000000000E+00  0.39680089059E+03  0.39680089059E+03  0.00000000000E+00 0.  1.
          1   -1    0    0  502    0  0.00000000000E+00 -0.00000000000E+00 -0.38276125822E+02  0.38276125822E+02  0.00000000000E+00 0. -1.
        -24    2    1    2    0    0 -0.11538059031E+02 -0.79323858201E+00  0.27919383871E+03  0.29077692895E+03  0.80425535740E+02 0.  0.
         23    2    1    2    0    0 -0.10737157712E+02  0.65790993149E+01  0.57591237508E+02  0.11264135212E+03  0.95983084272E+02 0.  0.
         13    1    3    3    0    0 -0.36791402938E+02 -0.98342494397E+01  0.68432094091E+02  0.78315204743E+02  0.00000000000E+00 0. -1.
        -14    1    3    3    0    0  0.25253343907E+02  0.90410108577E+01  0.21076174462E+03  0.21246172420E+03  0.00000000000E+00 0.  1.
        -13    1    4    4    0    0 -0.33563298709E+02 -0.32584195437E+02  0.11876609510E+02  0.48262601111E+02  0.00000000000E+00 0. -1.
         13    1    4    4    0    0  0.22826140997E+02  0.39163294752E+02  0.45714627998E+02  0.64378751010E+02  0.00000000000E+00 0.  1.
         21    1    1    2  502  501  0.22275216743E+02 -0.57858607329E+01  0.21739688544E+02  0.31658735341E+02  0.00000000000E+00 0. -1.
<scales pt_clust_5="13000.00000" pt_clust_6="13000.00000" pt_clust_7="13000.00000" pt_clust_8="13000.00000" pt_clust_9="23.01438"></scales>
<clustering>
<clus scale="   23.014">  2  9  1 -1</clus>
<clus scale="   80.426">  5  6 -1 -1</clus>
<clus scale="   80.810">  1  5  2 -1</clus>
<clus scale="   95.983">  7  8 -1 -1</clus>
<clus scale="   23.014">  2  5  1 -1</clus>
</clustering>
</event>
<event>
 9    1  0.2333971E-005  0.1354495E+03  0.7546771E-02  0.1221144E+00
         -2   -1    0    0    0  501 -0.00000000000E+00  0.00000000000E+00  0.12800327321E+03  0.12800327321E+03  0.00000000000E+00 0.  1.
          1   -1    0    0  502    0  0.00000000000E+00 -0.00000000000E+00 -0.24629524468E+03  0.24629524468E+03  0.00000000000E+00 0. -1.
         23    2    1    2    0    0 -0.97787159517E+02  0.58714886425E+02 -0.82330243338E+02  0.16773389197E+03  0.91359854930E+02 0.  0.
        -24    2    1    2    0    0  0.84245266978E+02 -0.31586834608E+02 -0.84214777347E+02  0.14957628669E+03  0.84769945662E+02 0.  0.
         11    1    4    4    0    0  0.55183521179E+02  0.24303770348E+02 -0.46592173959E+02  0.76201869643E+02  0.00000000000E+00 0. -1.
        -12    1    4    4    0    0  0.29061745799E+02 -0.55890604956E+02 -0.37622603387E+02  0.73374417047E+02  0.00000000000E+00 0.  1.
        -11    1    3    3    0    0 -0.10823486787E+03  0.32923342099E+02 -0.82311122283E+02  0.13990659001E+03  0.00000000000E+00 0.  1.
         11    1    3    3    0    0  0.10447708352E+02  0.25791544326E+02 -0.19121054938E-01  0.27827301956E+02  0.00000000000E+00 0. -1.
         21    1    1    2  502  501  0.13541892539E+02 -0.27128051817E+02  0.48253049220E+02  0.56988339228E+02  0.00000000000E+00 0.  1.
<scales pt_clust_5="13000.00000" pt_clust_6="13000.00000" pt_clust_7="13000.00000" pt_clust_8="13000.00000" pt_clust_9="30.32019"></scales>
<clustering>
<clus scale="   30.320">  1  9  2 -1</clus>
<clus scale="   84.770">  5  6 -1 -1</clus>
<clus scale="   91.360">  7  8 -1 -1</clus>
<clus scale="  131.095">  2  5  1 -1</clus>
<clus scale="  131.095">  2  5  1 -1</clus>
</clustering>
</event>
<event>
 9    1  0.2333971E-005  0.1232274E+03  0.7546771E-02  0.1238881E+00
         -2   -1    0    0    0  501 -0.00000000000E+00  0.00000000000E+00  0.46131071898E+02  0.46131071898E+02  0.00000000000E+00 0.  1.
          1   -1    0    0  502    0  0.00000000000E+00 -0.00000000000E+00 -0.54411995806E+03  0.54411995806E+03  0.00000000000E+00 0. -1.
        -24    2    1    2    0    0  0.55879497867E+02 -0.15697732356E+02 -0.66044053015E+02  0.12448054065E+03  0.88117256991E+02 0.  0.
         23    2    1    2    0    0 -0.90848304033E+02  0.10507671264E+02 -0.39005052701E+03  0.41095363947E+03  0.91540453759E+02 0.  0.
         13    1    3    3    0    0 -0.11527291641E+02 -0.32065266953E+02 -0.10616663434E+02  0.35689961332E+02  0.00000000000E+00 0. -1.
        -14    1    3    3    0    0  0.67406789508E+02  0.16367534597E+02 -0.55427389581E+02  0.88790579322E+02  0.00000000000E+00 0.  1.
        -13    1    4    4    0    0 -0.17062205677E+02  0.29383811375E+02 -0.38952121692E+02  0.51689409145E+02  0.00000000000E+00 0.  1.
         13    1    4    4    0    0 -0.73786098356E+02 -0.18876140111E+02 -0.35109840532E+03  0.35926423033E+03  0.00000000000E+00 0. -1.
         21    1    1    2  502  501  0.34968806166E+02  0.51900610923E+01 -0.41894306135E+02  0.54816849831E+02  0.00000000000E+00 0.  1.
<scales pt_clust_5="13000.00000" pt_clust_6="13000.00000" pt_clust_7="13000.00000" pt_clust_8="13000.00000" pt_clust_9="35.35186"></scales>
<clustering>
<clus scale="   35.352">  1  9  2 -1</clus>
<clus scale="   88.117">  5  6 -1 -1</clus>
<clus scale="   91.540">  7  8 -1 -1</clus>
<clus scale="  120.706">  1  5  2 -1</clus>
<clus scale="  123.227">  2  5  1 -1</clus>
</clustering>
</event>
<event>
 9    1  0.2333971E-005  0.1647483E+03  0.7546771E-02  0.1211223E+00
         -2   -1    0    0    0  501 -0.00000000000E+00  0.00000000000E+00  0.16121822954E+03  0.16121822954E+03  0.00000000000E+00 0.  1.
          1   -1    0    0  502    0  0.00000000000E+00 -0.00000000000E+00 -0.53901660624E+03  0.53901660624E+03  0.00000000000E+00 0. -1.
         23    2    1    2    0    0  0.14534909978E+03 -0.75066125834E+02 -0.29245059992E+03  0.34688385272E+03  0.89664763592E+02 0.  0.
        -24    2    1    2    0    0 -0.21526649135E+02  0.20561383083E+02 -0.17104327606E+03  0.19320578375E+03  0.84773259293E+02 0.  0.
         13    1    4    4    0    0 -0.20742853884E+02 -0.16964706829E+02 -0.14515917141E+03  0.14761182985E+03  0.00000000000E+00 0. -1.
        -14    1    4    4    0    0 -0.78379525121E+00  0.37526089911E+02 -0.25884104645E+02  0.45593953901E+02  0.00000000000E+00 0.  1.
        -13    1    3    3    0    0  0.32335150814E+02 -0.25151261941E+02 -0.16247302899E+03  0.16755785003E+03  0.00000000000E+00 0.  1.
         13    1    3    3    0    0  0.11301394896E+03 -0.49914863892E+02 -0.12997757093E+03  0.17932600269E+03  0.00000000000E+00 0. -1.
         21    1    1    2  502  501 -0.12382245064E+03  0.54504742751E+02  0.85695499281E+02  0.16014519931E+03  0.00000000000E+00 0.  1.
<scales pt_clust_5="13000.00000" pt_clust_6="13000.00000" pt_clust_7="13000.00000" pt_clust_8="13000.00000" pt_clust_9="138.21080"></scales>
<clustering>
<clus scale="   84.773">  5  6 -1 -1</clus>
<clus scale="   89.665">  7  8 -1 -1</clus>
<clus scale="   89.848">  2  5  1 -1</clus>
<clus scale="  138.211">  1  9  2 -1</clus>
<clus scale="   89.848">  2  5  1 -1</clus>
</clustering>
</event>
<event>
 9    1  0.2333971E-005  0.1131684E+03  0.7546771E-02  0.1255862E+00
         -2   -1    0    0    0  501 -0.00000000000E+00  0.00000000000E+00  0.29270314209E+03  0.29270314209E+03  0.00000000000E+00 0.  1.
          1   -1    0    0  502    0  0.00000000000E+00 -0.00000000000E+00 -0.47955607346E+03  0.47955607346E+03  0.00000000000E+00 0. -1.
        -24    2    1    2    0    0  0.21377648822E+02  0.48834501536E+02  0.23558499208E+03  0.25473216087E+03  0.80909658762E+02 0.  0.
         23    2    1    2    0    0 -0.48716627075E+02 -0.58919973438E+02 -0.45780771774E+03  0.47169956485E+03  0.84069614237E+02 0.  0.
         13    1    3    3    0    0  0.49353089826E+02  0.28429808412E+02  0.18391826942E+03  0.19253548065E+03  0.00000000000E+00 0. -1.
        -14    1    3    3    0    0 -0.27975441003E+02  0.20404693124E+02  0.51666722657E+02  0.62196680225E+02  0.00000000000E+00 0.  1.
        -11    1    4    4    0    0 -0.68771767076E+02 -0.62442578229E+02 -0.35966159799E+03  0.37146345257E+03  0.00000000000E+00 0. -1.
         11    1    4    4    0    0  0.20055140000E+02  0.35226047913E+01 -0.98146119745E+02  0.10023611228E+03  0.00000000000E+00 0.  1.
         21    1    1    2  502  501  0.27338978253E+02  0.10085471902E+02  0.35369794293E+02  0.45827489825E+02  0.00000000000E+00 0. -1.
<scales pt_clust_5="13000.00000" pt_clust_6="13000.00000" pt_clust_7="13000.00000" pt_clust_8="13000.00000" pt_clust_9="29.13995"></scales>
<clustering>
<clus scale="   29.140">  1  9  2 -1</clus>
<clus scale="   80.910">  5  6 -1 -1</clus>
<clus scale="   84.070">  7  8 -1 -1</clus>
<clus scale="  110.841">  1  5  2 -1</clus>
<clus scale="  113.168">  2  5  1 -1</clus>
</clustering>
</event>
<event>
 9    1  0.2333971E-005  0.1183039E+03  0.7546771E-02  0.1250310E+00
          3   -1    0    0  502    0  0.00000000000E+00  0.00000000000E+00  0.94954938864E+02  0.94954938864E+02  0.00000000000E+00 0. -1.
         -4   -1    0    0    0  501 -0.00000000000E+00 -0.00000000000E+00 -0.26417014423E+03  0.26417014423E+03  0.00000000000E+00 0.  1.
         23    2    1    2    0    0  0.11284427027E+03  0.26146230574E+02 -0.50310683219E+02  0.15631659863E+03  0.92120895866E+02 0.  0.
        -24    2    1    2    0    0 -0.38938435875E+02 -0.98506104690E+01 -0.61413248752E+02  0.10776709290E+03  0.78923525484E+02 0.  0.
         11    1    4    4    0    0 -0.41553963276E+02 -0.38078030729E+02 -0.25098439320E+02  0.61697649424E+02  0.00000000000E+00 0. -1.
        -12    1    4    4    0    0  0.26155274013E+01  0.28227420260E+02 -0.36314809432E+02  0.46069443476E+02  0.00000000000E+00 0.  1.
        -13    1    3    3    0    0  0.97042497812E+02  0.11303833945E+02  0.40602049258E+01  0.97782965324E+02  0.00000000000E+00 0. -1.
         13    1    3    3    0    0  0.15801772462E+02  0.14842396628E+02 -0.54370888145E+02  0.58533633309E+02  0.00000000000E+00 0.  1.
         21    1    1    2  502  501 -0.73905834400E+02 -0.16295620105E+02 -0.57491273390E+02  0.95041391556E+02  0.00000000000E+00 0.  1.
<scales pt_clust_5="13000.00000" pt_clust_6="13000.00000" pt_clust_7="13000.00000" pt_clust_8="13000.00000" pt_clust_9="75.68104"></scales>
<clustering>
<clus scale="   75.681">  2  9  1 -1</clus>
<clus scale="   78.924">  5  6 -1 -1</clus>
<clus scale="   92.121">  7  8 -1 -1</clus>
<clus scale="  108.344">  1  5  2 -1</clus>
<clus scale="  108.344">  1  5  2 -1</clus>
</clustering>
</event>
<event>
 9    1  0.2333971E-005  0.9434515E+02  0.7546771E-02  0.1298933E+00
         -2   -1    0    0    0  501 -0.00000000000E+00  0.00000000000E+00  0.31802626081E+02  0.31802626081E+02  0.00000000000E+00 0.  1.
          1   -1    0    0  502    0  0.00000000000E+00 -0.00000000000E+00 -0.51386788171E+03  0.51386788171E+03  0.00000000000E+00 0. -1.
        -24    2    1    2    0    0  0.21982615960E+02 -0.31523295234E+02 -0.11139247981E+03  0.14243387648E+03  0.80013567993E+02 0.  0.
         23    2    1    2    0    0 -0.18872553631E+02  0.10404711480E+02 -0.37029949114E+03  0.38188700815E+03  0.90838001733E+02 0.  0.
         13    1    3    3    0    0 -0.99762008842E+01  0.23055770856E+02 -0.37943956754E+02  0.45506450180E+02  0.00000000000E+00 0. -1.
        -14    1    3    3    0    0  0.31958816844E+02 -0.54579066090E+02 -0.73448523057E+02  0.96927426297E+02  0.00000000000E+00 0.  1.
        -13    1    4    4    0    0 -0.54471081305E+02  0.57964193613E+01 -0.26604735259E+03  0.27162822202E+03  0.00000000000E+00 0. -1.
         13    1    4    4    0    0  0.35598527674E+02  0.46082921184E+01 -0.10425213855E+03  0.11025878614E+03  0.00000000000E+00 0.  1.
         21    1    1    2  502  501 -0.31100623291E+01  0.21118583754E+02 -0.37328467782E+00  0.21349623156E+02  0.00000000000E+00 0.  1.
<scales pt_clust_5="13000.00000" pt_clust_6="13000.00000" pt_clust_7="13000.00000" pt_clust_8="13000.00000" pt_clust_9="21.34636"></scales>
<clustering>
<clus scale="   21.346">  1  9  2 -1</clus>
<clus scale="   80.014">  5  6 -1 -1</clus>
<clus scale="   83.974">  1  5  2 -1</clus>
<clus scale="   90.838">  7  8 -1 -1</clus>
<clus scale="   94.345">  2  5  1 -1</clus>
</clustering>
</event>
<event>
 9    1  0.2333971E-005  0.9392306E+02  0.7546771E-02  0.1296134E+00
         -4   -1    0    0    0  501 -0.00000000000E+00  0.00000000000E+00  0.61948871586E+03  0.61948871586E+03  0.00000000000E+00 0.  1.
          3   -1    0    0  502    0  0.00000000000E+00 -0.00000000000E+00 -0.30011713285E+02  0.30011713285E+02  0.00000000000E+00 0. -1.
        -24    2    1    2    0    0 -0.12674029146E+02 -0.40973423777E+02  0.40367557421E+03  0.41481299822E+03  0.85301827660E+02 0.  0.
         23    2    1    2    0    0  0.27753771090E+02  0.48254824614E+01  0.86043887639E+02  0.12751635643E+03  0.89795954620E+02 0.  0.
         11    1    3    3    0    0  0.19502125017E+02 -0.19006235913E+02  0.36308675814E+02  0.45386009112E+02  0.00000000000E+00 0. -1.
        -12    1    3    3    0    0 -0.32176154162E+02 -0.21967187863E+02  0.36736689840E+03  0.36942698910E+03  0.00000000000E+00 0.  1.
        -11    1    4    4    0    0  0.61014434303E+01  0.25062983444E+02 -0.94942741555E+01  0.27486760318E+02  0.00000000000E+00 0. -1.
         11    1    4    4    0    0  0.21652327659E+02 -0.20237500982E+02  0.95538161794E+02  0.10002959611E+03  0.00000000000E+00 0.  1.
         21    1    1    2  502  501 -0.15079741944E+02  0.36147941315E+02  0.99757540720E+02  0.10717107450E+03  0.00000000000E+00 0.  1.
<scales pt_clust_5="13000.00000" pt_clust_6="13000.00000" pt_clust_7="13000.00000" pt_clust_8="13000.00000" pt_clust_9="39.16723"></scales>
<clustering>
<clus scale="   39.167">  1  9  2 -1</clus>
<clus scale="   85.302">  5  6 -1 -1</clus>
<clus scale="   89.636">  1  5  2 -1</clus>
<clus scale="   89.796">  7  8 -1 -1</clus>
<clus scale="   93.923">  2  5  1 -1</clus>
</clustering>
</event>
<event>
 9    1  0.2333971E-005  0.1549334E+03  0.7546771E-02  0.1196098E+00
         -2   -1    0    0    0  501 -0.00000000000E+00  0.00000000000E+00  0.10034137802E+03  0.10034137802E+03  0.00000000000E+00 0.  1.
          1   -1    0    0  502    0  0.00000000000E+00 -0.00000000000E+00 -0.78289161307E+03  0.78289161307E+03  0.00000000000E+00 0. -1.
        -24    2    1    2    0    0 -0.13751560546E+03 -0.53403271131E+02 -0.27723286174E+02  0.17013340564E+03  0.80089599855E+02 0.  0.
         23    2    1    2    0    0  0.12244904450E+03  0.21033600111E+02 -0.65955106120E+03  0.67708411520E+03  0.89437776588E+02 0.  0.
         11    1    3    3    0    0 -0.74753433356E+01 -0.31794867424E+02  0.78553833477E+01  0.33593174903E+02  0.00000000000E+00 0. -1.
        -12    1    3    3    0    0 -0.13004026212E+03 -0.21608403707E+02 -0.35578669522E+02  0.13654023073E+03  0.00000000000E+00 0.  1.
        -11    1    4    4    0    0  0.10795241401E+03  0.90907673849E+00 -0.62665389047E+03  0.63588493342E+03  0.00000000000E+00 0. -1.
         11    1    4    4    0    0  0.14496630489E+02  0.20124523373E+02 -0.32897170737E+02  0.41199181776E+02  0.00000000000E+00 0.  1.
         21    1    1    2  502  501  0.15066560955E+02  0.32369671020E+02  0.47241123278E+01  0.36015470262E+02  0.00000000000E+00 0. -1.
<scales pt_clust_5="13000.00000" pt_clust_6="13000.00000" pt_clust_7="13000.00000" pt_clust_8="13000.00000" pt_clust_9="35.70430"></scales>
<clustering>
<clus scale="   35.704">  1  9  2 -1</clus>
<clus scale="   80.090">  5  6 -1 -1</clus>
<clus scale="   89.438">  7  8 -1 -1</clus>
<clus scale="  149.732">  1  5  2 -1</clus>
<clus scale="  154.933">  2  5  1 -1</clus>
</clustering>
</event>
<event>
 9    1  0.2333971E-005  0.1012532E+03  0.7546771E-02  0.1284203E+00
         -2   -1    0    0    0  501 -0.00000000000E+00  0.00000000000E+00  0.38710203134E+03  0.38710203134E+03  0.00000000000E+00 0.  1.
          1   -1    0    0  502    0  0.00000000000E+00 -0.00000000000E+00 -0.14921690077E+03  0.14921690077E+03  0.00000000000E+00 0. -1.
        -24    2    1    2    0    0 -0.16508098120E+02 -0.43544267887E+00  0.31160375915E+03  0.32211216368E+03  0.79916433608E+02 0.  0.
         23    2    1    2    0    0  0.37927294234E+02 -0.17257024326E+02 -0.12174179691E+03  0.15872677161E+03  0.92934591903E+02 0.  0.
         11    1    3    3    0    0 -0.97725852955E+01  0.38392852275E+02  0.11601426759E+03  0.12259210747E+03  0.00000000000E+00 0. -1.
        -12    1    3    3    0    0 -0.67355128248E+01 -0.38828294954E+02  0.19558949156E+03  0.19952005622E+03  0.00000000000E+00 0.  1.
        -11    1    4    4    0    0  0.12692401776E+02 -0.33555765424E+02 -0.27273329673E+01  0.35979505294E+02  0.00000000000E+00 0.  1.
         11    1    4    4    0    0  0.25234892458E+02  0.16298741098E+02 -0.11901446395E+03  0.12274726631E+03  0.00000000000E+00 0. -1.
         21    1    1    2  502  501 -0.21419196113E+02  0.17692467005E+02  0.48023168333E+02  0.55479996825E+02  0.00000000000E+00 0.  1.
<scales pt_clust_5="13000.00000" pt_clust_6="13000.00000" pt_clust_7="13000.00000" pt_clust_8="13000.00000" pt_clust_9="27.78138"></scales>
<clustering>
<clus scale="   27.781">  1  9  2 -1</clus>
<clus scale="   79.916">  5  6 -1 -1</clus>
<clus scale="   89.454">  1  5  2 -1</clus>
<clus scale="   92.935">  7  8 -1 -1</clus>
<clus scale="  101.253">  2  5  1 -1</clus>
</clustering>
</event>
<event>
 9    1  0.2333971E-005  0.9732598E+02  0.7546771E-02  0.1290836E+00
         -2   -1    0    0    0  501 -0.00000000000E+00  0.00000000000E+00  0.38924116257E+03  0.38924116257E+03  0.00000000000E+00 0.  1.
          1   -1    0    0  502    0  0.00000000000E+00 -0.00000000000E+00 -0.45580480973E+02  0.45580480973E+02  0.00000000000E+00 0. -1.
         23    2    1    2    0    0  0.18512425885E+02  0.28948145330E+02  0.23594753744E+03  0.25499640428E+03  0.90394804826E+02 0.  0.
        -24    2    1    2    0    0 -0.36724267624E+02 -0.10561761603E+02  0.25088506588E+02  0.93242556129E+02  0.81268188548E+02 0.  0.
         11    1    4    4    0    0 -0.48533433753E+02 -0.98212533105E+01 -0.14763413808E+02  0.51671167934E+02  0.00000000000E+00 0. -1.
        -12    1    4    4    0    0  0.11809166129E+02 -0.74050829222E+00  0.39851920396E+02  0.41571388194E+02  0.00000000000E+00 0.  1.
        -13    1    3    3    0    0 -0.22639158612E+01 -0.24859379075E+02  0.14617537326E+03  0.14829144881E+03  0.00000000000E+00 0. -1.
         13    1    3    3    0    0  0.20776341746E+02  0.53807524405E+02  0.89772164178E+02  0.10670495546E+03  0.00000000000E+00 0.  1.
         21    1    1    2  502  501  0.18211841739E+02 -0.18386383728E+02  0.82624637572E+02  0.86582683142E+02  0.00000000000E+00 0.  1.
<scales pt_clust_5="13000.00000" pt_clust_6="13000.00000" pt_clust_7="13000.00000" pt_clust_8="13000.00000" pt_clust_9="25.87915"></scales>
<clustering>
<clus scale="   25.879">  1  9  2 -1</clus>
<clus scale="   81.268">  5  6 -1 -1</clus>
<clus scale="   88.914">  2  5  1 -1</clus>
<clus scale="   90.395">  7  8 -1 -1</clus>
<clus scale="   88.914">  2  5  1 -1</clus>
</clustering>
</event>
<event>
 9    1  0.2333971E-005  0.1197585E+03  0.7546771E-02  0.1246655E+00
          1   -1    0    0  502    0  0.00000000000E+00  0.00000000000E+00  0.58755819411E+03  0.58755819411E+03  0.00000000000E+00 0. -1.
         -2   -1    0    0    0  501 -0.00000000000E+00 -0.00000000000E+00 -0.46929699312E+02  0.46929699312E+02  0.00000000000E+00 0.  1.
        -24    2    1    2    0    0 -0.76335599017E+02 -0.20697844196E+02  0.49599798245E+02  0.12340829780E+03  0.80709005370E+02 0.  0.
         23    2    1    2    0    0  0.75753753211E+02 -0.14330775144E+00  0.44708859601E+03  0.46244396471E+03  0.90705877140E+02 0.  0.
         13    1    3    3    0    0 -0.89209029265E+01  0.28248869596E+02  0.11137716824E+02  0.31648536752E+02  0.00000000000E+00 0. -1.
        -14    1    3    3    0    0 -0.67414696091E+02 -0.48946713792E+02  0.38462081421E+02  0.91759761046E+02  0.00000000000E+00 0.  1.
        -13    1    4    4    0    0  0.76122477546E+02  0.32211952847E+02  0.36423447167E+03  0.37349563832E+03  0.00000000000E+00 0. -1.
         13    1    4    4    0    0 -0.36872433495E+00 -0.32355260599E+02  0.82854124342E+02  0.88948326384E+02  0.00000000000E+00 0.  1.
         21    1    1    2  502  501  0.58184580583E+00  0.20841151948E+02  0.43940100547E+02  0.48635630922E+02  0.00000000000E+00 0. -1.
<scales pt_clust_5="13000.00000" pt_clust_6="13000.00000" pt_clust_7="13000.00000" pt_clust_8="13000.00000" pt_clust_9="20.84927"></scales>
<clustering>
<clus scale="   20.849">  1  9  2 -1</clus>
<clus scale="   80.709">  5  6 -1 -1</clus>
<clus scale="   90.706">  7  8 -1 -1</clus>
<clus scale="  112.377">  2  5  1 -1</clus>
<clus scale="   20.849">  1  5  2 -1</clus>
</clustering>
</event>
<event>
 9    1  0.2333971E-005  0.1280630E+03  0.7546771E-02  0.1231773E+00
         -2   -1    0    0    0  501 -0.00000000000E+00  0.00000000000E+00  0.18762120816E+03  0.18762120816E+03  0.00000000000E+00 0.  1.
          1   -1    0    0  502    0  0.00000000000E+00 -0.00000000000E+00 -0.30520060969E+03  0.30520060969E+03  0.00000000000E+00 0. -1.
        -24    2    1    2    0    0  0.10777231990E+03  0.63007497041E+02  0.16310822233E+02  0.15017925857E+03  0.81871540605E+02 0.  0.
         23    2    1    2    0    0 -0.80495792235E+02 -0.34675851004E+02 -0.21750282964E+03  0.25024256475E+03  0.87360592383E+02 0.  0.
         13    1    3    3    0    0  0.29656440653E+02  0.44576386445E+01 -0.29744043430E+02  0.42238408280E+02  0.00000000000E+00 0. -1.
        -14    1    3    3    0    0  0.78115879248E+02  0.58549858397E+02  0.46054865664E+02  0.10794085029E+03  0.00000000000E+00 0.  1.
        -13    1    4    4    0    0 -0.50794012474E+02 -0.54010523373E+01 -0.32375985943E+02  0.60476503994E+02  0.00000000000E+00 0.  1.
         13    1    4    4    0    0 -0.29701779761E+02 -0.29274798667E+02 -0.18512684370E+03  0.18976606076E+03  0.00000000000E+00 0. -1.
         21    1    1    2  502  501 -0.27276527665E+02 -0.28331646037E+02  0.83612605876E+02  0.92399994535E+02  0.00000000000E+00 0.  1.
<scales pt_clust_5="13000.00000" pt_clust_6="13000.00000" pt_clust_7="13000.00000" pt_clust_8="13000.00000" pt_clust_9="39.32799"></scales>
<clustering>
<clus scale="   39.328">  1  9  2 -1</clus>
<clus scale="   81.872">  5  6 -1 -1</clus>
<clus scale="   87.361">  7  8 -1 -1</clus>
<clus scale="  124.383">  1  5  2 -1</clus>
<clus scale="  128.063">  2  5  1 -1</clus>
</clustering>
</event>
<event>
 9    1  0.2333971E-005  0.9235950E+02  0.7546771E-02  0.1304438E+00
          1   -1    0    0  502    0  0.00000000000E+00  0.00000000000E+00  0.18349808857E+03  0.18349808857E+03  0.00000000000E+00 0. -1.
         -2   -1    0    0    0  501 -0.00000000000E+00 -0.00000000000E+00 -0.16880966926E+03  0.16880966926E+03  0.00000000000E+00 0.  1.
         23    2    1    2    0    0 -0.26475901289E+02 -0.24099807750E+02 -0.11535349832E+03  0.15176330290E+03  0.91890676628E+02 0.  0.
        -24    2    1    2    0    0  0.49866440654E+01  0.52536077416E+01  0.14672849568E+03  0.16744748652E+03  0.80355101169E+02 0.  0.
         13    1    4    4    0    0 -0.20470607528E+02 -0.13559214875E+02  0.90368614134E+01  0.26164153814E+02  0.00000000000E+00 0. -1.
        -14    1    4    4    0    0  0.25457251593E+02  0.18812822616E+02  0.13769163427E+03  0.14128333271E+03  0.00000000000E+00 0.  1.
        -13    1    3    3    0    0  0.16049217620E+02  0.21039754678E+02 -0.77598472655E+01  0.27576509800E+02  0.00000000000E+00 0. -1.
         13    1    3    3    0    0 -0.42525118909E+02 -0.45139562428E+02 -0.10759365105E+03  0.12418679310E+03  0.00000000000E+00 0.  1.
         21    1    1    2  502  501  0.21489257223E+02  0.18846200008E+02 -0.16686578055E+02  0.33096968410E+02  0.00000000000E+00 0. -1.
<scales pt_clust_5="13000.00000" pt_clust_6="13000.00000" pt_clust_7="13000.00000" pt_clust_8="13000.00000" pt_clust_9="28.58264"></scales>
<clustering>
<clus scale="   28.583">  2  9  1 -1</clus>
<clus scale="   80.355">  5  6 -1 -1</clus>
<clus scale="   80.891">  1  5  2 -1</clus>
<clus scale="   91.891">  7  8 -1 -1</clus>
<clus scale="   80.891">  1  5  2 -1</clus>
</clustering>
</event>
<event>
 9    1  0.2333971E-005  0.9788914E+02  0.7546771E-02  0.1290354E+00
         -2   -1    0    0    0  501 -0.00000000000E+00  0.00000000000E+00  0.11208849046E+03  0.11208849046E+03  0.00000000000E+00 0.  1.
          1   -1    0    0  502    0  0.00000000000E+00 -0.00000000000E+00 -0.43560642201E+03  0.43560642201E+03  0.00000000000E+00 0. -1.
         23    2    1    2    0    0 -0.37950544245E+02 -0.82971004530E+01 -0.84632745804E+01  0.99516751209E+02  0.91229770745E+02 0.  0.
        -24    2    1    2    0    0 -0.41327211352E+02  0.15915663503E+02 -0.34948596898E+03  0.36141111519E+03  0.80723633009E+02 0.  0.
         11    1    4    4    0    0 -0.45429619822E+02  0.34741441282E+02 -0.14276589894E+03  0.15379505843E+03  0.00000000000E+00 0. -1.
        -12    1    4    4    0    0  0.41024084699E+01 -0.18825777779E+02 -0.20672007005E+03  0.20761605676E+03  0.00000000000E+00 0.  1.
        -13    1    3    3    0    0 -0.59807408427E+02  0.15237798579E+02  0.99185014222E+01  0.62509945439E+02  0.00000000000E+00 0.  1.
         13    1    3    3    0    0  0.21856864182E+02 -0.23534899032E+02 -0.18381776003E+02  0.37006805770E+02  0.00000000000E+00 0. -1.
         21    1    1    2  502  501  0.79277755597E+02 -0.76185630500E+01  0.34431312018E+02  0.86767046064E+02  0.00000000000E+00 0. -1.
<scales pt_clust_5="13000.00000" pt_clust_6="13000.00000" pt_clust_7="13000.00000" pt_clust_8="13000.00000" pt_clust_9="79.64298"></scales>
<clustering>
<clus scale="   79.643">  1  9  2 -1</clus>
<clus scale="   80.724">  5  6 -1 -1</clus>
<clus scale="   88.180">  2  5  1 -1</clus>
<clus scale="   91.230">  7  8 -1 -1</clus>
<clus scale="   88.180">  2  5  1 -1</clus>
</clustering>
</event>
<event>
 9    1  0.2333971E-005  0.1442072E+03  0.7546771E-02  0.1230582E+00
          1   -1    0    0  502    0  0.00000000000E+00  0.00000000000E+00  0.78671818488E+03  0.78671818488E+03  0.00000000000E+00 0. -1.
         -2   -1    0    0    0  501 -0.00000000000E+00 -0.00000000000E+00 -0.48354262594E+03  0.48354262594E+03  0.00000000000E+00 0.  1.
         23    2    1    2    0    0  0.13861915517E+01  0.12198403009E+02 -0.17029972553E+02  0.90884503533E+02  0.88426525739E+02 0.  0.
        -24    2    1    2    0    0  0.16581282495E+02  0.11851902931E+03  0.73247676555E+03  0.74650513977E+03  0.80162412525E+02 0.  0.
         13    1    4    4    0    0  0.45607384415E+02  0.92873179133E+02  0.58186485538E+03  0.59099253027E+03  0.00000000000E+00 0. -1.
        -14    1    4    4    0    0 -0.29026101920E+02  0.25645850181E+02  0.15061191018E+03  0.15551260949E+03  0.00000000000E+00 0.  1.
        -13    1    3    3    0    0  0.97318015896E+01  0.37453736938E+02  0.21344132703E+02  0.44193465282E+02  0.00000000000E+00 0. -1.
         13    1    3    3    0    0 -0.83456100379E+01 -0.25255333929E+02 -0.38374105256E+02  0.46691038251E+02  0.00000000000E+00 0.  1.
         21    1    1    2  502  501 -0.17967474047E+02 -0.13071743232E+03 -0.41227123407E+03  0.43287116753E+03  0.00000000000E+00 0.  1.
<scales pt_clust_5="13000.00000" pt_clust_6="13000.00000" pt_clust_7="13000.00000" pt_clust_8="13000.00000" pt_clust_9="119.87369"></scales>
<clustering>
<clus scale="   80.162">  5  6 -1 -1</clus>
<clus scale="   88.427">  7  8 -1 -1</clus>
<clus scale="   89.275">  2  7  1 -1</clus>
<clus scale="  119.874">  2  9  1 -1</clus>
<clus scale="  144.207">  1  5  2 -1</clus>
</clustering>
</event>
<event>
 9    1  0.2333971E-005  0.1255121E+03  0.7546771E-02  0.1237769E+00
         -2   -1    0    0    0  501 -0.00000000000E+00  0.00000000000E+00  0.39397942781E+02  0.39397942781E+02  0.00000000000E+00 0.  1.
          1   -1    0    0  502    0  0.00000000000E+00 -0.00000000000E+00 -0.59606487612E+03  0.59606487612E+03  0.00000000000E+00 0. -1.
        -24    2    1    2    0    0  0.40578045074E+01 -0.87095818284E+02 -0.19116736490E+03  0.22458125033E+03  0.79307182890E+02 0.  0.
         23    2    1    2    0    0  0.31500211344E+02  0.82038989276E+02 -0.34898373706E+03  0.37135035689E+03  0.91590281964E+02 0.  0.
         13    1    3    3    0    0  0.32169551615E+02 -0.36693286530E+02 -0.13699798706E+03  0.14542945296E+03  0.00000000000E+00 0. -1.
        -14    1    3    3    0    0 -0.28111747107E+02 -0.50402531754E+02 -0.54169377832E+02  0.79151797373E+02  0.00000000000E+00 0.  1.
        -13    1    4    4    0    0  0.43883375452E+02  0.21730693643E+02 -0.68587810970E+02  0.84274916203E+02  0.00000000000E+00 0.  1.
         13    1    4    4    0    0 -0.12383164107E+02  0.60308295633E+02 -0.28039592609E+03  0.28707544068E+03  0.00000000000E+00 0. -1.
         21    1    1    2  502  501 -0.35558015852E+02  0.50568290083E+01 -0.16515831378E+02  0.39531211682E+02  0.00000000000E+00 0.  1.
<scales pt_clust_5="13000.00000" pt_clust_6="13000.00000" pt_clust_7="13000.00000" pt_clust_8="13000.00000" pt_clust_9="35.91579"></scales>
<clustering>
<clus scale="   35.916">  1  9  2 -1</clus>
<clus scale="   79.307">  5  6 -1 -1</clus>
<clus scale="   91.590">  7  8 -1 -1</clus>
<clus scale="  116.851">  1  5  2 -1</clus>
<clus scale="  125.512">  2  5  1 -1</clus>
</clustering>
</event>
<event>
 9    1  0.2333971E-005  0.1277788E+03  0.7546771E-02  0.1233897E+00
          1   -1    0    0  502    0  0.00000000000E+00  0.00000000000E+00  0.13019018263E+03  0.13019018263E+03  0.00000000000E+00 0. -1.
         -2   -1    0    0    0  501 -0.00000000000E+00 -0.00000000000E+00 -0.75429926967E+03  0.75429926967E+03  0.00000000000E+00 0.  1.
        -24    2    1    2    0    0 -0.44663762485E+02 -0.27310204191E+02 -0.52074485759E+03  0.52945601219E+03  0.80048505334E+02 0.  0.
         23    2    1    2    0    0  0.77020092844E+02  0.49577976648E+02  0.90038166334E+02  0.15768280672E+03  0.91470900667E+02 0.  0.
         11    1    3    3    0    0 -0.44915608311E+02  0.19158407547E+02 -0.24424233560E+03  0.24907584176E+03  0.00000000000E+00 0. -1.
        -12    1    3    3    0    0  0.25184582600E+00 -0.46468611739E+02 -0.27650252199E+03  0.28038017043E+03  0.00000000000E+00 0.  1.
        -11    1    4    4    0    0  0.39699029407E+02  0.67777683799E+02  0.85194703339E+02  0.11587909576E+03  0.00000000000E+00 0. -1.
         11    1    4    4    0    0  0.37321063437E+02 -0.18199707152E+02  0.48434629953E+01  0.41803710963E+02  0.00000000000E+00 0.  1.
         21    1    1    2  502  501 -0.32356330359E+02 -0.22267772457E+02 -0.19340239578E+03  0.19735063339E+03  0.00000000000E+00 0.  1.
<scales pt_clust_5="13000.00000" pt_clust_6="13000.00000" pt_clust_7="13000.00000" pt_clust_8="13000.00000" pt_clust_9="39.27831"></scales>
<clustering>
<clus scale="   39.278">  2  9  1 -1</clus>
<clus scale="   80.049">  5  6 -1 -1</clus>
<clus scale="   91.471">  7  8 -1 -1</clus>
<clus scale="  119.868">  2  5  1 -1</clus>
<clus scale="  127.779">  1  5  2 -1</clus>
</clustering>
</event>
<event>
 9    1  0.2333971E-005  0.1038571E+03  0.7546771E-02  0.1279096E+00
         -2   -1    0    0    0  501 -0.00000000000E+00  0.00000000000E+00  0.21684222778E+03  0.21684222778E+03  0.00000000000E+00 0.  1.
          1   -1    0    0  502    0  0.00000000000E+00 -0.00000000000E+00 -0.12956093837E+03  0.12956093837E+03  0.00000000000E+00 0. -1.
        -24    2    1    2    0    0 -0.16215650193E+02  0.38082393330E+01  0.14701531224E+03  0.16903807519E+03  0.81749121308E+02 0.  0.
         23    2    1    2    0    0  0.40936783347E+02  0.18979562629E+02 -0.84756677379E+02  0.13545385639E+03  0.95540613472E+02 0.  0.
         13    1    3    3    0    0 -0.16229053884E+01 -0.35946403655E+02  0.97247761288E+02  0.10369139228E+03  0.00000000000E+00 0. -1.
        -14    1    3    3    0    0 -0.14592744804E+02  0.39754642988E+02  0.49767550949E+02  0.65346682911E+02  0.00000000000E+00 0.  1.
        -13    1    4    4    0    0 -0.19413820578E+02 -0.21583205024E+02 -0.88754194341E+01  0.30356288289E+02  0.00000000000E+00 0.  1.
         13    1    4    4    0    0  0.60350603925E+02  0.40562767653E+02 -0.75881257945E+02  0.10509756810E+03  0.00000000000E+00 0. -1.
         21    1    1    2  502  501 -0.24721133154E+02 -0.22787801962E+02  0.25022654549E+02  0.41911234572E+02  0.00000000000E+00 0.  1.
<scales pt_clust_5="13000.00000" pt_clust_6="13000.00000" pt_clust_7="13000.00000" pt_clust_8="13000.00000" pt_clust_9="33.62169"></scales>
<clustering>
<clus scale="   33.622">  1  9  2 -1</clus>
<clus scale="   81.749">  5  6 -1 -1</clus>
<clus scale="   91.330">  1  5  2 -1</clus>
<clus scale="   95.541">  7  8 -1 -1</clus>
<clus scale="  103.857">  2  5  1 -1</clus>
</clustering>
</event>
<event>
 9    1  0.2333971E-005  0.1593993E+03  0.7546771E-02  0.1189607E+00
          1   -1    0    0  502    0  0.00000000000E+00  0.00000000000E+00  0.77097988467E+03  0.77097988467E+03  0.00000000000E+00 0. -1.
         -2   -1    0    0    0  501 -0.00000000000E+00 -0.00000000000E+00 -0.59170681184E+02  0.59170681184E+02  0.00000000000E+00 0.  1.
        -24    2    1    2    0    0 -0.11007092110E+03 -0.64516973714E+02  0.16101913224E+03  0.22250582461E+03  0.85461298082E+02 0.  0.
         23    2    1    2    0    0  0.61393117391E+02  0.13152177371E+03  0.42044208166E+03  0.45321103318E+03  0.86957488140E+02 0.  0.
         13    1    3    3    0    0 -0.70545699468E+02 -0.68245335364E+02  0.15334821311E+03  0.18207085428E+03  0.00000000000E+00 0. -1.
        -14    1    3    3    0    0 -0.39525221630E+02  0.37283616504E+01  0.76709191248E+01  0.40434970331E+02  0.00000000000E+00 0.  1.
        -13    1    4    4    0    0  0.69279695393E+02  0.52637382616E+02  0.26149552627E+03  0.27559078450E+03  0.00000000000E+00 0. -1.
         13    1    4    4    0    0 -0.78865780024E+01  0.78884391096E+02  0.15894655539E+03  0.17762024868E+03  0.00000000000E+00 0.  1.
         21    1    1    2  502  501  0.48677803707E+02 -0.67004799998E+02  0.13034798959E+03  0.15443370806E+03  0.00000000000E+00 0. -1.
<scales pt_clust_5="13000.00000" pt_clust_6="13000.00000" pt_clust_7="13000.00000" pt_clust_8="13000.00000" pt_clust_9="82.82012"></scales>
<clustering>
<clus scale="   82.820">  2  9  1 -1</clus>
<clus scale="   85.461">  5  6 -1 -1</clus>
<clus scale="   86.957">  7  8 -1 -1</clus>
<clus scale="  158.588">  2  5  1 -1</clus>
<clus scale="  159.399">  1  5  2 -1</clus>
</clustering>
</event>
<event>
 9    1  0.2333971E-005  0.1091009E+03  0.7546771E-02  0.1266731E+00
          1   -1    0    0  502    0  0.00000000000E+00  0.00000000000E+00  0.13544938986E+03  0.13544938986E+03  0.00000000000E+00 0. -1.
         -2   -1    0    0    0  501 -0.00000000000E+00 -0.00000000000E+00 -0.34342421232E+03  0.34342421232E+03  0.00000000000E+00 0.  1.
        -24    2    1    2    0    0  0.46114897092E+02  0.23279251559E+02 -0.25700628940E+03  0.27404390071E+03  0.79870641889E+02 0.  0.
         23    2    1    2    0    0 -0.54816263805E+02  0.31522668609E+02  0.84133886980E+02  0.13917039802E+03  0.91057055379E+02 0.  0.
         13    1    3    3    0    0  0.37193876302E+02 -0.20964609270E+02 -0.72869385386E+02  0.84456181555E+02  0.00000000000E+00 0. -1.
        -14    1    3    3    0    0  0.89210207898E+01  0.44243860829E+02 -0.18413690402E+03  0.18958771915E+03  0.00000000000E+00 0.  1.
        -11    1    4    4    0    0 -0.26430546602E+02 -0.31093525657E+02  0.41874642021E+02  0.58471076404E+02  0.00000000000E+00 0. -1.
         11    1    4    4    0    0 -0.28385717203E+02  0.62616194266E+02  0.42259244959E+02  0.80699321621E+02  0.00000000000E+00 0.  1.
         21    1    1    2  502  501  0.87013667128E+01 -0.54801920168E+02 -0.35102420041E+02  0.65659303450E+02  0.00000000000E+00 0. -1.
<scales pt_clust_5="13000.00000" pt_clust_6="13000.00000" pt_clust_7="13000.00000" pt_clust_8="13000.00000" pt_clust_9="55.48842"></scales>
<clustering>
<clus scale="   55.488">  2  9  1 -1</clus>
<clus scale="   79.871">  5  6 -1 -1</clus>
<clus scale="   91.057">  7  8 -1 -1</clus>
<clus scale="   99.955">  2  5  1 -1</clus>
<clus scale="  109.101">  1  5  2 -1</clus>
</clustering>
</event>
<event>
 9    1  0.2333971E-005  0.2479067E+03  0.7546771E-02  0.1115266E+00
         -2   -1    0    0    0  501 -0.00000000000E+00  0.00000000000E+00  0.64375081966E+02  0.64375081966E+02  0.00000000000E+00 0.  1.
          1   -1    0    0  502    0  0.00000000000E+00 -0.00000000000E+00 -0.11087370677E+04  0.11087370677E+04  0.00000000000E+00 0. -1.
        -24    2    1    2    0    0  0.14901037398E+03 -0.15840404982E+03 -0.40917686426E+03  0.47051685534E+03  0.81636207396E+02 0.  0.
         23    2    1    2    0    0 -0.18810889275E+03  0.15270081197E+03 -0.57195722533E+03  0.62803667348E+03  0.92695750286E+02 0.  0.
         11    1    3    3    0    0  0.26693241085E+02  0.60190734201E+01 -0.48194045679E+02  0.55420433085E+02  0.00000000000E+00 0. -1.
        -12    1    3    3    0    0  0.12231713290E+03 -0.16442312324E+03 -0.36098281858E+03  0.41509642226E+03  0.00000000000E+00 0.  1.
        -11    1    4    4    0    0 -0.99945275188E+02  0.38277620363E+02 -0.16969688619E+03  0.20062718519E+03  0.00000000000E+00 0.  1.
         11    1    4    4    0    0 -0.88163617561E+02  0.11442319161E+03 -0.40226033914E+03  0.42740948829E+03  0.00000000000E+00 0. -1.
         21    1    1    2  502  501  0.39098518767E+02  0.57032378566E+01 -0.63227896145E+02  0.74558620848E+02  0.00000000000E+00 0.  1.
<scales pt_clust_5="13000.00000" pt_clust_6="13000.00000" pt_clust_7="13000.00000" pt_clust_8="13000.00000" pt_clust_9="39.51229"></scales>
<clustering>
<clus scale="   39.512">  1  9  2 -1</clus>
<clus scale="   81.636">  5  6 -1 -1</clus>
<clus scale="   92.696">  7  8 -1 -1</clus>
<clus scale="  243.987">  1  5  2 -1</clus>
<clus scale="  247.907">  2  5  1 -1</clus>
</clustering>
</event>
<event>
 9    1  0.2333971E-005  0.1499395E+03  0.7546771E-02  0.1202507E+00
         -2   -1    0    0    0  501 -0.00000000000E+00  0.00000000000E+00  0.90278168263E+02  0.90278168263E+02  0.00000000000E+00 0.  1.
          1   -1    0    0  502    0  0.00000000000E+00 -0.00000000000E+00 -0.43250997749E+03  0.43250997749E+03  0.00000000000E+00 0. -1.
        -24    2    1    2    0    0 -0.13444614611E+03 -0.73632850515E+01 -0.27225045899E+02  0.15934707317E+03  0.80748389677E+02 0.  0.
         23    2    1    2    0    0  0.11491494871E+03 -0.40155612075E+01 -0.30539647030E+03  0.33887883436E+03  0.91379921981E+02 0.  0.
         13    1    3    3    0    0 -0.62795959605E+02 -0.32785757928E+02 -0.41342228671E+02  0.82020840871E+02  0.00000000000E+00 0. -1.
        -14    1    3    3    0    0 -0.71650186501E+02  0.25422472877E+02  0.14117182773E+02  0.77326232303E+02  0.00000000000E+00 0.  1.
        -11    1    4    4    0    0  0.49240682777E+02 -0.34154718865E+02 -0.21475400450E+03  0.22295845378E+03  0.00000000000E+00 0.  1.
         11    1    4    4    0    0  0.65674265929E+02  0.30139157658E+02 -0.90642465794E+02  0.11592038058E+03  0.00000000000E+00 0. -1.
         21    1    1    2  502  501  0.19531197400E+02  0.11378846259E+02 -0.96102930319E+01  0.24562238217E+02  0.00000000000E+00 0. -1.
<scales pt_clust_5="13000.00000" pt_clust_6="13000.00000" pt_clust_7="13000.00000" pt_clust_8="13000.00000" pt_clust_9="22.60411"></scales>
<clustering>
<clus scale="   22.604">  1  9  2 -1</clus>
<clus scale="   80.748">  5  6 -1 -1</clus>
<clus scale="   91.380">  7  8 -1 -1</clus>
<clus scale="  143.708">  1  5  2 -1</clus>
<clus scale="  149.939">  2  5  1 -1</clus>
</clustering>
</event>
<event>
 9    1  0.2333971E-005  0.9923952E+02  0.7546771E-02  0.1288181E+00
         -2   -1    0    0    0  501 -0.00000000000E+00  0.00000000000E+00  0.12264339068E+03  0.12264339068E+03  0.00000000000E+00 0.  1.
          1   -1    0    0  502    0  0.00000000000E+00 -0.00000000000E+00 -0.35824825256E+03  0.35824825256E+03  0.00000000000E+00 0. -1.
        -24    2    1    2    0    0 -0.38471785669E+02 -0.22662321876E+02  0.83457751806E+02  0.12391609120E+03  0.79977135456E+02 0.  0.
         23    2    1    2    0    0  0.20179880499E+02  0.30806551821E+02 -0.32183463972E+03  0.33676153700E+03  0.92057190210E+02 0.  0.
         13    1    3    3    0    0 -0.45614753062E+02 -0.17336075643E+01  0.93713989380E+01  0.46599723284E+02  0.00000000000E+00 0. -1.
        -14    1    3    3    0    0  0.71429673934E+01 -0.20928714312E+02  0.74086352868E+02  0.77316367913E+02  0.00000000000E+00 0.  1.
        -11    1    4    4    0    0 -0.46668408642E+01  0.60321888800E+02 -0.20250407024E+03  0.21134901972E+03  0.00000000000E+00 0. -1.
         11    1    4    4    0    0  0.24846721363E+02 -0.29515336979E+02 -0.11933056948E+03  0.12541251728E+03  0.00000000000E+00 0.  1.
         21    1    1    2  502  501  0.18291905170E+02 -0.81442299443E+01  0.27720260273E+01  0.20214015050E+02  0.00000000000E+00 0. -1.
<scales pt_clust_5="13000.00000" pt_clust_6="13000.00000" pt_clust_7="13000.00000" pt_clust_8="13000.00000" pt_clust_9="20.02304"></scales>
<clustering>
<clus scale="   20.023">  1  9  2 -1</clus>
<clus scale="   79.977">  5  6 -1 -1</clus>
<clus scale="   88.149">  1  5  2 -1</clus>
<clus scale="   92.057">  7  8 -1 -1</clus>
<clus scale="   99.240">  2  5  1 -1</clus>
</clustering>
</event>
<event>
 9    1  0.2333971E-005  0.1421797E+03  0.7546771E-02  0.1210531E+00
         -2   -1    0    0    0  501 -0.00000000000E+00  0.00000000000E+00  0.19858223565E+03  0.19858223565E+03  0.00000000000E+00 0.  1.
          1   -1    0    0  502    0  0.00000000000E+00 -0.00000000000E+00 -0.14670464033E+03  0.14670464033E+03  0.00000000000E+00 0. -1.
        -24    2    1    2    0    0 -0.54790332814E+02 -0.10829316355E+03  0.68675807574E+02  0.16617428808E+03  0.90377749654E+02 0.  0.
         23    2    1    2    0    0  0.62674354447E+02  0.84447894279E+02 -0.40948609794E+02  0.14427013727E+03  0.89875259726E+02 0.  0.
         13    1    3    3    0    0 -0.35466143159E+02 -0.11207618213E+03  0.81169209504E+02  0.14285432609E+03  0.00000000000E+00 0. -1.
        -14    1    3    3    0    0 -0.19324189654E+02  0.37830185837E+01 -0.12493401930E+02  0.23319961989E+02  0.00000000000E+00 0.  1.
        -11    1    4    4    0    0 -0.18269403927E+02  0.44415303307E+02 -0.13449870006E+02  0.49873733476E+02  0.00000000000E+00 0. -1.
         11    1    4    4    0    0  0.80943758374E+02  0.40032590973E+02 -0.27498739788E+02  0.94396403796E+02  0.00000000000E+00 0.  1.
         21    1    1    2  502  501 -0.78840216334E+01  0.23845269270E+02  0.24150397541E+02  0.34842450618E+02  0.00000000000E+00 0. -1.
<scales pt_clust_5="13000.00000" pt_clust_6="13000.00000" pt_clust_7="13000.00000" pt_clust_8="13000.00000" pt_clust_9="25.11483"></scales>
<clustering>
<clus scale="   25.115">  1  9  2 -1</clus>
<clus scale="   89.875">  7  8 -1 -1</clus>
<clus scale="   90.378">  5  6 -1 -1</clus>
<clus scale="  141.861">  2  7  1 -1</clus>
<clus scale="  141.861">  2  5  1 -1</clus>
</clustering>
</event>
<event>
 9    1  0.2333971E-005  0.1721171E+03  0.7546771E-02  0.1177530E+00
         -2   -1    0    0    0  501 -0.00000000000E+00  0.00000000000E+00  0.39878826034E+03  0.39878826034E+03  0.00000000000E+00 0.  1.
          1   -1    0    0  502    0  0.00000000000E+00 -0.00000000000E+00 -0.12920204595E+03  0.12920204595E+03  0.00000000000E+00 0. -1.
         23    2    1    2    0    0  0.14388739124E+03 -0.30993333998E+01  0.26145589132E+03  0.31293256024E+03  0.94097911363E+02 0.  0.
        -24    2    1    2    0    0 -0.14160837027E+03 -0.31053648587E+02 -0.24782738057E+02  0.16757206707E+03  0.80305379243E+02 0.  0.
         13    1    4    4    0    0 -0.13242623704E+03 -0.70048673409E-01 -0.12553476342E+02  0.13301993434E+03  0.00000000000E+00 0. -1.
        -14    1    4    4    0    0 -0.91821332336E+01 -0.30983599914E+02 -0.12229261715E+02  0.34552132734E+02  0.00000000000E+00 0.  1.
        -13    1    3    3    0    0  0.13491823874E+03 -0.33717013688E+02  0.19868624626E+03  0.24252008702E+03  0.00000000000E+00 0.  1.
         13    1    3    3    0    0  0.89691525037E+01  0.30617680288E+02  0.62769645066E+02  0.70412473217E+02  0.00000000000E+00 0. -1.
         21    1    1    2  502  501 -0.22790209666E+01  0.34152981987E+02  0.32913061128E+02  0.47485678978E+02  0.00000000000E+00 0. -1.
<scales pt_clust_5="13000.00000" pt_clust_6="13000.00000" pt_clust_7="13000.00000" pt_clust_8="13000.00000" pt_clust_9="34.22894"></scales>
<clustering>
<clus scale="   34.229">  1  9  2 -1</clus>
<clus scale="   80.305">  5  6 -1 -1</clus>
<clus scale="   94.098">  7  8 -1 -1</clus>
<clus scale="  164.981">  2  5  1 -1</clus>
<clus scale="  164.981">  2  5  1 -1</clus>
</clustering>
</event>
<event>
 9    1  0.2333971E-005  0.1051564E+03  0.7546771E-02  0.1273409E+00
          3   -1    0    0  502    0  0.00000000000E+00  0.00000000000E+00  0.74552165707E+02  0.74552165707E+02  0.00000000000E+00 0. -1.
         -4   -1    0    0    0  501 -0.00000000000E+00 -0.00000000000E+00 -0.34281024612E+03  0.34281024612E+03  0.00000000000E+00 0.  1.
        -24    2    1    2    0    0  0.41112101830E+02  0.49474091491E+02 -0.18289626388E+03  0.20971013667E+03  0.79933769062E+02 0.  0.
         23    2    1    2    0    0 -0.50984134453E+02 -0.23820415479E+02  0.12898605882E+02  0.10561954151E+03  0.88443876873E+02 0.  0.
         11    1    3    3    0    0 -0.20936866436E+02  0.59625171613E+01 -0.18054025134E+02  0.28281651483E+02  0.00000000000E+00 0. -1.
        -12    1    3    3    0    0  0.62048968266E+02  0.43511574330E+02 -0.16484223875E+03  0.18142848519E+03  0.00000000000E+00 0.  1.
        -13    1    4    4    0    0 -0.72094143851E+02  0.11506705248E+01  0.77579811015E+01  0.72519486285E+02  0.00000000000E+00 0. -1.
         13    1    4    4    0    0  0.21110009398E+02 -0.24971086004E+02  0.51406247805E+01  0.33100055229E+02  0.00000000000E+00 0.  1.
         21    1    1    2  502  501  0.98720326229E+01 -0.25653676012E+02 -0.98260422409E+02  0.10203273363E+03  0.00000000000E+00 0. -1.
<scales pt_clust_5="13000.00000" pt_clust_6="13000.00000" pt_clust_7="13000.00000" pt_clust_8="13000.00000" pt_clust_9="27.48760"></scales>
<clustering>
<clus scale="   27.488">  2  9  1 -1</clus>
<clus scale="   79.934">  5  6 -1 -1</clus>
<clus scale="   88.444">  7  8 -1 -1</clus>
<clus scale="   98.107">  2  5  1 -1</clus>
<clus scale="  105.156">  1  5  2 -1</clus>
</clustering>
</event>
<event>
 9    1  0.2333971E-005  0.9471116E+02  0.7546771E-02  0.1299030E+00
          3   -1    0    0  502    0  0.00000000000E+00  0.00000000000E+00  0.32806206828E+02  0.32806206828E+02  0.00000000000E+00 0. -1.
         -4   -1    0    0    0  501 -0.00000000000E+00 -0.00000000000E+00 -0.49843171571E+03  0.49843171571E+03  0.00000000000E+00 0.  1.
        -24    2    1    2    0    0  0.12023075960E+01  0.10332096302E+02 -0.35771571091E+03  0.36708026637E+03  0.81726338296E+02 0.  0.
         23    2    1    2    0    0  0.63288126908E+01 -0.31127066698E+02 -0.73572769841E+02  0.12331429603E+03  0.93725743481E+02 0.  0.
         11    1    3    3    0    0  0.15228884050E+02 -0.17255623537E+02 -0.29533510941E+02  0.37442004775E+02  0.00000000000E+00 0. -1.
        -12    1    3    3    0    0 -0.14026576454E+02  0.27587719839E+02 -0.32818219997E+03  0.32963826160E+03  0.00000000000E+00 0.  1.
        -13    1    4    4    0    0  0.37051527764E+02 -0.39294057403E+02 -0.14004105661E+02  0.55793849412E+02  0.00000000000E+00 0. -1.
         13    1    4    4    0    0 -0.30722715074E+02  0.81669907054E+01 -0.59568664181E+02  0.67520446614E+02  0.00000000000E+00 0.  1.
         21    1    1    2  502  501 -0.75311202868E+01  0.20794970396E+02 -0.34337028127E+02  0.40843360136E+02  0.00000000000E+00 0.  1.
<scales pt_clust_5="13000.00000" pt_clust_6="13000.00000" pt_clust_7="13000.00000" pt_clust_8="13000.00000" pt_clust_9="22.11670"></scales>
<clustering>
<clus scale="   22.117">  1  9  2 -1</clus>
<clus scale="   81.726">  5  6 -1 -1</clus>
<clus scale="   82.855">  2  5  1 -1</clus>
<clus scale="   93.726">  7  8 -1 -1</clus>
<clus scale="   22.117">  1  5  2 -1</clus>
</clustering>
</event>
<event>
 9    1  0.2333971E-005  0.1433178E+03  0.7546771E-02  0.1223513E+00
         -2   -1    0    0    0  501 -0.00000000000E+00  0.00000000000E+00  0.20007348341E+03  0.20007348341E+03  0.00000000000E+00 0.  1.
          1   -1    0    0  502    0  0.00000000000E+00 -0.00000000000E+00 -0.23495723966E+03  0.23495723966E+03  0.00000000000E+00 0. -1.
        -24    2    1    2    0    0 -0.87252810986E+02  0.11789456301E+02 -0.38763833572E+02  0.12566288374E+03  0.80848508036E+02 0.  0.
         23    2    1    2    0    0 -0.42938227758E+02 -0.25872854016E+02 -0.97685599432E+02  0.14364627961E+03  0.92621171077E+02 0.  0.
         11    1    3    3    0    0 -0.26658877350E+02  0.17699967811E+02 -0.54121828140E+02  0.62874135249E+02  0.00000000000E+00 0. -1.
        -12    1    3    3    0    0 -0.60593933636E+02 -0.59105115102E+01  0.15357994568E+02  0.62788748490E+02  0.00000000000E+00 0.  1.
        -11    1    4    4    0    0  0.25474887701E+02  0.70778040980E+00 -0.59626815307E+01  0.26172971316E+02  0.00000000000E+00 0. -1.
         11    1    4    4    0    0 -0.68413115460E+02 -0.26580634426E+02 -0.91722917901E+02  0.11747330829E+03  0.00000000000E+00 0.  1.
         21    1    1    2  502  501  0.13019103874E+03  0.14083397715E+02  0.10156567675E+03  0.16572155972E+03  0.00000000000E+00 0. -1.
<scales pt_clust_5="13000.00000" pt_clust_6="13000.00000" pt_clust_7="13000.00000" pt_clust_8="13000.00000" pt_clust_9="118.33643"></scales>
<clustering>
<clus scale="   80.849">  5  6 -1 -1</clus>
<clus scale="   92.621">  7  8 -1 -1</clus>
<clus scale="  105.318">  2  7  1 -1</clus>
<clus scale="  118.336">  1  9  2 -1</clus>
<clus scale="  105.318">  2  5  1 -1</clus>
</clustering>
</event>
<event>
 9    1  0.2333971E-005  0.9312717E+02  0.7546771E-02  0.1303829E+00
         -2   -1    0    0    0  501 -0.00000000000E+00  0.00000000000E+00  0.42433771329E+03  0.42433771329E+03  0.00000000000E+00 0.  1.
          1   -1    0    0  502    0  0.00000000000E+00 -0.00000000000E+00 -0.22422027411E+03  0.22422027411E+03  0.00000000000E+00 0. -1.
        -24    2    1    2    0    0 -0.61719223533E+02 -0.85924605546E+01  0.23411452433E+03  0.25442941992E+03  0.77727899034E+02 0.  0.
         23    2    1    2    0    0 -0.64105343360E+00  0.18323381819E+02 -0.19776454425E+03  0.21861994765E+03  0.91365799281E+02 0.  0.
         13    1    3    3    0    0  0.11476031717E+02  0.18306385988E+02  0.53636754871E+02  0.57824947428E+02  0.00000000000E+00 0. -1.
        -14    1    3    3    0    0 -0.73195255250E+02 -0.26898846542E+02  0.18047776946E+03  0.19660447250E+03  0.00000000000E+00 0.  1.
        -13    1    4    4    0    0  0.45009767557E+02  0.50813495717E+01 -0.10610035548E+03  0.11536457308E+03  0.00000000000E+00 0. -1.
         13    1    4    4    0    0 -0.45650820991E+02  0.13242032247E+02 -0.91664188770E+02  0.10325537457E+03  0.00000000000E+00 0.  1.
         21    1    1    2  502  501  0.62360276966E+02 -0.97309212641E+01  0.16376745911E+03  0.17550861983E+03  0.00000000000E+00 0. -1.
<scales pt_clust_5="13000.00000" pt_clust_6="13000.00000" pt_clust_7="13000.00000" pt_clust_8="13000.00000" pt_clust_9="63.11493"></scales>
<clustering>
<clus scale="   63.115">  1  9  2 -1</clus>
<clus scale="   77.728">  5  6 -1 -1</clus>
<clus scale="   79.791">  1  5  2 -1</clus>
<clus scale="   91.366">  7  8 -1 -1</clus>
<clus scale="   93.127">  2  5  1 -1</clus>
</clustering>
</event>
<event>
 9    1  0.2333971E-005  0.2173633E+03  0.7546771E-02  0.1161528E+00
         -4   -1    0    0    0  501 -0.00000000000E+00  0.00000000000E+00  0.28236499989E+03  0.28236499989E+03  0.00000000000E+00 0.  1.
          3   -1    0    0  502    0  0.00000000000E+00 -0.00000000000E+00 -0.49166627519E+03  0.49166627519E+03  0.00000000000E+00 0. -1.
        -24    2    1    2    0    0  0.77948026736E+02 -0.12323060888E+03 -0.12796934732E+03  0.21016383427E+03  0.80814636938E+02 0.  0.
         23    2    1    2    0    0  0.30941586271E+02 -0.67056091901E+02 -0.25704628191E+03  0.28290212180E+03  0.92232956443E+02 0.  0.
         13    1    3    3    0    0  0.95065147961E+02 -0.10661716918E+03 -0.11056702158E+03  0.18063684392E+03  0.00000000000E+00 0. -1.
        -14    1    3    3    0    0 -0.17117121225E+02 -0.16613439700E+02 -0.17402325741E+02  0.29526990346E+02  0.00000000000E+00 0.  1.
        -13    1    4    4    0    0  0.58888396046E+02 -0.23900073089E+02 -0.17383315321E+03  0.18508652527E+03  0.00000000000E+00 0. -1.
         13    1    4    4    0    0 -0.27946809775E+02 -0.43156018812E+02 -0.83213128699E+02  0.97815596528E+02  0.00000000000E+00 0.  1.
         21    1    1    2  502  501 -0.10888961301E+03  0.19028670078E+03  0.17571435392E+03  0.28096531902E+03  0.00000000000E+00 0.  1.
<scales pt_clust_5="13000.00000" pt_clust_6="13000.00000" pt_clust_7="13000.00000" pt_clust_8="13000.00000" pt_clust_9="201.78161"></scales>
<clustering>
<clus scale="   80.815">  5  6 -1 -1</clus>
<clus scale="   92.233">  7  8 -1 -1</clus>
<clus scale="  118.156">  2  7  1 -1</clus>
<clus scale="  201.782">  1  9  2 -1</clus>
<clus scale="  118.156">  2  5  1 -1</clus>
</clustering>
</event>
<event>
 9    1  0.2333971E-005  0.9837418E+02  0.7546771E-02  0.1289141E+00
         -2   -1    0    0    0  501 -0.00000000000E+00  0.00000000000E+00  0.33170404705E+02  0.33170404705E+02  0.00000000000E+00 0.  1.
          1   -1    0    0  502    0  0.00000000000E+00 -0.00000000000E+00 -0.40160646097E+03  0.40160646097E+03  0.00000000000E+00 0. -1.
         23    2    1    2    0    0 -0.12264426943E+02 -0.14404525841E+02 -0.10776217094E+03  0.14290593739E+03  0.91932121275E+02 0.  0.
        -24    2    1    2    0    0 -0.96126380324E+00  0.46129022635E+02 -0.21607193228E+03  0.23556198754E+03  0.81691855761E+02 0.  0.
         11    1    4    4    0    0 -0.27675912730E+02  0.44862267680E+02 -0.19354362615E+03  0.20059340575E+03  0.00000000000E+00 0. -1.
        -12    1    4    4    0    0  0.26714648926E+02  0.12667549553E+01 -0.22528306127E+02  0.34968581789E+02  0.00000000000E+00 0.  1.
        -11    1    3    3    0    0  0.25786225708E+02 -0.85458610380E+00 -0.98016918649E+02  0.10135569099E+03  0.00000000000E+00 0. -1.
         11    1    3    3    0    0 -0.38050652651E+02 -0.13549939738E+02 -0.97452522931E+01  0.41550246405E+02  0.00000000000E+00 0.  1.
         21    1    1    2  502  501  0.13225690746E+02 -0.31724496793E+02 -0.44601953047E+02  0.56308940748E+02  0.00000000000E+00 0.  1.
<scales pt_clust_5="13000.00000" pt_clust_6="13000.00000" pt_clust_7="13000.00000" pt_clust_8="13000.00000" pt_clust_9="34.37096"></scales>
<clustering>
<clus scale="   34.371">  1  9  2 -1</clus>
<clus scale="   81.692">  5  6 -1 -1</clus>
<clus scale="   88.879">  2  5  1 -1</clus>
<clus scale="   91.932">  7  8 -1 -1</clus>
<clus scale="   88.879">  2  5  1 -1</clus>
</clustering>
</event>
<event>
 9    1  0.2333971E-005  0.1430095E+03  0.7546771E-02  0.1215110E+00
          1   -1    0    0  502    0  0.00000000000E+00  0.00000000000E+00  0.76677624690E+03  0.76677624690E+03  0.00000000000E+00 0. -1.
         -2   -1    0    0    0  501 -0.00000000000E+00 -0.00000000000E+00 -0.41089561384E+02  0.41089561384E+02  0.00000000000E+00 0.  1.
         23    2    1    2    0    0 -0.12090434964E+03  0.43462793887E+02  0.23062045419E+03  0.28457440966E+03  0.10625405652E+03 0.  0.
        -24    2    1    2    0    0  0.82143155138E+02 -0.24567425791E+02  0.42163775391E+03  0.43813738269E+03  0.82673540133E+02 0.  0.
         11    1    4    4    0    0  0.15675849466E+02 -0.45595569085E+02  0.14294189224E+03  0.15085447535E+03  0.00000000000E+00 0. -1.
        -12    1    4    4    0    0  0.66467305671E+02  0.21028143295E+02  0.27869586167E+03  0.28728290734E+03  0.00000000000E+00 0.  1.
        -11    1    3    3    0    0 -0.82842616241E+02  0.53676786561E+02  0.74809419898E+02  0.12385695696E+03  0.00000000000E+00 0.  1.
         11    1    3    3    0    0 -0.38061733402E+02 -0.10213992674E+02  0.15581103429E+03  0.16071745270E+03  0.00000000000E+00 0. -1.
         21    1    1    2  502  501  0.38761194505E+02 -0.18895368096E+02  0.73428477412E+02  0.85154015936E+02  0.00000000000E+00 0. -1.
<scales pt_clust_5="13000.00000" pt_clust_6="13000.00000" pt_clust_7="13000.00000" pt_clust_8="13000.00000" pt_clust_9="43.12152"></scales>
<clustering>
<clus scale="   43.122">  2  9  1 -1</clus>
<clus scale="   82.674">  5  6 -1 -1</clus>
<clus scale="  106.254">  7  8 -1 -1</clus>
<clus scale="  126.478">  1  5  2 -1</clus>
<clus scale="  126.478">  1  5  2 -1</clus>
</clustering>
</event>
<event>
 9    1  0.2333971E-005  0.1181018E+03  0.7546771E-02  0.1251733E+00
         -2   -1    0    0    0  501 -0.00000000000E+00  0.00000000000E+00  0.12403380407E+03  0.12403380407E+03  0.00000000000E+00 0.  1.
          1   -1    0    0  502    0  0.00000000000E+00 -0.00000000000E+00 -0.66905426042E+03  0.66905426042E+03  0.00000000000E+00 0. -1.
         23    2    1    2    0    0 -0.27134672816E+01  0.10052222070E+03  0.51216734856E+02  0.14496890196E+03  0.90998620036E+02 0.  0.
        -24    2    1    2    0    0 -0.17435304187E+02 -0.72186672016E+02 -0.60350918315E+03  0.61259792694E+03  0.74417608763E+02 0.  0.
         11    1    4    4    0    0 -0.85890450866E+01 -0.48053067867E+02 -0.13799194933E+03  0.14637160622E+03  0.00000000000E+00 0. -1.
        -12    1    4    4    0    0 -0.88462590999E+01 -0.24133604149E+02 -0.46551723382E+03  0.46622632072E+03  0.00000000000E+00 0.  1.
        -11    1    3    3    0    0  0.14549199643E+02  0.11233493056E+03  0.50550090618E+02  0.12404082995E+03  0.00000000000E+00 0.  1.
         11    1    3    3    0    0 -0.17262666924E+02 -0.11812709860E+02  0.66664423770E+00  0.20928072011E+02  0.00000000000E+00 0. -1.
         21    1    1    2  502  501  0.20148771468E+02 -0.28335548683E+02  0.72719919463E+01  0.35521235588E+02  0.00000000000E+00 0.  1.
<scales pt_clust_5="13000.00000" pt_clust_6="13000.00000" pt_clust_7="13000.00000" pt_clust_8="13000.00000" pt_clust_9="34.76890"></scales>
<clustering>
<clus scale="   34.769">  1  9  2 -1</clus>
<clus scale="   74.418">  5  6 -1 -1</clus>
<clus scale="   90.999">  7  8 -1 -1</clus>
<clus scale="  105.855">  2  5  1 -1</clus>
<clus scale="  105.855">  2  5  1 -1</clus>
</clustering>
</event>
<event>
 9    1  0.2333971E-005  0.9562711E+02  0.7546771E-02  0.1295831E+00
         -2   -1    0    0    0  501 -0.00000000000E+00  0.00000000000E+00  0.84501692344E+02  0.84501692344E+02  0.00000000000E+00 0.  1.
          1   -1    0    0  502    0  0.00000000000E+00 -0.00000000000E+00 -0.19421085817E+03  0.19421085817E+03  0.00000000000E+00 0. -1.
         23    2    1    2    0    0  0.47539334274E+01  0.27686814881E+02 -0.79372411411E+00  0.96419608030E+02  0.92233135117E+02 0.  0.
        -24    2    1    2    0    0  0.24160470547E+02 -0.15251566011E+02 -0.12088843337E+03  0.14861757016E+03  0.81589400267E+02 0.  0.
         13    1    4    4    0    0  0.34528288359E+02 -0.65162973990E+01 -0.12839823393E+03  0.13311938742E+03  0.00000000000E+00 0. -1.
        -14    1    4    4    0    0 -0.10367817812E+02 -0.87352686119E+01  0.75098005655E+01  0.15498182746E+02  0.00000000000E+00 0.  1.
        -13    1    3    3    0    0 -0.17148823652E+02 -0.22540835612E+02  0.23189883166E+02  0.36605219628E+02  0.00000000000E+00 0. -1.
         13    1    3    3    0    0  0.21902757080E+02  0.50227650494E+02 -0.23983607280E+02  0.59814388403E+02  0.00000000000E+00 0.  1.
         21    1    1    2  502  501 -0.28914403975E+02 -0.12435248870E+02  0.11972991657E+02  0.33675372320E+02  0.00000000000E+00 0.  1.
<scales pt_clust_5="13000.00000" pt_clust_6="13000.00000" pt_clust_7="13000.00000" pt_clust_8="13000.00000" pt_clust_9="31.47504"></scales>
<clustering>
<clus scale="   31.475">  1  9  2 -1</clus>
<clus scale="   81.589">  5  6 -1 -1</clus>
<clus scale="   85.407">  2  5  1 -1</clus>
<clus scale="   92.233">  7  8 -1 -1</clus>
<clus scale="   85.407">  2  5  1 -1</clus>
</clustering>
</event>
<event>
 9    1  0.2333971E-005  0.1257669E+03  0.7546771E-02  0.1238223E+00
          1   -1    0    0  502    0  0.00000000000E+00  0.00000000000E+00  0.61151671931E+03  0.61151671931E+03  0.00000000000E+00 0. -1.
         -2   -1    0    0    0  501 -0.00000000000E+00 -0.00000000000E+00 -0.32357960874E+03  0.32357960874E+03  0.00000000000E+00 0.  1.
        -24    2    1    2    0    0 -0.55163741770E+02  0.47485997079E+02  0.10369709693E+03  0.15028329746E+03  0.80833305386E+02 0.  0.
         23    2    1    2    0    0  0.37114256048E+01 -0.92619099092E+02  0.47129311888E+03  0.48971334751E+03  0.95445726085E+02 0.  0.
         11    1    3    3    0    0 -0.66886573258E+02  0.15247821790E+02  0.44209049662E+02  0.81613416934E+02  0.00000000000E+00 0. -1.
        -12    1    3    3    0    0  0.11722831489E+02  0.32238175290E+02  0.59488047264E+02  0.68669880525E+02  0.00000000000E+00 0.  1.
        -11    1    4    4    0    0 -0.39854714542E+02 -0.71632595348E+02  0.24632664379E+03  0.25960824800E+03  0.00000000000E+00 0. -1.
         11    1    4    4    0    0  0.43566140147E+02 -0.20986503744E+02  0.22496647509E+03  0.23010509951E+03  0.00000000000E+00 0.  1.
         21    1    1    2  502  501  0.51452316165E+02  0.45133102012E+02 -0.28705310524E+03  0.29509968309E+03  0.00000000000E+00 0.  1.
<scales pt_clust_5="13000.00000" pt_clust_6="13000.00000" pt_clust_7="13000.00000" pt_clust_8="13000.00000" pt_clust_9="68.44222"></scales>
<clustering>
<clus scale="   68.442">  2  9  1 -1</clus>
<clus scale="   80.833">  5  6 -1 -1</clus>
<clus scale="   95.446">  7  8 -1 -1</clus>
<clus scale="  115.071">  2  5  1 -1</clus>
<clus scale="  125.767">  1  5  2 -1</clus>
</clustering>
</event>
<event>
 9    1  0.2333971E-005  0.1209628E+03  0.7546771E-02  0.1268257E+00
         -2   -1    0    0    0  501 -0.00000000000E+00  0.00000000000E+00  0.73658604797E+02  0.73658604797E+02  0.00000000000E+00 0.  1.
          1   -1    0    0  502    0  0.00000000000E+00 -0.00000000000E+00 -0.55837009125E+03  0.55837009125E+03  0.00000000000E+00 0. -1.
        -24    2    1    2    0    0  0.64650595168E-01 -0.15847134527E+02  0.19660113713E+02  0.73862629180E+02  0.69412045538E+02 0.  0.
         23    2    1    2    0    0 -0.58676933928E+02 -0.46344284782E+02 -0.42564601005E+03  0.44197273258E+03  0.92599109960E+02 0.  0.
         13    1    3    3    0    0  0.14433928877E+02  0.23455680462E+02  0.16010467397E+02  0.31856589821E+02  0.00000000000E+00 0. -1.
        -14    1    3    3    0    0 -0.14369278282E+02 -0.39302814989E+02  0.36496463164E+01  0.42006039359E+02  0.00000000000E+00 0.  1.
        -11    1    4    4    0    0 -0.84666762902E+01  0.25310506817E+02 -0.54918646540E+02  0.61060331645E+02  0.00000000000E+00 0. -1.
         11    1    4    4    0    0 -0.50210257638E+02 -0.71654791599E+02 -0.37072736351E+03  0.38091240094E+03  0.00000000000E+00 0.  1.
         21    1    1    2  502  501  0.58612283333E+02  0.62191419309E+02 -0.78725590110E+02  0.11619333428E+03  0.00000000000E+00 0. -1.
<scales pt_clust_5="13000.00000" pt_clust_6="13000.00000" pt_clust_7="13000.00000" pt_clust_8="13000.00000" pt_clust_9="77.82933"></scales>
<clustering>
<clus scale="   69.412">  5  6 -1 -1</clus>
<clus scale="   71.198">  1  5  2 -1</clus>
<clus scale="   77.829">  1  9  2 -1</clus>
<clus scale="   92.599">  7  8 -1 -1</clus>
<clus scale="  120.963">  2  5  1 -1</clus>
</clustering>
</event>
<event>
 9    1  0.2333971E-005  0.1023813E+03  0.7546771E-02  0.1278211E+00
          1   -1    0    0  502    0  0.00000000000E+00  0.00000000000E+00  0.25377525360E+03  0.25377525360E+03  0.00000000000E+00 0. -1.
         -2   -1    0    0    0  501 -0.00000000000E+00 -0.00000000000E+00 -0.63543617236E+03  0.63543617236E+03  0.00000000000E+00 0.  1.
        -24    2    1    2    0    0  0.49168717057E+01 -0.14739526260E+02 -0.37575619598E+03  0.38555005312E+03  0.84939362977E+02 0.  0.
         23    2    1    2    0    0 -0.15256859731E+02  0.45125153092E+02  0.23716610256E+03  0.25848056649E+03  0.91079041726E+02 0.  0.
         13    1    3    3    0    0 -0.37617972962E+02 -0.37733703941E+01 -0.11324480086E+03  0.11938900760E+03  0.00000000000E+00 0. -1.
        -14    1    3    3    0    0  0.42534844667E+02 -0.10966155866E+02 -0.26251139512E+03  0.26616104552E+03  0.00000000000E+00 0.  1.
        -11    1    4    4    0    0  0.23934109153E+02  0.56858200571E+02  0.15007587745E+03  0.16226048670E+03  0.00000000000E+00 0. -1.
         11    1    4    4    0    0 -0.39190968885E+02 -0.11733047479E+02  0.87090225111E+02  0.96220079792E+02  0.00000000000E+00 0.  1.
         21    1    1    2  502  501  0.10339988025E+02 -0.30385626832E+02 -0.24307082533E+03  0.24518080634E+03  0.00000000000E+00 0.  1.
<scales pt_clust_5="13000.00000" pt_clust_6="13000.00000" pt_clust_7="13000.00000" pt_clust_8="13000.00000" pt_clust_9="32.09675"></scales>
<clustering>
<clus scale="   32.097">  2  9  1 -1</clus>
<clus scale="   84.939">  5  6 -1 -1</clus>
<clus scale="   91.079">  7  8 -1 -1</clus>
<clus scale="   96.960">  2  5  1 -1</clus>
<clus scale="  102.381">  1  5  2 -1</clus>
</clustering>
</event>
<event>
 9    1  0.2333971E-005  0.1136008E+03  0.7546771E-02  0.1258343E+00
         -2   -1    0    0    0  501 -0.00000000000E+00  0.00000000000E+00  0.63775566873E+03  0.63775566873E+03  0.00000000000E+00 0.  1.
          1   -1    0    0  502    0  0.00000000000E+00 -0.00000000000E+00 -0.10834966208E+03  0.10834966208E+03  0.00000000000E+00 0. -1.
        -24    2    1    2    0    0  0.27490345343E+02 -0.62808538533E+02  0.42303221827E+03  0.43621118194E+03  0.81383695903E+02 0.  0.
         23    2    1    2    0    0 -0.17812691628E+02 -0.48611745981E+02 -0.51549254600E+02  0.11637974557E+03  0.90589876359E+02 0.  0.
         11    1    3    3    0    0  0.28561791005E+02 -0.81213749380E+02  0.37517410360E+03  0.38492474200E+03  0.00000000000E+00 0. -1.
        -12    1    3    3    0    0 -0.10714456617E+01  0.18405210846E+02  0.47858114670E+02  0.51286439941E+02  0.00000000000E+00 0.  1.
        -13    1    4    4    0    0  0.20861720093E+00  0.25136695473E+02 -0.26279313680E+02  0.36366183577E+02  0.00000000000E+00 0.  1.
         13    1    4    4    0    0 -0.18021308829E+02 -0.73748441454E+02 -0.25269940920E+02  0.80013561994E+02  0.00000000000E+00 0. -1.
         21    1    1    2  502  501 -0.96776537156E+01  0.11142028451E+03  0.15792304298E+03  0.19351440331E+03  0.00000000000E+00 0.  1.
<scales pt_clust_5="13000.00000" pt_clust_6="13000.00000" pt_clust_7="13000.00000" pt_clust_8="13000.00000" pt_clust_9="79.25801"></scales>
<clustering>
<clus scale="   81.384">  5  6 -1 -1</clus>
<clus scale="   90.590">  7  8 -1 -1</clus>
<clus scale="  104.340">  2  7  1 -1</clus>
<clus scale="   79.258">  2  9  1 -1</clus>
<clus scale="  104.340">  2  5  1 -1</clus>
</clustering>
</event>
<event>
 9    1  0.2333971E-005  0.9895178E+02  0.7546771E-02  0.1289705E+00
         -2   -1    0    0    0  501 -0.00000000000E+00  0.00000000000E+00  0.42375357781E+03  0.42375357781E+03  0.00000000000E+00 0.  1.
          1   -1    0    0  502    0  0.00000000000E+00 -0.00000000000E+00 -0.58810866732E+02  0.58810866732E+02  0.00000000000E+00 0. -1.
         23    2    1    2    0    0 -0.85436637790E+01  0.24932339377E+01  0.19197777694E+03  0.21411835537E+03  0.94403351949E+02 0.  0.
        -24    2    1    2    0    0  0.29685563551E+02  0.17534981331E+02 -0.47971080917E+01  0.88314323543E+02  0.81164642815E+02 0.  0.
         11    1    4    4    0    0  0.50885130059E+02 -0.77444006256E+01 -0.15289763458E+02  0.53694031966E+02  0.00000000000E+00 0. -1.
        -12    1    4    4    0    0 -0.21199566508E+02  0.25279381957E+02  0.10492655366E+02  0.34620291577E+02  0.00000000000E+00 0.  1.
        -11    1    3    3    0    0 -0.36403065971E+02  0.36023070442E+02  0.10182241012E+03  0.11397652398E+03  0.00000000000E+00 0.  1.
         11    1    3    3    0    0  0.27859402192E+02 -0.33529836504E+02  0.90155366826E+02  0.10014183139E+03  0.00000000000E+00 0. -1.
         21    1    1    2  502  501 -0.21141899772E+02 -0.20028215269E+02  0.17776204223E+03  0.18013176563E+03  0.00000000000E+00 0.  1.
<scales pt_clust_5="13000.00000" pt_clust_6="13000.00000" pt_clust_7="13000.00000" pt_clust_8="13000.00000" pt_clust_9="29.12232"></scales>
<clustering>
<clus scale="   29.122">  1  9  2 -1</clus>
<clus scale="   81.165">  5  6 -1 -1</clus>
<clus scale="   86.413">  2  5  1 -1</clus>
<clus scale="   94.403">  7  8 -1 -1</clus>
<clus scale="   86.413">  2  5  1 -1</clus>
</clustering>
</event>
<event>
 9    1  0.2333971E-005  0.8986777E+02  0.7546771E-02  0.1307492E+00
          1   -1    0    0  502    0  0.00000000000E+00  0.00000000000E+00  0.36628578576E+03  0.36628578576E+03  0.00000000000E+00 0. -1.
         -2   -1    0    0    0  501 -0.00000000000E+00 -0.00000000000E+00 -0.14378542310E+03  0.14378542310E+03  0.00000000000E+00 0.  1.
         23    2    1    2    0    0 -0.13506242034E+02 -0.42237349097E+02 -0.82275572377E+02  0.12825213046E+03  0.87823270982E+02 0.  0.
        -24    2    1    2    0    0  0.87967894399E+01  0.15568617058E+02  0.33274493613E+03  0.34288753291E+03  0.80826371678E+02 0.  0.
         13    1    4    4    0    0  0.33514350222E+02  0.37047833053E+02  0.19369493080E+03  0.20003369671E+03  0.00000000000E+00 0. -1.
        -14    1    4    4    0    0 -0.24717560782E+02 -0.21479215995E+02  0.13905000534E+03  0.14285383619E+03  0.00000000000E+00 0.  1.
        -11    1    3    3    0    0 -0.55423187957E+00 -0.64358584058E+02 -0.79768780081E+02  0.10249581841E+03  0.00000000000E+00 0.  1.
         11    1    3    3    0    0 -0.12952010155E+02  0.22121234961E+02 -0.25067922957E+01  0.25756312059E+02  0.00000000000E+00 0. -1.
         21    1    1    2  502  501  0.47094525944E+01  0.26668732039E+02 -0.27969001097E+02  0.38931545495E+02  0.00000000000E+00 0. -1.
<scales pt_clust_5="13000.00000" pt_clust_6="13000.00000" pt_clust_7="13000.00000" pt_clust_8="13000.00000" pt_clust_9="27.08136"></scales>
<clustering>
<clus scale="   27.081">  2  9  1 -1</clus>
<clus scale="   80.826">  5  6 -1 -1</clus>
<clus scale="   83.043">  1  5  2 -1</clus>
<clus scale="   87.823">  7  8 -1 -1</clus>
<clus scale="   83.043">  1  5  2 -1</clus>
</clustering>
</event>
<event>
 9    1  0.2333971E-005  0.9327788E+02  0.7546771E-02  0.1300955E+00
          1   -1    0    0  502    0  0.00000000000E+00  0.00000000000E+00  0.38534253954E+03  0.38534253954E+03  0.00000000000E+00 0. -1.
         -2   -1    0    0    0  501 -0.00000000000E+00 -0.00000000000E+00 -0.95176220049E+02  0.95176220049E+02  0.00000000000E+00 0.  1.
         23    2    1    2    0    0  0.16853699076E+02  0.69514578815E+01 -0.54416368532E+02  0.10833951690E+03  0.91890912596E+02 0.  0.
        -24    2    1    2    0    0  0.19894975241E+02 -0.19539138813E+02  0.30342029021E+03  0.31558191264E+03  0.82161323566E+02 0.  0.
         11    1    4    4    0    0 -0.22210841808E+02 -0.35355448595E+02  0.14173272286E+03  0.14775484414E+03  0.00000000000E+00 0. -1.
        -12    1    4    4    0    0  0.42105817049E+02  0.15816309782E+02  0.16168756736E+03  0.16782706850E+03  0.00000000000E+00 0.  1.
        -11    1    3    3    0    0 -0.21450095258E+02  0.35675643011E+02 -0.95150826660E+01  0.42701228190E+02  0.00000000000E+00 0. -1.
         11    1    3    3    0    0  0.38303794334E+02 -0.28724185129E+02 -0.44901285866E+02  0.65638288705E+02  0.00000000000E+00 0.  1.
         21    1    1    2  502  501 -0.36748674318E+02  0.12587680932E+02  0.41162397811E+02  0.56597330051E+02  0.00000000000E+00 0. -1.
<scales pt_clust_5="13000.00000" pt_clust_6="13000.00000" pt_clust_7="13000.00000" pt_clust_8="13000.00000" pt_clust_9="38.84475"></scales>
<clustering>
<clus scale="   38.845">  1  9  2 -1</clus>
<clus scale="   82.161">  5  6 -1 -1</clus>
<clus scale="   83.710">  1  5  2 -1</clus>
<clus scale="   91.891">  7  8 -1 -1</clus>
<clus scale="   38.845">  1  5  2 -1</clus>
</clustering>
</event>
<event>
 9    1  0.2333971E-005  0.1456789E+03  0.7546771E-02  0.1207756E+00
         -2   -1    0    0    0  501 -0.00000000000E+00  0.00000000000E+00  0.14215048551E+03  0.14215048551E+03  0.00000000000E+00 0.  1.
          1   -1    0    0  502    0  0.00000000000E+00 -0.00000000000E+00 -0.63934567078E+03  0.63934567078E+03  0.00000000000E+00 0. -1.
        -24    2    1    2    0    0 -0.12155383591E+03 -0.32385223169E+02 -0.26174233138E+03  0.30142081985E+03  0.80754720584E+02 0.  0.
         23    2    1    2    0    0  0.10125044838E+03  0.32859946304E+02 -0.34315937199E+03  0.37047083404E+03  0.90326379992E+02 0.  0.
         13    1    3    3    0    0 -0.10827946755E+03 -0.71195260396E+01 -0.24589893547E+03  0.26877763525E+03  0.00000000000E+00 0. -1.
        -14    1    3    3    0    0 -0.13274368366E+02 -0.25265697129E+02 -0.15843395909E+02  0.32643184601E+02  0.00000000000E+00 0.  1.
        -13    1    4    4    0    0  0.90806695284E+01  0.37128277140E+02 -0.48787839880E+02  0.61977583389E+02  0.00000000000E+00 0.  1.
         13    1    4    4    0    0  0.92169778854E+02 -0.42683308360E+01 -0.29437153211E+03  0.30849325065E+03  0.00000000000E+00 0. -1.
         21    1    1    2  502  501  0.20303387529E+02 -0.47472313546E+00  0.10770651809E+03  0.10960450240E+03  0.00000000000E+00 0.  1.
<scales pt_clust_5="13000.00000" pt_clust_6="13000.00000" pt_clust_7="13000.00000" pt_clust_8="13000.00000" pt_clust_9="20.30894"></scales>
<clustering>
<clus scale="   20.309">  1  9  2 -1</clus>
<clus scale="   80.755">  5  6 -1 -1</clus>
<clus scale="   90.326">  7  8 -1 -1</clus>
<clus scale="  139.946">  1  5  2 -1</clus>
<clus scale="  145.679">  2  5  1 -1</clus>
</clustering>
</event>
<event>
 9    1  0.2333971E-005  0.1145825E+03  0.7546771E-02  0.1257994E+00
          1   -1    0    0  502    0  0.00000000000E+00  0.00000000000E+00  0.26764221192E+03  0.26764221192E+03  0.00000000000E+00 0. -1.
         -2   -1    0    0    0  501 -0.00000000000E+00 -0.00000000000E+00 -0.12183593832E+03  0.12183593832E+03  0.00000000000E+00 0.  1.
         23    2    1    2    0    0  0.45165410833E+02 -0.39977638285E+02 -0.14163295053E+02  0.10984035339E+03  0.90698282278E+02 0.  0.
        -24    2    1    2    0    0 -0.13707728482E+02  0.11948580391E+03  0.11841076217E+03  0.18456798787E+03  0.74695879354E+02 0.  0.
         13    1    4    4    0    0 -0.26583870145E+02  0.23328788330E+02  0.64549140017E+02  0.73603844965E+02  0.00000000000E+00 0. -1.
        -14    1    4    4    0    0  0.12876141663E+02  0.96157015584E+02  0.53861622157E+02  0.11096414291E+03  0.00000000000E+00 0.  1.
        -11    1    3    3    0    0  0.19091039858E+02 -0.44191193640E+02 -0.47284561459E+02  0.67477100935E+02  0.00000000000E+00 0.  1.
         11    1    3    3    0    0  0.26074370975E+02  0.42135553554E+01  0.33121266406E+02  0.42363252458E+02  0.00000000000E+00 0. -1.
         21    1    1    2  502  501 -0.31457682351E+02 -0.79508165629E+02  0.41558806482E+02  0.95069808966E+02  0.00000000000E+00 0.  1.
<scales pt_clust_5="13000.00000" pt_clust_6="13000.00000" pt_clust_7="13000.00000" pt_clust_8="13000.00000" pt_clust_9="85.50517"></scales>
<clustering>
<clus scale="   74.696">  5  6 -1 -1</clus>
<clus scale="   85.505">  1  9  2 -1</clus>
<clus scale="   90.698">  7  8 -1 -1</clus>
<clus scale="  102.384">  1  5  2 -1</clus>
<clus scale="   85.505">  1  5  2 -1</clus>
</clustering>
</event>
<event>
 9    1  0.2333971E-005  0.1755480E+03  0.7546771E-02  0.1172972E+00
          1   -1    0    0  502    0  0.00000000000E+00  0.00000000000E+00  0.52450294190E+03  0.52450294190E+03  0.00000000000E+00 0. -1.
         -2   -1    0    0    0  501 -0.00000000000E+00 -0.00000000000E+00 -0.11084672422E+03  0.11084672422E+03  0.00000000000E+00 0.  1.
        -24    2    1    2    0    0  0.38700088026E+02  0.13709652007E+03  0.26197875162E+02  0.16826079518E+03  0.85628347542E+02 0.  0.
         23    2    1    2    0    0 -0.95762840380E+02 -0.15211361549E+03  0.30311228247E+03  0.36415234338E+03  0.91764915900E+02 0.  0.
         13    1    3    3    0    0  0.35261646408E+02  0.64717315858E+02 -0.26869991005E+02  0.78445593221E+02  0.00000000000E+00 0. -1.
        -14    1    3    3    0    0  0.34384416177E+01  0.72379204214E+02  0.53067866167E+02  0.89815201959E+02  0.00000000000E+00 0.  1.
        -11    1    4    4    0    0 -0.91824503368E+01 -0.91883824967E+02  0.10587411780E+03  0.14048588365E+03  0.00000000000E+00 0.  1.
         11    1    4    4    0    0 -0.86580390043E+02 -0.60229790523E+02  0.19723816466E+03  0.22366645973E+03  0.00000000000E+00 0. -1.
         21    1    1    2  502  501  0.57062752355E+02  0.15017095419E+02  0.84346060050E+02  0.10293652756E+03  0.00000000000E+00 0. -1.
<scales pt_clust_5="13000.00000" pt_clust_6="13000.00000" pt_clust_7="13000.00000" pt_clust_8="13000.00000" pt_clust_9="59.00568"></scales>
<clustering>
<clus scale="   59.006">  1  9  2 -1</clus>
<clus scale="   85.628">  5  6 -1 -1</clus>
<clus scale="   91.765">  7  8 -1 -1</clus>
<clus scale="  172.420">  2  5  1 -1</clus>
<clus scale="   59.006">  1  5  2 -1</clus>
</clustering>
</event>
<event>
 9    1  0.2333971E-005  0.1119232E+03  0.7546771E-02  0.1264820E+00
         -2   -1    0    0    0  501 -0.00000000000E+00  0.00000000000E+00  0.47424280177E+02  0.47424280177E+02  0.00000000000E+00 0.  1.
          1   -1    0    0  502    0  0.00000000000E+00 -0.00000000000E+00 -0.47351202658E+03  0.47351202658E+03  0.00000000000E+00 0. -1.
         23    2    1    2    0    0  0.51808688975E+02 -0.69164485730E+00 -0.85759778295E+02  0.13596011887E+03  0.91901010465E+02 0.  0.
        -24    2    1    2    0    0 -0.56197515400E+02  0.41606036980E+02 -0.32655275468E+03  0.34158257332E+03  0.71782517052E+02 0.  0.
         11    1    4    4    0    0 -0.56622482714E+02  0.57461726500E+02 -0.23004197453E+03  0.24377708179E+03  0.00000000000E+00 0. -1.
        -12    1    4    4    0    0  0.42496731374E+00 -0.15855689520E+02 -0.96510780152E+02  0.97805491527E+02  0.00000000000E+00 0.  1.
        -13    1    3    3    0    0  0.44822867238E+02  0.34050800988E+02 -0.83169645215E+02  0.10042776688E+03  0.00000000000E+00 0. -1.
         13    1    3    3    0    0  0.69858217369E+01 -0.34742445846E+02 -0.25901330801E+01  0.35532351992E+02  0.00000000000E+00 0.  1.
         21    1    1    2  502  501  0.43888264253E+01 -0.40914392123E+02 -0.13775213424E+02  0.43393614565E+02  0.00000000000E+00 0.  1.
<scales pt_clust_5="13000.00000" pt_clust_6="13000.00000" pt_clust_7="13000.00000" pt_clust_8="13000.00000" pt_clust_9="41.14911"></scales>
<clustering>
<clus scale="   41.149">  1  9  2 -1</clus>
<clus scale="   71.783">  5  6 -1 -1</clus>
<clus scale="   91.901">  7  8 -1 -1</clus>
<clus scale="   96.092">  2  5  1 -1</clus>
<clus scale="   96.092">  2  5  1 -1</clus>
</clustering>
</event>
<event>
 9    1  0.2333971E-005  0.1210418E+03  0.7546771E-02  0.1244976E+00
         -2   -1    0    0    0  501 -0.00000000000E+00  0.00000000000E+00  0.31088990443E+03  0.31088990443E+03  0.00000000000E+00 0.  1.
          1   -1    0    0  502    0  0.00000000000E+00 -0.00000000000E+00 -0.28348417983E+03  0.28348417983E+03  0.00000000000E+00 0. -1.
        -24    2    1    2    0    0 -0.46018126881E+01 -0.32666960921E+02  0.94119987287E+02  0.12823214744E+03  0.80601517442E+02 0.  0.
         23    2    1    2    0    0 -0.54558168096E+02  0.66824509467E+02 -0.24480417268E+03  0.27539955168E+03  0.92052818145E+02 0.  0.
         13    1    3    3    0    0 -0.20821439260E+01 -0.32056389196E+02  0.10873910490E+03  0.11338492116E+03  0.00000000000E+00 0. -1.
        -14    1    3    3    0    0 -0.25196687620E+01 -0.61057172528E+00 -0.14619117612E+02  0.14847226281E+02  0.00000000000E+00 0.  1.
        -13    1    4    4    0    0 -0.37018571717E+02  0.25662420033E+02 -0.21934080417E+03  0.22391811634E+03  0.00000000000E+00 0. -1.
         13    1    4    4    0    0 -0.17539596379E+02  0.41162089434E+02 -0.25463368516E+02  0.51481435333E+02  0.00000000000E+00 0.  1.
         21    1    1    2  502  501  0.59159980784E+02 -0.34157548546E+02  0.17808991000E+03  0.19074238515E+03  0.00000000000E+00 0.  1.
<scales pt_clust_5="13000.00000" pt_clust_6="13000.00000" pt_clust_7="13000.00000" pt_clust_8="13000.00000" pt_clust_9="68.31282"></scales>
<clustering>
<clus scale="   68.313">  1  9  2 -1</clus>
<clus scale="   80.602">  5  6 -1 -1</clus>
<clus scale="   92.053">  7  8 -1 -1</clus>
<clus scale="  112.579">  1  5  2 -1</clus>
<clus scale="  121.042">  2  5  1 -1</clus>
</clustering>
</event>
<event>
 9    1  0.2333971E-005  0.1022222E+03  0.7546771E-02  0.1292714E+00
         -2   -1    0    0    0  501 -0.00000000000E+00  0.00000000000E+00  0.30279106661E+03  0.30279106661E+03  0.00000000000E+00 0.  1.
          1   -1    0    0  502    0  0.00000000000E+00 -0.00000000000E+00 -0.58531097110E+02  0.58531097110E+02  0.00000000000E+00 0. -1.
        -24    2    1    2    0    0 -0.36200815489E+02  0.12711703332E+02  0.91613054161E+02  0.11428551867E+03  0.56534428818E+02 0.  0.
         23    2    1    2    0    0  0.36647750716E+02 -0.42011362603E+02  0.16055815186E+02  0.10733768863E+03  0.90308238705E+02 0.  0.
         11    1    3    3    0    0 -0.32266365906E+02  0.51342813445E+01  0.12925529945E+02  0.35136142903E+02  0.00000000000E+00 0. -1.
        -12    1    3    3    0    0 -0.39344495832E+01  0.75774219872E+01  0.78687524215E+02  0.79149375769E+02  0.00000000000E+00 0.  1.
        -11    1    4    4    0    0  0.30855937651E+02 -0.70551143687E+02  0.11187919548E+02  0.77812096153E+02  0.00000000000E+00 0. -1.
         11    1    4    4    0    0  0.57918130649E+01  0.28539781084E+02  0.48678956374E+01  0.29525592473E+02  0.00000000000E+00 0.  1.
         21    1    1    2  502  501 -0.44693522685E+00  0.29299659271E+02  0.13659110015E+03  0.13969895642E+03  0.00000000000E+00 0. -1.
<scales pt_clust_5="13000.00000" pt_clust_6="13000.00000" pt_clust_7="13000.00000" pt_clust_8="13000.00000" pt_clust_9="29.30307"></scales>
<clustering>
<clus scale="   29.303">  1  9  2 -1</clus>
<clus scale="   56.534">  5  6 -1 -1</clus>
<clus scale="   74.094">  1  5  2 -1</clus>
<clus scale="   90.308">  7  8 -1 -1</clus>
<clus scale="  102.222">  2  5  1 -1</clus>
</clustering>
</event>
<event>
 9    1  0.2333971E-005  0.1468521E+03  0.7546771E-02  0.1205810E+00
         -2   -1    0    0    0  501 -0.00000000000E+00  0.00000000000E+00  0.28766932649E+03  0.28766932649E+03  0.00000000000E+00 0.  1.
          1   -1    0    0  502    0  0.00000000000E+00 -0.00000000000E+00 -0.81570819853E+03  0.81570819853E+03  0.00000000000E+00 0. -1.
         23    2    1    2    0    0 -0.82190709261E+02 -0.50263713026E+02  0.17753867311E+03  0.22057064753E+03  0.88598400459E+02 0.  0.
        -24    2    1    2    0    0  0.10369397614E+03  0.55880293410E+02 -0.78623962124E+03  0.79913904031E+03  0.81088937959E+02 0.  0.
         11    1    4    4    0    0  0.79303632125E+02  0.77086721630E+02 -0.61996255815E+03  0.62974995214E+03  0.00000000000E+00 0. -1.
        -12    1    4    4    0    0  0.24390344011E+02 -0.21206428219E+02 -0.16627706309E+03  0.16938908816E+03  0.00000000000E+00 0.  1.
        -11    1    3    3    0    0 -0.51356310871E+02 -0.34256024485E+02  0.17519104674E+03  0.18574942460E+03  0.00000000000E+00 0.  1.
         11    1    3    3    0    0 -0.30834398390E+02 -0.16007688541E+02  0.23476263673E+01  0.34821222927E+02  0.00000000000E+00 0. -1.
         21    1    1    2  502  501 -0.21503266875E+02 -0.56165803840E+01  0.80662076079E+02  0.83667837183E+02  0.00000000000E+00 0.  1.
<scales pt_clust_5="13000.00000" pt_clust_6="13000.00000" pt_clust_7="13000.00000" pt_clust_8="13000.00000" pt_clust_9="22.22468"></scales>
<clustering>
<clus scale="   22.225">  1  9  2 -1</clus>
<clus scale="   81.089">  5  6 -1 -1</clus>
<clus scale="   88.598">  7  8 -1 -1</clus>
<clus scale="  142.447">  2  5  1 -1</clus>
<clus scale="  142.447">  2  5  1 -1</clus>
</clustering>
</event>
<event>
 9    1  0.2333971E-005  0.1685702E+03  0.7546771E-02  0.1204931E+00
          1   -1    0    0  502    0  0.00000000000E+00  0.00000000000E+00  0.33127323272E+03  0.33127323272E+03  0.00000000000E+00 0. -1.
         -2   -1    0    0    0  501 -0.00000000000E+00 -0.00000000000E+00 -0.14817872643E+03  0.14817872643E+03  0.00000000000E+00 0.  1.
         23    2    1    2    0    0 -0.17948844708E+02 -0.12269116649E+03  0.61162704265E+01  0.15377705818E+03  0.90745200954E+02 0.  0.
        -24    2    1    2    0    0 -0.80215596534E+01 -0.50242960541E+02  0.84401702436E+02  0.12780856038E+03  0.81379851490E+02 0.  0.
         13    1    4    4    0    0 -0.38282122061E+02 -0.52345235909E+02  0.64898485272E+02  0.91746160587E+02  0.00000000000E+00 0. -1.
        -14    1    4    4    0    0  0.30260562407E+02  0.21022753681E+01  0.19503217164E+02  0.36062399791E+02  0.00000000000E+00 0.  1.
        -11    1    3    3    0    0  0.28449604780E+02 -0.11780939355E+02 -0.10228437583E+02  0.32446748367E+02  0.00000000000E+00 0.  1.
         11    1    3    3    0    0 -0.46398449488E+02 -0.11091022714E+03  0.16344708009E+02  0.12133030981E+03  0.00000000000E+00 0. -1.
         21    1    1    2  502  501  0.25970404361E+02  0.17293412704E+03  0.92576533432E+02  0.19786634059E+03  0.00000000000E+00 0.  1.
<scales pt_clust_5="13000.00000" pt_clust_6="13000.00000" pt_clust_7="13000.00000" pt_clust_8="13000.00000" pt_clust_9="142.06062"></scales>
<clustering>
<clus scale="   81.380">  5  6 -1 -1</clus>
<clus scale="   90.745">  7  8 -1 -1</clus>
<clus scale="   95.976">  1  5  2 -1</clus>
<clus scale="  142.061">  1  9  2 -1</clus>
<clus scale="   95.976">  1  5  2 -1</clus>
</clustering>
</event>
<event>
 9    1  0.2333971E-005  0.1014717E+03  0.7546771E-02  0.1282868E+00
          3   -1    0    0  502    0  0.00000000000E+00  0.00000000000E+00  0.48824796917E+02  0.48824796917E+02  0.00000000000E+00 0. -1.
         -4   -1    0    0    0  501 -0.00000000000E+00 -0.00000000000E+00 -0.42426706848E+03  0.42426706848E+03  0.00000000000E+00 0.  1.
        -24    2    1    2    0    0 -0.34532405755E+02  0.61537295683E+01 -0.27312171787E+03  0.28680104876E+03  0.80181128483E+02 0.  0.
         23    2    1    2    0    0  0.44396023277E+02  0.11680202102E+02 -0.23995137730E+02  0.10535744370E+03  0.91744156781E+02 0.  0.
         13    1    3    3    0    0 -0.22454965059E+02  0.14872234770E+02 -0.20774369029E+02  0.34014456212E+02  0.00000000000E+00 0. -1.
        -14    1    3    3    0    0 -0.12077440696E+02 -0.87185052016E+01 -0.25234734884E+03  0.25278659255E+03  0.00000000000E+00 0.  1.
        -11    1    4    4    0    0  0.28580164272E+02  0.43859784420E+02  0.12893106782E+02  0.53914178855E+02  0.00000000000E+00 0.  1.
         11    1    4    4    0    0  0.15815859005E+02 -0.32179582318E+02 -0.36888244511E+02  0.51443264840E+02  0.00000000000E+00 0. -1.
         21    1    1    2  502  501 -0.98636175224E+01 -0.17833931670E+02 -0.78325415962E+02  0.80933372938E+02  0.00000000000E+00 0. -1.
<scales pt_clust_5="13000.00000" pt_clust_6="13000.00000" pt_clust_7="13000.00000" pt_clust_8="13000.00000" pt_clust_9="20.37989"></scales>
<clustering>
<clus scale="   20.380">  2  9  1 -1</clus>
<clus scale="   80.181">  5  6 -1 -1</clus>
<clus scale="   91.151">  2  5  1 -1</clus>
<clus scale="   91.744">  7  8 -1 -1</clus>
<clus scale="  101.472">  1  5  2 -1</clus>
</clustering>
</event>
<event>
 9    1  0.2333971E-005  0.1263415E+03  0.7546771E-02  0.1235887E+00
         -2   -1    0    0    0  501 -0.00000000000E+00  0.00000000000E+00  0.54646552056E+03  0.54646552056E+03  0.00000000000E+00 0.  1.
          1   -1    0    0  502    0  0.00000000000E+00 -0.00000000000E+00 -0.59573329480E+02  0.59573329480E+02  0.00000000000E+00 0. -1.
         23    2    1    2    0    0  0.49653290119E+02  0.46619010452E+02  0.25076467906E+03  0.27497765710E+03  0.89950021018E+02 0.  0.
        -24    2    1    2    0    0 -0.21816993529E+02 -0.97091066509E+02  0.50942994576E+02  0.13711379453E+03  0.79387326145E+02 0.  0.
         11    1    4    4    0    0 -0.40809368987E+02 -0.72301739524E+02  0.62390340742E+02  0.10385326549E+03  0.00000000000E+00 0. -1.
        -12    1    4    4    0    0  0.18992375458E+02 -0.24789326985E+02 -0.11447346166E+02  0.33260529042E+02  0.00000000000E+00 0.  1.
        -11    1    3    3    0    0  0.70687954106E+02  0.54645266482E+02  0.21347714154E+03  0.23142035771E+03  0.00000000000E+00 0.  1.
         11    1    3    3    0    0 -0.21034663987E+02 -0.80262560295E+01  0.37287537526E+02  0.43557299384E+02  0.00000000000E+00 0. -1.
         21    1    1    2  502  501 -0.27836296590E+02  0.50472056056E+02  0.18518451745E+03  0.19394739842E+03  0.00000000000E+00 0. -1.
<scales pt_clust_5="13000.00000" pt_clust_6="13000.00000" pt_clust_7="13000.00000" pt_clust_8="13000.00000" pt_clust_9="57.63929"></scales>
<clustering>
<clus scale="   57.639">  1  9  2 -1</clus>
<clus scale="   79.387">  5  6 -1 -1</clus>
<clus scale="   89.950">  7  8 -1 -1</clus>
<clus scale="  119.053">  2  5  1 -1</clus>
<clus scale="  119.053">  2  5  1 -1</clus>
</clustering>
</event>
<event>
 9    1  0.2828955E-005  0.1440152E+03  0.7546771E-02  0.1216216E+00
         -2   -1    0    0    0  501 -0.00000000000E+00  0.00000000000E+00  0.42279335391E+03  0.42279335391E+03  0.00000000000E+00 0.  1.
          1   -1    0    0  502    0  0.00000000000E+00 -0.00000000000E+00 -0.28002802270E+03  0.28002802270E+03  0.00000000000E+00 0. -1.
        -24    2    1    2    0    0 -0.77253577560E+02  0.54417944751E+02  0.34478268941E+03  0.36648868839E+03  0.80681025278E+02 0.  0.
         23    2    1    2    0    0  0.55060604742E+02 -0.71362991537E+02 -0.24552298137E+03  0.28463740893E+03  0.11230571413E+03 0.  0.
         11    1    3    3    0    0 -0.33317479343E+02  0.61063369614E+01  0.30783071890E+02  0.45770506835E+02  0.00000000000E+00 0. -1.
        -12    1    3    3    0    0 -0.43936098216E+02  0.48311607790E+02  0.31399961752E+03  0.32071818155E+03  0.00000000000E+00 0.  1.
        -13    1    4    4    0    0  0.82519886217E+01 -0.86124807294E+02 -0.19907180572E+03  0.21706027177E+03  0.00000000000E+00 0. -1.
         13    1    4    4    0    0  0.46808616121E+02  0.14761815757E+02 -0.46451175652E+02  0.67577137162E+02  0.00000000000E+00 0.  1.
         21    1    1    2  502  501  0.22192972817E+02  0.16945046785E+02  0.43505623171E+02  0.51695279287E+02  0.00000000000E+00 0.  1.
<scales pt_clust_5="13000.00000" pt_clust_6="13000.00000" pt_clust_7="13000.00000" pt_clust_8="13000.00000" pt_clust_9="27.92244"></scales>
<clustering>
<clus scale="   27.922">  1  9  2 -1</clus>
<clus scale="   80.681">  5  6 -1 -1</clus>
<clus scale="  112.306">  7  8 -1 -1</clus>
<clus scale="  120.984">  1  5  2 -1</clus>
<clus scale="  144.015">  2  5  1 -1</clus>
</clustering>
</event>
<event>
 9    1  0.2333971E-005  0.9970075E+02  0.7546771E-02  0.1287226E+00
         -2   -1    0    0    0  501 -0.00000000000E+00  0.00000000000E+00  0.77396831413E+02  0.77396831413E+02  0.00000000000E+00 0.  1.
          1   -1    0    0  502    0  0.00000000000E+00 -0.00000000000E+00 -0.26841052545E+03  0.26841052545E+03  0.00000000000E+00 0. -1.
         23    2    1    2    0    0  0.18441625452E+02 -0.51175991535E+02 -0.43434447532E+02  0.11378317791E+03  0.90005470295E+02 0.  0.
        -24    2    1    2    0    0  0.10767280275E+02  0.40144553117E+02 -0.17149337171E+03  0.19269558641E+03  0.77421528094E+02 0.  0.
         13    1    4    4    0    0  0.25128313838E+02 -0.85323991627E+01 -0.10903242668E+03  0.11221543593E+03  0.00000000000E+00 0. -1.
        -14    1    4    4    0    0 -0.14361033563E+02  0.48676952279E+02 -0.62460945021E+02  0.80480150479E+02  0.00000000000E+00 0.  1.
        -11    1    3    3    0    0  0.43871953622E+02 -0.63208746198E+02 -0.33886577749E+02  0.84073741811E+02  0.00000000000E+00 0. -1.
         11    1    3    3    0    0 -0.25430328171E+02  0.12032754663E+02 -0.95478697827E+01  0.29709436094E+02  0.00000000000E+00 0.  1.
         21    1    1    2  502  501 -0.29208905727E+02  0.11031438418E+02  0.23914125204E+02  0.39328592546E+02  0.00000000000E+00 0.  1.
<scales pt_clust_5="13000.00000" pt_clust_6="13000.00000" pt_clust_7="13000.00000" pt_clust_8="13000.00000" pt_clust_9="31.22263"></scales>
<clustering>
<clus scale="   31.223">  1  9  2 -1</clus>
<clus scale="   77.422">  5  6 -1 -1</clus>
<clus scale="   88.506">  2  5  1 -1</clus>
<clus scale="   90.005">  7  8 -1 -1</clus>
<clus scale="   88.506">  2  5  1 -1</clus>
</clustering>
</event>
<event>
 9    1  0.2333971E-005  0.1048917E+03  0.7546771E-02  0.1275241E+00
         -2   -1    0    0    0  501 -0.00000000000E+00  0.00000000000E+00  0.94509744504E+02  0.94509744504E+02  0.00000000000E+00 0.  1.
          1   -1    0    0  502    0  0.00000000000E+00 -0.00000000000E+00 -0.55160010094E+03  0.55160010094E+03  0.00000000000E+00 0. -1.
        -24    2    1    2    0    0 -0.29588605329E+02 -0.22022244083E+02 -0.13825936125E+03  0.16389629719E+03  0.79911704153E+02 0.  0.
         23    2    1    2    0    0  0.63311233939E+02  0.73002752911E+01 -0.38814908779E+03  0.40373457013E+03  0.90996057073E+02 0.  0.
         13    1    3    3    0    0 -0.54266613445E+02 -0.26882038703E+01 -0.68621208914E+02  0.87526922074E+02  0.00000000000E+00 0. -1.
        -14    1    3    3    0    0  0.24678008115E+02 -0.19334040213E+02 -0.69638152332E+02  0.76369375117E+02  0.00000000000E+00 0.  1.
        -13    1    4    4    0    0  0.62737294038E+02  0.42567439872E+02 -0.26699932248E+03  0.27755466706E+03  0.00000000000E+00 0.  1.
         13    1    4    4    0    0  0.57393990098E+00 -0.35267164580E+02 -0.12114976531E+03  0.12617990307E+03  0.00000000000E+00 0. -1.
         21    1    1    2  502  501 -0.33722628609E+02  0.14721968792E+02  0.69318092601E+02  0.78478978123E+02  0.00000000000E+00 0. -1.
<scales pt_clust_5="13000.00000" pt_clust_6="13000.00000" pt_clust_7="13000.00000" pt_clust_8="13000.00000" pt_clust_9="36.79609"></scales>
<clustering>
<clus scale="   36.796">  1  9  2 -1</clus>
<clus scale="   79.912">  5  6 -1 -1</clus>
<clus scale="   90.996">  7  8 -1 -1</clus>
<clus scale="   95.435">  1  5  2 -1</clus>
<clus scale="  104.892">  2  5  1 -1</clus>
</clustering>
</event>
<event>
 9    1  0.2333971E-005  0.9783398E+02  0.7546771E-02  0.1290831E+00
         -2   -1    0    0    0  501 -0.00000000000E+00  0.00000000000E+00  0.27335241717E+02  0.27335241717E+02  0.00000000000E+00 0.  1.
          1   -1    0    0  502    0  0.00000000000E+00 -0.00000000000E+00 -0.43082803164E+03  0.43082803164E+03  0.00000000000E+00 0. -1.
         23    2    1    2    0    0  0.62573328147E+01 -0.25856320855E+02 -0.15675496801E+03  0.18311554254E+03  0.90837648480E+02 0.  0.
        -24    2    1    2    0    0  0.14576343288E+02  0.43040281482E+02 -0.21249594405E+03  0.23143767736E+03  0.79648833337E+02 0.  0.
         11    1    4    4    0    0 -0.13986186067E+02 -0.17490997068E+02 -0.78843952657E+02  0.81962901667E+02  0.00000000000E+00 0. -1.
        -12    1    4    4    0    0  0.28562529355E+02  0.60531278551E+02 -0.13365199139E+03  0.14947477570E+03  0.00000000000E+00 0.  1.
        -13    1    3    3    0    0  0.97637404200E+01  0.29192332148E+02 -0.97120261549E+02  0.10188163763E+03  0.00000000000E+00 0. -1.
         13    1    3    3    0    0 -0.35064076052E+01 -0.55048653003E+02 -0.59634706461E+02  0.81233904907E+02  0.00000000000E+00 0.  1.
         21    1    1    2  502  501 -0.20833676103E+02 -0.17183960627E+02 -0.34241877861E+02  0.43610053454E+02  0.00000000000E+00 0.  1.
<scales pt_clust_5="13000.00000" pt_clust_6="13000.00000" pt_clust_7="13000.00000" pt_clust_8="13000.00000" pt_clust_9="27.00612"></scales>
<clustering>
<clus scale="   27.006">  1  9  2 -1</clus>
<clus scale="   79.649">  5  6 -1 -1</clus>
<clus scale="   87.544">  2  5  1 -1</clus>
<clus scale="   90.838">  7  8 -1 -1</clus>
<clus scale="   87.544">  2  5  1 -1</clus>
</clustering>
</event>
<event>
 9    1  0.2333971E-005  0.2814596E+03  0.7546771E-02  0.1095358E+00
         -2   -1    0    0    0  501 -0.00000000000E+00  0.00000000000E+00  0.10758340945E+04  0.10758340945E+04  0.00000000000E+00 0.  1.
          1   -1    0    0  502    0  0.00000000000E+00 -0.00000000000E+00 -0.33354372915E+03  0.33354372915E+03  0.00000000000E+00 0. -1.
        -24    2    1    2    0    0 -0.24537615920E+03 -0.54479256555E+00  0.46575179251E+03  0.53266323553E+03  0.81213508467E+02 0.  0.
         23    2    1    2    0    0  0.22303050649E+03  0.16086305243E+03 -0.21382347480E+03  0.36032693296E+03  0.92170992061E+02 0.  0.
         11    1    3    3    0    0 -0.14919637313E+03  0.19292342823E+02  0.20691797520E+03  0.25582572332E+03  0.00000000000E+00 0. -1.
        -12    1    3    3    0    0 -0.96179786067E+02 -0.19837135388E+02  0.25883381730E+03  0.27683751221E+03  0.00000000000E+00 0.  1.
        -13    1    4    4    0    0  0.63197054239E+02  0.54216885599E+02 -0.16461208309E+02  0.84878205257E+02  0.00000000000E+00 0.  1.
         13    1    4    4    0    0  0.15983345225E+03  0.10664616683E+03 -0.19736226649E+03  0.27544872770E+03  0.00000000000E+00 0. -1.
         21    1    1    2  502  501  0.22345652713E+02 -0.16031825986E+03  0.49036204768E+03  0.51638765520E+03  0.00000000000E+00 0.  1.
<scales pt_clust_5="13000.00000" pt_clust_6="13000.00000" pt_clust_7="13000.00000" pt_clust_8="13000.00000" pt_clust_9="161.86807"></scales>
<clustering>
<clus scale="   81.214">  5  6 -1 -1</clus>
<clus scale="   92.171">  7  8 -1 -1</clus>
<clus scale="  161.868">  1  9  2 -1</clus>
<clus scale="  278.064">  1  5  2 -1</clus>
<clus scale="  281.460">  2  5  1 -1</clus>
</clustering>
</event>
<event>
 9    1  0.2333971E-005  0.1047218E+03  0.7546771E-02  0.1276747E+00
          1   -1    0    0  502    0  0.00000000000E+00  0.00000000000E+00  0.67788829496E+02  0.67788829496E+02  0.00000000000E+00 0. -1.
         -2   -1    0    0    0  501 -0.00000000000E+00 -0.00000000000E+00 -0.22406919210E+03  0.22406919210E+03  0.00000000000E+00 0.  1.
        -24    2    1    2    0    0  0.48741153648E+02 -0.17702956882E+02 -0.10204451282E+03  0.13991956235E+03  0.80469289735E+02 0.  0.
         23    2    1    2    0    0 -0.32823749168E+02  0.32348305400E+02 -0.12688605334E+02  0.10509805447E+03  0.93599086403E+02 0.  0.
         13    1    3    3    0    0  0.26207792584E+02 -0.41105965016E+02 -0.21904558259E+02  0.53444910183E+02  0.00000000000E+00 0. -1.
        -14    1    3    3    0    0  0.22533361064E+02  0.23403008133E+02 -0.80139954557E+02  0.86474652164E+02  0.00000000000E+00 0.  1.
        -11    1    4    4    0    0 -0.51125668157E+02  0.53610667935E+02 -0.18705461024E+02  0.76405706155E+02  0.00000000000E+00 0.  1.
         11    1    4    4    0    0  0.18301918988E+02 -0.21262362535E+02  0.60168556891E+01  0.28692348311E+02  0.00000000000E+00 0. -1.
         21    1    1    2  502  501 -0.15917404480E+02 -0.14645348517E+02 -0.41547244455E+02  0.46840404784E+02  0.00000000000E+00 0. -1.
<scales pt_clust_5="13000.00000" pt_clust_6="13000.00000" pt_clust_7="13000.00000" pt_clust_8="13000.00000" pt_clust_9="21.62984"></scales>
<clustering>
<clus scale="   21.630">  2  9  1 -1</clus>
<clus scale="   80.469">  5  6 -1 -1</clus>
<clus scale="   93.173">  2  5  1 -1</clus>
<clus scale="   93.599">  7  8 -1 -1</clus>
<clus scale="  104.722">  1  5  2 -1</clus>
</clustering>
</event>
<event>
 9    1  0.2333971E-005  0.2491295E+03  0.7546771E-02  0.1129367E+00
          1   -1    0    0  502    0  0.00000000000E+00  0.00000000000E+00  0.63255917358E+03  0.63255917358E+03  0.00000000000E+00 0. -1.
         -2   -1    0    0    0  501 -0.00000000000E+00 -0.00000000000E+00 -0.54629387697E+03  0.54629387697E+03  0.00000000000E+00 0.  1.
        -24    2    1    2    0    0 -0.45952278827E+02 -0.26270481294E+03 -0.36173325616E+03  0.45689085873E+03  0.82297493937E+02 0.  0.
         23    2    1    2    0    0 -0.88589208062E+02  0.11235516517E+03  0.48779902292E+03  0.51631563653E+03  0.90344998973E+02 0.  0.
         11    1    3    3    0    0 -0.19733691219E+02 -0.18345697210E+02 -0.12129503176E+02  0.29548401354E+02  0.00000000000E+00 0. -1.
        -12    1    3    3    0    0 -0.26218587608E+02 -0.24435911573E+03 -0.34960375298E+03  0.42734245737E+03  0.00000000000E+00 0.  1.
        -13    1    4    4    0    0 -0.23550474455E+02  0.93576234387E+02  0.34571560675E+03  0.35892954356E+03  0.00000000000E+00 0. -1.
         13    1    4    4    0    0 -0.65038733606E+02  0.18778930781E+02  0.14208341618E+03  0.15738609298E+03  0.00000000000E+00 0.  1.
         21    1    1    2  502  501  0.13454148689E+03  0.15034964777E+03 -0.39800470148E+02  0.20564655529E+03  0.00000000000E+00 0. -1.
<scales pt_clust_5="13000.00000" pt_clust_6="13000.00000" pt_clust_7="13000.00000" pt_clust_8="13000.00000" pt_clust_9="235.14387"></scales>
<clustering>
<clus scale="   82.297">  5  6 -1 -1</clus>
<clus scale="   90.345">  7  8 -1 -1</clus>
<clus scale="  169.216">  1  7  2 -1</clus>
<clus scale="  235.144">  1  9  2 -1</clus>
<clus scale="  169.216">  1  5  2 -1</clus>
</clustering>
</event>
<event>
 9    1  0.2333971E-005  0.2239855E+03  0.7546771E-02  0.1164446E+00
          1   -1    0    0  502    0  0.00000000000E+00  0.00000000000E+00  0.34081894745E+03  0.34081894745E+03  0.00000000000E+00 0. -1.
         -2   -1    0    0    0  501 -0.00000000000E+00 -0.00000000000E+00 -0.21677058084E+03  0.21677058084E+03  0.00000000000E+00 0.  1.
        -24    2    1    2    0    0 -0.95217002640E+02  0.18905262136E+03  0.86824977984E+02  0.24129172217E+03  0.76654726853E+02 0.  0.
         23    2    1    2    0    0  0.42029290702E+02  0.15714614370E+02  0.27058651973E+02  0.10449158477E+03  0.90404149574E+02 0.  0.
         13    1    3    3    0    0 -0.80055748840E+02  0.17997682238E+03  0.54380222199E+02  0.20434722431E+03  0.00000000000E+00 0. -1.
        -14    1    3    3    0    0 -0.15161253801E+02  0.90757989799E+01  0.32444755785E+02  0.36944497857E+02  0.00000000000E+00 0.  1.
        -11    1    4    4    0    0  0.18175784613E+02 -0.14333292431E+02 -0.28661289741E+02  0.36841171911E+02  0.00000000000E+00 0.  1.
         11    1    4    4    0    0  0.23853506089E+02  0.30047906801E+02  0.55719941714E+02  0.67650412862E+02  0.00000000000E+00 0. -1.
         21    1    1    2  502  501  0.53187711938E+02 -0.20476723573E+03  0.10164736659E+02  0.21180622135E+03  0.00000000000E+00 0.  1.
<scales pt_clust_5="13000.00000" pt_clust_6="13000.00000" pt_clust_7="13000.00000" pt_clust_8="13000.00000" pt_clust_9="210.46035"></scales>
<clustering>
<clus scale="   76.655">  5  6 -1 -1</clus>
<clus scale="   90.404">  7  8 -1 -1</clus>
<clus scale="  100.927">  1  7  2 -1</clus>
<clus scale="  210.460">  2  9  1 -1</clus>
<clus scale="  100.927">  1  5  2 -1</clus>
</clustering>
</event>
<event>
 9    1  0.2333971E-005  0.9812335E+02  0.7546771E-02  0.1289088E+00
          1   -1    0    0  502    0  0.00000000000E+00  0.00000000000E+00  0.33758023324E+03  0.33758023324E+03  0.00000000000E+00 0. -1.
         -2   -1    0    0    0  501 -0.00000000000E+00 -0.00000000000E+00 -0.10060276286E+03  0.10060276286E+03  0.00000000000E+00 0.  1.
         23    2    1    2    0    0 -0.16523352667E+01  0.39808641677E+01  0.44479158665E+01  0.90836282551E+02  0.90624879480E+02 0.  0.
        -24    2    1    2    0    0 -0.84582780226E+01 -0.42744641297E+02  0.27433316560E+03  0.28944682739E+03  0.81376491138E+02 0.  0.
         11    1    4    4    0    0  0.26431771536E+02 -0.39921073379E+02  0.21743144352E+03  0.22264043496E+03  0.00000000000E+00 0. -1.
        -12    1    4    4    0    0 -0.34890049559E+02 -0.28235679174E+01  0.56901722079E+02  0.66806392430E+02  0.00000000000E+00 0.  1.
        -11    1    3    3    0    0  0.37780328020E+02  0.23511088112E+02 -0.77599570410E+01  0.45170138175E+02  0.00000000000E+00 0.  1.
         11    1    3    3    0    0 -0.39432663287E+02 -0.19530223945E+02  0.12207872907E+02  0.45666144375E+02  0.00000000000E+00 0. -1.
         21    1    1    2  502  501  0.10110613289E+02  0.38763777129E+02 -0.41803611086E+02  0.57899886167E+02  0.00000000000E+00 0.  1.
<scales pt_clust_5="13000.00000" pt_clust_6="13000.00000" pt_clust_7="13000.00000" pt_clust_8="13000.00000" pt_clust_9="40.06064"></scales>
<clustering>
<clus scale="   40.061">  2  9  1 -1</clus>
<clus scale="   81.376">  5  6 -1 -1</clus>
<clus scale="   89.652">  1  5  2 -1</clus>
<clus scale="   90.625">  7  8 -1 -1</clus>
<clus scale="   89.652">  1  5  2 -1</clus>
</clustering>
</event>
<event>
 9    1  0.2333971E-005  0.2615325E+03  0.7546771E-02  0.1106734E+00
         -2   -1    0    0    0  501 -0.00000000000E+00  0.00000000000E+00  0.39104818610E+03  0.39104818610E+03  0.00000000000E+00 0.  1.
          1   -1    0    0  502    0  0.00000000000E+00 -0.00000000000E+00 -0.36431433696E+03  0.36431433696E+03  0.00000000000E+00 0. -1.
        -24    2    1    2    0    0 -0.15831080076E+03 -0.18402368658E+03  0.15454749021E+03  0.29883627789E+03  0.80567781378E+02 0.  0.
         23    2    1    2    0    0  0.17617137703E+03  0.17184324992E+03 -0.23195256835E+03  0.35016704530E+03  0.90821302705E+02 0.  0.
         11    1    3    3    0    0 -0.28022257053E+02 -0.90792365188E+02  0.48222315266E+02  0.10655464399E+03  0.00000000000E+00 0. -1.
        -12    1    3    3    0    0 -0.13028854370E+03 -0.93231321396E+02  0.10632517494E+03  0.19228163390E+03  0.00000000000E+00 0.  1.
        -13    1    4    4    0    0  0.16668058365E+02  0.55666233203E+02 -0.22256587174E+02  0.62224668430E+02  0.00000000000E+00 0.  1.
         13    1    4    4    0    0  0.15950331866E+03  0.11617701672E+03 -0.20969598117E+03  0.28794237687E+03  0.00000000000E+00 0. -1.
         21    1    1    2  502  501 -0.17860576269E+02  0.12180436662E+02  0.10413892727E+03  0.10635919986E+03  0.00000000000E+00 0.  1.
<scales pt_clust_5="13000.00000" pt_clust_6="13000.00000" pt_clust_7="13000.00000" pt_clust_8="13000.00000" pt_clust_9="21.61859"></scales>
<clustering>
<clus scale="   21.619">  1  9  2 -1</clus>
<clus scale="   80.568">  5  6 -1 -1</clus>
<clus scale="   90.821">  7  8 -1 -1</clus>
<clus scale="  258.151">  1  5  2 -1</clus>
<clus scale="  261.532">  2  5  1 -1</clus>
</clustering>
</event>
<event>
 9    1  0.2333971E-005  0.1114720E+03  0.7546771E-02  0.1261633E+00
         -2   -1    0    0    0  501 -0.00000000000E+00  0.00000000000E+00  0.64424893506E+02  0.64424893506E+02  0.00000000000E+00 0.  1.
          1   -1    0    0  502    0  0.00000000000E+00 -0.00000000000E+00 -0.22496035091E+03  0.22496035091E+03  0.00000000000E+00 0. -1.
         23    2    1    2    0    0  0.51839233478E+02 -0.53170438659E+01 -0.40265497469E+02  0.11214240593E+03  0.90769112803E+02 0.  0.
        -24    2    1    2    0    0 -0.71858381617E+02  0.11123847952E+02 -0.10701973362E+03  0.15254357203E+03  0.80801924369E+02 0.  0.
         11    1    4    4    0    0 -0.50279703193E+02  0.40221288350E+02 -0.38454846319E+02  0.74997171915E+02  0.00000000000E+00 0. -1.
        -12    1    4    4    0    0 -0.21578678424E+02 -0.29097440398E+02 -0.68564887301E+02  0.77546400115E+02  0.00000000000E+00 0.  1.
        -11    1    3    3    0    0  0.25426169039E+02 -0.39251701628E+02 -0.49564918506E+02  0.68145926505E+02  0.00000000000E+00 0. -1.
         11    1    3    3    0    0  0.26413064438E+02  0.33934657762E+02  0.92994210372E+01  0.43996479428E+02  0.00000000000E+00 0.  1.
         21    1    1    2  502  501  0.20019148140E+02 -0.58068040860E+01 -0.13250226314E+02  0.24699266453E+02  0.00000000000E+00 0.  1.
<scales pt_clust_5="13000.00000" pt_clust_6="13000.00000" pt_clust_7="13000.00000" pt_clust_8="13000.00000" pt_clust_9="20.84431"></scales>
<clustering>
<clus scale="   20.844">  1  9  2 -1</clus>
<clus scale="   80.802">  5  6 -1 -1</clus>
<clus scale="   90.769">  7  8 -1 -1</clus>
<clus scale="  103.518">  2  5  1 -1</clus>
<clus scale="  103.518">  2  5  1 -1</clus>
</clustering>
</event>
<event>
 9    1  0.2333971E-005  0.1465598E+03  0.7546771E-02  0.1211930E+00
          1   -1    0    0  502    0  0.00000000000E+00  0.00000000000E+00  0.67394589071E+03  0.67394589071E+03  0.00000000000E+00 0. -1.
         -2   -1    0    0    0  501 -0.00000000000E+00 -0.00000000000E+00 -0.47882796539E+02  0.47882796539E+02  0.00000000000E+00 0.  1.
         23    2    1    2    0    0  0.66041434915E+02  0.43323083831E+02  0.12906111229E+03  0.18657557731E+03  0.10915729304E+03 0.  0.
        -24    2    1    2    0    0 -0.92648946520E+02 -0.46099694472E+02  0.49082559975E+03  0.50779738310E+03  0.78989896756E+02 0.  0.
         13    1    4    4    0    0 -0.79067340790E+02  0.20928446943E+01  0.26875749078E+03  0.28015462379E+03  0.00000000000E+00 0. -1.
        -14    1    4    4    0    0 -0.13581605730E+02 -0.48192539166E+02  0.22206810897E+03  0.22764275931E+03  0.00000000000E+00 0.  1.
        -13    1    3    3    0    0  0.35172981737E+02 -0.12717713357E+02 -0.52845331472E+01  0.37773074642E+02  0.00000000000E+00 0.  1.
         13    1    3    3    0    0  0.30868453178E+02  0.56040797189E+02  0.13434564544E+03  0.14880250266E+03  0.00000000000E+00 0. -1.
         21    1    1    2  502  501  0.26607511605E+02  0.27766106404E+01  0.61763821334E+01  0.27455726847E+02  0.00000000000E+00 0.  1.
<scales pt_clust_5="13000.00000" pt_clust_6="13000.00000" pt_clust_7="13000.00000" pt_clust_8="13000.00000" pt_clust_9="26.75200"></scales>
<clustering>
<clus scale="   26.752">  2  9  1 -1</clus>
<clus scale="   78.990">  5  6 -1 -1</clus>
<clus scale="  109.157">  7  8 -1 -1</clus>
<clus scale="  125.713">  1  5  2 -1</clus>
<clus scale="  125.713">  1  5  2 -1</clus>
</clustering>
</event>
<event>
 9    1  0.2333971E-005  0.2298929E+03  0.7546771E-02  0.1127192E+00
          1   -1    0    0  502    0  0.00000000000E+00  0.00000000000E+00  0.47442159525E+03  0.47442159525E+03  0.00000000000E+00 0. -1.
         -2   -1    0    0    0  501 -0.00000000000E+00 -0.00000000000E+00 -0.23716848905E+03  0.23716848905E+03  0.00000000000E+00 0.  1.
        -24    2    1    2    0    0  0.11751937669E+03 -0.19480224345E+03 -0.10950545740E+03  0.26623166768E+03  0.84434221305E+02 0.  0.
         23    2    1    2    0    0 -0.69130742103E+02  0.12334671099E+03  0.30742486306E+03  0.35051911530E+03  0.91433763723E+02 0.  0.
         11    1    3    3    0    0  0.13006810048E+01 -0.31014555921E+02  0.99031117632E+01  0.32583217654E+02  0.00000000000E+00 0. -1.
        -12    1    3    3    0    0  0.11621869568E+03 -0.16378768753E+03 -0.11940856916E+03  0.23364845003E+03  0.00000000000E+00 0.  1.
        -13    1    4    4    0    0 -0.69827502107E+02  0.35500226316E+02  0.11693096829E+03  0.14074444026E+03  0.00000000000E+00 0.  1.
         13    1    4    4    0    0  0.69676000338E+00  0.87846484675E+02  0.19049389477E+03  0.20977467504E+03  0.00000000000E+00 0. -1.
         21    1    1    2  502  501 -0.48388634582E+02  0.71455532458E+02  0.39333700538E+02  0.94839301313E+02  0.00000000000E+00 0. -1.
<scales pt_clust_5="13000.00000" pt_clust_6="13000.00000" pt_clust_7="13000.00000" pt_clust_8="13000.00000" pt_clust_9="86.29805"></scales>
<clustering>
<clus scale="   84.434">  5  6 -1 -1</clus>
<clus scale="   86.298">  1  9  2 -1</clus>
<clus scale="   91.434">  7  8 -1 -1</clus>
<clus scale="  227.200">  2  5  1 -1</clus>
<clus scale="   86.298">  1  5  2 -1</clus>
</clustering>
</event>
<event>
 9    1  0.2333971E-005  0.1100014E+03  0.7546771E-02  0.1264222E+00
          1   -1    0    0  502    0  0.00000000000E+00  0.00000000000E+00  0.47436373655E+03  0.47436373655E+03  0.00000000000E+00 0. -1.
         -2   -1    0    0    0  501 -0.00000000000E+00 -0.00000000000E+00 -0.81589283439E+02  0.81589283439E+02  0.00000000000E+00 0.  1.
        -24    2    1    2    0    0 -0.42747564873E+02 -0.60676758210E+02 -0.10986129725E+02  0.11051807241E+03  0.81145092233E+02 0.  0.
         23    2    1    2    0    0  0.18010250774E+02  0.58753278677E+02  0.40603212162E+03  0.42051920214E+03  0.90542800317E+02 0.  0.
         13    1    3    3    0    0  0.53350257622E+01 -0.42214623789E+02 -0.33648867637E+02  0.54247426251E+02  0.00000000000E+00 0. -1.
        -14    1    3    3    0    0 -0.48082590635E+02 -0.18462134421E+02  0.22662737912E+02  0.56270646160E+02  0.00000000000E+00 0.  1.
        -13    1    4    4    0    0  0.64259445033E+01  0.82470417261E+02  0.29361839520E+03  0.30504823305E+03  0.00000000000E+00 0.  1.
         13    1    4    4    0    0  0.11584306271E+02 -0.23717138584E+02  0.11241372642E+03  0.11547096909E+03  0.00000000000E+00 0. -1.
         21    1    1    2  502  501  0.24737314099E+02  0.19234795336E+01 -0.22715387873E+01  0.24915745439E+02  0.00000000000E+00 0.  1.
<scales pt_clust_5="13000.00000" pt_clust_6="13000.00000" pt_clust_7="13000.00000" pt_clust_8="13000.00000" pt_clust_9="24.81198"></scales>
<clustering>
<clus scale="   24.812">  2  9  1 -1</clus>
<clus scale="   81.145">  5  6 -1 -1</clus>
<clus scale="   90.543">  7  8 -1 -1</clus>
<clus scale="  102.405">  2  5  1 -1</clus>
<clus scale="  110.001">  1  5  2 -1</clus>
</clustering>
</event>
<event>
 9    1  0.2333971E-005  0.1026589E+03  0.7546771E-02  0.1280726E+00
          1   -1    0    0  502    0  0.00000000000E+00  0.00000000000E+00  0.13219344988E+03  0.13219344988E+03  0.00000000000E+00 0. -1.
         -2   -1    0    0    0  501 -0.00000000000E+00 -0.00000000000E+00 -0.10095434564E+03  0.10095434564E+03  0.00000000000E+00 0.  1.
         23    2    1    2    0    0  0.53501470525E+02 -0.62134620550E+01  0.12130049799E+02  0.10771678337E+03  0.92491906951E+02 0.  0.
        -24    2    1    2    0    0 -0.37002569024E+02 -0.18398181564E+02  0.28154943946E+02  0.94450778631E+02  0.80128431384E+02 0.  0.
         11    1    4    4    0    0 -0.49777705303E+02  0.12270240627E+02  0.32862630311E+02  0.60896069013E+02  0.00000000000E+00 0. -1.
        -12    1    4    4    0    0  0.12775136279E+02 -0.30668422190E+02 -0.47076863649E+01  0.33554709617E+02  0.00000000000E+00 0.  1.
        -13    1    3    3    0    0  0.46864758200E+02  0.31895825504E+02  0.31071021476E+02  0.64645631108E+02  0.00000000000E+00 0. -1.
         13    1    3    3    0    0  0.66367123246E+01 -0.38109287559E+02 -0.18940971677E+02  0.43071152258E+02  0.00000000000E+00 0.  1.
         21    1    1    2  502  501 -0.16498901501E+02  0.24611643619E+02 -0.90458895038E+01  0.30980233525E+02  0.00000000000E+00 0. -1.
<scales pt_clust_5="13000.00000" pt_clust_6="13000.00000" pt_clust_7="13000.00000" pt_clust_8="13000.00000" pt_clust_9="29.63017"></scales>
<clustering>
<clus scale="   29.630">  2  9  1 -1</clus>
<clus scale="   80.128">  5  6 -1 -1</clus>
<clus scale="   91.677">  1  5  2 -1</clus>
<clus scale="   92.492">  7  8 -1 -1</clus>
<clus scale="   91.677">  1  5  2 -1</clus>
</clustering>
</event>
<event>
 9    1  0.2333971E-005  0.1127772E+03  0.7546771E-02  0.1259577E+00
         -2   -1    0    0    0  501 -0.00000000000E+00  0.00000000000E+00  0.10795779267E+03  0.10795779267E+03  0.00000000000E+00 0.  1.
          1   -1    0    0  502    0  0.00000000000E+00 -0.00000000000E+00 -0.48491092215E+03  0.48491092215E+03  0.00000000000E+00 0. -1.
         23    2    1    2    0    0 -0.35343334113E+02  0.16277226138E+02  0.49214358528E+02  0.11078988438E+03  0.91313996951E+02 0.  0.
        -24    2    1    2    0    0  0.62201499275E+02 -0.28256479734E+02 -0.43789851800E+03  0.45041685613E+03  0.80329179373E+02 0.  0.
         11    1    4    4    0    0  0.81755697638E+02 -0.24520448556E+02 -0.36520935612E+03  0.37505082361E+03  0.00000000000E+00 0. -1.
        -12    1    4    4    0    0 -0.19554198363E+02 -0.37360311774E+01 -0.72689161880E+02  0.75366032517E+02  0.00000000000E+00 0.  1.
        -11    1    3    3    0    0 -0.57730023860E+02  0.25435154487E+02  0.88072282506E+01  0.63696703275E+02  0.00000000000E+00 0.  1.
         11    1    3    3    0    0  0.22386689748E+02 -0.91579283494E+01  0.40407130278E+02  0.47093181107E+02  0.00000000000E+00 0. -1.
         21    1    1    2  502  501 -0.26858165163E+02  0.11979253596E+02  0.11731029985E+02  0.31661974309E+02  0.00000000000E+00 0.  1.
<scales pt_clust_5="13000.00000" pt_clust_6="13000.00000" pt_clust_7="13000.00000" pt_clust_8="13000.00000" pt_clust_9="29.40856"></scales>
<clustering>
<clus scale="   29.409">  1  9  2 -1</clus>
<clus scale="   80.329">  5  6 -1 -1</clus>
<clus scale="   91.314">  7  8 -1 -1</clus>
<clus scale="  104.083">  2  5  1 -1</clus>
<clus scale="  104.083">  2  5  1 -1</clus>
</clustering>
</event>
<event>
 9    1  0.2333971E-005  0.9571395E+02  0.7546771E-02  0.1296675E+00
          1   -1    0    0  502    0  0.00000000000E+00  0.00000000000E+00  0.37120400228E+03  0.37120400228E+03  0.00000000000E+00 0. -1.
         -2   -1    0    0    0  501 -0.00000000000E+00 -0.00000000000E+00 -0.11615782422E+03  0.11615782422E+03  0.00000000000E+00 0.  1.
        -24    2    1    2    0    0  0.20706547600E+02 -0.65762332446E+01 -0.85482598074E+02  0.11965234349E+03  0.80854194520E+02 0.  0.
         23    2    1    2    0    0 -0.36178116647E+02 -0.10012108869E+02  0.32517993498E+03  0.34032099150E+03  0.93098274400E+02 0.  0.
         11    1    3    3    0    0  0.68059326427E+01 -0.43125714819E+02 -0.36023959819E+02  0.56602770947E+02  0.00000000000E+00 0. -1.
        -12    1    3    3    0    0  0.13900614958E+02  0.36549481575E+02 -0.49458638254E+02  0.63049572541E+02  0.00000000000E+00 0.  1.
        -13    1    4    4    0    0 -0.42026394452E+02 -0.45027276628E+02  0.24517932824E+03  0.25279750091E+03  0.00000000000E+00 0. -1.
         13    1    4    4    0    0  0.58482778042E+01  0.35015167759E+02  0.80000606734E+02  0.87523490586E+02  0.00000000000E+00 0.  1.
         21    1    1    2  502  501  0.15471569047E+02  0.16588342114E+02  0.15348841158E+02  0.27388491520E+02  0.00000000000E+00 0.  1.
<scales pt_clust_5="13000.00000" pt_clust_6="13000.00000" pt_clust_7="13000.00000" pt_clust_8="13000.00000" pt_clust_9="22.68353"></scales>
<clustering>
<clus scale="   22.684">  1  9  2 -1</clus>
<clus scale="   80.854">  5  6 -1 -1</clus>
<clus scale="   83.853">  2  5  1 -1</clus>
<clus scale="   93.098">  7  8 -1 -1</clus>
<clus scale="   22.684">  1  5  2 -1</clus>
</clustering>
</event>
<event>
 9    1  0.2333971E-005  0.1064275E+03  0.7546771E-02  0.1271779E+00
          3   -1    0    0  502    0  0.00000000000E+00  0.00000000000E+00  0.23827010302E+03  0.23827010302E+03  0.00000000000E+00 0. -1.
         -4   -1    0    0    0  501 -0.00000000000E+00 -0.00000000000E+00 -0.82538798396E+02  0.82538798396E+02  0.00000000000E+00 0.  1.
         23    2    1    2    0    0  0.21468509539E+01 -0.15879183493E+02  0.30985584865E+02  0.98946484260E+02  0.92593427631E+02 0.  0.
        -24    2    1    2    0    0 -0.17335327511E+02  0.77908532563E+02  0.10371309582E+03  0.15462625698E+03  0.82356663822E+02 0.  0.
         11    1    4    4    0    0 -0.21054305423E+02  0.26346652403E+01  0.67987751395E+02  0.71221903776E+02  0.00000000000E+00 0. -1.
        -12    1    4    4    0    0  0.37189779120E+01  0.75273867323E+02  0.35725344424E+02  0.83404353200E+02  0.00000000000E+00 0.  1.
        -13    1    3    3    0    0 -0.28236626806E+02  0.27767537459E+02  0.21037516160E+02  0.44843286188E+02  0.00000000000E+00 0. -1.
         13    1    3    3    0    0  0.30383477760E+02 -0.43646720952E+02  0.99480687045E+01  0.54103198072E+02  0.00000000000E+00 0.  1.
         21    1    1    2  502  501  0.15188476557E+02 -0.62029349070E+02  0.21032623942E+02  0.67236160182E+02  0.00000000000E+00 0.  1.
<scales pt_clust_5="13000.00000" pt_clust_6="13000.00000" pt_clust_7="13000.00000" pt_clust_8="13000.00000" pt_clust_9="63.86180"></scales>
<clustering>
<clus scale="   63.862">  2  9  1 -1</clus>
<clus scale="   82.357">  5  6 -1 -1</clus>
<clus scale="   92.593">  7  8 -1 -1</clus>
<clus scale="   97.652">  1  5  2 -1</clus>
<clus scale="   97.652">  1  5  2 -1</clus>
</clustering>
</event>
<event>
 9    1  0.2333971E-005  0.1098571E+03  0.7546771E-02  0.1263963E+00
          1   -1    0    0  502    0  0.00000000000E+00  0.00000000000E+00  0.12725012904E+03  0.12725012904E+03  0.00000000000E+00 0. -1.
         -2   -1    0    0    0  501 -0.00000000000E+00 -0.00000000000E+00 -0.15128841071E+03  0.15128841071E+03  0.00000000000E+00 0.  1.
        -24    2    1    2    0    0  0.13820221089E+02  0.52606840529E+02 -0.33790525786E+02  0.10557557949E+03  0.83940009354E+02 0.  0.
         23    2    1    2    0    0  0.35891055666E+02 -0.61686656582E+02  0.27277963449E+02  0.11947646725E+03  0.91853837472E+02 0.  0.
         11    1    3    3    0    0 -0.14319700776E+02  0.60114267140E+02 -0.42706296465E+02  0.75117286306E+02  0.00000000000E+00 0. -1.
        -12    1    3    3    0    0  0.28139921865E+02 -0.75074266112E+01  0.89157706791E+01  0.30458293184E+02  0.00000000000E+00 0.  1.
        -13    1    4    4    0    0  0.61687293598E+02 -0.61583596154E+02  0.85201368363E+01  0.87581129465E+02  0.00000000000E+00 0.  1.
         13    1    4    4    0    0 -0.25796237931E+02 -0.10306042777E+00  0.18757826613E+02  0.31895337780E+02  0.00000000000E+00 0. -1.
         21    1    1    2  502  501 -0.49711276755E+02  0.90798160530E+01 -0.17525719335E+02  0.53486493009E+02  0.00000000000E+00 0. -1.
<scales pt_clust_5="13000.00000" pt_clust_6="13000.00000" pt_clust_7="13000.00000" pt_clust_8="13000.00000" pt_clust_9="50.53369"></scales>
<clustering>
<clus scale="   50.534">  2  9  1 -1</clus>
<clus scale="   83.940">  5  6 -1 -1</clus>
<clus scale="   91.854">  7  8 -1 -1</clus>
<clus scale="  103.331">  2  5  1 -1</clus>
<clus scale="  109.857">  1  5  2 -1</clus>
</clustering>
</event>
<event>
 9    1  0.2333971E-005  0.9465913E+02  0.7546771E-02  0.1298366E+00
          1   -1    0    0  502    0  0.00000000000E+00  0.00000000000E+00  0.46079502010E+02  0.46079502010E+02  0.00000000000E+00 0. -1.
         -2   -1    0    0    0  501 -0.00000000000E+00 -0.00000000000E+00 -0.27962627636E+03  0.27962627636E+03  0.00000000000E+00 0.  1.
         23    2    1    2    0    0 -0.37648272340E+02 -0.28204525545E+02 -0.14874372818E+03  0.18012013095E+03  0.90031534635E+02 0.  0.
        -24    2    1    2    0    0  0.11154203773E+02  0.20498401226E+02 -0.36361701595E+02  0.89837249368E+02  0.78765203717E+02 0.  0.
         13    1    4    4    0    0  0.16188842000E+02  0.14363932906E+02  0.22045455305E+02  0.30893417963E+02  0.00000000000E+00 0. -1.
        -14    1    4    4    0    0 -0.50346382277E+01  0.61344683199E+01 -0.58407156900E+02  0.58943831405E+02  0.00000000000E+00 0.  1.
        -13    1    3    3    0    0 -0.92292196928E+01 -0.58830105943E+02 -0.81123965750E+02  0.10063427687E+03  0.00000000000E+00 0.  1.
         13    1    3    3    0    0 -0.28419052647E+02  0.30625580398E+02 -0.67619762431E+02  0.79485854083E+02  0.00000000000E+00 0. -1.
         21    1    1    2  502  501  0.26494068568E+02  0.77061243188E+01 -0.48441344576E+02  0.55748398054E+02  0.00000000000E+00 0. -1.
<scales pt_clust_5="13000.00000" pt_clust_6="13000.00000" pt_clust_7="13000.00000" pt_clust_8="13000.00000" pt_clust_9="27.59203"></scales>
<clustering>
<clus scale="   27.592">  2  9  1 -1</clus>
<clus scale="   78.765">  5  6 -1 -1</clus>
<clus scale="   84.016">  1  5  2 -1</clus>
<clus scale="   90.032">  7  8 -1 -1</clus>
<clus scale="   84.016">  1  5  2 -1</clus>
</clustering>
</event>
<event>
 9    1  0.2333971E-005  0.1054850E+03  0.7546771E-02  0.1271903E+00
         -2   -1    0    0    0  501 -0.00000000000E+00  0.00000000000E+00  0.70719779317E+02  0.70719779317E+02  0.00000000000E+00 0.  1.
          1   -1    0    0  502    0  0.00000000000E+00 -0.00000000000E+00 -0.71341310369E+03  0.71341310369E+03  0.00000000000E+00 0. -1.
         23    2    1    2    0    0 -0.97451011510E+02  0.62385919928E+02 -0.99809754964E+02  0.17600135251E+03  0.87325747925E+02 0.  0.
        -24    2    1    2    0    0  0.54292447018E+02  0.12062244830E+02 -0.50446008093E+03  0.51388952611E+03  0.80680259244E+02 0.  0.
         11    1    4    4    0    0  0.41072420962E+02  0.45400772987E+02 -0.28322917314E+03  0.28977049275E+03  0.00000000000E+00 0. -1.
        -12    1    4    4    0    0  0.13220026056E+02 -0.33338528157E+02 -0.22123090780E+03  0.22411903336E+03  0.00000000000E+00 0.  1.
        -13    1    3    3    0    0 -0.73724119435E+02  0.61840819403E+02 -0.11334251636E+03  0.14868106384E+03  0.00000000000E+00 0. -1.
         13    1    3    3    0    0 -0.23726892075E+02  0.54510052581E+00  0.13532761393E+02  0.27320288671E+02  0.00000000000E+00 0.  1.
         21    1    1    2  502  501  0.43158564492E+02 -0.74448164758E+02 -0.38423488476E+02  0.94242004390E+02  0.00000000000E+00 0.  1.
<scales pt_clust_5="13000.00000" pt_clust_6="13000.00000" pt_clust_7="13000.00000" pt_clust_8="13000.00000" pt_clust_9="86.05342"></scales>
<clustering>
<clus scale="   80.680">  5  6 -1 -1</clus>
<clus scale="   86.053">  1  9  2 -1</clus>
<clus scale="   87.326">  7  8 -1 -1</clus>
<clus scale="  100.053">  2  5  1 -1</clus>
<clus scale="  100.053">  2  5  1 -1</clus>
</clustering>
</event>
<event>
 9    1  0.2333971E-005  0.1254565E+03  0.7546771E-02  0.1238262E+00
          1   -1    0    0  502    0  0.00000000000E+00  0.00000000000E+00  0.54651362635E+03  0.54651362635E+03  0.00000000000E+00 0. -1.
         -2   -1    0    0    0  501 -0.00000000000E+00 -0.00000000000E+00 -0.13571909633E+03  0.13571909633E+03  0.00000000000E+00 0.  1.
        -24    2    1    2    0    0  0.40164769227E+02 -0.16453300229E+02 -0.18416369115E+01  0.90910932983E+02  0.79859165622E+02 0.  0.
         23    2    1    2    0    0 -0.77955720220E+02  0.47999434744E+02  0.48583707826E+03  0.50310791324E+03  0.93267709890E+02 0.  0.
         11    1    3    3    0    0 -0.23600593287E+02  0.10399505112E+01 -0.68600825144E+01  0.24599394965E+02  0.00000000000E+00 0. -1.
        -12    1    3    3    0    0  0.63765362514E+02 -0.17493250740E+02  0.50184456030E+01  0.66311538017E+02  0.00000000000E+00 0.  1.
        -11    1    4    4    0    0  0.47744897222E+01 -0.21115928790E+02  0.11029049420E+03  0.11239515697E+03  0.00000000000E+00 0.  1.
         11    1    4    4    0    0 -0.82730209942E+02  0.69115363533E+02  0.37554658406E+03  0.39071275627E+03  0.00000000000E+00 0. -1.
         21    1    1    2  502  501  0.37790950993E+02 -0.31546134515E+02 -0.73200911327E+02  0.88213876453E+02  0.00000000000E+00 0.  1.
<scales pt_clust_5="13000.00000" pt_clust_6="13000.00000" pt_clust_7="13000.00000" pt_clust_8="13000.00000" pt_clust_9="49.22717"></scales>
<clustering>
<clus scale="   49.227">  2  9  1 -1</clus>
<clus scale="   79.859">  5  6 -1 -1</clus>
<clus scale="   93.268">  7  8 -1 -1</clus>
<clus scale="  115.836">  2  5  1 -1</clus>
<clus scale="  125.457">  1  5  2 -1</clus>
</clustering>
</event>
<event>
 9    1  0.2333971E-005  0.2376034E+03  0.7546771E-02  0.1145390E+00
          1   -1    0    0  502    0  0.00000000000E+00  0.00000000000E+00  0.77331556148E+03  0.77331556148E+03  0.00000000000E+00 0. -1.
         -2   -1    0    0    0  501 -0.00000000000E+00 -0.00000000000E+00 -0.80343003873E+03  0.80343003873E+03  0.00000000000E+00 0.  1.
         23    2    1    2    0    0  0.10645163931E+03  0.10317409607E+03 -0.98701842468E+02  0.20080411579E+03  0.92754480212E+02 0.  0.
        -24    2    1    2    0    0  0.70542970950E+02  0.77426992062E+02  0.69130053056E+03  0.70384362592E+03  0.80797130841E+02 0.  0.
         11    1    4    4    0    0  0.43830485677E+02  0.91764455803E+02  0.55081635730E+03  0.56012542014E+03  0.00000000000E+00 0. -1.
        -12    1    4    4    0    0  0.26712485273E+02 -0.14337463741E+02  0.14048417326E+03  0.14371820578E+03  0.00000000000E+00 0.  1.
        -13    1    3    3    0    0  0.11343125279E+03  0.61869829435E+02 -0.55483739806E+02  0.14061639409E+03  0.00000000000E+00 0. -1.
         13    1    3    3    0    0 -0.69796134710E+01  0.41304266633E+02 -0.43218102661E+02  0.60187721704E+02  0.00000000000E+00 0.  1.
         21    1    1    2  502  501 -0.17699461026E+03 -0.18060108813E+03 -0.62271316535E+03  0.67209785850E+03  0.00000000000E+00 0.  1.
<scales pt_clust_5="13000.00000" pt_clust_6="13000.00000" pt_clust_7="13000.00000" pt_clust_8="13000.00000" pt_clust_9="218.75094"></scales>
<clustering>
<clus scale="   80.797">  5  6 -1 -1</clus>
<clus scale="   92.754">  7  8 -1 -1</clus>
<clus scale="  132.285">  1  5  2 -1</clus>
<clus scale="  218.751">  2  9  1 -1</clus>
<clus scale="  132.285">  1  5  2 -1</clus>
</clustering>
</event>
<event>
 9    1  0.2333971E-005  0.1035768E+03  0.7546771E-02  0.1277457E+00
         -2   -1    0    0    0  501 -0.00000000000E+00  0.00000000000E+00  0.13448450952E+03  0.13448450952E+03  0.00000000000E+00 0.  1.
          1   -1    0    0  502    0  0.00000000000E+00 -0.00000000000E+00 -0.18208266031E+03  0.18208266031E+03  0.00000000000E+00 0. -1.
        -24    2    1    2    0    0  0.66739107759E+02  0.50816157288E+02  0.18263968434E+02  0.11775550512E+03  0.80600223922E+02 0.  0.
         23    2    1    2    0    0 -0.40758417411E+02 -0.81895838848E+01 -0.97745637452E+02  0.13957839901E+03  0.90551653525E+02 0.  0.
         13    1    3    3    0    0  0.67129678094E+02  0.69643780951E+02  0.10186740069E+02  0.97264688245E+02  0.00000000000E+00 0. -1.
        -14    1    3    3    0    0 -0.39057033461E+00 -0.18827623663E+02  0.80772283656E+01  0.20490816871E+02  0.00000000000E+00 0.  1.
        -13    1    4    4    0    0  0.50946820602E+00  0.31049058399E+02 -0.60463080617E+01  0.31636394019E+02  0.00000000000E+00 0.  1.
         13    1    4    4    0    0 -0.41267885617E+02 -0.39238642284E+02 -0.91699329391E+02  0.10794200499E+03  0.00000000000E+00 0. -1.
         21    1    1    2  502  501 -0.25980690348E+02 -0.42626573403E+02  0.31883518228E+02  0.59233265702E+02  0.00000000000E+00 0. -1.
<scales pt_clust_5="13000.00000" pt_clust_6="13000.00000" pt_clust_7="13000.00000" pt_clust_8="13000.00000" pt_clust_9="49.92015"></scales>
<clustering>
<clus scale="   49.920">  1  9  2 -1</clus>
<clus scale="   80.600">  5  6 -1 -1</clus>
<clus scale="   90.552">  7  8 -1 -1</clus>
<clus scale="   95.000">  1  5  2 -1</clus>
<clus scale="  103.577">  2  5  1 -1</clus>
</clustering>
</event>
<event>
 9    1  0.2333971E-005  0.1086750E+03  0.7546771E-02  0.1270988E+00
          1   -1    0    0  502    0  0.00000000000E+00  0.00000000000E+00  0.20923319961E+03  0.20923319961E+03  0.00000000000E+00 0. -1.
         -2   -1    0    0    0  501 -0.00000000000E+00 -0.00000000000E+00 -0.10841637383E+03  0.10841637383E+03  0.00000000000E+00 0.  1.
        -24    2    1    2    0    0  0.47817331566E+02 -0.42914786620E+01  0.75883374008E+01  0.93436311449E+02  0.79798793509E+02 0.  0.
         23    2    1    2    0    0  0.41278928837E+02 -0.26049975897E+02  0.82167439065E+02  0.12944462638E+03  0.87303333537E+02 0.  0.
         11    1    3    3    0    0  0.60418229599E+02  0.14282364534E+02 -0.12483116681E+02  0.63325955236E+02  0.00000000000E+00 0. -1.
        -12    1    3    3    0    0 -0.12600898032E+02 -0.18573843196E+02  0.20071454082E+02  0.30110356213E+02  0.00000000000E+00 0.  1.
        -11    1    4    4    0    0  0.45567393710E+02 -0.33829431220E+01  0.93256288197E+02  0.10384876967E+03  0.00000000000E+00 0. -1.
         11    1    4    4    0    0 -0.42884648735E+01 -0.22667032775E+02 -0.11088849132E+02  0.25595856713E+02  0.00000000000E+00 0.  1.
         21    1    1    2  502  501 -0.89096260403E+02  0.30341454559E+02  0.11061049318E+02  0.94768635606E+02  0.00000000000E+00 0.  1.
<scales pt_clust_5="13000.00000" pt_clust_6="13000.00000" pt_clust_7="13000.00000" pt_clust_8="13000.00000" pt_clust_9="64.71779"></scales>
<clustering>
<clus scale="   79.799">  5  6 -1 -1</clus>
<clus scale="   87.303">  7  8 -1 -1</clus>
<clus scale="   93.128">  2  5  1 -1</clus>
<clus scale="   64.718">  2  9  1 -1</clus>
<clus scale="  108.675">  1  5  2 -1</clus>
</clustering>
</event>
<event>
 9    1  0.2333971E-005  0.1618998E+03  0.7546771E-02  0.1211874E+00
         -2   -1    0    0    0  501 -0.00000000000E+00  0.00000000000E+00  0.28318420236E+03  0.28318420236E+03  0.00000000000E+00 0.  1.
          1   -1    0    0  502    0  0.00000000000E+00 -0.00000000000E+00 -0.24717471452E+03  0.24717471452E+03  0.00000000000E+00 0. -1.
        -24    2    1    2    0    0  0.11704184309E+03 -0.67873447959E+02  0.17845870712E+03  0.23818833030E+03  0.81120728382E+02 0.  0.
         23    2    1    2    0    0  0.20733337963E+02 -0.15358797715E+02 -0.63260727028E+02  0.11278155530E+03  0.89732912925E+02 0.  0.
         11    1    3    3    0    0  0.36550495411E+02 -0.53028549224E+02  0.12444579114E+03  0.14012394756E+03  0.00000000000E+00 0. -1.
        -12    1    3    3    0    0  0.80491347682E+02 -0.14844898735E+02  0.54012915983E+02  0.98064382744E+02  0.00000000000E+00 0.  1.
        -13    1    4    4    0    0  0.51080874205E+02 -0.10839336451E+02 -0.12863729167E+02  0.53779386872E+02  0.00000000000E+00 0.  1.
         13    1    4    4    0    0 -0.30347536242E+02 -0.45194612643E+01 -0.50396997862E+02  0.59002168431E+02  0.00000000000E+00 0. -1.
         21    1    1    2  502  501 -0.13777518106E+03  0.83232245674E+02 -0.79188492252E+02  0.17938903127E+03  0.00000000000E+00 0. -1.
<scales pt_clust_5="13000.00000" pt_clust_6="13000.00000" pt_clust_7="13000.00000" pt_clust_8="13000.00000" pt_clust_9="140.11062"></scales>
<clustering>
<clus scale="   81.121">  5  6 -1 -1</clus>
<clus scale="   89.733">  7  8 -1 -1</clus>
<clus scale="   93.369">  2  7  1 -1</clus>
<clus scale="  140.111">  2  9  1 -1</clus>
<clus scale="   93.369">  2  5  1 -1</clus>
</clustering>
</event>
<event>
 9    1  0.2333971E-005  0.9097144E+02  0.7546771E-02  0.1305463E+00
         -2   -1    0    0    0  501 -0.00000000000E+00  0.00000000000E+00  0.30718931236E+02  0.30718931236E+02  0.00000000000E+00 0.  1.
          1   -1    0    0  502    0  0.00000000000E+00 -0.00000000000E+00 -0.35557250726E+03  0.35557250726E+03  0.00000000000E+00 0. -1.
        -24    2    1    2    0    0 -0.28054173131E+02 -0.10632090247E+02 -0.11128274917E+03  0.14094914944E+03  0.81134052602E+02 0.  0.
         23    2    1    2    0    0  0.96458210522E+01 -0.12842555281E+02 -0.16767575820E+03  0.19060396852E+03  0.89200559620E+02 0.  0.
         11    1    3    3    0    0 -0.33125772637E+02  0.28197218607E+02 -0.79055335231E+02  0.90233840539E+02  0.00000000000E+00 0. -1.
        -12    1    3    3    0    0  0.50715995056E+01 -0.38829308854E+02 -0.32227413942E+02  0.50715308902E+02  0.00000000000E+00 0.  1.
        -11    1    4    4    0    0  0.30208603277E+02 -0.40056041735E+02 -0.13215842324E+03  0.14136086809E+03  0.00000000000E+00 0.  1.
         11    1    4    4    0    0 -0.20562782225E+02  0.27213486454E+02 -0.35517334959E+02  0.49243100434E+02  0.00000000000E+00 0. -1.
         21    1    1    2  502  501  0.18408352079E+02  0.23474645528E+02 -0.45895068650E+02  0.54738320538E+02  0.00000000000E+00 0.  1.
<scales pt_clust_5="13000.00000" pt_clust_6="13000.00000" pt_clust_7="13000.00000" pt_clust_8="13000.00000" pt_clust_9="29.83163"></scales>
<clustering>
<clus scale="   29.832">  1  9  2 -1</clus>
<clus scale="   81.134">  5  6 -1 -1</clus>
<clus scale="   83.077">  1  5  2 -1</clus>
<clus scale="   89.201">  7  8 -1 -1</clus>
<clus scale="   90.971">  2  5  1 -1</clus>
</clustering>
</event>
<event>
 9    1  0.2333971E-005  0.9453199E+02  0.7546771E-02  0.1298855E+00
         -2   -1    0    0    0  501 -0.00000000000E+00  0.00000000000E+00  0.33477194236E+03  0.33477194236E+03  0.00000000000E+00 0.  1.
          1   -1    0    0  502    0  0.00000000000E+00 -0.00000000000E+00 -0.76619365723E+02  0.76619365723E+02  0.00000000000E+00 0. -1.
        -24    2    1    2    0    0 -0.78507987373E+01 -0.19397832721E+02  0.26673666990E+03  0.27933382309E+03  0.80255982321E+02 0.  0.
         23    2    1    2    0    0  0.15474077095E+02  0.44628972949E+02 -0.16875802253E+02  0.10442639294E+03  0.91590865005E+02 0.  0.
         13    1    3    3    0    0  0.32490701919E+02  0.87313299324E+01  0.11566531594E+03  0.12045890231E+03  0.00000000000E+00 0. -1.
        -14    1    3    3    0    0 -0.40341500656E+02 -0.28129162654E+02  0.15107135396E+03  0.15887492078E+03  0.00000000000E+00 0.  1.
        -13    1    4    4    0    0  0.14402075445E+02 -0.27338256838E+02 -0.78994827844E+01  0.31893602686E+02  0.00000000000E+00 0.  1.
         13    1    4    4    0    0  0.10720016494E+01  0.71967229787E+02 -0.89763194684E+01  0.72532790254E+02  0.00000000000E+00 0. -1.
         21    1    1    2  502  501 -0.76232783574E+01 -0.25231140228E+02  0.82917089944E+01  0.27631092055E+02  0.00000000000E+00 0.  1.
<scales pt_clust_5="13000.00000" pt_clust_6="13000.00000" pt_clust_7="13000.00000" pt_clust_8="13000.00000" pt_clust_9="26.35763"></scales>
<clustering>
<clus scale="   26.358">  2  9  1 -1</clus>
<clus scale="   80.256">  5  6 -1 -1</clus>
<clus scale="   83.597">  1  5  2 -1</clus>
<clus scale="   91.591">  7  8 -1 -1</clus>
<clus scale="   26.358">  2  5  1 -1</clus>
</clustering>
</event>
<event>
 9    1  0.2333971E-005  0.9261793E+02  0.7546771E-02  0.1300944E+00
          1   -1    0    0  502    0  0.00000000000E+00  0.00000000000E+00  0.14858801125E+03  0.14858801125E+03  0.00000000000E+00 0. -1.
         -2   -1    0    0    0  501 -0.00000000000E+00 -0.00000000000E+00 -0.93383568791E+02  0.93383568791E+02  0.00000000000E+00 0.  1.
        -24    2    1    2    0    0  0.23585610506E+02 -0.14467678854E+02 -0.59046221904E+01  0.82003002969E+02  0.76967741154E+02 0.  0.
         23    2    1    2    0    0 -0.50074255911E+01  0.47094695722E+02  0.71985687729E+02  0.12087929320E+03  0.84775465850E+02 0.  0.
         11    1    3    3    0    0  0.45688411933E+02  0.20492828088E+00 -0.22274539236E+02  0.50829401715E+02  0.00000000000E+00 0. -1.
        -12    1    3    3    0    0 -0.22102801427E+02 -0.14672607135E+02  0.16369917045E+02  0.31173601254E+02  0.00000000000E+00 0.  1.
        -13    1    4    4    0    0 -0.16561771757E+02  0.12238066165E+02 -0.15647460825E+02  0.25863208955E+02  0.00000000000E+00 0.  1.
         13    1    4    4    0    0  0.11554346166E+02  0.34856629557E+02  0.87633148554E+02  0.95016084243E+02  0.00000000000E+00 0. -1.
         21    1    1    2  502  501 -0.18578184915E+02 -0.32627016868E+02 -0.10876623077E+02  0.39089283877E+02  0.00000000000E+00 0.  1.
<scales pt_clust_5="13000.00000" pt_clust_6="13000.00000" pt_clust_7="13000.00000" pt_clust_8="13000.00000" pt_clust_9="37.54559"></scales>
<clustering>
<clus scale="   37.546">  2  9  1 -1</clus>
<clus scale="   76.968">  5  6 -1 -1</clus>
<clus scale="   84.775">  7  8 -1 -1</clus>
<clus scale="   85.529">  2  5  1 -1</clus>
<clus scale="   92.618">  1  5  2 -1</clus>
</clustering>
</event>
<event>
 9    1  0.2333971E-005  0.1023495E+03  0.7546771E-02  0.1275993E+00
         -4   -1    0    0    0  501 -0.00000000000E+00  0.00000000000E+00  0.45907018607E+03  0.45907018607E+03  0.00000000000E+00 0.  1.
          3   -1    0    0  502    0  0.00000000000E+00 -0.00000000000E+00 -0.49582048369E+02  0.49582048369E+02  0.00000000000E+00 0. -1.
        -24    2    1    2    0    0  0.38490102981E+00 -0.34380549689E+02  0.25220758288E+03  0.27087074757E+03  0.92628973251E+02 0.  0.
         23    2    1    2    0    0  0.43878111337E+02  0.25200734725E+02  0.39638523005E+02  0.11175319275E+03  0.91417711079E+02 0.  0.
         13    1    3    3    0    0 -0.24714484288E+01  0.29971981524E+02  0.12130493995E+03  0.12497726270E+03  0.00000000000E+00 0. -1.
        -14    1    3    3    0    0  0.28563494586E+01 -0.64352531213E+02  0.13090264292E+03  0.14589348488E+03  0.00000000000E+00 0.  1.
        -13    1    4    4    0    0 -0.90045562113E+01  0.20204584415E+02 -0.21441701615E+02  0.30806717321E+02  0.00000000000E+00 0. -1.
         13    1    4    4    0    0  0.52882667548E+02  0.49961503098E+01  0.61080224620E+02  0.80946475430E+02  0.00000000000E+00 0.  1.
         21    1    1    2  502  501 -0.44263012367E+02  0.91798149645E+01  0.11764203182E+03  0.12602829411E+03  0.00000000000E+00 0. -1.
<scales pt_clust_5="13000.00000" pt_clust_6="13000.00000" pt_clust_7="13000.00000" pt_clust_8="13000.00000" pt_clust_9="45.20490"></scales>
<clustering>
<clus scale="   45.205">  1  9  2 -1</clus>
<clus scale="   91.418">  7  8 -1 -1</clus>
<clus scale="   92.629">  5  6 -1 -1</clus>
<clus scale="  101.255">  2  7  1 -1</clus>
<clus scale="  101.255">  2  5  1 -1</clus>
</clustering>
</event>
<event>
 9    1  0.2333971E-005  0.1699502E+03  0.7546771E-02  0.1179619E+00
         -2   -1    0    0    0  501 -0.00000000000E+00  0.00000000000E+00  0.17771415150E+03  0.17771415150E+03  0.00000000000E+00 0.  1.
          1   -1    0    0  502    0  0.00000000000E+00 -0.00000000000E+00 -0.56341405079E+03  0.56341405079E+03  0.00000000000E+00 0. -1.
         23    2    1    2    0    0 -0.81128421479E+02  0.10724789499E+03  0.74281895845E+02  0.17926593200E+03  0.92382588038E+02 0.  0.
        -24    2    1    2    0    0  0.10454111709E+03 -0.98575766898E+02 -0.49344497294E+03  0.52011128959E+03  0.79886076747E+02 0.  0.
         13    1    4    4    0    0  0.25111714139E+02 -0.67863251673E+02 -0.15409531323E+03  0.17023919841E+03  0.00000000000E+00 0. -1.
        -14    1    4    4    0    0  0.79429402946E+02 -0.30712515225E+02 -0.33934965970E+03  0.34987209118E+03  0.00000000000E+00 0.  1.
        -13    1    3    3    0    0 -0.36433624092E+02  0.52891254331E+02 -0.14634013560E+02  0.65871451343E+02  0.00000000000E+00 0.  1.
         13    1    3    3    0    0 -0.44694797388E+02  0.54356640662E+02  0.88915909406E+02  0.11339448066E+03  0.00000000000E+00 0. -1.
         21    1    1    2  502  501 -0.23412695606E+02 -0.86721280948E+01  0.33463177802E+02  0.41750980705E+02  0.00000000000E+00 0.  1.
<scales pt_clust_5="13000.00000" pt_clust_6="13000.00000" pt_clust_7="13000.00000" pt_clust_8="13000.00000" pt_clust_9="24.96718"></scales>
<clustering>
<clus scale="   24.967">  1  9  2 -1</clus>
<clus scale="   79.886">  5  6 -1 -1</clus>
<clus scale="   92.383">  7  8 -1 -1</clus>
<clus scale="  163.494">  2  5  1 -1</clus>
<clus scale="  163.494">  2  5  1 -1</clus>
</clustering>
</event>
<event>
 9    1  0.2333971E-005  0.1067352E+03  0.7546771E-02  0.1271835E+00
         -2   -1    0    0    0  501 -0.00000000000E+00  0.00000000000E+00  0.21069007399E+03  0.21069007399E+03  0.00000000000E+00 0.  1.
          1   -1    0    0  502    0  0.00000000000E+00 -0.00000000000E+00 -0.24799286411E+03  0.24799286411E+03  0.00000000000E+00 0. -1.
         23    2    1    2    0    0 -0.81517289136E+01 -0.11572926647E+01  0.15509918449E+03  0.18025512014E+03  0.91478747793E+02 0.  0.
        -24    2    1    2    0    0  0.58073555415E+02  0.25570301195E+01 -0.20454065165E+03  0.22703233657E+03  0.79547013969E+02 0.  0.
         13    1    4    4    0    0  0.74936947629E+02 -0.89260562053E+01 -0.17959308160E+03  0.19480476267E+03  0.00000000000E+00 0. -1.
        -14    1    4    4    0    0 -0.16863392215E+02  0.11483086325E+02 -0.24947570053E+02  0.32227573909E+02  0.00000000000E+00 0.  1.
        -13    1    3    3    0    0  0.28734121578E+02 -0.30374944871E+02  0.96001975639E+02  0.10471230274E+03  0.00000000000E+00 0. -1.
         13    1    3    3    0    0 -0.36885850492E+02  0.29217652207E+02  0.59097208847E+02  0.75542817398E+02  0.00000000000E+00 0.  1.
         21    1    1    2  502  501 -0.49921826501E+02 -0.13997374548E+01  0.12138677042E+02  0.51395481382E+02  0.00000000000E+00 0.  1.
<scales pt_clust_5="13000.00000" pt_clust_6="13000.00000" pt_clust_7="13000.00000" pt_clust_8="13000.00000" pt_clust_9="49.94145"></scales>
<clustering>
<clus scale="   49.941">  1  9  2 -1</clus>
<clus scale="   79.547">  5  6 -1 -1</clus>
<clus scale="   91.479">  7  8 -1 -1</clus>
<clus scale="   96.705">  2  5  1 -1</clus>
<clus scale="   96.705">  2  5  1 -1</clus>
</clustering>
</event>
<event>
 9    1  0.2333971E-005  0.3386971E+03  0.7546771E-02  0.1067667E+00
         -2   -1    0    0    0  501 -0.00000000000E+00  0.00000000000E+00  0.11204435337E+04  0.11204435337E+04  0.00000000000E+00 0.  1.
          1   -1    0    0  502    0  0.00000000000E+00 -0.00000000000E+00 -0.93216569387E+03  0.93216569387E+03  0.00000000000E+00 0. -1.
        -24    2    1    2    0    0 -0.44286284504E+03  0.86104253823E+02  0.18851008725E+03  0.49528983909E+03  0.78959037956E+02 0.  0.
         23    2    1    2    0    0  0.28542675023E+03 -0.13281115224E+03 -0.73485370506E+03  0.80456687646E+03  0.90612686523E+02 0.  0.
         13    1    3    3    0    0 -0.13040577196E+03  0.24926000167E+02  0.95653905337E+02  0.16363569431E+03  0.00000000000E+00 0. -1.
        -14    1    3    3    0    0 -0.31245707308E+03  0.61178253655E+02  0.92856181914E+02  0.33165414479E+03  0.00000000000E+00 0.  1.
        -11    1    4    4    0    0  0.22773488893E+03 -0.76593286161E+02 -0.61390281428E+03  0.65924682518E+03  0.00000000000E+00 0. -1.
         11    1    4    4    0    0  0.57691861303E+02 -0.56217866080E+02 -0.12095089077E+03  0.14532005129E+03  0.00000000000E+00 0.  1.
         21    1    1    2  502  501  0.15743609480E+03  0.46706898419E+02  0.73462145762E+03  0.75275251199E+03  0.00000000000E+00 0.  1.
<scales pt_clust_5="13000.00000" pt_clust_6="13000.00000" pt_clust_7="13000.00000" pt_clust_8="13000.00000" pt_clust_9="164.21833"></scales>
<clustering>
<clus scale="   78.959">  5  6 -1 -1</clus>
<clus scale="   90.613">  7  8 -1 -1</clus>
<clus scale="  164.218">  1  9  2 -1</clus>
<clus scale="  335.767">  1  5  2 -1</clus>
<clus scale="  338.697">  2  5  1 -1</clus>
</clustering>
</event>
<event>
 9    1  0.2333971E-005  0.1278576E+03  0.7546771E-02  0.1232950E+00
          1   -1    0    0  502    0  0.00000000000E+00  0.00000000000E+00  0.32082401855E+03  0.32082401855E+03  0.00000000000E+00 0. -1.
         -2   -1    0    0    0  501 -0.00000000000E+00 -0.00000000000E+00 -0.11796624915E+03  0.11796624915E+03  0.00000000000E+00 0.  1.
        -24    2    1    2    0    0  0.55806983780E+02 -0.33570679294E+02 -0.38062644812E+02  0.10901412016E+03  0.78701356514E+02 0.  0.
         23    2    1    2    0    0 -0.64206762788E+02  0.76969234973E+02  0.25131421968E+03  0.28436665388E+03  0.87514486245E+02 0.  0.
         11    1    3    3    0    0  0.30255980854E+02 -0.27491670147E+02  0.19834610874E+02  0.45438178808E+02  0.00000000000E+00 0. -1.
        -12    1    3    3    0    0  0.25551002926E+02 -0.60790091470E+01 -0.57897255686E+02  0.63575941351E+02  0.00000000000E+00 0.  1.
        -11    1    4    4    0    0 -0.58963661040E+02  0.48799663445E+01  0.91429923415E+02  0.10890343562E+03  0.00000000000E+00 0.  1.
         11    1    4    4    0    0 -0.52431017486E+01  0.72089268629E+02  0.15988429627E+03  0.17546321825E+03  0.00000000000E+00 0. -1.
         21    1    1    2  502  501  0.83997790084E+01 -0.43398555679E+02 -0.10393805474E+02  0.45409493662E+02  0.00000000000E+00 0.  1.
<scales pt_clust_5="13000.00000" pt_clust_6="13000.00000" pt_clust_7="13000.00000" pt_clust_8="13000.00000" pt_clust_9="44.20397"></scales>
<clustering>
<clus scale="   44.204">  2  9  1 -1</clus>
<clus scale="   78.701">  5  6 -1 -1</clus>
<clus scale="   87.514">  7  8 -1 -1</clus>
<clus scale="  121.995">  2  5  1 -1</clus>
<clus scale="  127.858">  1  5  2 -1</clus>
</clustering>
</event>
<event>
 9    1  0.2333971E-005  0.1739541E+03  0.7546771E-02  0.1175321E+00
          1   -1    0    0  502    0  0.00000000000E+00  0.00000000000E+00  0.50717460667E+03  0.50717460667E+03  0.00000000000E+00 0. -1.
         -2   -1    0    0    0  501 -0.00000000000E+00 -0.00000000000E+00 -0.24975105728E+03  0.24975105728E+03  0.00000000000E+00 0.  1.
         23    2    1    2    0    0  0.94101366247E+02  0.67596833328E+02 -0.18069081607E+03  0.23265572687E+03  0.89750304884E+02 0.  0.
        -24    2    1    2    0    0 -0.11385903749E+03 -0.99994247286E+02  0.45267317819E+03  0.48362615487E+03  0.77579130659E+02 0.  0.
         13    1    4    4    0    0 -0.10269210409E+03 -0.66276182926E+02  0.25488452965E+03  0.28267352922E+03  0.00000000000E+00 0. -1.
        -14    1    4    4    0    0 -0.11166933405E+02 -0.33718064360E+02  0.19778864854E+03  0.20095262565E+03  0.00000000000E+00 0.  1.
        -13    1    3    3    0    0  0.10391541005E+03  0.45302463922E+02 -0.17351200783E+03  0.20726104926E+03  0.00000000000E+00 0.  1.
         13    1    3    3    0    0 -0.98140437980E+01  0.22294369406E+02 -0.71788082473E+01  0.25394677606E+02  0.00000000000E+00 0. -1.
         21    1    1    2  502  501  0.19757671246E+02  0.32397413958E+02 -0.14558812730E+02  0.40643782210E+02  0.00000000000E+00 0.  1.
<scales pt_clust_5="13000.00000" pt_clust_6="13000.00000" pt_clust_7="13000.00000" pt_clust_8="13000.00000" pt_clust_9="37.94678"></scales>
<clustering>
<clus scale="   37.947">  2  9  1 -1</clus>
<clus scale="   77.579">  5  6 -1 -1</clus>
<clus scale="   89.750">  7  8 -1 -1</clus>
<clus scale="  167.998">  1  5  2 -1</clus>
<clus scale="  167.998">  1  5  2 -1</clus>
</clustering>
</event>
<event>
 9    1  0.2333971E-005  0.1003359E+03  0.7546771E-02  0.1289205E+00
         -2   -1    0    0    0  501 -0.00000000000E+00  0.00000000000E+00  0.31126046012E+02  0.31126046012E+02  0.00000000000E+00 0.  1.
          1   -1    0    0  502    0  0.00000000000E+00 -0.00000000000E+00 -0.68645010415E+03  0.68645010415E+03  0.00000000000E+00 0. -1.
         23    2    1    2    0    0 -0.21981452484E+02 -0.22237463768E+02 -0.11109724871E+03  0.15025617119E+03  0.96211378015E+02 0.  0.
        -24    2    1    2    0    0  0.29315117750E+02 -0.81462487022E+01 -0.52247383959E+03  0.52923921839E+03  0.78673373739E+02 0.  0.
         13    1    4    4    0    0 -0.25187650923E+02 -0.35472574309E+01 -0.97639543989E+02  0.10089837137E+03  0.00000000000E+00 0. -1.
        -14    1    4    4    0    0  0.54502768673E+02 -0.45989912713E+01 -0.42483429560E+03  0.42834084702E+03  0.00000000000E+00 0.  1.
        -13    1    3    3    0    0 -0.46565134988E+02 -0.23696319762E+02 -0.11405460936E+03  0.12545230680E+03  0.00000000000E+00 0. -1.
         13    1    3    3    0    0  0.24583682504E+02  0.14588559937E+01  0.29573606439E+01  0.24803864382E+02  0.00000000000E+00 0.  1.
         21    1    1    2  502  501 -0.73336652660E+01  0.30383712470E+02 -0.21752969834E+02  0.38080760580E+02  0.00000000000E+00 0. -1.
<scales pt_clust_5="13000.00000" pt_clust_6="13000.00000" pt_clust_7="13000.00000" pt_clust_8="13000.00000" pt_clust_9="31.25624"></scales>
<clustering>
<clus scale="   31.256">  1  9  2 -1</clus>
<clus scale="   78.673">  5  6 -1 -1</clus>
<clus scale="   83.667">  2  5  1 -1</clus>
<clus scale="   96.211">  7  8 -1 -1</clus>
<clus scale="   83.667">  2  5  1 -1</clus>
</clustering>
</event>
<event>
 9    1  0.2333971E-005  0.1031879E+03  0.7546771E-02  0.1278460E+00
          3   -1    0    0  502    0  0.00000000000E+00  0.00000000000E+00  0.41578161081E+03  0.41578161081E+03  0.00000000000E+00 0. -1.
         -4   -1    0    0    0  501 -0.00000000000E+00 -0.00000000000E+00 -0.94049443270E+02  0.94049443270E+02  0.00000000000E+00 0.  1.
        -24    2    1    2    0    0 -0.16582113139E+01  0.31091514683E+02  0.27381987392E+00  0.86714838565E+02  0.80931800301E+02 0.  0.
         23    2    1    2    0    0 -0.42656160806E+02 -0.32530296373E+02  0.35312520148E+03  0.36863114141E+03  0.91179725041E+02 0.  0.
         11    1    3    3    0    0  0.28839253376E+02  0.24107525702E+02  0.26417288359E+02  0.45942882528E+02  0.00000000000E+00 0. -1.
        -12    1    3    3    0    0 -0.30497464690E+02  0.69839889815E+01 -0.26143468486E+02  0.40771956037E+02  0.00000000000E+00 0.  1.
        -11    1    4    4    0    0 -0.53159719236E+02 -0.55457078575E+02  0.21716852971E+03  0.23035540716E+03  0.00000000000E+00 0. -1.
         11    1    4    4    0    0  0.10503558430E+02  0.22926782203E+02  0.13595667177E+03  0.13827573424E+03  0.00000000000E+00 0.  1.
         21    1    1    2  502  501  0.44314372120E+02  0.14387816894E+01 -0.31666853819E+02  0.54485074102E+02  0.00000000000E+00 0. -1.
<scales pt_clust_5="13000.00000" pt_clust_6="13000.00000" pt_clust_7="13000.00000" pt_clust_8="13000.00000" pt_clust_9="44.33772"></scales>
<clustering>
<clus scale="   44.338">  2  9  1 -1</clus>
<clus scale="   80.932">  5  6 -1 -1</clus>
<clus scale="   91.180">  7  8 -1 -1</clus>
<clus scale="   94.255">  2  5  1 -1</clus>
<clus scale="  103.188">  1  5  2 -1</clus>
</clustering>
</event>
<event>
 9    1  0.2333971E-005  0.1498789E+03  0.7546771E-02  0.1202575E+00
         -2   -1    0    0    0  501 -0.00000000000E+00  0.00000000000E+00  0.65276143198E+03  0.65276143198E+03  0.00000000000E+00 0.  1.
          1   -1    0    0  502    0  0.00000000000E+00 -0.00000000000E+00 -0.72665933310E+03  0.72665933310E+03  0.00000000000E+00 0. -1.
         23    2    1    2    0    0 -0.46210950257E+02 -0.13351268738E+03  0.52813676853E+03  0.55433761117E+03  0.91655066790E+02 0.  0.
        -24    2    1    2    0    0  0.54092861526E+02  0.10521220126E+03 -0.70426114442E+03  0.71871918358E+03  0.81104009392E+02 0.  0.
         13    1    4    4    0    0  0.13824268342E+02  0.99022590904E+02 -0.55814020013E+03  0.56702474981E+03  0.00000000000E+00 0. -1.
        -14    1    4    4    0    0  0.40268593184E+02  0.61896103572E+01 -0.14612094430E+03  0.15169443377E+03  0.00000000000E+00 0.  1.
        -13    1    3    3    0    0  0.24750815310E+02 -0.18297373219E+02  0.13831378006E+03  0.14169720703E+03  0.00000000000E+00 0. -1.
         13    1    3    3    0    0 -0.70961765567E+02 -0.11521531416E+03  0.38982298847E+03  0.41264040414E+03  0.00000000000E+00 0.  1.
         21    1    1    2  502  501 -0.78819112685E+01  0.28300486119E+02  0.10222647477E+03  0.10636397033E+03  0.00000000000E+00 0. -1.
<scales pt_clust_5="13000.00000" pt_clust_6="13000.00000" pt_clust_7="13000.00000" pt_clust_8="13000.00000" pt_clust_9="29.37758"></scales>
<clustering>
<clus scale="   29.378">  1  9  2 -1</clus>
<clus scale="   81.104">  5  6 -1 -1</clus>
<clus scale="   91.655">  7  8 -1 -1</clus>
<clus scale="  143.669">  2  5  1 -1</clus>
<clus scale="  143.669">  2  5  1 -1</clus>
</clustering>
</event>
<event>
 9    1  0.2333971E-005  0.9511701E+02  0.7546771E-02  0.1298857E+00
          1   -1    0    0  502    0  0.00000000000E+00  0.00000000000E+00  0.21926629510E+03  0.21926629510E+03  0.00000000000E+00 0. -1.
         -2   -1    0    0    0  501 -0.00000000000E+00 -0.00000000000E+00 -0.72627129522E+02  0.72627129522E+02  0.00000000000E+00 0.  1.
         23    2    1    2    0    0  0.17830155373E+02  0.16524105530E+01  0.38519872607E+02  0.10219274851E+03  0.92945857150E+02 0.  0.
        -24    2    1    2    0    0 -0.20471967096E+01  0.27412371779E+02  0.12644712463E+03  0.15188833989E+03  0.79533410127E+02 0.  0.
         11    1    4    4    0    0  0.31676028582E+02  0.37035936356E+02  0.80236864197E+02  0.93877503933E+02  0.00000000000E+00 0. -1.
        -12    1    4    4    0    0 -0.33723225291E+02 -0.96235645769E+01  0.46210260438E+02  0.58010835962E+02  0.00000000000E+00 0.  1.
        -11    1    3    3    0    0  0.51673051059E+02 -0.40937637407E+01  0.43291685840E+02  0.67535421596E+02  0.00000000000E+00 0. -1.
         11    1    3    3    0    0 -0.33842895686E+02  0.57461742937E+01 -0.47718132324E+01  0.34657326916E+02  0.00000000000E+00 0.  1.
         21    1    1    2  502  501 -0.15782958663E+02 -0.29064782332E+02 -0.18327831668E+02  0.37812336213E+02  0.00000000000E+00 0.  1.
<scales pt_clust_5="13000.00000" pt_clust_6="13000.00000" pt_clust_7="13000.00000" pt_clust_8="13000.00000" pt_clust_9="33.07361"></scales>
<clustering>
<clus scale="   33.074">  2  9  1 -1</clus>
<clus scale="   79.533">  5  6 -1 -1</clus>
<clus scale="   82.060">  1  5  2 -1</clus>
<clus scale="   92.946">  7  8 -1 -1</clus>
<clus scale="   82.060">  1  5  2 -1</clus>
</clustering>
</event>
<event>
 9    1  0.2333971E-005  0.9781141E+02  0.7546771E-02  0.1288128E+00
         -2   -1    0    0    0  501 -0.00000000000E+00  0.00000000000E+00  0.11648497672E+03  0.11648497672E+03  0.00000000000E+00 0.  1.
          1   -1    0    0  502    0  0.00000000000E+00 -0.00000000000E+00 -0.24278172368E+03  0.24278172368E+03  0.00000000000E+00 0. -1.
         23    2    1    2    0    0  0.80567196232E+01 -0.28965268606E+01  0.17809617552E+02  0.93099167458E+02  0.90977864918E+02 0.  0.
        -24    2    1    2    0    0 -0.34839604294E+02  0.22500852383E+02 -0.18843729462E+03  0.21078807959E+03  0.84869983548E+02 0.  0.
         11    1    4    4    0    0 -0.21062661840E+02  0.54899352480E+02 -0.12763803382E+03  0.14053128585E+03  0.00000000000E+00 0. -1.
        -12    1    4    4    0    0 -0.13776942454E+02 -0.32398500097E+02 -0.60799260798E+02  0.70256793732E+02  0.00000000000E+00 0.  1.
        -13    1    3    3    0    0 -0.27556990896E+02  0.60201967326E+01 -0.24301452056E+02  0.37231587234E+02  0.00000000000E+00 0. -1.
         13    1    3    3    0    0  0.35613710519E+02 -0.89167235933E+01  0.42111069608E+02  0.55867580224E+02  0.00000000000E+00 0.  1.
         21    1    1    2  502  501  0.26782884671E+02 -0.19604325523E+02  0.44330930106E+02  0.55379453361E+02  0.00000000000E+00 0.  1.
<scales pt_clust_5="13000.00000" pt_clust_6="13000.00000" pt_clust_7="13000.00000" pt_clust_8="13000.00000" pt_clust_9="33.19115"></scales>
<clustering>
<clus scale="   33.191">  1  9  2 -1</clus>
<clus scale="   84.870">  5  6 -1 -1</clus>
<clus scale="   90.978">  7  8 -1 -1</clus>
<clus scale="   92.158">  2  5  1 -1</clus>
<clus scale="   92.158">  2  5  1 -1</clus>
</clustering>
</event>
<event>
 9    1  0.2333971E-005  0.9553582E+02  0.7546771E-02  0.1298176E+00
         -2   -1    0    0    0  501 -0.00000000000E+00  0.00000000000E+00  0.89332909714E+02  0.89332909714E+02  0.00000000000E+00 0.  1.
          1   -1    0    0  502    0  0.00000000000E+00 -0.00000000000E+00 -0.33161280318E+03  0.33161280318E+03  0.00000000000E+00 0. -1.
         23    2    1    2    0    0 -0.24947928539E+02  0.45096865899E+02  0.22957256527E+01  0.10574720874E+03  0.92309670934E+02 0.  0.
        -24    2    1    2    0    0  0.24147312938E+02  0.48905441455E+00 -0.25551471496E+03  0.26831160903E+03  0.78230544430E+02 0.  0.
         11    1    4    4    0    0  0.91796908061E+01 -0.26849627203E+02 -0.32562080386E+02  0.43190951406E+02  0.00000000000E+00 0. -1.
        -12    1    4    4    0    0  0.14967622132E+02  0.27338681618E+02 -0.22295263457E+03  0.22512065762E+03  0.00000000000E+00 0.  1.
        -13    1    3    3    0    0 -0.27165910672E+02 -0.14514871253E+02 -0.25452601262E+02  0.39956264854E+02  0.00000000000E+00 0. -1.
         13    1    3    3    0    0  0.22179821327E+01  0.59611737152E+02  0.27748326914E+02  0.65790943887E+02  0.00000000000E+00 0.  1.
         21    1    1    2  502  501  0.80061560121E+00 -0.45585920313E+02  0.10939095845E+02  0.46886895121E+02  0.00000000000E+00 0. -1.
<scales pt_clust_5="13000.00000" pt_clust_6="13000.00000" pt_clust_7="13000.00000" pt_clust_8="13000.00000" pt_clust_9="45.59295"></scales>
<clustering>
<clus scale="   45.593">  1  9  2 -1</clus>
<clus scale="   78.231">  5  6 -1 -1</clus>
<clus scale="   82.012">  2  5  1 -1</clus>
<clus scale="   92.310">  7  8 -1 -1</clus>
<clus scale="   82.012">  2  5  1 -1</clus>
</clustering>
</event>
<event>
 9    1  0.2333971E-005  0.1483328E+03  0.7546771E-02  0.1207969E+00
         -4   -1    0    0    0  501 -0.00000000000E+00  0.00000000000E+00  0.35209801625E+03  0.35209801625E+03  0.00000000000E+00 0.  1.
          3   -1    0    0  502    0  0.00000000000E+00 -0.00000000000E+00 -0.33155286592E+03  0.33155286592E+03  0.00000000000E+00 0. -1.
         23    2    1    2    0    0 -0.79399450439E+02  0.10240619118E+03  0.28952077174E+03  0.33446701305E+03  0.10608772232E+03 0.  0.
        -24    2    1    2    0    0  0.59193480700E+02 -0.83676009907E+02 -0.28751863532E+03  0.31597326436E+03  0.81649221313E+02 0.  0.
         13    1    4    4    0    0  0.27373745134E+01 -0.34434257468E+02 -0.18940772482E+03  0.19253180913E+03  0.00000000000E+00 0. -1.
        -14    1    4    4    0    0  0.56456106187E+02 -0.49241752438E+02 -0.98110910508E+02  0.12344145523E+03  0.00000000000E+00 0.  1.
        -13    1    3    3    0    0  0.12338524762E+02  0.31979353220E+02  0.14690250125E+03  0.15084847729E+03  0.00000000000E+00 0.  1.
         13    1    3    3    0    0 -0.91737975201E+02  0.70426837963E+02  0.14261827049E+03  0.18361853577E+03  0.00000000000E+00 0. -1.
         21    1    1    2  502  501  0.20205969738E+02 -0.18730181276E+02  0.18543013909E+02  0.33210604760E+02  0.00000000000E+00 0. -1.
<scales pt_clust_5="13000.00000" pt_clust_6="13000.00000" pt_clust_7="13000.00000" pt_clust_8="13000.00000" pt_clust_9="27.55179"></scales>
<clustering>
<clus scale="   27.552">  1  9  2 -1</clus>
<clus scale="   81.649">  5  6 -1 -1</clus>
<clus scale="  106.088">  7  8 -1 -1</clus>
<clus scale="  131.964">  2  5  1 -1</clus>
<clus scale="  131.964">  2  5  1 -1</clus>
</clustering>
</event>
<event>
 9    1  0.2333971E-005  0.1226810E+03  0.7546771E-02  0.1249286E+00
         -2   -1    0    0    0  501 -0.00000000000E+00  0.00000000000E+00  0.80212318378E+03  0.80212318378E+03  0.00000000000E+00 0.  1.
          1   -1    0    0  502    0  0.00000000000E+00 -0.00000000000E+00 -0.14260380625E+03  0.14260380625E+03  0.00000000000E+00 0. -1.
        -24    2    1    2    0    0 -0.99139407596E+02 -0.34097846672E+02  0.39317249981E+03  0.41483206901E+03  0.80682994382E+02 0.  0.
         23    2    1    2    0    0  0.50342022444E+02  0.20534360236E+02 -0.10181357216E+03  0.15826705633E+03  0.10828886586E+03 0.  0.
         11    1    3    3    0    0 -0.35879418661E+02  0.20083840853E+02  0.70805211556E+02  0.81878393550E+02  0.00000000000E+00 0. -1.
        -12    1    3    3    0    0 -0.63259988935E+02 -0.54181687524E+02  0.32236728826E+03  0.33295367546E+03  0.00000000000E+00 0.  1.
        -11    1    4    4    0    0  0.32120547997E+01 -0.36042845919E+02 -0.48449816584E+01  0.36508600154E+02  0.00000000000E+00 0.  1.
         11    1    4    4    0    0  0.47129967644E+02  0.56577206155E+02 -0.96968590500E+02  0.12175845617E+03  0.00000000000E+00 0. -1.
         21    1    1    2  502  501  0.48797385152E+02  0.13563486435E+02  0.36816044988E+03  0.37162786469E+03  0.00000000000E+00 0.  1.
<scales pt_clust_5="13000.00000" pt_clust_6="13000.00000" pt_clust_7="13000.00000" pt_clust_8="13000.00000" pt_clust_9="50.64734"></scales>
<clustering>
<clus scale="   50.647">  1  9  2 -1</clus>
<clus scale="   80.683">  5  6 -1 -1</clus>
<clus scale="   99.166">  1  5  2 -1</clus>
<clus scale="  108.289">  7  8 -1 -1</clus>
<clus scale="  122.681">  2  5  1 -1</clus>
</clustering>
</event>
<event>
 9    1  0.2977264E-005  0.1350637E+03  0.7546771E-02  0.1223403E+00
          1   -1    0    0  502    0  0.00000000000E+00  0.00000000000E+00  0.14617777970E+03  0.14617777970E+03  0.00000000000E+00 0. -1.
         -2   -1    0    0    0  501 -0.00000000000E+00 -0.00000000000E+00 -0.88151210804E+03  0.88151210804E+03  0.00000000000E+00 0.  1.
        -24    2    1    2    0    0 -0.10581467707E+00  0.79550661653E+02 -0.77442808953E+03  0.78260156152E+03  0.79987619549E+02 0.  0.
         23    2    1    2    0    0 -0.16981411062E+02 -0.96837918279E+02  0.10712377697E+03  0.17284633309E+03  0.93458014820E+02 0.  0.
         13    1    3    3    0    0 -0.23753165992E+02  0.42644255574E+02 -0.17820694964E+03  0.18477137854E+03  0.00000000000E+00 0. -1.
        -14    1    3    3    0    0  0.23647351314E+02  0.36906406079E+02 -0.59622113989E+03  0.59783018298E+03  0.00000000000E+00 0.  1.
        -11    1    4    4    0    0 -0.21171709284E+02 -0.35656047603E+02 -0.81629099244E+01  0.42263791869E+02  0.00000000000E+00 0.  1.
         11    1    4    4    0    0  0.41902982219E+01 -0.61181870676E+02  0.11528668689E+03  0.13058254122E+03  0.00000000000E+00 0. -1.
         21    1    1    2  502  501  0.17087225739E+02  0.17287256626E+02 -0.68030015769E+02  0.72241993124E+02  0.00000000000E+00 0. -1.
<scales pt_clust_5="13000.00000" pt_clust_6="13000.00000" pt_clust_7="13000.00000" pt_clust_8="13000.00000" pt_clust_9="24.30684"></scales>
<clustering>
<clus scale="   24.307">  2  9  1 -1</clus>
<clus scale="   79.988">  5  6 -1 -1</clus>
<clus scale="   93.458">  7  8 -1 -1</clus>
<clus scale="  126.118">  2  5  1 -1</clus>
<clus scale="  135.064">  1  5  2 -1</clus>
</clustering>
</event>
<event>
 9    1  0.2333971E-005  0.1322598E+03  0.7546771E-02  0.1226800E+00
          3   -1    0    0  502    0  0.00000000000E+00  0.00000000000E+00  0.16448237674E+03  0.16448237674E+03  0.00000000000E+00 0. -1.
         -4   -1    0    0    0  501 -0.00000000000E+00 -0.00000000000E+00 -0.38202565885E+03  0.38202565885E+03  0.00000000000E+00 0.  1.
        -24    2    1    2    0    0  0.38209279980E+02 -0.47486013578E+02 -0.26927062686E+03  0.28752282750E+03  0.80298413936E+02 0.  0.
         23    2    1    2    0    0 -0.88322926829E+02  0.47787263521E+02  0.11537390618E+03  0.17797685585E+03  0.90994840681E+02 0.  0.
         13    1    3    3    0    0  0.13125440612E+02 -0.19690214803E+02 -0.10213287559E+02  0.25773881993E+02  0.00000000000E+00 0. -1.
        -14    1    3    3    0    0  0.25083839368E+02 -0.27795798775E+02 -0.25905733930E+03  0.26174894551E+03  0.00000000000E+00 0.  1.
        -11    1    4    4    0    0 -0.34770419754E+02 -0.25223458437E+02  0.52045391740E+02  0.67482795932E+02  0.00000000000E+00 0.  1.
         11    1    4    4    0    0 -0.53552507075E+02  0.73010721958E+02  0.63328514443E+02  0.11049405991E+03  0.00000000000E+00 0. -1.
         21    1    1    2  502  501  0.50113646849E+02 -0.30124994276E+00 -0.63646561430E+02  0.81008352248E+02  0.00000000000E+00 0.  1.
<scales pt_clust_5="13000.00000" pt_clust_6="13000.00000" pt_clust_7="13000.00000" pt_clust_8="13000.00000" pt_clust_9="50.11455"></scales>
<clustering>
<clus scale="   50.115">  2  9  1 -1</clus>
<clus scale="   80.298">  5  6 -1 -1</clus>
<clus scale="   90.995">  7  8 -1 -1</clus>
<clus scale="  125.142">  2  5  1 -1</clus>
<clus scale="  132.260">  1  5  2 -1</clus>
</clustering>
</event>
<event>
 9    1  0.2333971E-005  0.1334024E+03  0.7546771E-02  0.1224565E+00
          1   -1    0    0  502    0  0.00000000000E+00  0.00000000000E+00  0.36975595118E+02  0.36975595118E+02  0.00000000000E+00 0. -1.
         -2   -1    0    0    0  501 -0.00000000000E+00 -0.00000000000E+00 -0.73870437685E+03  0.73870437685E+03  0.00000000000E+00 0.  1.
         23    2    1    2    0    0  0.21695804087E+02  0.76631275357E+02 -0.38753487105E+03  0.40613322426E+03  0.91748892572E+02 0.  0.
        -24    2    1    2    0    0 -0.95224674855E+01 -0.10420044105E+03 -0.14334488151E+03  0.19606003413E+03  0.83326902171E+02 0.  0.
         11    1    4    4    0    0 -0.21991325450E+02 -0.51974146640E+02 -0.17255764473E+02  0.59014334882E+02  0.00000000000E+00 0. -1.
        -12    1    4    4    0    0  0.12468857965E+02 -0.52226294410E+02 -0.12608911704E+03  0.13704569925E+03  0.00000000000E+00 0.  1.
        -11    1    3    3    0    0 -0.17046257622E+02  0.78552528277E+02 -0.29597105654E+03  0.30669193160E+03  0.00000000000E+00 0.  1.
         11    1    3    3    0    0  0.38742061709E+02 -0.19212529200E+01 -0.91563814514E+02  0.99441292664E+02  0.00000000000E+00 0. -1.
         21    1    1    2  502  501 -0.12173336601E+02  0.27569165693E+02 -0.17084902917E+03  0.17348671358E+03  0.00000000000E+00 0.  1.
<scales pt_clust_5="13000.00000" pt_clust_6="13000.00000" pt_clust_7="13000.00000" pt_clust_8="13000.00000" pt_clust_9="30.13717"></scales>
<clustering>
<clus scale="   30.137">  2  9  1 -1</clus>
<clus scale="   83.327">  5  6 -1 -1</clus>
<clus scale="   91.749">  7  8 -1 -1</clus>
<clus scale="  127.756">  1  5  2 -1</clus>
<clus scale="  127.756">  1  5  2 -1</clus>
</clustering>
</event>
<event>
 9    1  0.2333971E-005  0.1619926E+03  0.7546771E-02  0.1190962E+00
          1   -1    0    0  502    0  0.00000000000E+00  0.00000000000E+00  0.47975661016E+03  0.47975661016E+03  0.00000000000E+00 0. -1.
         -2   -1    0    0    0  501 -0.00000000000E+00 -0.00000000000E+00 -0.12103609658E+03  0.12103609658E+03  0.00000000000E+00 0.  1.
         23    2    1    2    0    0  0.88280293377E+02 -0.74727860301E+02  0.22036527418E+02  0.15817338643E+03  0.10561982925E+03 0.  0.
        -24    2    1    2    0    0 -0.11070376352E+03  0.57684256184E+02  0.37021907636E+03  0.39882549963E+03  0.80105043451E+02 0.  0.
         11    1    4    4    0    0 -0.76472908837E+02  0.48816179206E+02  0.34127698116E+03  0.35313043342E+03  0.00000000000E+00 0. -1.
        -12    1    4    4    0    0 -0.34230854679E+02  0.88680769781E+01  0.28942095201E+02  0.45695066210E+02  0.00000000000E+00 0.  1.
        -11    1    3    3    0    0  0.78552336541E+02 -0.23538150505E+02  0.52926066582E+02  0.97599603632E+02  0.00000000000E+00 0.  1.
         11    1    3    3    0    0  0.97279568364E+01 -0.51189709796E+02 -0.30889539164E+02  0.60573782802E+02  0.00000000000E+00 0. -1.
         21    1    1    2  502  501  0.22423470139E+02  0.17043604117E+02 -0.33535090200E+02  0.43793820673E+02  0.00000000000E+00 0.  1.
<scales pt_clust_5="13000.00000" pt_clust_6="13000.00000" pt_clust_7="13000.00000" pt_clust_8="13000.00000" pt_clust_9="28.16552"></scales>
<clustering>
<clus scale="   28.166">  2  9  1 -1</clus>
<clus scale="   80.105">  5  6 -1 -1</clus>
<clus scale="  105.620">  7  8 -1 -1</clus>
<clus scale="  146.639">  1  5  2 -1</clus>
<clus scale="  146.639">  1  5  2 -1</clus>
</clustering>
</event>
<event>
 9    1  0.2333971E-005  0.1032770E+03  0.7546771E-02  0.1277377E+00
          1   -1    0    0  502    0  0.00000000000E+00  0.00000000000E+00  0.42510485063E+03  0.42510485063E+03  0.00000000000E+00 0. -1.
         -2   -1    0    0    0  501 -0.00000000000E+00 -0.00000000000E+00 -0.67936058558E+02  0.67936058558E+02  0.00000000000E+00 0.  1.
        -24    2    1    2    0    0  0.22196284614E+02  0.20173396690E+02 -0.33069917154E+00  0.86626928575E+02  0.81267917457E+02 0.  0.
         23    2    1    2    0    0 -0.55740145941E+02 -0.37883972320E+01  0.35337423184E+03  0.36885500558E+03  0.89773891492E+02 0.  0.
         13    1    3    3    0    0 -0.30161541629E+02  0.14430438923E+02  0.44853561756E+01  0.33735360988E+02  0.00000000000E+00 0. -1.
        -14    1    3    3    0    0  0.52357826243E+02  0.57429577671E+01 -0.48160553471E+01  0.52891567588E+02  0.00000000000E+00 0.  1.
        -13    1    4    4    0    0 -0.75973039010E+02  0.59612614062E+01  0.31760161849E+03  0.32661633051E+03  0.00000000000E+00 0. -1.
         13    1    4    4    0    0  0.20232893069E+02 -0.97496586382E+01  0.35772613352E+02  0.42238675068E+02  0.00000000000E+00 0.  1.
         21    1    1    2  502  501  0.33543861327E+02 -0.16384999458E+02  0.41252594030E+01  0.37558975028E+02  0.00000000000E+00 0. -1.
<scales pt_clust_5="13000.00000" pt_clust_6="13000.00000" pt_clust_7="13000.00000" pt_clust_8="13000.00000" pt_clust_9="37.33174"></scales>
<clustering>
<clus scale="   37.332">  2  9  1 -1</clus>
<clus scale="   81.268">  5  6 -1 -1</clus>
<clus scale="   89.774">  7  8 -1 -1</clus>
<clus scale="   95.975">  2  5  1 -1</clus>
<clus scale="  103.277">  1  5  2 -1</clus>
</clustering>
</event>
<event>
 9    1  0.2333971E-005  0.2122819E+03  0.7546771E-02  0.1161442E+00
         -2   -1    0    0    0  501 -0.00000000000E+00  0.00000000000E+00  0.96355641773E+03  0.96355641773E+03  0.00000000000E+00 0.  1.
          1   -1    0    0  502    0  0.00000000000E+00 -0.00000000000E+00 -0.19512567942E+03  0.19512567942E+03  0.00000000000E+00 0. -1.
        -24    2    1    2    0    0 -0.15064740753E+03  0.16673997421E+03  0.16258007079E+03  0.28876255897E+03  0.80340996076E+02 0.  0.
         23    2    1    2    0    0 -0.20469935864E+02 -0.77569770896E+02 -0.84819087332E+02  0.15280226699E+03  0.98580766840E+02 0.  0.
         13    1    3    3    0    0 -0.12950436362E+03  0.10880926278E+03  0.83950742664E+02  0.18883475066E+03  0.00000000000E+00 0. -1.
        -14    1    3    3    0    0 -0.21143043915E+02  0.57930711432E+02  0.78629328127E+02  0.99927808315E+02  0.00000000000E+00 0.  1.
        -13    1    4    4    0    0 -0.30437611430E+02 -0.81346065104E+01  0.11593682741E+02  0.33571319488E+02  0.00000000000E+00 0.  1.
         13    1    4    4    0    0  0.99676755658E+01 -0.69435164385E+02 -0.96412770074E+02  0.11923094750E+03  0.00000000000E+00 0. -1.
         21    1    1    2  502  501  0.17111734339E+03 -0.89170203318E+02  0.69066975484E+03  0.71711727118E+03  0.00000000000E+00 0.  1.
<scales pt_clust_5="13000.00000" pt_clust_6="13000.00000" pt_clust_7="13000.00000" pt_clust_8="13000.00000" pt_clust_9="196.49152"></scales>
<clustering>
<clus scale="   80.341">  5  6 -1 -1</clus>
<clus scale="   98.581">  7  8 -1 -1</clus>
<clus scale="  127.099">  2  7  1 -1</clus>
<clus scale="  196.492">  1  9  2 -1</clus>
<clus scale="  127.099">  2  5  1 -1</clus>
</clustering>
</event>
<event>
 9    1  0.2333971E-005  0.1352022E+03  0.7546771E-02  0.1231050E+00
          1   -1    0    0  502    0  0.00000000000E+00  0.00000000000E+00  0.11555778235E+03  0.11555778235E+03  0.00000000000E+00 0. -1.
         -2   -1    0    0    0  501 -0.00000000000E+00 -0.00000000000E+00 -0.36896712661E+03  0.36896712661E+03  0.00000000000E+00 0.  1.
        -24    2    1    2    0    0 -0.50621660189E+02  0.80067820936E+02 -0.15370958353E+03  0.19847440121E+03  0.82413854642E+02 0.  0.
         23    2    1    2    0    0 -0.55920641672E+02 -0.94855779790E+01  0.22059618170E+02  0.10953291244E+03  0.91069961009E+02 0.  0.
         13    1    3    3    0    0 -0.45017851831E+02  0.86039405182E+01 -0.27844473499E+02  0.53627879693E+02  0.00000000000E+00 0. -1.
        -14    1    3    3    0    0 -0.56038083582E+01  0.71463880418E+02 -0.12586511003E+03  0.14484652152E+03  0.00000000000E+00 0.  1.
        -13    1    4    4    0    0  0.12630865453E+02 -0.29117337354E+02 -0.70506967133E+01  0.32512619409E+02  0.00000000000E+00 0.  1.
         13    1    4    4    0    0 -0.68551507125E+02  0.19631759375E+02  0.29110314884E+02  0.77020293027E+02  0.00000000000E+00 0. -1.
         21    1    1    2  502  501  0.10654230186E+03 -0.70582242957E+02 -0.12175937890E+03  0.17651759532E+03  0.00000000000E+00 0.  1.
<scales pt_clust_5="13000.00000" pt_clust_6="13000.00000" pt_clust_7="13000.00000" pt_clust_8="13000.00000" pt_clust_9="107.18019"></scales>
<clustering>
<clus scale="   82.414">  5  6 -1 -1</clus>
<clus scale="   91.070">  7  8 -1 -1</clus>
<clus scale="  107.289">  1  7  2 -1</clus>
<clus scale="  107.180">  1  9  2 -1</clus>
<clus scale="  107.289">  1  5  2 -1</clus>
</clustering>
</event>
<event>
 9    1  0.2333971E-005  0.1186808E+03  0.7546771E-02  0.1251619E+00
         -2   -1    0    0    0  501 -0.00000000000E+00  0.00000000000E+00  0.10476468787E+03  0.10476468787E+03  0.00000000000E+00 0.  1.
          1   -1    0    0  502    0  0.00000000000E+00 -0.00000000000E+00 -0.36885496715E+03  0.36885496715E+03  0.00000000000E+00 0. -1.
         23    2    1    2    0    0  0.25673060174E+02 -0.53165456583E+02  0.35077681435E+01  0.10953705376E+03  0.92197559169E+02 0.  0.
        -24    2    1    2    0    0 -0.37777898318E+02  0.30095956649E+02 -0.30002015336E+03  0.32249027160E+03  0.10795807818E+03 0.  0.
         13    1    4    4    0    0  0.36210200048E+02  0.57758729689E+01 -0.61772092618E+02  0.71835441966E+02  0.00000000000E+00 0. -1.
        -14    1    4    4    0    0 -0.73988098367E+02  0.24320083680E+02 -0.23824806074E+03  0.25065482963E+03  0.00000000000E+00 0.  1.
        -13    1    3    3    0    0  0.27337572303E+02 -0.20667464344E+02 -0.41611635957E+02  0.53907468767E+02  0.00000000000E+00 0. -1.
         13    1    3    3    0    0 -0.16645121296E+01 -0.32497992239E+02  0.45119404100E+02  0.55629584994E+02  0.00000000000E+00 0.  1.
         21    1    1    2  502  501  0.12104838145E+02  0.23069499934E+02  0.32422105936E+02  0.41592329666E+02  0.00000000000E+00 0.  1.
<scales pt_clust_5="13000.00000" pt_clust_6="13000.00000" pt_clust_7="13000.00000" pt_clust_8="13000.00000" pt_clust_9="26.05243"></scales>
<clustering>
<clus scale="   26.052">  1  9  2 -1</clus>
<clus scale="   92.198">  7  8 -1 -1</clus>
<clus scale="  104.549">  1  7  2 -1</clus>
<clus scale="  107.958">  5  6 -1 -1</clus>
<clus scale="  118.681">  2  5  1 -1</clus>
</clustering>
</event>
<event>
 9    1  0.2333971E-005  0.1318232E+03  0.7546771E-02  0.1226652E+00
         -2   -1    0    0    0  501 -0.00000000000E+00  0.00000000000E+00  0.40193935707E+03  0.40193935707E+03  0.00000000000E+00 0.  1.
          1   -1    0    0  502    0  0.00000000000E+00 -0.00000000000E+00 -0.91725036604E+02  0.91725036604E+02  0.00000000000E+00 0. -1.
        -24    2    1    2    0    0 -0.13622754711E+03  0.52967588814E+02  0.18140823591E+03  0.24657863369E+03  0.80799532680E+02 0.  0.
         23    2    1    2    0    0  0.82001984892E+02  0.38343063281E+01  0.36966315712E+02  0.12624946564E+03  0.88506449735E+02 0.  0.
         13    1    3    3    0    0 -0.31782522217E+02  0.52274105778E+02  0.52099318372E+02  0.80355770348E+02  0.00000000000E+00 0. -1.
        -14    1    3    3    0    0 -0.10444502489E+03  0.69348303514E+00  0.12930891753E+03  0.16622286334E+03  0.00000000000E+00 0.  1.
        -11    1    4    4    0    0  0.56151242060E+02 -0.78406274342E+01  0.65080161182E+02  0.86312599329E+02  0.00000000000E+00 0.  1.
         11    1    4    4    0    0  0.25850742832E+02  0.11674933762E+02 -0.28113845470E+02  0.39936866307E+02  0.00000000000E+00 0. -1.
         21    1    1    2  502  501  0.54225562218E+02 -0.56801895142E+02  0.91839768847E+02  0.12083629435E+03  0.00000000000E+00 0. -1.
<scales pt_clust_5="13000.00000" pt_clust_6="13000.00000" pt_clust_7="13000.00000" pt_clust_8="13000.00000" pt_clust_9="78.52940"></scales>
<clustering>
<clus scale="   78.529">  1  9  2 -1</clus>
<clus scale="   80.800">  5  6 -1 -1</clus>
<clus scale="   88.506">  7  8 -1 -1</clus>
<clus scale="  126.778">  1  5  2 -1</clus>
<clus scale="  131.823">  2  5  1 -1</clus>
</clustering>
</event>
<event>
 9    1  0.2333971E-005  0.1349442E+03  0.7546771E-02  0.1222058E+00
         -2   -1    0    0    0  501 -0.00000000000E+00  0.00000000000E+00  0.37938268092E+02  0.37938268092E+02  0.00000000000E+00 0.  1.
          1   -1    0    0  502    0  0.00000000000E+00 -0.00000000000E+00 -0.94305900982E+03  0.94305900982E+03  0.00000000000E+00 0. -1.
         23    2    1    2    0    0 -0.92469933500E+02  0.15208389976E+02 -0.21201596459E+03  0.24879222265E+03  0.90359377401E+02 0.  0.
        -24    2    1    2    0    0  0.70483532491E+02 -0.85214588131E+02 -0.58798465098E+03  0.60400790033E+03  0.82886304560E+02 0.  0.
         13    1    4    4    0    0  0.68052061468E+02 -0.17697554676E+02 -0.32052959783E+03  0.32815165640E+03  0.00000000000E+00 0. -1.
        -14    1    4    4    0    0  0.24314710229E+01 -0.67517033455E+02 -0.26745505315E+03  0.27585624393E+03  0.00000000000E+00 0.  1.
        -11    1    3    3    0    0  0.42458840733E+01  0.23707629886E+02 -0.13028990914E+02  0.27383094249E+02  0.00000000000E+00 0. -1.
         11    1    3    3    0    0 -0.96715817574E+02 -0.84992399108E+01 -0.19898697367E+03  0.22140912840E+03  0.00000000000E+00 0.  1.
         21    1    1    2  502  501  0.21986401009E+02  0.70006198155E+02 -0.10512012616E+03  0.12819715493E+03  0.00000000000E+00 0.  1.
<scales pt_clust_5="13000.00000" pt_clust_6="13000.00000" pt_clust_7="13000.00000" pt_clust_8="13000.00000" pt_clust_9="73.37758"></scales>
<clustering>
<clus scale="   73.378">  1  9  2 -1</clus>
<clus scale="   82.886">  5  6 -1 -1</clus>
<clus scale="   90.359">  7  8 -1 -1</clus>
<clus scale="  130.059">  2  5  1 -1</clus>
<clus scale="  130.059">  2  5  1 -1</clus>
</clustering>
</event>
<event>
 9    1  0.2333971E-005  0.9111956E+02  0.7546771E-02  0.1306537E+00
          1   -1    0    0  502    0  0.00000000000E+00  0.00000000000E+00  0.14387555093E+03  0.14387555093E+03  0.00000000000E+00 0. -1.
         -2   -1    0    0    0  501 -0.00000000000E+00 -0.00000000000E+00 -0.97633770570E+02  0.97633770570E+02  0.00000000000E+00 0.  1.
        -24    2    1    2    0    0 -0.69681183425E+01 -0.12627878015E+02 -0.17131378277E+02  0.83226306627E+02  0.80156821399E+02 0.  0.
         23    2    1    2    0    0 -0.20244871691E+02 -0.58917682091E+01  0.79017406092E+02  0.12183762283E+03  0.90311063042E+02 0.  0.
         13    1    3    3    0    0  0.12674349424E+02  0.30882647735E+02 -0.10706068227E+02  0.35057052947E+02  0.00000000000E+00 0. -1.
        -14    1    3    3    0    0 -0.19642467766E+02 -0.43510525749E+02 -0.64253100497E+01  0.48169253681E+02  0.00000000000E+00 0.  1.
        -13    1    4    4    0    0  0.21714980780E+02  0.19376993911E+02  0.64481681572E+02  0.70745286357E+02  0.00000000000E+00 0. -1.
         13    1    4    4    0    0 -0.41959852471E+02 -0.25268762120E+02  0.14535724520E+02  0.51092336469E+02  0.00000000000E+00 0.  1.
         21    1    1    2  502  501  0.27212990033E+02  0.18519646224E+02 -0.15644247458E+02  0.36445392045E+02  0.00000000000E+00 0. -1.
<scales pt_clust_5="13000.00000" pt_clust_6="13000.00000" pt_clust_7="13000.00000" pt_clust_8="13000.00000" pt_clust_9="32.91693"></scales>
<clustering>
<clus scale="   32.917">  2  9  1 -1</clus>
<clus scale="   80.157">  5  6 -1 -1</clus>
<clus scale="   81.067">  2  5  1 -1</clus>
<clus scale="   90.311">  7  8 -1 -1</clus>
<clus scale="   91.120">  1  5  2 -1</clus>
</clustering>
</event>
<event>
 9    1  0.2333971E-005  0.1318695E+03  0.7546771E-02  0.1226600E+00
         -2   -1    0    0    0  501 -0.00000000000E+00  0.00000000000E+00  0.49838001848E+02  0.49838001848E+02  0.00000000000E+00 0.  1.
          1   -1    0    0  502    0  0.00000000000E+00 -0.00000000000E+00 -0.10057673576E+04  0.10057673576E+04  0.00000000000E+00 0. -1.
        -24    2    1    2    0    0 -0.36449851461E+02  0.11520338122E+03 -0.19818788962E+03  0.24583767920E+03  0.80977245000E+02 0.  0.
         23    2    1    2    0    0  0.10168255639E+03 -0.24275638853E+02 -0.60543813870E+03  0.62077174465E+03  0.88733140616E+02 0.  0.
         13    1    3    3    0    0 -0.21278792780E+02 -0.67285214211E+01 -0.25330963524E+02  0.33759705801E+02  0.00000000000E+00 0. -1.
        -14    1    3    3    0    0 -0.15171058681E+02  0.12193190264E+03 -0.17285692609E+03  0.21207797340E+03  0.00000000000E+00 0.  1.
        -13    1    4    4    0    0  0.87640101963E+02 -0.49149897339E+02 -0.54149044344E+03  0.55073441895E+03  0.00000000000E+00 0. -1.
         13    1    4    4    0    0  0.14042454429E+02  0.24874258485E+02 -0.63947695260E+02  0.70037325696E+02  0.00000000000E+00 0.  1.
         21    1    1    2  502  501 -0.65232704932E+02 -0.90927742365E+02 -0.15230332741E+03  0.18899593558E+03  0.00000000000E+00 0. -1.
<scales pt_clust_5="13000.00000" pt_clust_6="13000.00000" pt_clust_7="13000.00000" pt_clust_8="13000.00000" pt_clust_9="111.90693"></scales>
<clustering>
<clus scale="   80.977">  5  6 -1 -1</clus>
<clus scale="   88.733">  7  8 -1 -1</clus>
<clus scale="  111.907">  1  9  2 -1</clus>
<clus scale="  126.781">  1  5  2 -1</clus>
<clus scale="  131.869">  2  5  1 -1</clus>
</clustering>
</event>
<event>
 9    1  0.2333971E-005  0.8843782E+02  0.7546771E-02  0.1309348E+00
          1   -1    0    0  502    0  0.00000000000E+00  0.00000000000E+00  0.18832179234E+03  0.18832179234E+03  0.00000000000E+00 0. -1.
         -2   -1    0    0    0  501 -0.00000000000E+00 -0.00000000000E+00 -0.99117940108E+02  0.99117940108E+02  0.00000000000E+00 0.  1.
        -24    2    1    2    0    0 -0.22396128904E+02  0.18360480767E+02 -0.47352974228E+02  0.98349409356E+02  0.81188720328E+02 0.  0.
         23    2    1    2    0    0  0.21432616811E+02  0.10864626461E+02  0.13255821231E+03  0.15957720460E+03  0.85532493272E+02 0.  0.
         11    1    3    3    0    0 -0.42735849295E+02  0.23200866712E+02 -0.23004462875E+01  0.48681876343E+02  0.00000000000E+00 0. -1.
        -12    1    3    3    0    0  0.20339720391E+02 -0.48403859455E+01 -0.45052527941E+02  0.49667533013E+02  0.00000000000E+00 0.  1.
        -13    1    4    4    0    0  0.53264316603E+02 -0.45696040314E+01  0.78748580865E+02  0.95180395526E+02  0.00000000000E+00 0. -1.
         13    1    4    4    0    0 -0.31831699792E+02  0.15434230492E+02  0.53809631448E+02  0.64396809075E+02  0.00000000000E+00 0.  1.
         21    1    1    2  502  501  0.96351209303E+00 -0.29225107227E+02  0.39986141476E+01  0.29513118492E+02  0.00000000000E+00 0.  1.
<scales pt_clust_5="13000.00000" pt_clust_6="13000.00000" pt_clust_7="13000.00000" pt_clust_8="13000.00000" pt_clust_9="29.24099"></scales>
<clustering>
<clus scale="   29.241">  2  9  1 -1</clus>
<clus scale="   81.189">  5  6 -1 -1</clus>
<clus scale="   84.244">  2  5  1 -1</clus>
<clus scale="   85.532">  7  8 -1 -1</clus>
<clus scale="   88.438">  1  5  2 -1</clus>
</clustering>
</event>
<event>
 9    1  0.2333971E-005  0.1054156E+03  0.7546771E-02  0.1273244E+00
         -2   -1    0    0    0  501 -0.00000000000E+00  0.00000000000E+00  0.42450845350E+03  0.42450845350E+03  0.00000000000E+00 0.  1.
          1   -1    0    0  502    0  0.00000000000E+00 -0.00000000000E+00 -0.86408193104E+02  0.86408193104E+02  0.00000000000E+00 0. -1.
        -24    2    1    2    0    0  0.44696481779E+02 -0.45431376187E+02  0.21533970723E+03  0.23849535551E+03  0.80293584184E+02 0.  0.
         23    2    1    2    0    0 -0.21897049620E+02  0.50358270587E+02 -0.36706721322E+02  0.11125708904E+03  0.89528321059E+02 0.  0.
         13    1    3    3    0    0 -0.15508765806E+02 -0.25558275494E+02  0.28940464479E+02  0.41608866211E+02  0.00000000000E+00 0. -1.
        -14    1    3    3    0    0  0.60205247585E+02 -0.19873100692E+02  0.18639924275E+03  0.19688648930E+03  0.00000000000E+00 0.  1.
        -11    1    4    4    0    0 -0.35691163587E+02  0.35728293882E+02 -0.61343183769E+02  0.79456631799E+02  0.00000000000E+00 0. -1.
         11    1    4    4    0    0  0.13794113967E+02  0.14629976705E+02  0.24636462447E+02  0.31800457236E+02  0.00000000000E+00 0.  1.
         21    1    1    2  502  501 -0.22799432158E+02 -0.49268944003E+01  0.15946727448E+03  0.16116420206E+03  0.00000000000E+00 0.  1.
<scales pt_clust_5="13000.00000" pt_clust_6="13000.00000" pt_clust_7="13000.00000" pt_clust_8="13000.00000" pt_clust_9="23.32570"></scales>
<clustering>
<clus scale="   23.326">  1  9  2 -1</clus>
<clus scale="   80.294">  5  6 -1 -1</clus>
<clus scale="   89.528">  7  8 -1 -1</clus>
<clus scale="   97.694">  1  5  2 -1</clus>
<clus scale="  105.416">  2  5  1 -1</clus>
</clustering>
</event>
<event>
 9    1  0.2333971E-005  0.1109442E+03  0.7546771E-02  0.1260445E+00
          1   -1    0    0  502    0  0.00000000000E+00  0.00000000000E+00  0.60721008812E+03  0.60721008812E+03  0.00000000000E+00 0. -1.
         -2   -1    0    0    0  501 -0.00000000000E+00 -0.00000000000E+00 -0.88936899713E+02  0.88936899713E+02  0.00000000000E+00 0.  1.
        -24    2    1    2    0    0 -0.45994843384E+02  0.25558143305E+02 -0.34862656566E+02  0.10362171104E+03  0.82178524380E+02 0.  0.
         23    2    1    2    0    0  0.71030358548E+02  0.75657563097E+01  0.53594658266E+03  0.54758709165E+03  0.86662165748E+02 0.  0.
         11    1    3    3    0    0 -0.22601253980E+02 -0.62590850337E+01  0.23469569243E+02  0.33178509722E+02  0.00000000000E+00 0. -1.
        -12    1    3    3    0    0 -0.23393589404E+02  0.31817228338E+02 -0.58332225809E+02  0.70443201319E+02  0.00000000000E+00 0.  1.
        -13    1    4    4    0    0  0.87595391599E+02 -0.68842484695E+01  0.46788560511E+03  0.47606437062E+03  0.00000000000E+00 0. -1.
         13    1    4    4    0    0 -0.16565033051E+02  0.14450004779E+02  0.68060977544E+02  0.71522721022E+02  0.00000000000E+00 0.  1.
         21    1    1    2  502  501 -0.25035515164E+02 -0.33123899614E+02  0.17189262315E+02  0.44938185145E+02  0.00000000000E+00 0. -1.
<scales pt_clust_5="13000.00000" pt_clust_6="13000.00000" pt_clust_7="13000.00000" pt_clust_8="13000.00000" pt_clust_9="41.52071"></scales>
<clustering>
<clus scale="   41.521">  2  9  1 -1</clus>
<clus scale="   82.179">  5  6 -1 -1</clus>
<clus scale="   86.662">  7  8 -1 -1</clus>
<clus scale="  107.478">  2  5  1 -1</clus>
<clus scale="  110.944">  1  5  2 -1</clus>
</clustering>
</event>
<event>
 9    1  0.2333971E-005  0.1021514E+03  0.7546771E-02  0.1281938E+00
         -2   -1    0    0    0  501 -0.00000000000E+00  0.00000000000E+00  0.20860917798E+03  0.20860917798E+03  0.00000000000E+00 0.  1.
          1   -1    0    0  502    0  0.00000000000E+00 -0.00000000000E+00 -0.32661467755E+03  0.32661467755E+03  0.00000000000E+00 0. -1.
         23    2    1    2    0    0  0.39693847586E+02  0.20842296471E+02  0.31474833654E+02  0.10791348692E+03  0.92976624201E+02 0.  0.
        -24    2    1    2    0    0 -0.39709616222E+02  0.18351339316E+02 -0.27812720519E+03  0.29282557765E+03  0.80488827677E+02 0.  0.
         13    1    4    4    0    0 -0.35634192888E+02  0.47152990735E+02 -0.22035282230E+03  0.22814154933E+03  0.00000000000E+00 0. -1.
        -14    1    4    4    0    0 -0.40754233342E+01 -0.28801651420E+02 -0.57774382895E+02  0.64684028312E+02  0.00000000000E+00 0.  1.
        -13    1    3    3    0    0  0.32803194981E+02  0.56426832567E+02  0.29466788533E+02  0.71612349919E+02  0.00000000000E+00 0.  1.
         13    1    3    3    0    0  0.68906526058E+01 -0.35584536096E+02  0.20080451204E+01  0.36301137003E+02  0.00000000000E+00 0. -1.
         21    1    1    2  502  501  0.15768635698E-01 -0.39193635787E+02  0.12864687196E+03  0.13448479096E+03  0.00000000000E+00 0.  1.
<scales pt_clust_5="13000.00000" pt_clust_6="13000.00000" pt_clust_7="13000.00000" pt_clust_8="13000.00000" pt_clust_9="39.19364"></scales>
<clustering>
<clus scale="   39.194">  1  9  2 -1</clus>
<clus scale="   80.489">  5  6 -1 -1</clus>
<clus scale="   90.932">  2  5  1 -1</clus>
<clus scale="   92.977">  7  8 -1 -1</clus>
<clus scale="   90.932">  2  5  1 -1</clus>
</clustering>
</event>
<event>
 9    1  0.2333971E-005  0.1117435E+03  0.7546771E-02  0.1261971E+00
          3   -1    0    0  502    0  0.00000000000E+00  0.00000000000E+00  0.37289097013E+03  0.37289097013E+03  0.00000000000E+00 0. -1.
         -4   -1    0    0    0  501 -0.00000000000E+00 -0.00000000000E+00 -0.75972363812E+02  0.75972363812E+02  0.00000000000E+00 0.  1.
         23    2    1    2    0    0 -0.41121759876E+00  0.36774405357E+02  0.10960864886E+03  0.15379614978E+03  0.10142324090E+03 0.  0.
        -24    2    1    2    0    0  0.28600443012E+02 -0.46323642064E+02  0.22406569826E+03  0.24777231306E+03  0.90674234624E+02 0.  0.
         11    1    4    4    0    0  0.57413611685E+02 -0.41850783214E+02  0.19046023443E+03  0.20328037722E+03  0.00000000000E+00 0. -1.
        -12    1    4    4    0    0 -0.28813168673E+02 -0.44728588497E+01  0.33605463833E+02  0.44491935839E+02  0.00000000000E+00 0.  1.
        -11    1    3    3    0    0  0.19165537156E+02 -0.66013956031E+01 -0.11757325657E+02  0.23433543159E+02  0.00000000000E+00 0.  1.
         11    1    3    3    0    0 -0.19576754755E+02  0.43375800960E+02  0.12136597451E+03  0.13036260662E+03  0.00000000000E+00 0. -1.
         21    1    1    2  502  501 -0.28189225413E+02  0.95492367073E+01 -0.36755740800E+02  0.47294871105E+02  0.00000000000E+00 0.  1.
<scales pt_clust_5="13000.00000" pt_clust_6="13000.00000" pt_clust_7="13000.00000" pt_clust_8="13000.00000" pt_clust_9="29.76273"></scales>
<clustering>
<clus scale="   29.763">  2  9  1 -1</clus>
<clus scale="   90.674">  5  6 -1 -1</clus>
<clus scale="  101.423">  7  8 -1 -1</clus>
<clus scale="  102.087">  1  5  2 -1</clus>
<clus scale="  102.087">  1  5  2 -1</clus>
</clustering>
</event>
<event>
 9    1  0.2333971E-005  0.9648382E+02  0.7546771E-02  0.1291186E+00
         -2   -1    0    0    0  501 -0.00000000000E+00  0.00000000000E+00  0.31852079887E+02  0.31852079887E+02  0.00000000000E+00 0.  1.
          1   -1    0    0  502    0  0.00000000000E+00 -0.00000000000E+00 -0.54352805777E+03  0.54352805777E+03  0.00000000000E+00 0. -1.
        -24    2    1    2    0    0  0.32226206368E+02  0.44396889724E+02 -0.98262491909E+02  0.14035885257E+03  0.83877756197E+02 0.  0.
         23    2    1    2    0    0 -0.24636720584E+01 -0.29869888416E+02 -0.35871494369E+03  0.37107777296E+03  0.90133361425E+02 0.  0.
         11    1    3    3    0    0 -0.19828658900E+02 -0.47484606634E+01 -0.50063859096E+02  0.54056577584E+02  0.00000000000E+00 0. -1.
        -12    1    3    3    0    0  0.52054865268E+02  0.49145350388E+02 -0.48198632812E+02  0.86302274986E+02  0.00000000000E+00 0.  1.
        -11    1    4    4    0    0  0.43833568995E+02 -0.13184115804E+02 -0.17316886410E+03  0.17911632582E+03  0.00000000000E+00 0.  1.
         11    1    4    4    0    0 -0.46297241053E+02 -0.16685772612E+02 -0.18554607959E+03  0.19196144714E+03  0.00000000000E+00 0. -1.
         21    1    1    2  502  501 -0.29762534310E+02 -0.14527001308E+02 -0.54698542285E+02  0.63943512131E+02  0.00000000000E+00 0. -1.
<scales pt_clust_5="13000.00000" pt_clust_6="13000.00000" pt_clust_7="13000.00000" pt_clust_8="13000.00000" pt_clust_9="33.11861"></scales>
<clustering>
<clus scale="   33.119">  1  9  2 -1</clus>
<clus scale="   83.878">  5  6 -1 -1</clus>
<clus scale="   90.133">  7  8 -1 -1</clus>
<clus scale="   90.667">  1  5  2 -1</clus>
<clus scale="   96.484">  2  5  1 -1</clus>
</clustering>
</event>
<event>
 9    1  0.2333971E-005  0.1075504E+03  0.7546771E-02  0.1268423E+00
          1   -1    0    0  502    0  0.00000000000E+00  0.00000000000E+00  0.29528625792E+03  0.29528625792E+03  0.00000000000E+00 0. -1.
         -2   -1    0    0    0  501 -0.00000000000E+00 -0.00000000000E+00 -0.14489202397E+03  0.14489202397E+03  0.00000000000E+00 0.  1.
         23    2    1    2    0    0  0.29094367739E+01 -0.67297595017E+02 -0.80037773810E+02  0.13701999304E+03  0.88492949658E+02 0.  0.
        -24    2    1    2    0    0 -0.30045563429E+02  0.53275259089E+02  0.24810244842E+03  0.26787033413E+03  0.80366049334E+02 0.  0.
         11    1    4    4    0    0 -0.29024204067E+02  0.74361208798E+02  0.19243354716E+03  0.20833305995E+03  0.00000000000E+00 0. -1.
        -12    1    4    4    0    0 -0.10213593619E+01 -0.21085949708E+02  0.55668901261E+02  0.59537274187E+02  0.00000000000E+00 0.  1.
        -13    1    3    3    0    0  0.30984614867E+02 -0.20420876156E+00 -0.48930715585E+02  0.57916344734E+02  0.00000000000E+00 0.  1.
         13    1    3    3    0    0 -0.28075178093E+02 -0.67093386255E+02 -0.31107058225E+02  0.79103648307E+02  0.00000000000E+00 0. -1.
         21    1    1    2  502  501  0.27136126655E+02  0.14022335927E+02 -0.17670440659E+02  0.35287954712E+02  0.00000000000E+00 0.  1.
<scales pt_clust_5="13000.00000" pt_clust_6="13000.00000" pt_clust_7="13000.00000" pt_clust_8="13000.00000" pt_clust_9="30.54497"></scales>
<clustering>
<clus scale="   30.545">  2  9  1 -1</clus>
<clus scale="   80.366">  5  6 -1 -1</clus>
<clus scale="   88.493">  7  8 -1 -1</clus>
<clus scale="  100.969">  1  5  2 -1</clus>
<clus scale="  100.969">  1  5  2 -1</clus>
</clustering>
</event>
<event>
 9    1  0.2333971E-005  0.1339653E+03  0.7546771E-02  0.1227518E+00
          1   -1    0    0  502    0  0.00000000000E+00  0.00000000000E+00  0.17102196728E+03  0.17102196728E+03  0.00000000000E+00 0. -1.
         -2   -1    0    0    0  501 -0.00000000000E+00 -0.00000000000E+00 -0.23967860685E+03  0.23967860685E+03  0.00000000000E+00 0.  1.
         23    2    1    2    0    0  0.10444544045E+02 -0.67225340174E+02 -0.10242016557E+03  0.15745269834E+03  0.98352056599E+02 0.  0.
        -24    2    1    2    0    0  0.41892430914E+02  0.88975471428E+02  0.10460144335E+03  0.16252721831E+03  0.76171021120E+02 0.  0.
         13    1    4    4    0    0  0.35435043720E+02  0.94166518405E+01  0.62050504182E+02  0.72073439800E+02  0.00000000000E+00 0. -1.
        -14    1    4    4    0    0  0.64573871943E+01  0.79558819588E+02  0.42550939168E+02  0.90453778515E+02  0.00000000000E+00 0.  1.
        -11    1    3    3    0    0  0.40032047804E+02 -0.84039373896E+01 -0.76386529173E+02  0.86649251896E+02  0.00000000000E+00 0.  1.
         11    1    3    3    0    0 -0.29587503758E+02 -0.58821402784E+02 -0.26033636395E+02  0.70803446442E+02  0.00000000000E+00 0. -1.
         21    1    1    2  502  501 -0.52336974959E+02 -0.21750131255E+02 -0.70837917359E+02  0.90720657478E+02  0.00000000000E+00 0.  1.
<scales pt_clust_5="13000.00000" pt_clust_6="13000.00000" pt_clust_7="13000.00000" pt_clust_8="13000.00000" pt_clust_9="56.67651"></scales>
<clustering>
<clus scale="   56.677">  2  9  1 -1</clus>
<clus scale="   76.171">  5  6 -1 -1</clus>
<clus scale="   98.352">  7  8 -1 -1</clus>
<clus scale="  118.641">  1  5  2 -1</clus>
<clus scale="  118.641">  1  5  2 -1</clus>
</clustering>
</event>
<event>
 9    1  0.2333971E-005  0.9867333E+02  0.7546771E-02  0.1288318E+00
         -2   -1    0    0    0  501 -0.00000000000E+00  0.00000000000E+00  0.90194717690E+02  0.90194717690E+02  0.00000000000E+00 0.  1.
          1   -1    0    0  502    0  0.00000000000E+00 -0.00000000000E+00 -0.24388640219E+03  0.24388640219E+03  0.00000000000E+00 0. -1.
        -24    2    1    2    0    0 -0.50695158643E+01  0.62168217491E+02  0.17587914591E+01  0.10315409268E+03  0.82140649084E+02 0.  0.
         23    2    1    2    0    0 -0.16602816103E+02 -0.25803628402E+02 -0.16122952226E+03  0.18820149984E+03  0.92105184166E+02 0.  0.
         13    1    3    3    0    0 -0.35213446754E+02  0.44049517705E+02 -0.22191182019E+02  0.60603592317E+02  0.00000000000E+00 0. -1.
        -14    1    3    3    0    0  0.30143930890E+02  0.18118699786E+02  0.23949973478E+02  0.42550500362E+02  0.00000000000E+00 0.  1.
        -13    1    4    4    0    0  0.23064879473E+02  0.20386049210E+01 -0.12644311828E+03  0.12854573791E+03  0.00000000000E+00 0. -1.
         13    1    4    4    0    0 -0.39667695576E+02 -0.27842233323E+02 -0.34786403985E+02  0.59655761926E+02  0.00000000000E+00 0.  1.
         21    1    1    2  502  501  0.21672331968E+02 -0.36364589089E+02  0.57790463024E+01  0.42725527366E+02  0.00000000000E+00 0.  1.
<scales pt_clust_5="13000.00000" pt_clust_6="13000.00000" pt_clust_7="13000.00000" pt_clust_8="13000.00000" pt_clust_9="42.33289"></scales>
<clustering>
<clus scale="   42.333">  1  9  2 -1</clus>
<clus scale="   82.141">  5  6 -1 -1</clus>
<clus scale="   89.444">  1  5  2 -1</clus>
<clus scale="   92.105">  7  8 -1 -1</clus>
<clus scale="   98.673">  2  5  1 -1</clus>
</clustering>
</event>
<event>
 9    1  0.2333971E-005  0.1113885E+03  0.7546771E-02  0.1261682E+00
         -2   -1    0    0    0  501 -0.00000000000E+00  0.00000000000E+00  0.32113735344E+03  0.32113735344E+03  0.00000000000E+00 0.  1.
          1   -1    0    0  502    0  0.00000000000E+00 -0.00000000000E+00 -0.88572274760E+02  0.88572274760E+02  0.00000000000E+00 0. -1.
         23    2    1    2    0    0  0.31817546576E+02 -0.45017650926E+02  0.13021231922E+03  0.16625788023E+03  0.87449925652E+02 0.  0.
        -24    2    1    2    0    0 -0.61212180946E+02  0.41064183856E+02 -0.27437582550E+02  0.11031569985E+03  0.77353308943E+02 0.  0.
         13    1    4    4    0    0  0.62826086663E+01  0.22528452651E+02 -0.32611309254E+02  0.40131033400E+02  0.00000000000E+00 0. -1.
        -14    1    4    4    0    0 -0.67494789612E+02  0.18535731205E+02  0.51737267042E+01  0.70184666446E+02  0.00000000000E+00 0.  1.
        -13    1    3    3    0    0  0.10203851936E+02 -0.66989546127E+02  0.63928257485E+02  0.93158681773E+02  0.00000000000E+00 0.  1.
         13    1    3    3    0    0  0.21613694639E+02  0.21971895201E+02  0.66284061739E+02  0.73099198458E+02  0.00000000000E+00 0. -1.
         21    1    1    2  502  501  0.29394634371E+02  0.39534670700E+01  0.12979034200E+03  0.13313604812E+03  0.00000000000E+00 0.  1.
<scales pt_clust_5="13000.00000" pt_clust_6="13000.00000" pt_clust_7="13000.00000" pt_clust_8="13000.00000" pt_clust_9="29.65931"></scales>
<clustering>
<clus scale="   29.659">  1  9  2 -1</clus>
<clus scale="   77.353">  5  6 -1 -1</clus>
<clus scale="   87.450">  7  8 -1 -1</clus>
<clus scale="  103.651">  2  5  1 -1</clus>
<clus scale="  103.651">  2  5  1 -1</clus>
</clustering>
</event>
<event>
 9    1  0.2333971E-005  0.1244739E+03  0.7546771E-02  0.1240285E+00
         -2   -1    0    0    0  501 -0.00000000000E+00  0.00000000000E+00  0.35176890821E+03  0.35176890821E+03  0.00000000000E+00 0.  1.
          1   -1    0    0  502    0  0.00000000000E+00 -0.00000000000E+00 -0.19327838909E+03  0.19327838909E+03  0.00000000000E+00 0. -1.
         23    2    1    2    0    0 -0.74139955701E+02 -0.19275918080E+02  0.23894484814E+03  0.26798057035E+03  0.94077901666E+02 0.  0.
        -24    2    1    2    0    0  0.81412542711E+02 -0.11931508418E+02 -0.15690648076E+03  0.19417085554E+03  0.79450075101E+02 0.  0.
         13    1    4    4    0    0  0.54634619283E+02 -0.11958053381E+02 -0.15775902648E+03  0.16737935088E+03  0.00000000000E+00 0. -1.
        -14    1    4    4    0    0  0.26777923428E+02  0.26544962815E-01  0.85254572186E+00  0.26791504661E+02  0.00000000000E+00 0.  1.
        -13    1    3    3    0    0 -0.42578419106E+02  0.36075748126E+02  0.13472717468E+03  0.14582795676E+03  0.00000000000E+00 0.  1.
         13    1    3    3    0    0 -0.31561536595E+02 -0.55351666206E+02  0.10421767346E+03  0.12215261358E+03  0.00000000000E+00 0. -1.
         21    1    1    2  502  501 -0.72725870097E+01  0.31207426498E+02  0.76452151744E+02  0.82895871409E+02  0.00000000000E+00 0.  1.
<scales pt_clust_5="13000.00000" pt_clust_6="13000.00000" pt_clust_7="13000.00000" pt_clust_8="13000.00000" pt_clust_9="32.04363"></scales>
<clustering>
<clus scale="   32.044">  1  9  2 -1</clus>
<clus scale="   79.450">  5  6 -1 -1</clus>
<clus scale="   94.078">  7  8 -1 -1</clus>
<clus scale="  113.822">  2  5  1 -1</clus>
<clus scale="  113.822">  2  5  1 -1</clus>
</clustering>
</event>
<event>
 9    1  0.2333971E-005  0.1132081E+03  0.7546771E-02  0.1259110E+00
         -2   -1    0    0    0  501 -0.00000000000E+00  0.00000000000E+00  0.22081395494E+03  0.22081395494E+03  0.00000000000E+00 0.  1.
          1   -1    0    0  502    0  0.00000000000E+00 -0.00000000000E+00 -0.11530265467E+03  0.11530265467E+03  0.00000000000E+00 0. -1.
        -24    2    1    2    0    0  0.50915921762E+02  0.19896338612E+02  0.96110790057E+02  0.13761827144E+03  0.81934176560E+02 0.  0.
         23    2    1    2    0    0 -0.67371730261E+02 -0.20830655491E+01 -0.56429518150E+02  0.12834351678E+03  0.93511916785E+02 0.  0.
         13    1    3    3    0    0  0.58771898746E+02  0.18407670424E+02  0.10738755836E+03  0.12379445102E+03  0.00000000000E+00 0. -1.
        -14    1    3    3    0    0 -0.78559769834E+01  0.14886681879E+01 -0.11276768308E+02  0.13823820413E+02  0.00000000000E+00 0.  1.
        -13    1    4    4    0    0 -0.23766107467E+02 -0.96789781106E+01  0.24895660402E+02  0.35753382893E+02  0.00000000000E+00 0.  1.
         13    1    4    4    0    0 -0.43605622793E+02  0.75959125615E+01 -0.81325178553E+02  0.92590133888E+02  0.00000000000E+00 0. -1.
         21    1    1    2  502  501  0.16455808498E+02 -0.17813273063E+02  0.65830028362E+02  0.70154821393E+02  0.00000000000E+00 0. -1.
<scales pt_clust_5="13000.00000" pt_clust_6="13000.00000" pt_clust_7="13000.00000" pt_clust_8="13000.00000" pt_clust_9="24.25090"></scales>
<clustering>
<clus scale="   24.251">  1  9  2 -1</clus>
<clus scale="   81.934">  5  6 -1 -1</clus>
<clus scale="   93.512">  7  8 -1 -1</clus>
<clus scale="  103.850">  1  5  2 -1</clus>
<clus scale="  113.208">  2  5  1 -1</clus>
</clustering>
</event>
<event>
 9    1  0.2333971E-005  0.1194680E+03  0.7546771E-02  0.1252141E+00
          3   -1    0    0  502    0  0.00000000000E+00  0.00000000000E+00  0.31175676872E+03  0.31175676872E+03  0.00000000000E+00 0. -1.
         -4   -1    0    0    0  501 -0.00000000000E+00 -0.00000000000E+00 -0.12670046437E+03  0.12670046437E+03  0.00000000000E+00 0.  1.
        -24    2    1    2    0    0  0.10845125307E+03 -0.80303228100E+01 -0.51412200007E+02  0.13732654195E+03  0.66251071224E+02 0.  0.
         23    2    1    2    0    0 -0.70790913185E+02 -0.16193218103E+02  0.22710043852E+03  0.25538310332E+03  0.91500527762E+02 0.  0.
         11    1    3    3    0    0  0.46825015895E+02  0.46843141631E+01  0.11397412992E+02  0.48419272358E+02  0.00000000000E+00 0. -1.
        -12    1    3    3    0    0  0.61626237171E+02 -0.12714636973E+02 -0.62809612999E+02  0.88907269592E+02  0.00000000000E+00 0.  1.
        -11    1    4    4    0    0 -0.51949975288E+02  0.22648624730E+02  0.19061079354E+03  0.19885732260E+03  0.00000000000E+00 0. -1.
         11    1    4    4    0    0 -0.18840937897E+02 -0.38841842833E+02  0.36489644978E+02  0.56525780721E+02  0.00000000000E+00 0.  1.
         21    1    1    2  502  501 -0.37660339881E+02  0.24223540913E+02  0.93680658408E+01  0.45747587826E+02  0.00000000000E+00 0. -1.
<scales pt_clust_5="13000.00000" pt_clust_6="13000.00000" pt_clust_7="13000.00000" pt_clust_8="13000.00000" pt_clust_9="44.77813"></scales>
<clustering>
<clus scale="   44.778">  2  9  1 -1</clus>
<clus scale="   66.251">  5  6 -1 -1</clus>
<clus scale="   91.501">  7  8 -1 -1</clus>
<clus scale="  101.437">  2  5  1 -1</clus>
<clus scale="  119.468">  1  5  2 -1</clus>
</clustering>
</event>
<event>
 9    1  0.2333971E-005  0.1265078E+03  0.7546771E-02  0.1235516E+00
         -2   -1    0    0    0  501 -0.00000000000E+00  0.00000000000E+00  0.21089733177E+03  0.21089733177E+03  0.00000000000E+00 0.  1.
          1   -1    0    0  502    0  0.00000000000E+00 -0.00000000000E+00 -0.14486783862E+03  0.14486783862E+03  0.00000000000E+00 0. -1.
         23    2    1    2    0    0  0.35545141783E+01  0.13064203299E+03  0.80430661065E+02  0.17830545624E+03  0.90795204353E+02 0.  0.
        -24    2    1    2    0    0 -0.82298295769E+01 -0.74763197494E+02 -0.37898941844E+02  0.11666129139E+03  0.80723362919E+02 0.  0.
         13    1    4    4    0    0  0.23040826297E+02 -0.24066905962E+02 -0.45733848797E+02  0.56583394780E+02  0.00000000000E+00 0. -1.
        -14    1    4    4    0    0 -0.31270655874E+02 -0.50696291531E+02  0.78349069526E+01  0.60077896608E+02  0.00000000000E+00 0.  1.
        -13    1    3    3    0    0  0.45644826453E+02  0.54555889030E+02  0.46417022901E+02  0.84937242861E+02  0.00000000000E+00 0.  1.
         13    1    3    3    0    0 -0.42090312274E+02  0.76086143955E+02  0.34013638164E+02  0.93368213383E+02  0.00000000000E+00 0. -1.
         21    1    1    2  502  501  0.46753153986E+01 -0.55878835492E+02  0.23497773931E+02  0.60798422757E+02  0.00000000000E+00 0. -1.
<scales pt_clust_5="13000.00000" pt_clust_6="13000.00000" pt_clust_7="13000.00000" pt_clust_8="13000.00000" pt_clust_9="56.07408"></scales>
<clustering>
<clus scale="   56.074">  1  9  2 -1</clus>
<clus scale="   80.723">  5  6 -1 -1</clus>
<clus scale="   90.795">  7  8 -1 -1</clus>
<clus scale="  119.485">  2  5  1 -1</clus>
<clus scale="  119.485">  2  5  1 -1</clus>
</clustering>
</event>
<event>
 9    1  0.2333971E-005  0.1063873E+03  0.7546771E-02  0.1267927E+00
         -2   -1    0    0    0  501 -0.00000000000E+00  0.00000000000E+00  0.78547856581E+02  0.78547856581E+02  0.00000000000E+00 0.  1.
          1   -1    0    0  502    0  0.00000000000E+00 -0.00000000000E+00 -0.57952955638E+03  0.57952955638E+03  0.00000000000E+00 0. -1.
         23    2    1    2    0    0  0.83436496776E+02  0.33885833178E+02 -0.10081697678E+02  0.12399906512E+03  0.84641767691E+02 0.  0.
        -24    2    1    2    0    0 -0.50964117067E+02 -0.31918741294E+02 -0.49044943501E+03  0.50154332202E+03  0.85958759210E+02 0.  0.
         13    1    4    4    0    0 -0.57915529497E+02 -0.55562758906E+02 -0.37645717040E+03  0.38491743254E+03  0.00000000000E+00 0. -1.
        -14    1    4    4    0    0  0.69514124301E+01  0.23644017612E+02 -0.11399226461E+03  0.11662588947E+03  0.00000000000E+00 0.  1.
        -13    1    3    3    0    0  0.14384640722E+02 -0.25355388629E+02 -0.15194423483E+02  0.32873760451E+02  0.00000000000E+00 0. -1.
         13    1    3    3    0    0  0.69051856054E+02  0.59241221807E+02  0.51127258047E+01  0.91125304668E+02  0.00000000000E+00 0.  1.
         21    1    1    2  502  501 -0.32472379709E+02 -0.19670918843E+01 -0.45056710851E+00  0.32535025821E+02  0.00000000000E+00 0. -1.
<scales pt_clust_5="13000.00000" pt_clust_6="13000.00000" pt_clust_7="13000.00000" pt_clust_8="13000.00000" pt_clust_9="32.53191"></scales>
<clustering>
<clus scale="   32.532">  1  9  2 -1</clus>
<clus scale="   84.642">  7  8 -1 -1</clus>
<clus scale="   85.959">  5  6 -1 -1</clus>
<clus scale="  105.326">  1  7  2 -1</clus>
<clus scale="  106.387">  2  5  1 -1</clus>
</clustering>
</event>
<event>
 9    1  0.2333971E-005  0.9782048E+02  0.7546771E-02  0.1290466E+00
         -2   -1    0    0    0  501 -0.00000000000E+00  0.00000000000E+00  0.40300038054E+03  0.40300038054E+03  0.00000000000E+00 0.  1.
          1   -1    0    0  502    0  0.00000000000E+00 -0.00000000000E+00 -0.19034287349E+03  0.19034287349E+03  0.00000000000E+00 0. -1.
         23    2    1    2    0    0 -0.96691698597E+02  0.53719857068E+02  0.15729800118E+03  0.21246971350E+03  0.90363766836E+02 0.  0.
        -24    2    1    2    0    0  0.22905877220E+02 -0.23696883151E+02 -0.14303329713E+03  0.16708525582E+03  0.79829425285E+02 0.  0.
         13    1    4    4    0    0 -0.22804373688E+02 -0.32450635122E+02 -0.60728961302E+02  0.72533371078E+02  0.00000000000E+00 0. -1.
        -14    1    4    4    0    0  0.45710250908E+02  0.87537519710E+01 -0.82304335832E+02  0.94551884743E+02  0.00000000000E+00 0.  1.
        -13    1    3    3    0    0 -0.28045162040E+02  0.36576957152E+02  0.73592336167E+01  0.46675081444E+02  0.00000000000E+00 0. -1.
         13    1    3    3    0    0 -0.68646536557E+02  0.17142899916E+02  0.14993876756E+03  0.16579463205E+03  0.00000000000E+00 0.  1.
         21    1    1    2  502  501  0.73785821376E+02 -0.30022973916E+02  0.19839280301E+03  0.21378828472E+03  0.00000000000E+00 0.  1.
<scales pt_clust_5="13000.00000" pt_clust_6="13000.00000" pt_clust_7="13000.00000" pt_clust_8="13000.00000" pt_clust_9="79.66007"></scales>
<clustering>
<clus scale="   79.660">  1  9  2 -1</clus>
<clus scale="   79.829">  5  6 -1 -1</clus>
<clus scale="   88.181">  2  5  1 -1</clus>
<clus scale="   90.364">  7  8 -1 -1</clus>
<clus scale="   88.181">  2  5  1 -1</clus>
</clustering>
</event>
<event>
 9    1  0.2333971E-005  0.1132931E+03  0.7546771E-02  0.1258462E+00
          3   -1    0    0  502    0  0.00000000000E+00  0.00000000000E+00  0.83972182805E+02  0.83972182805E+02  0.00000000000E+00 0. -1.
         -4   -1    0    0    0  501 -0.00000000000E+00 -0.00000000000E+00 -0.24240047714E+03  0.24240047714E+03  0.00000000000E+00 0.  1.
        -24    2    1    2    0    0  0.17894374052E+02  0.80098270691E+02 -0.95879096075E+02  0.14980688856E+03  0.80705397628E+02 0.  0.
         23    2    1    2    0    0 -0.15854457740E+02 -0.58365111173E+02  0.84937977482E+00  0.10951451354E+03  0.91295439086E+02 0.  0.
         11    1    3    3    0    0  0.24199263735E+02  0.54078303463E+02 -0.10295966664E+02  0.60133802477E+02  0.00000000000E+00 0. -1.
        -12    1    3    3    0    0 -0.63048896826E+01  0.26019967228E+02 -0.85583129411E+02  0.89673086086E+02  0.00000000000E+00 0.  1.
        -11    1    4    4    0    0 -0.48211904382E+02 -0.27597799201E+02 -0.21519639798E+02  0.59574500769E+02  0.00000000000E+00 0.  1.
         11    1    4    4    0    0  0.32357446642E+02 -0.30767311973E+02  0.22369019572E+02  0.49940012774E+02  0.00000000000E+00 0. -1.
         21    1    1    2  502  501 -0.20399163124E+01 -0.21733159518E+02 -0.63398578038E+02  0.67051257843E+02  0.00000000000E+00 0.  1.
<scales pt_clust_5="13000.00000" pt_clust_6="13000.00000" pt_clust_7="13000.00000" pt_clust_8="13000.00000" pt_clust_9="21.82868"></scales>
<clustering>
<clus scale="   21.829">  2  9  1 -1</clus>
<clus scale="   80.705">  5  6 -1 -1</clus>
<clus scale="   91.295">  7  8 -1 -1</clus>
<clus scale="  104.947">  2  5  1 -1</clus>
<clus scale="  113.293">  1  5  2 -1</clus>
</clustering>
</event>
<event>
 9    1  0.2333971E-005  0.1805807E+03  0.7546771E-02  0.1169125E+00
          1   -1    0    0  502    0  0.00000000000E+00  0.00000000000E+00  0.91647079951E+03  0.91647079951E+03  0.00000000000E+00 0. -1.
         -2   -1    0    0    0  501 -0.00000000000E+00 -0.00000000000E+00 -0.52644226998E+02  0.52644226998E+02  0.00000000000E+00 0.  1.
         23    2    1    2    0    0 -0.13055867323E+03  0.11470993422E+03  0.29566567440E+03  0.35501351990E+03  0.91719529712E+02 0.  0.
        -24    2    1    2    0    0  0.13531457499E+03 -0.63231282235E+02  0.50752262459E+03  0.53441668730E+03  0.75589363930E+02 0.  0.
         13    1    4    4    0    0  0.10936155987E+03 -0.17592280646E+02  0.39519586241E+03  0.41042564343E+03  0.00000000000E+00 0. -1.
        -14    1    4    4    0    0  0.25953015116E+02 -0.45639001589E+02  0.11232676218E+03  0.12399104388E+03  0.00000000000E+00 0.  1.
        -11    1    3    3    0    0 -0.96118990339E+02  0.26843729283E+02  0.12456821789E+03  0.15961418174E+03  0.00000000000E+00 0. -1.
         11    1    3    3    0    0 -0.34439682886E+02  0.87866204939E+02  0.17109745652E+03  0.19539933816E+03  0.00000000000E+00 0.  1.
         21    1    1    2  502  501 -0.47559017618E+01 -0.51478651987E+02  0.60638273521E+02  0.79684819304E+02  0.00000000000E+00 0. -1.
<scales pt_clust_5="13000.00000" pt_clust_6="13000.00000" pt_clust_7="13000.00000" pt_clust_8="13000.00000" pt_clust_9="51.69787"></scales>
<clustering>
<clus scale="   51.698">  2  9  1 -1</clus>
<clus scale="   75.589">  5  6 -1 -1</clus>
<clus scale="   91.720">  7  8 -1 -1</clus>
<clus scale="  172.947">  1  5  2 -1</clus>
<clus scale="  172.947">  1  5  2 -1</clus>
</clustering>
</event>
<event>
 9    1  0.2333971E-005  0.9717572E+02  0.7546771E-02  0.1286985E+00
          1   -1    0    0  502    0  0.00000000000E+00  0.00000000000E+00  0.17434841843E+03  0.17434841843E+03  0.00000000000E+00 0. -1.
         -2   -1    0    0    0  501 -0.00000000000E+00 -0.00000000000E+00 -0.10112486944E+03  0.10112486944E+03  0.00000000000E+00 0.  1.
         23    2    1    2    0    0 -0.26449676234E+02  0.28017054309E+02 -0.17906411319E+02  0.10010683943E+03  0.90643251423E+02 0.  0.
        -24    2    1    2    0    0  0.70003517835E+01 -0.34611097130E+02  0.11096863132E+03  0.14681245591E+03  0.89403171666E+02 0.  0.
         11    1    4    4    0    0 -0.34192817109E+02 -0.34114949265E+02  0.32591754393E+02  0.58268352985E+02  0.00000000000E+00 0. -1.
        -12    1    4    4    0    0  0.41193168892E+02 -0.49614786451E+00  0.78376876926E+02  0.88544102924E+02  0.00000000000E+00 0.  1.
        -11    1    3    3    0    0  0.22246854446E+02 -0.16443687037E+02 -0.19994607007E+02  0.34133585887E+02  0.00000000000E+00 0. -1.
         11    1    3    3    0    0 -0.48696530680E+02  0.44460741346E+02  0.20881956884E+01  0.65973253539E+02  0.00000000000E+00 0.  1.
         21    1    1    2  502  501  0.19449324451E+02  0.65940428210E+01 -0.19838671004E+02  0.28553992532E+02  0.00000000000E+00 0.  1.
<scales pt_clust_5="13000.00000" pt_clust_6="13000.00000" pt_clust_7="13000.00000" pt_clust_8="13000.00000" pt_clust_9="20.53674"></scales>
<clustering>
<clus scale="   20.537">  2  9  1 -1</clus>
<clus scale="   89.403">  5  6 -1 -1</clus>
<clus scale="   90.643">  7  8 -1 -1</clus>
<clus scale="   96.020">  1  5  2 -1</clus>
<clus scale="   96.020">  1  5  2 -1</clus>
</clustering>
</event>
<event>
 9    1  0.2333971E-005  0.1222987E+03  0.7546771E-02  0.1241641E+00
         -2   -1    0    0    0  501 -0.00000000000E+00  0.00000000000E+00  0.30522332357E+03  0.30522332357E+03  0.00000000000E+00 0.  1.
          1   -1    0    0  502    0  0.00000000000E+00 -0.00000000000E+00 -0.18245472809E+03  0.18245472809E+03  0.00000000000E+00 0. -1.
         23    2    1    2    0    0  0.38843291655E+02 -0.46706376934E+02  0.14970848562E+03  0.18534142723E+03  0.90821401832E+02 0.  0.
        -24    2    1    2    0    0 -0.19372876531E+02  0.83254082179E+02 -0.13882605493E+03  0.18303303815E+03  0.83197770302E+02 0.  0.
         11    1    4    4    0    0 -0.39243062382E+02  0.72494792672E+02 -0.13760020859E+03  0.16040364807E+03  0.00000000000E+00 0. -1.
        -12    1    4    4    0    0  0.19870185851E+02  0.10759289506E+02 -0.12258463434E+01  0.22629390086E+02  0.00000000000E+00 0.  1.
        -11    1    3    3    0    0 -0.21220808039E+02  0.22596048716E+01  0.61616769165E+01  0.22212491315E+02  0.00000000000E+00 0. -1.
         11    1    3    3    0    0  0.60064099694E+02 -0.48965981805E+02  0.14354680870E+03  0.16312893592E+03  0.00000000000E+00 0.  1.
         21    1    1    2  502  501 -0.19470415124E+02 -0.36547705245E+02  0.11188616479E+03  0.11930358627E+03  0.00000000000E+00 0.  1.
<scales pt_clust_5="13000.00000" pt_clust_6="13000.00000" pt_clust_7="13000.00000" pt_clust_8="13000.00000" pt_clust_9="41.41053"></scales>
<clustering>
<clus scale="   41.411">  1  9  2 -1</clus>
<clus scale="   83.198">  5  6 -1 -1</clus>
<clus scale="   90.821">  7  8 -1 -1</clus>
<clus scale="  116.749">  2  5  1 -1</clus>
<clus scale="  116.749">  2  5  1 -1</clus>
</clustering>
</event>
<event>
 9    1  0.2333971E-005  0.1088809E+03  0.7546771E-02  0.1265343E+00
          1   -1    0    0  502    0  0.00000000000E+00  0.00000000000E+00  0.91103175917E+03  0.91103175917E+03  0.00000000000E+00 0. -1.
         -2   -1    0    0    0  501 -0.00000000000E+00 -0.00000000000E+00 -0.26116077847E+02  0.26116077847E+02  0.00000000000E+00 0.  1.
        -24    2    1    2    0    0  0.24407856445E+02 -0.14317203212E+02  0.15377800432E+03  0.17650404176E+03  0.81885752015E+02 0.  0.
         23    2    1    2    0    0 -0.51122643252E+02  0.61570260466E+02  0.66218199354E+03  0.67288607459E+03  0.88804589866E+02 0.  0.
         13    1    3    3    0    0 -0.18533291841E+02  0.11028429147E+02  0.10338771002E+03  0.10561310402E+03  0.00000000000E+00 0. -1.
        -14    1    3    3    0    0  0.42941148286E+02 -0.25345632359E+02  0.50390294292E+02  0.70890937746E+02  0.00000000000E+00 0.  1.
        -11    1    4    4    0    0 -0.41026736853E+02 -0.13916874461E+02  0.22982121151E+03  0.23386889872E+03  0.00000000000E+00 0.  1.
         11    1    4    4    0    0 -0.10095906400E+02  0.75487134927E+02  0.43236078203E+03  0.43901717586E+03  0.00000000000E+00 0. -1.
         21    1    1    2  502  501  0.26714786808E+02 -0.47253057254E+02  0.68955683469E+02  0.87757720667E+02  0.00000000000E+00 0. -1.
<scales pt_clust_5="13000.00000" pt_clust_6="13000.00000" pt_clust_7="13000.00000" pt_clust_8="13000.00000" pt_clust_9="54.28196"></scales>
<clustering>
<clus scale="   54.282">  2  9  1 -1</clus>
<clus scale="   81.886">  5  6 -1 -1</clus>
<clus scale="   88.805">  7  8 -1 -1</clus>
<clus scale="  103.315">  2  5  1 -1</clus>
<clus scale="  108.881">  1  5  2 -1</clus>
</clustering>
</event>
<event>
 9    1  0.2333971E-005  0.1002856E+03  0.7546771E-02  0.1287185E+00
         -2   -1    0    0    0  501 -0.00000000000E+00  0.00000000000E+00  0.12240562556E+03  0.12240562556E+03  0.00000000000E+00 0.  1.
          1   -1    0    0  502    0  0.00000000000E+00 -0.00000000000E+00 -0.32854146462E+03  0.32854146462E+03  0.00000000000E+00 0. -1.
         23    2    1    2    0    0  0.36429934738E+02 -0.65364190281E+02  0.41301342522E+02  0.12759631735E+03  0.94738597156E+02 0.  0.
        -24    2    1    2    0    0 -0.32561435212E+02 -0.63534912557E+01 -0.23476950126E+03  0.25042024933E+03  0.80578959030E+02 0.  0.
         11    1    4    4    0    0 -0.18130884268E+02 -0.43229783988E+02 -0.11174194686E+03  0.12117675468E+03  0.00000000000E+00 0. -1.
        -12    1    4    4    0    0 -0.14430550944E+02  0.36876292733E+02 -0.12302755441E+03  0.12924349465E+03  0.00000000000E+00 0.  1.
        -11    1    3    3    0    0  0.62847937030E+01 -0.74083861536E+02  0.55866577703E+02  0.92999955249E+02  0.00000000000E+00 0.  1.
         11    1    3    3    0    0  0.30145141035E+02  0.87196712546E+01 -0.14565235181E+02  0.34596362102E+02  0.00000000000E+00 0. -1.
         21    1    1    2  502  501 -0.38684995268E+01  0.71717681537E+02 -0.12667680319E+02  0.72930523502E+02  0.00000000000E+00 0. -1.
<scales pt_clust_5="13000.00000" pt_clust_6="13000.00000" pt_clust_7="13000.00000" pt_clust_8="13000.00000" pt_clust_9="71.82194"></scales>
<clustering>
<clus scale="   71.822">  1  9  2 -1</clus>
<clus scale="   80.579">  5  6 -1 -1</clus>
<clus scale="   87.033">  2  5  1 -1</clus>
<clus scale="   94.739">  7  8 -1 -1</clus>
<clus scale="   87.033">  2  5  1 -1</clus>
</clustering>
</event>
<event>
 9    1  0.2333971E-005  0.1006836E+03  0.7546771E-02  0.1286168E+00
          1   -1    0    0  502    0  0.00000000000E+00  0.00000000000E+00  0.20340829518E+03  0.20340829518E+03  0.00000000000E+00 0. -1.
         -2   -1    0    0    0  501 -0.00000000000E+00 -0.00000000000E+00 -0.14764792242E+03  0.14764792242E+03  0.00000000000E+00 0.  1.
        -24    2    1    2    0    0 -0.23701644161E+02 -0.94484571444E+01 -0.65870638975E+02  0.10576235604E+03  0.78712728308E+02 0.  0.
         23    2    1    2    0    0 -0.22281609197E+02 -0.45491015594E+02  0.13585822398E+03  0.17225127931E+03  0.92990018779E+02 0.  0.
         11    1    3    3    0    0 -0.32449788140E+02 -0.39584519591E+02 -0.44183191142E+02  0.67617137776E+02  0.00000000000E+00 0. -1.
        -12    1    3    3    0    0  0.87481439791E+01  0.30136062446E+02 -0.21687447833E+02  0.38145218263E+02  0.00000000000E+00 0.  1.
        -11    1    4    4    0    0 -0.45531219721E+02 -0.57746054317E+02  0.12223066929E+03  0.14264653965E+03  0.00000000000E+00 0. -1.
         11    1    4    4    0    0  0.23249610524E+02  0.12255038723E+02  0.13627554691E+02  0.29604739662E+02  0.00000000000E+00 0.  1.
         21    1    1    2  502  501  0.45983253358E+02  0.54939472739E+02 -0.14227212244E+02  0.73042582255E+02  0.00000000000E+00 0.  1.
<scales pt_clust_5="13000.00000" pt_clust_6="13000.00000" pt_clust_7="13000.00000" pt_clust_8="13000.00000" pt_clust_9="71.64360"></scales>
<clustering>
<clus scale="   71.644">  2  9  1 -1</clus>
<clus scale="   78.713">  5  6 -1 -1</clus>
<clus scale="   87.668">  2  5  1 -1</clus>
<clus scale="   92.990">  7  8 -1 -1</clus>
<clus scale="  100.684">  1  5  2 -1</clus>
</clustering>
</event>
<event>
 9    1  0.2333971E-005  0.1561611E+03  0.7546771E-02  0.1194541E+00
         -2   -1    0    0    0  501 -0.00000000000E+00  0.00000000000E+00  0.84844316261E+03  0.84844316261E+03  0.00000000000E+00 0.  1.
          1   -1    0    0  502    0  0.00000000000E+00 -0.00000000000E+00 -0.11151301073E+03  0.11151301073E+03  0.00000000000E+00 0. -1.
        -24    2    1    2    0    0 -0.81975676987E+02  0.63519435252E+02  0.68361400612E+03  0.69605911470E+03  0.80096513807E+02 0.  0.
         23    2    1    2    0    0  0.99695471825E+02 -0.84241022917E+02 -0.43084553528E+02  0.16371487386E+03  0.88941239731E+02 0.  0.
         13    1    3    3    0    0 -0.47139481485E+02  0.11351833775E+02  0.12733150384E+03  0.13625089620E+03  0.00000000000E+00 0. -1.
        -14    1    3    3    0    0 -0.34836195502E+02  0.52167601477E+02  0.55628250228E+03  0.55980821850E+03  0.00000000000E+00 0.  1.
        -11    1    4    4    0    0  0.37474744113E+02 -0.25368660602E+02  0.27297908436E+02  0.52849798411E+02  0.00000000000E+00 0.  1.
         11    1    4    4    0    0  0.62220727712E+02 -0.58872362316E+02 -0.70382461964E+02  0.11086507545E+03  0.00000000000E+00 0. -1.
         21    1    1    2  502  501 -0.17719794838E+02  0.20721587665E+02  0.96400699295E+02  0.10018218479E+03  0.00000000000E+00 0. -1.
<scales pt_clust_5="13000.00000" pt_clust_6="13000.00000" pt_clust_7="13000.00000" pt_clust_8="13000.00000" pt_clust_9="27.26491"></scales>
<clustering>
<clus scale="   27.265">  1  9  2 -1</clus>
<clus scale="   80.097">  5  6 -1 -1</clus>
<clus scale="   88.941">  7  8 -1 -1</clus>
<clus scale="  151.298">  1  5  2 -1</clus>
<clus scale="  156.161">  2  5  1 -1</clus>
</clustering>
</event>
<event>
 9    1  0.2333971E-005  0.2672610E+03  0.7546771E-02  0.1148921E+00
          1   -1    0    0  502    0  0.00000000000E+00  0.00000000000E+00  0.96105118423E+03  0.96105118423E+03  0.00000000000E+00 0. -1.
         -2   -1    0    0    0  501 -0.00000000000E+00 -0.00000000000E+00 -0.13711829098E+03  0.13711829098E+03  0.00000000000E+00 0.  1.
         23    2    1    2    0    0  0.23485473624E+02 -0.26253483413E+03  0.56566481124E+03  0.62788813022E+03  0.69215018540E+02 0.  0.
        -24    2    1    2    0    0 -0.13305292803E+01  0.69034544795E+01  0.18445023910E+03  0.20328449529E+03  0.85166116075E+02 0.  0.
         11    1    4    4    0    0  0.36497814351E+02  0.22079382614E+02  0.72152289912E+02  0.83818509463E+02  0.00000000000E+00 0. -1.
        -12    1    4    4    0    0 -0.37828343631E+02 -0.15175928135E+02  0.11229794919E+03  0.11946598583E+03  0.00000000000E+00 0.  1.
        -11    1    3    3    0    0  0.47428329095E+02 -0.18888669605E+03  0.39055730634E+03  0.43642025604E+03  0.00000000000E+00 0. -1.
         11    1    3    3    0    0 -0.23942855471E+02 -0.73648138083E+02  0.17510750490E+03  0.19146787418E+03  0.00000000000E+00 0.  1.
         21    1    1    2  502  501 -0.22154944343E+02  0.25563137965E+03  0.73817842907E+02  0.26699684970E+03  0.00000000000E+00 0.  1.
<scales pt_clust_5="13000.00000" pt_clust_6="13000.00000" pt_clust_7="13000.00000" pt_clust_8="13000.00000" pt_clust_9="258.14288"></scales>
<clustering>
<clus scale="   69.215">  7  8 -1 -1</clus>
<clus scale="   85.166">  5  6 -1 -1</clus>
<clus scale="   85.456">  1  5  2 -1</clus>
<clus scale="  258.143">  2  9  1 -1</clus>
<clus scale="   85.456">  1  5  2 -1</clus>
</clustering>
</event>
<event>
 9    1  0.2333971E-005  0.2252478E+03  0.7546771E-02  0.1173314E+00
         -2   -1    0    0    0  501 -0.00000000000E+00  0.00000000000E+00  0.34835031638E+03  0.34835031638E+03  0.00000000000E+00 0.  1.
          1   -1    0    0  502    0  0.00000000000E+00 -0.00000000000E+00 -0.32361357807E+03  0.32361357807E+03  0.00000000000E+00 0. -1.
         23    2    1    2    0    0  0.97891350446E+02 -0.17949911200E+03 -0.90334902328E+02  0.23848896299E+03  0.83150124417E+02 0.  0.
        -24    2    1    2    0    0 -0.81158743995E+01 -0.11094318229E+02 -0.10248870316E+03  0.13062514205E+03  0.79812543783E+02 0.  0.
         13    1    4    4    0    0  0.63382491999E+01 -0.43756171338E+02 -0.67012108455E+02  0.80283239924E+02  0.00000000000E+00 0. -1.
        -14    1    4    4    0    0 -0.14454123599E+02  0.32661853109E+02 -0.35476594708E+02  0.50341902125E+02  0.00000000000E+00 0.  1.
        -11    1    3    3    0    0  0.23595305252E+02 -0.55822217914E+01  0.77370819666E+01  0.25451170256E+02  0.00000000000E+00 0.  1.
         11    1    3    3    0    0  0.74296045194E+02 -0.17391689021E+03 -0.98071984295E+02  0.21303779274E+03  0.00000000000E+00 0. -1.
         21    1    1    2  502  501 -0.89775476046E+02  0.19059343023E+03  0.21756034380E+03  0.30284978940E+03  0.00000000000E+00 0.  1.
<scales pt_clust_5="13000.00000" pt_clust_6="13000.00000" pt_clust_7="13000.00000" pt_clust_8="13000.00000" pt_clust_9="209.33857"></scales>
<clustering>
<clus scale="   79.813">  5  6 -1 -1</clus>
<clus scale="   80.988">  2  5  1 -1</clus>
<clus scale="   83.150">  7  8 -1 -1</clus>
<clus scale="  209.339">  1  9  2 -1</clus>
<clus scale="   80.988">  2  5  1 -1</clus>
</clustering>
</event>
<event>
 9    1  0.2333971E-005  0.2437475E+03  0.7546771E-02  0.1118421E+00
          3   -1    0    0  502    0  0.00000000000E+00  0.00000000000E+00  0.52602802593E+03  0.52602802593E+03  0.00000000000E+00 0. -1.
         -4   -1    0    0    0  501 -0.00000000000E+00 -0.00000000000E+00 -0.16656522019E+03  0.16656522019E+03  0.00000000000E+00 0.  1.
        -24    2    1    2    0    0 -0.23184353972E+03  0.38173729168E+02  0.17069341713E+03  0.30157963399E+03  0.81273442640E+02 0.  0.
         23    2    1    2    0    0  0.20990365907E+03 -0.40474741005E+02  0.23934879109E+03  0.33583273707E+03  0.98985012703E+02 0.  0.
         11    1    3    3    0    0 -0.15868865277E+03 -0.44080669635E+01  0.80885197481E+02  0.17816827648E+03  0.00000000000E+00 0. -1.
        -12    1    3    3    0    0 -0.73154886950E+02  0.42581796131E+02  0.89808219649E+02  0.12341135751E+03  0.00000000000E+00 0.  1.
        -11    1    4    4    0    0  0.20079262242E+03 -0.61673876997E+02  0.19897741680E+03  0.28933260570E+03  0.00000000000E+00 0.  1.
         11    1    4    4    0    0  0.91110366497E+01  0.21199135992E+02  0.40371374284E+02  0.46500131368E+02  0.00000000000E+00 0. -1.
         21    1    1    2  502  501  0.21939880646E+02  0.23010118369E+01 -0.50579402477E+02  0.55180875067E+02  0.00000000000E+00 0.  1.
<scales pt_clust_5="13000.00000" pt_clust_6="13000.00000" pt_clust_7="13000.00000" pt_clust_8="13000.00000" pt_clust_9="22.06021"></scales>
<clustering>
<clus scale="   22.060">  2  9  1 -1</clus>
<clus scale="   81.273">  5  6 -1 -1</clus>
<clus scale="   98.985">  7  8 -1 -1</clus>
<clus scale="  237.108">  2  5  1 -1</clus>
<clus scale="  243.747">  1  5  2 -1</clus>
</clustering>
</event>
<event>
 9    1  0.2333971E-005  0.3148437E+03  0.7546771E-02  0.1078047E+00
          1   -1    0    0  502    0  0.00000000000E+00  0.00000000000E+00  0.79115210082E+03  0.79115210082E+03  0.00000000000E+00 0. -1.
         -2   -1    0    0    0  501 -0.00000000000E+00 -0.00000000000E+00 -0.10934600943E+03  0.10934600943E+03  0.00000000000E+00 0.  1.
        -24    2    1    2    0    0  0.40640585995E+02  0.63749255684E+02  0.13822146006E+03  0.17678418733E+03  0.80198828159E+02 0.  0.
         23    2    1    2    0    0  0.16086952684E+03  0.78146731884E+02  0.37430298465E+03  0.42472049028E+03  0.91098047042E+02 0.  0.
         11    1    3    3    0    0  0.41209729399E+02  0.81777318201E+02  0.12185646939E+03  0.15242955980E+03  0.00000000000E+00 0. -1.
        -12    1    3    3    0    0 -0.56914340467E+00 -0.18028062516E+02  0.16364990664E+02  0.24354627522E+02  0.00000000000E+00 0.  1.
        -13    1    4    4    0    0  0.52716438278E+02  0.16303953131E+02  0.21781173317E+03  0.22469266312E+03  0.00000000000E+00 0. -1.
         13    1    4    4    0    0  0.10815308856E+03  0.61842778753E+02  0.15649125148E+03  0.20002782716E+03  0.00000000000E+00 0.  1.
         21    1    1    2  502  501 -0.20151011283E+03 -0.14189598757E+03  0.16928164669E+03  0.29899343265E+03  0.00000000000E+00 0.  1.
<scales pt_clust_5="13000.00000" pt_clust_6="13000.00000" pt_clust_7="13000.00000" pt_clust_8="13000.00000" pt_clust_9="246.45648"></scales>
<clustering>
<clus scale="   80.199">  5  6 -1 -1</clus>
<clus scale="   91.098">  7  8 -1 -1</clus>
<clus scale="  103.410">  5  7 -1 -1</clus>
<clus scale="  246.456">  2  9  1 -1</clus>
<clus scale="  314.844">  1  5  2 -1</clus>
</clustering>
</event>
<event>
 9    1  0.2333971E-005  0.1487418E+03  0.7546771E-02  0.1203475E+00
         -2   -1    0    0    0  501 -0.00000000000E+00  0.00000000000E+00  0.35484601558E+03  0.35484601558E+03  0.00000000000E+00 0.  1.
          1   -1    0    0  502    0  0.00000000000E+00 -0.00000000000E+00 -0.17946614438E+03  0.17946614438E+03  0.00000000000E+00 0. -1.
        -24    2    1    2    0    0 -0.11345205252E+03 -0.83290797031E+02  0.19111525938E+03  0.25157101899E+03  0.83391906894E+02 0.  0.
         23    2    1    2    0    0  0.79549081752E+02  0.81722551471E+02 -0.10986258505E+03  0.18268215831E+03  0.91084310098E+02 0.  0.
         13    1    3    3    0    0 -0.54700033816E+02 -0.13535454936E+02  0.24120323006E+02  0.61295123964E+02  0.00000000000E+00 0. -1.
        -14    1    3    3    0    0 -0.58752018704E+02 -0.69755342094E+02  0.16699493637E+03  0.19027589502E+03  0.00000000000E+00 0.  1.
        -11    1    4    4    0    0 -0.12025341688E+01  0.50826105134E+02 -0.12271672994E+02  0.52300411180E+02  0.00000000000E+00 0.  1.
         11    1    4    4    0    0  0.80751615921E+02  0.30896446336E+02 -0.97590912051E+02  0.13038174713E+03  0.00000000000E+00 0. -1.
         21    1    1    2  502  501  0.33902970768E+02  0.15682455600E+01  0.94127196866E+02  0.10005898266E+03  0.00000000000E+00 0.  1.
<scales pt_clust_5="13000.00000" pt_clust_6="13000.00000" pt_clust_7="13000.00000" pt_clust_8="13000.00000" pt_clust_9="33.93922"></scales>
<clustering>
<clus scale="   33.939">  1  9  2 -1</clus>
<clus scale="   83.392">  5  6 -1 -1</clus>
<clus scale="   91.084">  7  8 -1 -1</clus>
<clus scale="  144.160">  1  5  2 -1</clus>
<clus scale="  148.742">  2  5  1 -1</clus>
</clustering>
</event>
<event>
 9    1  0.2333971E-005  0.1004189E+03  0.7546771E-02  0.1286024E+00
          1   -1    0    0  502    0  0.00000000000E+00  0.00000000000E+00  0.14956501640E+03  0.14956501640E+03  0.00000000000E+00 0. -1.
         -2   -1    0    0    0  501 -0.00000000000E+00 -0.00000000000E+00 -0.37165291496E+03  0.37165291496E+03  0.00000000000E+00 0.  1.
        -24    2    1    2    0    0 -0.75040029341E+01 -0.92752820390E+01 -0.12025342189E+03  0.14547443140E+03  0.80991257549E+02 0.  0.
         23    2    1    2    0    0 -0.15647181922E+01  0.39758324094E+02  0.11670194598E+03  0.15490503958E+03  0.93771287800E+02 0.  0.
         11    1    3    3    0    0 -0.21767153634E+02  0.26341606494E+02 -0.91070131330E+02  0.97270026372E+02  0.00000000000E+00 0. -1.
        -12    1    3    3    0    0  0.14263150700E+02 -0.35616888533E+02 -0.29183290560E+02  0.48204405033E+02  0.00000000000E+00 0.  1.
        -11    1    4    4    0    0 -0.36652055678E+02  0.33960785837E+02  0.10692267201E+03  0.11802188759E+03  0.00000000000E+00 0. -1.
         11    1    4    4    0    0  0.35087337486E+02  0.57975382577E+01  0.97792739647E+01  0.36883151993E+02  0.00000000000E+00 0.  1.
         21    1    1    2  502  501  0.90687211263E+01 -0.30483042055E+02 -0.21853642264E+03  0.22083846037E+03  0.00000000000E+00 0.  1.
<scales pt_clust_5="13000.00000" pt_clust_6="13000.00000" pt_clust_7="13000.00000" pt_clust_8="13000.00000" pt_clust_9="31.80342"></scales>
<clustering>
<clus scale="   31.803">  2  9  1 -1</clus>
<clus scale="   80.991">  5  6 -1 -1</clus>
<clus scale="   88.603">  2  5  1 -1</clus>
<clus scale="   93.771">  7  8 -1 -1</clus>
<clus scale="  100.419">  1  5  2 -1</clus>
</clustering>
</event>
<event>
 9    1  0.2333971E-005  0.1149346E+03  0.7546771E-02  0.1254362E+00
          1   -1    0    0  502    0  0.00000000000E+00  0.00000000000E+00  0.26687868963E+03  0.26687868963E+03  0.00000000000E+00 0. -1.
         -2   -1    0    0    0  501 -0.00000000000E+00 -0.00000000000E+00 -0.10737246299E+03  0.10737246299E+03  0.00000000000E+00 0.  1.
        -24    2    1    2    0    0  0.19699783831E+02 -0.82585719165E+02 -0.25065939502E+02  0.12006495161E+03  0.81109856298E+02 0.  0.
         23    2    1    2    0    0 -0.48468158399E+02  0.53205291790E+02  0.17935843134E+03  0.21273729369E+03  0.88925495677E+02 0.  0.
         11    1    3    3    0    0 -0.27680049470E+02 -0.41434253394E+02 -0.28154161855E+02  0.57233201228E+02  0.00000000000E+00 0. -1.
        -12    1    3    3    0    0  0.47379833301E+02 -0.41151465771E+02  0.30882223527E+01  0.62831750382E+02  0.00000000000E+00 0.  1.
        -11    1    4    4    0    0 -0.47917348250E+02 -0.11776640215E+02  0.81214433772E+02  0.95029183786E+02  0.00000000000E+00 0.  1.
         11    1    4    4    0    0 -0.55081014880E+00  0.64981932005E+02  0.98143997564E+02  0.11770810990E+03  0.00000000000E+00 0. -1.
         21    1    1    2  502  501  0.28768374568E+02  0.29380427376E+02  0.52137348022E+01  0.41448907327E+02  0.00000000000E+00 0. -1.
<scales pt_clust_5="13000.00000" pt_clust_6="13000.00000" pt_clust_7="13000.00000" pt_clust_8="13000.00000" pt_clust_9="41.11969"></scales>
<clustering>
<clus scale="   41.120">  2  9  1 -1</clus>
<clus scale="   81.110">  5  6 -1 -1</clus>
<clus scale="   88.925">  7  8 -1 -1</clus>
<clus scale="  109.000">  2  5  1 -1</clus>
<clus scale="  114.935">  1  5  2 -1</clus>
</clustering>
</event>
<event>
 9    1  0.2333971E-005  0.1001144E+03  0.7546771E-02  0.1284733E+00
         -2   -1    0    0    0  501 -0.00000000000E+00  0.00000000000E+00  0.40203386439E+02  0.40203386439E+02  0.00000000000E+00 0.  1.
          1   -1    0    0  502    0  0.00000000000E+00 -0.00000000000E+00 -0.40114992188E+03  0.40114992188E+03  0.00000000000E+00 0. -1.
        -24    2    1    2    0    0 -0.85859913881E-01  0.46429125650E+02 -0.78291535460E+02  0.12325853952E+03  0.83110961735E+02 0.  0.
         23    2    1    2    0    0  0.30199922760E+02 -0.26137863439E+02 -0.24903889204E+03  0.26861108647E+03  0.92392222540E+02 0.  0.
         13    1    3    3    0    0 -0.26591392947E+02  0.59488110611E+02 -0.47913469047E+02  0.80880393169E+02  0.00000000000E+00 0. -1.
        -14    1    3    3    0    0  0.26505533033E+02 -0.13058984961E+02 -0.30378066413E+02  0.42378146356E+02  0.00000000000E+00 0.  1.
        -13    1    4    4    0    0  0.63023446019E+02 -0.24945172227E+02 -0.16466277748E+03  0.17806753397E+03  0.00000000000E+00 0.  1.
         13    1    4    4    0    0 -0.32823523260E+02 -0.11926912122E+01 -0.84376114558E+02  0.90543552501E+02  0.00000000000E+00 0. -1.
         21    1    1    2  502  501 -0.30114062846E+02 -0.20291262211E+02 -0.33616107939E+02  0.49483682322E+02  0.00000000000E+00 0.  1.
<scales pt_clust_5="13000.00000" pt_clust_6="13000.00000" pt_clust_7="13000.00000" pt_clust_8="13000.00000" pt_clust_9="36.31242"></scales>
<clustering>
<clus scale="   36.312">  1  9  2 -1</clus>
<clus scale="   83.111">  5  6 -1 -1</clus>
<clus scale="   91.619">  1  5  2 -1</clus>
<clus scale="   92.392">  7  8 -1 -1</clus>
<clus scale="  100.114">  2  5  1 -1</clus>
</clustering>
</event>
<event>
 9    1  0.2333971E-005  0.2066181E+03  0.7546771E-02  0.1145089E+00
          1   -1    0    0  502    0  0.00000000000E+00  0.00000000000E+00  0.10455882271E+03  0.10455882271E+03  0.00000000000E+00 0. -1.
         -2   -1    0    0    0  501 -0.00000000000E+00 -0.00000000000E+00 -0.55492411692E+03  0.55492411692E+03  0.00000000000E+00 0.  1.
         23    2    1    2    0    0 -0.39037426976E+01 -0.17891856123E+03 -0.18129678426E+03  0.27053337028E+03  0.91064206442E+02 0.  0.
        -24    2    1    2    0    0 -0.12932230714E+02  0.19060590444E+03 -0.12293590680E+03  0.24138676342E+03  0.81587247624E+02 0.  0.
         11    1    4    4    0    0 -0.46081741400E+00  0.11380667632E+03 -0.25379187641E+02  0.11660306640E+03  0.00000000000E+00 0. -1.
        -12    1    4    4    0    0 -0.12471413300E+02  0.76799228116E+02 -0.97556719158E+02  0.12478369702E+03  0.00000000000E+00 0.  1.
        -13    1    3    3    0    0  0.11796393297E+02 -0.13947685833E+03 -0.81236969787E+02  0.16184064435E+03  0.00000000000E+00 0.  1.
         13    1    3    3    0    0 -0.15700135995E+02 -0.39441702896E+02 -0.10005981447E+03  0.10869272593E+03  0.00000000000E+00 0. -1.
         21    1    1    2  502  501  0.16835973411E+02 -0.11687343212E+02 -0.14613260315E+03  0.14756280593E+03  0.00000000000E+00 0.  1.
<scales pt_clust_5="13000.00000" pt_clust_6="13000.00000" pt_clust_7="13000.00000" pt_clust_8="13000.00000" pt_clust_9="20.49497"></scales>
<clustering>
<clus scale="   20.495">  2  9  1 -1</clus>
<clus scale="   81.587">  5  6 -1 -1</clus>
<clus scale="   91.064">  7  8 -1 -1</clus>
<clus scale="  202.620">  1  5  2 -1</clus>
<clus scale="  202.620">  1  5  2 -1</clus>
</clustering>
</event>
<event>
 9    1  0.2333971E-005  0.1073149E+03  0.7546771E-02  0.1270379E+00
         -2   -1    0    0    0  501 -0.00000000000E+00  0.00000000000E+00  0.30294634401E+02  0.30294634401E+02  0.00000000000E+00 0.  1.
          1   -1    0    0  502    0  0.00000000000E+00 -0.00000000000E+00 -0.84790238806E+03  0.84790238806E+03  0.00000000000E+00 0. -1.
         23    2    1    2    0    0  0.46716414930E+02  0.29486650828E+02 -0.10334493779E+03  0.14915919128E+03  0.92284354996E+02 0.  0.
        -24    2    1    2    0    0 -0.19748483230E+02 -0.61805723684E+02 -0.49715205539E+03  0.50788432312E+03  0.81094817468E+02 0.  0.
         13    1    4    4    0    0  0.28929322392E+02 -0.37541123466E+02 -0.18180397955E+03  0.18788009108E+03  0.00000000000E+00 0. -1.
        -14    1    4    4    0    0 -0.48677805622E+02 -0.24264600218E+02 -0.31534807585E+03  0.32000423204E+03  0.00000000000E+00 0.  1.
        -11    1    3    3    0    0 -0.20417367889E+02 -0.15596655122E+02 -0.34104274430E+02  0.42699251713E+02  0.00000000000E+00 0. -1.
         11    1    3    3    0    0  0.67133782819E+02  0.45083305950E+02 -0.69240663357E+02  0.10645993957E+03  0.00000000000E+00 0.  1.
         21    1    1    2  502  501 -0.26967931700E+02  0.32319072856E+02 -0.21711076048E+03  0.22115350806E+03  0.00000000000E+00 0.  1.
<scales pt_clust_5="13000.00000" pt_clust_6="13000.00000" pt_clust_7="13000.00000" pt_clust_8="13000.00000" pt_clust_9="42.09266"></scales>
<clustering>
<clus scale="   42.093">  2  9  1 -1</clus>
<clus scale="   81.095">  5  6 -1 -1</clus>
<clus scale="   92.284">  7  8 -1 -1</clus>
<clus scale="   97.859">  2  5  1 -1</clus>
<clus scale="   42.093">  2  5  1 -1</clus>
</clustering>
</event>
<event>
 9    1  0.2333971E-005  0.1111667E+03  0.7546771E-02  0.1264306E+00
         -2   -1    0    0    0  501 -0.00000000000E+00  0.00000000000E+00  0.28889196814E+03  0.28889196814E+03  0.00000000000E+00 0.  1.
          1   -1    0    0  502    0  0.00000000000E+00 -0.00000000000E+00 -0.23458798705E+03  0.23458798705E+03  0.00000000000E+00 0. -1.
         23    2    1    2    0    0 -0.52400791452E+02 -0.13723199055E+03  0.11362668350E+03  0.20757882587E+03  0.92733400510E+02 0.  0.
        -24    2    1    2    0    0  0.21771019608E+02  0.49661712718E+02 -0.15558548379E+03  0.18221021877E+03  0.77803971970E+02 0.  0.
         11    1    4    4    0    0  0.18804168775E+02  0.42586302541E+02 -0.16420161909E+03  0.17067325988E+03  0.00000000000E+00 0. -1.
        -12    1    4    4    0    0  0.29668508332E+01  0.70754101769E+01  0.86161352966E+01  0.11536958893E+02  0.00000000000E+00 0.  1.
        -11    1    3    3    0    0 -0.41132592654E+02 -0.84399914075E+02  0.14934971304E+02  0.95069916599E+02  0.00000000000E+00 0. -1.
         11    1    3    3    0    0 -0.11268198798E+02 -0.52832076474E+02  0.98691712193E+02  0.11250890927E+03  0.00000000000E+00 0.  1.
         21    1    1    2  502  501  0.30629771844E+02  0.87570277831E+02  0.96262781392E+02  0.13369091055E+03  0.00000000000E+00 0.  1.
<scales pt_clust_5="13000.00000" pt_clust_6="13000.00000" pt_clust_7="13000.00000" pt_clust_8="13000.00000" pt_clust_9="92.77250"></scales>
<clustering>
<clus scale="   77.804">  5  6 -1 -1</clus>
<clus scale="   92.733">  7  8 -1 -1</clus>
<clus scale="   92.772">  1  9  2 -1</clus>
<clus scale="   99.056">  2  5  1 -1</clus>
<clus scale="   99.056">  2  5  1 -1</clus>
</clustering>
</event>
<event>
 9    1  0.2333971E-005  0.1287130E+03  0.7546771E-02  0.1231247E+00
         -2   -1    0    0    0  501 -0.00000000000E+00  0.00000000000E+00  0.19912973875E+03  0.19912973875E+03  0.00000000000E+00 0.  1.
          1   -1    0    0  502    0  0.00000000000E+00 -0.00000000000E+00 -0.62974679948E+03  0.62974679948E+03  0.00000000000E+00 0. -1.
         23    2    1    2    0    0 -0.45342419795E+02  0.83859032054E+02  0.14727254769E+03  0.19768209449E+03  0.91108368926E+02 0.  0.
        -24    2    1    2    0    0  0.64119517922E+02 -0.53764109503E+02 -0.58149346422E+03  0.59553954851E+03  0.97625882147E+02 0.  0.
         11    1    4    4    0    0  0.64097584075E+02  0.60217718580E+01 -0.22347763334E+03  0.23256615107E+03  0.00000000000E+00 0. -1.
        -12    1    4    4    0    0  0.21933846576E-01 -0.59785881361E+02 -0.35801583087E+03  0.36297339744E+03  0.00000000000E+00 0.  1.
        -13    1    3    3    0    0 -0.62104301666E+02  0.30852383590E+02  0.11235568989E+03  0.13203262820E+03  0.00000000000E+00 0.  1.
         13    1    3    3    0    0  0.16761881870E+02  0.53006648464E+02  0.34916857794E+02  0.65649466285E+02  0.00000000000E+00 0. -1.
         21    1    1    2  502  501 -0.18777098127E+02 -0.30094922551E+02  0.36038558041E+01  0.35654895233E+02  0.00000000000E+00 0.  1.
<scales pt_clust_5="13000.00000" pt_clust_6="13000.00000" pt_clust_7="13000.00000" pt_clust_8="13000.00000" pt_clust_9="35.47230"></scales>
<clustering>
<clus scale="   35.472">  1  9  2 -1</clus>
<clus scale="   91.108">  7  8 -1 -1</clus>
<clus scale="   97.626">  5  6 -1 -1</clus>
<clus scale="  123.842">  1  7  2 -1</clus>
<clus scale="  128.713">  2  5  1 -1</clus>
</clustering>
</event>
<event>
 9    1  0.2333971E-005  0.1225287E+03  0.7546771E-02  0.1243684E+00
          1   -1    0    0  502    0  0.00000000000E+00  0.00000000000E+00  0.69141349761E+03  0.69141349761E+03  0.00000000000E+00 0. -1.
         -2   -1    0    0    0  501 -0.00000000000E+00 -0.00000000000E+00 -0.48025760320E+02  0.48025760320E+02  0.00000000000E+00 0.  1.
         23    2    1    2    0    0  0.27785018953E+02  0.22772667008E+01  0.78415709124E+02  0.12502166522E+03  0.93296302800E+02 0.  0.
        -24    2    1    2    0    0 -0.47856117073E+02 -0.96890916050E+02  0.41562274409E+03  0.43648558244E+03  0.78098276029E+02 0.  0.
         13    1    4    4    0    0 -0.33047665356E+02 -0.74643530239E+02  0.39324575905E+03  0.40162922180E+03  0.00000000000E+00 0. -1.
        -14    1    4    4    0    0 -0.14808451717E+02 -0.22247385810E+02  0.22376985041E+02  0.34856360641E+02  0.00000000000E+00 0.  1.
        -13    1    3    3    0    0  0.34606876361E+02 -0.40947403731E+02  0.43219386952E+02  0.68863932303E+02  0.00000000000E+00 0. -1.
         13    1    3    3    0    0 -0.68218574078E+01  0.43224670432E+02  0.35196322171E+02  0.56157732921E+02  0.00000000000E+00 0.  1.
         21    1    1    2  502  501  0.20071098120E+02  0.94613649349E+02  0.14934928407E+03  0.17793201026E+03  0.00000000000E+00 0.  1.
<scales pt_clust_5="13000.00000" pt_clust_6="13000.00000" pt_clust_7="13000.00000" pt_clust_8="13000.00000" pt_clust_9="96.71914"></scales>
<clustering>
<clus scale="   78.098">  5  6 -1 -1</clus>
<clus scale="   93.296">  7  8 -1 -1</clus>
<clus scale="   96.719">  2  9  1 -1</clus>
<clus scale="  111.393">  1  5  2 -1</clus>
<clus scale="  111.393">  1  5  2 -1</clus>
</clustering>
</event>
<event>
 9    1  0.2333971E-005  0.9329765E+02  0.7546771E-02  0.1300981E+00
         -4   -1    0    0    0  501 -0.00000000000E+00  0.00000000000E+00  0.96320522826E+02  0.96320522826E+02  0.00000000000E+00 0.  1.
          3   -1    0    0  502    0  0.00000000000E+00 -0.00000000000E+00 -0.31939458479E+03  0.31939458479E+03  0.00000000000E+00 0. -1.
         23    2    1    2    0    0 -0.60326709077E+02 -0.15197402518E+02 -0.80222405027E+02  0.13687881795E+03  0.91814506833E+02 0.  0.
        -24    2    1    2    0    0  0.31968249211E+01 -0.54051362710E+01 -0.18665752998E+03  0.20395476469E+03  0.81957777893E+02 0.  0.
         13    1    4    4    0    0  0.27908493165E+02 -0.33103582579E+02 -0.12124060464E+03  0.12874010791E+03  0.00000000000E+00 0. -1.
        -14    1    4    4    0    0 -0.24711668244E+02  0.27698446308E+02 -0.65416925336E+02  0.75214656787E+02  0.00000000000E+00 0.  1.
        -11    1    3    3    0    0 -0.47509110539E+02  0.30248900662E+02 -0.18742309038E+02  0.59358114218E+02  0.00000000000E+00 0.  1.
         11    1    3    3    0    0 -0.12817598539E+02 -0.45446303180E+02 -0.61480095988E+02  0.77520703736E+02  0.00000000000E+00 0. -1.
         21    1    1    2  502  501  0.57129884156E+02  0.20602538789E+02  0.43805873040E+02  0.74881524965E+02  0.00000000000E+00 0.  1.
<scales pt_clust_5="13000.00000" pt_clust_6="13000.00000" pt_clust_7="13000.00000" pt_clust_8="13000.00000" pt_clust_9="60.73128"></scales>
<clustering>
<clus scale="   60.731">  1  9  2 -1</clus>
<clus scale="   81.958">  5  6 -1 -1</clus>
<clus scale="   83.616">  2  5  1 -1</clus>
<clus scale="   91.815">  7  8 -1 -1</clus>
<clus scale="   83.616">  2  5  1 -1</clus>
</clustering>
</event>
<event>
 9    1  0.2333971E-005  0.1109846E+03  0.7546771E-02  0.1262938E+00
          1   -1    0    0  502    0  0.00000000000E+00  0.00000000000E+00  0.18356070997E+03  0.18356070997E+03  0.00000000000E+00 0. -1.
         -2   -1    0    0    0  501 -0.00000000000E+00 -0.00000000000E+00 -0.45638091647E+03  0.45638091647E+03  0.00000000000E+00 0.  1.
        -24    2    1    2    0    0 -0.48565683469E+02 -0.72884508116E+01 -0.61860635676E+02  0.11196674559E+03  0.79360360036E+02 0.  0.
         23    2    1    2    0    0  0.45835108004E+02  0.53824753641E+02  0.13598597193E+03  0.17791161063E+03  0.90345976133E+02 0.  0.
         13    1    3    3    0    0 -0.49906901967E+02 -0.23749248460E+02 -0.82648788542E+01  0.55884111237E+02  0.00000000000E+00 0. -1.
        -14    1    3    3    0    0  0.13412184979E+01  0.16460797648E+02 -0.53595756822E+02  0.56082634349E+02  0.00000000000E+00 0.  1.
        -13    1    4    4    0    0  0.29877139337E+02 -0.19510340971E+02  0.23641727409E+02  0.42804534043E+02  0.00000000000E+00 0.  1.
         13    1    4    4    0    0  0.15957968667E+02  0.73335094612E+02  0.11234424452E+03  0.13510707658E+03  0.00000000000E+00 0. -1.
         21    1    1    2  502  501  0.27305754642E+01 -0.46536302830E+02 -0.34694554275E+03  0.35006327022E+03  0.00000000000E+00 0. -1.
<scales pt_clust_5="13000.00000" pt_clust_6="13000.00000" pt_clust_7="13000.00000" pt_clust_8="13000.00000" pt_clust_9="46.61634"></scales>
<clustering>
<clus scale="   46.616">  2  9  1 -1</clus>
<clus scale="   79.360">  5  6 -1 -1</clus>
<clus scale="   90.346">  7  8 -1 -1</clus>
<clus scale="  102.241">  2  5  1 -1</clus>
<clus scale="  110.985">  1  5  2 -1</clus>
</clustering>
</event>
<event>
 9    1  0.2333971E-005  0.1411385E+03  0.7546771E-02  0.1222254E+00
          1   -1    0    0  502    0  0.00000000000E+00  0.00000000000E+00  0.28921799737E+02  0.28921799737E+02  0.00000000000E+00 0. -1.
         -2   -1    0    0    0  501 -0.00000000000E+00 -0.00000000000E+00 -0.12784169390E+04  0.12784169390E+04  0.00000000000E+00 0.  1.
        -24    2    1    2    0    0 -0.23128824572E+02 -0.43226332429E+02 -0.76260229629E+03  0.76836797549E+03  0.80147520965E+02 0.  0.
         23    2    1    2    0    0  0.24711887636E+02  0.85572338598E+02 -0.19435839093E+03  0.24338305044E+03  0.11630486917E+03 0.  0.
         13    1    3    3    0    0  0.10902209490E+02  0.16902907084E+02 -0.89674929163E+02  0.91902988853E+02  0.00000000000E+00 0. -1.
        -14    1    3    3    0    0 -0.34031034062E+02 -0.60129239512E+02 -0.67292736712E+03  0.67646498664E+03  0.00000000000E+00 0.  1.
        -13    1    4    4    0    0 -0.23245122061E+02  0.13094148329E+02 -0.13625248973E+03  0.13883995599E+03  0.00000000000E+00 0.  1.
         13    1    4    4    0    0  0.47957009697E+02  0.72478190269E+02 -0.58105901192E+02  0.10454309445E+03  0.00000000000E+00 0. -1.
         21    1    1    2  502  501 -0.15830630641E+01 -0.42346006169E+02 -0.29253445201E+03  0.29558771277E+03  0.00000000000E+00 0. -1.
<scales pt_clust_5="13000.00000" pt_clust_6="13000.00000" pt_clust_7="13000.00000" pt_clust_8="13000.00000" pt_clust_9="42.37559"></scales>
<clustering>
<clus scale="   42.376">  2  9  1 -1</clus>
<clus scale="   80.148">  5  6 -1 -1</clus>
<clus scale="  113.212">  2  5  1 -1</clus>
<clus scale="  116.305">  7  8 -1 -1</clus>
<clus scale="  141.138">  1  5  2 -1</clus>
</clustering>
</event>
<event>
 9    1  0.2333971E-005  0.1577072E+03  0.7546771E-02  0.1191919E+00
         -2   -1    0    0    0  501 -0.00000000000E+00  0.00000000000E+00  0.28602528085E+03  0.28602528085E+03  0.00000000000E+00 0.  1.
          1   -1    0    0  502    0  0.00000000000E+00 -0.00000000000E+00 -0.22724997742E+03  0.22724997742E+03  0.00000000000E+00 0. -1.
         23    2    1    2    0    0 -0.12066270727E+03 -0.73525445826E+02  0.19458039763E+03  0.25685798448E+03  0.90271883439E+02 0.  0.
        -24    2    1    2    0    0  0.12116871798E+03  0.41354933686E+02 -0.15506033039E+03  0.21892111374E+03  0.86548594571E+02 0.  0.
         11    1    4    4    0    0  0.40754755157E+02 -0.25607736364E+02 -0.64852353079E+02  0.80762206071E+02  0.00000000000E+00 0. -1.
        -12    1    4    4    0    0  0.80413962820E+02  0.66962670049E+02 -0.90207977314E+02  0.13815890767E+03  0.00000000000E+00 0.  1.
        -13    1    3    3    0    0 -0.49595884623E+02  0.16009251903E+02  0.75991122689E+02  0.92144987089E+02  0.00000000000E+00 0. -1.
         13    1    3    3    0    0 -0.71066822643E+02 -0.89534697729E+02  0.11858927494E+03  0.16471299739E+03  0.00000000000E+00 0.  1.
         21    1    1    2  502  501 -0.50601071093E+00  0.32170512140E+02  0.19255236191E+02  0.37496160056E+02  0.00000000000E+00 0.  1.
<scales pt_clust_5="13000.00000" pt_clust_6="13000.00000" pt_clust_7="13000.00000" pt_clust_8="13000.00000" pt_clust_9="32.17449"></scales>
<clustering>
<clus scale="   32.174">  1  9  2 -1</clus>
<clus scale="   86.549">  5  6 -1 -1</clus>
<clus scale="   90.272">  7  8 -1 -1</clus>
<clus scale="  155.606">  2  5  1 -1</clus>
<clus scale="  155.606">  2  5  1 -1</clus>
</clustering>
</event>
<event>
 9    1  0.2333971E-005  0.1028037E+03  0.7546771E-02  0.1281729E+00
          1   -1    0    0  502    0  0.00000000000E+00  0.00000000000E+00  0.14274827459E+03  0.14274827459E+03  0.00000000000E+00 0. -1.
         -2   -1    0    0    0  501 -0.00000000000E+00 -0.00000000000E+00 -0.17218933923E+03  0.17218933923E+03  0.00000000000E+00 0.  1.
        -24    2    1    2    0    0  0.49094233086E+02 -0.95970936645E+01 -0.11210771383E+03  0.14517771047E+03  0.77498904432E+02 0.  0.
         23    2    1    2    0    0 -0.75133296738E+01  0.25463453023E+02  0.80079340581E+02  0.12517955955E+03  0.92479099140E+02 0.  0.
         11    1    3    3    0    0  0.27009059084E+02  0.26272070219E+02 -0.17355046810E+02  0.41483835357E+02  0.00000000000E+00 0. -1.
        -12    1    3    3    0    0  0.22085174002E+02 -0.35869163884E+02 -0.94752667020E+02  0.10369387511E+03  0.00000000000E+00 0.  1.
        -13    1    4    4    0    0  0.23874491423E+02  0.42009544732E+02  0.14217206633E+02  0.50367868266E+02  0.00000000000E+00 0.  1.
         13    1    4    4    0    0 -0.31387821096E+02 -0.16546091708E+02  0.65862133948E+02  0.74811691280E+02  0.00000000000E+00 0. -1.
         21    1    1    2  502  501 -0.41580903412E+02 -0.15866359359E+02  0.25873086115E+01  0.44580343804E+02  0.00000000000E+00 0. -1.
<scales pt_clust_5="13000.00000" pt_clust_6="13000.00000" pt_clust_7="13000.00000" pt_clust_8="13000.00000" pt_clust_9="44.50520"></scales>
<clustering>
<clus scale="   44.505">  1  9  2 -1</clus>
<clus scale="   77.499">  5  6 -1 -1</clus>
<clus scale="   89.567">  2  5  1 -1</clus>
<clus scale="   92.479">  7  8 -1 -1</clus>
<clus scale="   44.505">  1  5  2 -1</clus>
</clustering>
</event>
<event>
 9    1  0.2333971E-005  0.1204302E+03  0.7546771E-02  0.1245464E+00
          1   -1    0    0  502    0  0.00000000000E+00  0.00000000000E+00  0.27088093372E+03  0.27088093372E+03  0.00000000000E+00 0. -1.
         -2   -1    0    0    0  501 -0.00000000000E+00 -0.00000000000E+00 -0.23312870633E+03  0.23312870633E+03  0.00000000000E+00 0.  1.
         23    2    1    2    0    0 -0.72640127472E+02  0.45789947231E+01 -0.18456932241E+03  0.21964649604E+03  0.94240082428E+02 0.  0.
        -24    2    1    2    0    0  0.10351686903E+03 -0.11172175837E+02  0.21237314615E+03  0.25126006347E+03  0.84786240624E+02 0.  0.
         11    1    4    4    0    0  0.69126634507E+02 -0.44112247605E+02  0.16411752118E+03  0.18346373687E+03  0.00000000000E+00 0. -1.
        -12    1    4    4    0    0  0.34390234526E+02  0.32940071769E+02  0.48255624973E+02  0.67796326600E+02  0.00000000000E+00 0.  1.
        -13    1    3    3    0    0 -0.26136837085E+02  0.46872423466E+02 -0.62782112373E+02  0.82593897888E+02  0.00000000000E+00 0. -1.
         13    1    3    3    0    0 -0.46503290387E+02 -0.42293428742E+02 -0.12178721003E+03  0.13705259815E+03  0.00000000000E+00 0.  1.
         21    1    1    2  502  501 -0.30876741561E+02  0.65931811135E+01  0.99484036368E+01  0.33103080544E+02  0.00000000000E+00 0.  1.
<scales pt_clust_5="13000.00000" pt_clust_6="13000.00000" pt_clust_7="13000.00000" pt_clust_8="13000.00000" pt_clust_9="31.57282"></scales>
<clustering>
<clus scale="   31.573">  1  9  2 -1</clus>
<clus scale="   84.786">  5  6 -1 -1</clus>
<clus scale="   94.240">  7  8 -1 -1</clus>
<clus scale="  113.185">  1  5  2 -1</clus>
<clus scale="   31.573">  1  5  2 -1</clus>
</clustering>
</event>
<event>
 9    1  0.2333971E-005  0.1224797E+03  0.7546771E-02  0.1254641E+00
         -2   -1    0    0    0  501 -0.00000000000E+00  0.00000000000E+00  0.67631604825E+02  0.67631604825E+02  0.00000000000E+00 0.  1.
          1   -1    0    0  502    0  0.00000000000E+00 -0.00000000000E+00 -0.43526901049E+03  0.43526901049E+03  0.00000000000E+00 0. -1.
        -24    2    1    2    0    0  0.18388851491E+02 -0.90076223311E+02 -0.51522954655E+02  0.13240566152E+03  0.80154653519E+02 0.  0.
         23    2    1    2    0    0  0.52929614497E+01 -0.44824528194E+00 -0.21401269529E+03  0.23200207961E+03  0.89416524394E+02 0.  0.
         11    1    3    3    0    0  0.20784317720E+02  0.35685232089E+01 -0.29352148651E+02  0.36142369200E+02  0.00000000000E+00 0. -1.
        -12    1    3    3    0    0 -0.23954662284E+01 -0.93644746519E+02 -0.22170806004E+02  0.96263292319E+02  0.00000000000E+00 0.  1.
        -11    1    4    4    0    0 -0.24358591838E+02 -0.31926983114E+02 -0.14585888903E+03  0.15128611555E+03  0.00000000000E+00 0. -1.
         11    1    4    4    0    0  0.29651553288E+02  0.31478737832E+02 -0.68153806256E+02  0.80715964066E+02  0.00000000000E+00 0.  1.
         21    1    1    2  502  501 -0.23681812941E+02  0.90524468592E+02 -0.10210175572E+03  0.13849287418E+03  0.00000000000E+00 0.  1.
<scales pt_clust_5="13000.00000" pt_clust_6="13000.00000" pt_clust_7="13000.00000" pt_clust_8="13000.00000" pt_clust_9="92.60939"></scales>
<clustering>
<clus scale="   80.155">  5  6 -1 -1</clus>
<clus scale="   89.417">  7  8 -1 -1</clus>
<clus scale="   89.574">  2  7  1 -1</clus>
<clus scale="   92.609">  2  9  1 -1</clus>
<clus scale="   89.574">  2  5  1 -1</clus>
</clustering>
</event>
<event>
 9    1  0.2333971E-005  0.1093982E+03  0.7546771E-02  0.1264346E+00
         -2   -1    0    0    0  501 -0.00000000000E+00  0.00000000000E+00  0.46781244955E+03  0.46781244955E+03  0.00000000000E+00 0.  1.
          1   -1    0    0  502    0  0.00000000000E+00 -0.00000000000E+00 -0.55485172307E+02  0.55485172307E+02  0.00000000000E+00 0. -1.
         23    2    1    2    0    0 -0.35559211813E+02  0.34674246115E+02  0.25885702447E+03  0.27900588141E+03  0.91490774708E+02 0.  0.
        -24    2    1    2    0    0  0.62681510282E+02 -0.13292838654E+02  0.22219851758E+02  0.10857346081E+03  0.84786810828E+02 0.  0.
         11    1    4    4    0    0  0.60230098140E+02  0.11722752954E+02  0.43845311669E+02  0.75415509108E+02  0.00000000000E+00 0. -1.
        -12    1    4    4    0    0  0.24514121423E+01 -0.25015591608E+02 -0.21625459911E+02  0.33157951706E+02  0.00000000000E+00 0.  1.
        -11    1    3    3    0    0 -0.47635219159E+02 -0.15777437243E+02  0.99845227002E+02  0.11174574258E+03  0.00000000000E+00 0.  1.
         11    1    3    3    0    0  0.12076007346E+02  0.50451683358E+02  0.15901179747E+03  0.16726013883E+03  0.00000000000E+00 0. -1.
         21    1    1    2  502  501 -0.27122298469E+02 -0.21381407461E+02  0.13125040101E+03  0.13571827963E+03  0.00000000000E+00 0.  1.
<scales pt_clust_5="13000.00000" pt_clust_6="13000.00000" pt_clust_7="13000.00000" pt_clust_8="13000.00000" pt_clust_9="34.53670"></scales>
<clustering>
<clus scale="   34.537">  1  9  2 -1</clus>
<clus scale="   84.787">  5  6 -1 -1</clus>
<clus scale="   91.491">  7  8 -1 -1</clus>
<clus scale="  103.857">  2  5  1 -1</clus>
<clus scale="  103.857">  2  5  1 -1</clus>
</clustering>
</event>
<event>
 9    1  0.2333971E-005  0.9791495E+02  0.7546771E-02  0.1291435E+00
          1   -1    0    0  502    0  0.00000000000E+00  0.00000000000E+00  0.28673458681E+03  0.28673458681E+03  0.00000000000E+00 0. -1.
         -2   -1    0    0    0  501 -0.00000000000E+00 -0.00000000000E+00 -0.71541829754E+02  0.71541829754E+02  0.00000000000E+00 0.  1.
         23    2    1    2    0    0  0.21369357666E+02 -0.29827108094E+02  0.15474239175E+02  0.10172996662E+03  0.93612115706E+02 0.  0.
        -24    2    1    2    0    0 -0.27569223681E+02  0.72088988624E+01  0.21284765387E+03  0.22966902559E+03  0.81435294807E+02 0.  0.
         13    1    4    4    0    0 -0.99625471698E+01 -0.29903618150E+02  0.34834052058E+02  0.46977546842E+02  0.00000000000E+00 0. -1.
        -14    1    4    4    0    0 -0.17606676511E+02  0.37112517012E+02  0.17801360181E+03  0.18269147875E+03  0.00000000000E+00 0.  1.
        -13    1    3    3    0    0  0.57609786877E+02 -0.19379611367E+02 -0.46526016979E+00  0.60783824722E+02  0.00000000000E+00 0.  1.
         13    1    3    3    0    0 -0.36240429212E+02 -0.10447496728E+02  0.15939499345E+02  0.40946141902E+02  0.00000000000E+00 0. -1.
         21    1    1    2  502  501  0.61998660153E+01  0.22618209232E+02 -0.13129135995E+02  0.26877424345E+02  0.00000000000E+00 0.  1.
<scales pt_clust_5="13000.00000" pt_clust_6="13000.00000" pt_clust_7="13000.00000" pt_clust_8="13000.00000" pt_clust_9="23.45254"></scales>
<clustering>
<clus scale="   23.453">  2  9  1 -1</clus>
<clus scale="   81.435">  5  6 -1 -1</clus>
<clus scale="   86.347">  1  5  2 -1</clus>
<clus scale="   93.612">  7  8 -1 -1</clus>
<clus scale="   86.347">  1  5  2 -1</clus>
</clustering>
</event>
<event>
 9    1  0.2333971E-005  0.2893203E+03  0.7546771E-02  0.1091252E+00
          1   -1    0    0  502    0  0.00000000000E+00  0.00000000000E+00  0.31160928612E+03  0.31160928612E+03  0.00000000000E+00 0. -1.
         -2   -1    0    0    0  501 -0.00000000000E+00 -0.00000000000E+00 -0.85049607192E+03  0.85049607192E+03  0.00000000000E+00 0.  1.
         23    2    1    2    0    0 -0.11655709131E+03  0.24310391712E+03 -0.71303273797E+03  0.76831408606E+03  0.95946752777E+02 0.  0.
        -24    2    1    2    0    0  0.98144522684E+02 -0.25512596276E+03  0.20809743683E+03  0.35334061591E+03  0.82604136878E+02 0.  0.
         11    1    4    4    0    0  0.83964487496E+02 -0.17066182962E+03  0.18336832861E+03  0.26419583492E+03  0.00000000000E+00 0. -1.
        -12    1    4    4    0    0  0.14180035188E+02 -0.84464133138E+02  0.24729108217E+02  0.89144780991E+02  0.00000000000E+00 0.  1.
        -11    1    3    3    0    0 -0.10700507251E+03  0.17607597401E+03 -0.61937712023E+03  0.65274868918E+03  0.00000000000E+00 0.  1.
         11    1    3    3    0    0 -0.95520188032E+01  0.67027943116E+02 -0.93655617739E+02  0.11556539688E+03  0.00000000000E+00 0. -1.
         21    1    1    2  502  501  0.18412568630E+02  0.12022045638E+02 -0.33951484674E+02  0.40450656069E+02  0.00000000000E+00 0. -1.
<scales pt_clust_5="13000.00000" pt_clust_6="13000.00000" pt_clust_7="13000.00000" pt_clust_8="13000.00000" pt_clust_9="21.98982"></scales>
<clustering>
<clus scale="   21.990">  2  9  1 -1</clus>
<clus scale="   82.604">  5  6 -1 -1</clus>
<clus scale="   95.947">  7  8 -1 -1</clus>
<clus scale="  285.173">  1  5  2 -1</clus>
<clus scale="  285.173">  1  5  2 -1</clus>
</clustering>
</event>
<event>
 9    1  0.2333971E-005  0.1689232E+03  0.7546771E-02  0.1180243E+00
         -2   -1    0    0    0  501 -0.00000000000E+00  0.00000000000E+00  0.44443155312E+02  0.44443155312E+02  0.00000000000E+00 0.  1.
          1   -1    0    0  502    0  0.00000000000E+00 -0.00000000000E+00 -0.92590500453E+03  0.92590500453E+03  0.00000000000E+00 0. -1.
        -24    2    1    2    0    0 -0.15948307013E+03 -0.98421534267E+01 -0.23430906705E+03  0.29497140933E+03  0.81090540636E+02 0.  0.
         23    2    1    2    0    0  0.13552432665E+03  0.17659348967E+02 -0.59938757303E+03  0.62137077733E+03  0.90318793706E+02 0.  0.
         13    1    3    3    0    0 -0.12834261041E+03 -0.35851301916E+02 -0.20657126850E+03  0.24582276230E+03  0.00000000000E+00 0. -1.
        -14    1    3    3    0    0 -0.31140459716E+02  0.26009148489E+02 -0.27737798547E+02  0.49148647028E+02  0.00000000000E+00 0.  1.
        -13    1    4    4    0    0  0.36529667925E+02  0.24213628566E+02 -0.68696902095E+02  0.81486077366E+02  0.00000000000E+00 0.  1.
         13    1    4    4    0    0  0.98994658723E+02 -0.65542795991E+01 -0.53069067094E+03  0.53988469996E+03  0.00000000000E+00 0. -1.
         21    1    1    2  502  501  0.23958743477E+02 -0.78171955404E+01 -0.47765209139E+02  0.54005973180E+02  0.00000000000E+00 0. -1.
<scales pt_clust_5="13000.00000" pt_clust_6="13000.00000" pt_clust_7="13000.00000" pt_clust_8="13000.00000" pt_clust_9="25.20178"></scales>
<clustering>
<clus scale="   25.202">  1  9  2 -1</clus>
<clus scale="   81.091">  5  6 -1 -1</clus>
<clus scale="   90.319">  7  8 -1 -1</clus>
<clus scale="  164.174">  1  5  2 -1</clus>
<clus scale="  168.923">  2  5  1 -1</clus>
</clustering>
</event>
<event>
 9    1  0.2333971E-005  0.1204453E+03  0.7546771E-02  0.1246573E+00
          1   -1    0    0  502    0  0.00000000000E+00  0.00000000000E+00  0.89355628779E+03  0.89355628779E+03  0.00000000000E+00 0. -1.
         -2   -1    0    0    0  501 -0.00000000000E+00 -0.00000000000E+00 -0.31686904345E+02  0.31686904345E+02  0.00000000000E+00 0.  1.
         23    2    1    2    0    0 -0.70807447648E+02  0.14967035795E+02  0.17152775451E+03  0.20760375951E+03  0.91868621374E+02 0.  0.
        -24    2    1    2    0    0  0.79608076878E+02  0.77380315249E+01  0.68308956941E+03  0.69223149048E+03  0.78585962678E+02 0.  0.
         13    1    4    4    0    0  0.42961127058E+02  0.37833098754E+02  0.24578672285E+03  0.25236504300E+03  0.00000000000E+00 0. -1.
        -14    1    4    4    0    0  0.36646949820E+02 -0.30095067229E+02  0.43730284656E+03  0.43986644747E+03  0.00000000000E+00 0.  1.
        -11    1    3    3    0    0 -0.47877929286E+02  0.40066893359E+02  0.45983621558E+02  0.77538026205E+02  0.00000000000E+00 0.  1.
         11    1    3    3    0    0 -0.22929518362E+02 -0.25099857564E+02  0.12554413295E+03  0.13006573330E+03  0.00000000000E+00 0. -1.
         21    1    1    2  502  501 -0.88006292298E+01 -0.22705067320E+02  0.72520595225E+01  0.25407942147E+02  0.00000000000E+00 0.  1.
<scales pt_clust_5="13000.00000" pt_clust_6="13000.00000" pt_clust_7="13000.00000" pt_clust_8="13000.00000" pt_clust_9="24.35100"></scales>
<clustering>
<clus scale="   24.351">  2  9  1 -1</clus>
<clus scale="   78.586">  5  6 -1 -1</clus>
<clus scale="   91.869">  7  8 -1 -1</clus>
<clus scale="  110.648">  1  5  2 -1</clus>
<clus scale="  110.648">  1  5  2 -1</clus>
</clustering>
</event>
<event>
 9    1  0.2333971E-005  0.9844166E+02  0.7546771E-02  0.1290090E+00
          1   -1    0    0  502    0  0.00000000000E+00  0.00000000000E+00  0.24160363138E+03  0.24160363138E+03  0.00000000000E+00 0. -1.
         -2   -1    0    0    0  501 -0.00000000000E+00 -0.00000000000E+00 -0.13650147850E+03  0.13650147850E+03  0.00000000000E+00 0.  1.
        -24    2    1    2    0    0 -0.45532081821E+02 -0.26200733707E+02 -0.97008792190E+02  0.13540916879E+03  0.78519349904E+02 0.  0.
         23    2    1    2    0    0  0.23904840458E+02  0.27679516921E+02  0.19758977862E+03  0.22055174738E+03  0.90905201167E+02 0.  0.
         13    1    3    3    0    0  0.13282769224E+02 -0.31980648359E+02 -0.27847689719E+02  0.44437457741E+02  0.00000000000E+00 0. -1.
        -14    1    3    3    0    0 -0.58814851045E+02  0.57799146528E+01 -0.69161102471E+02  0.90971711053E+02  0.00000000000E+00 0.  1.
        -13    1    4    4    0    0 -0.15179224062E+02  0.34051986545E+02  0.28611611407E+02  0.46995435290E+02  0.00000000000E+00 0.  1.
         13    1    4    4    0    0  0.39084064520E+02 -0.63724696239E+01  0.16897816722E+03  0.17355631209E+03  0.00000000000E+00 0. -1.
         21    1    1    2  502  501  0.21627241363E+02 -0.14787832146E+01  0.45211664460E+01  0.22144193704E+02  0.00000000000E+00 0. -1.
<scales pt_clust_5="13000.00000" pt_clust_6="13000.00000" pt_clust_7="13000.00000" pt_clust_8="13000.00000" pt_clust_9="21.67774"></scales>
<clustering>
<clus scale="   21.678">  2  9  1 -1</clus>
<clus scale="   78.519">  5  6 -1 -1</clus>
<clus scale="   87.134">  2  5  1 -1</clus>
<clus scale="   90.905">  7  8 -1 -1</clus>
<clus scale="   98.442">  1  5  2 -1</clus>
</clustering>
</event>
<event>
 9    1  0.2333971E-005  0.2979153E+03  0.7546771E-02  0.1110476E+00
         -2   -1    0    0    0  501 -0.00000000000E+00  0.00000000000E+00  0.10874278597E+03  0.10874278597E+03  0.00000000000E+00 0.  1.
          1   -1    0    0  502    0  0.00000000000E+00 -0.00000000000E+00 -0.17699007438E+04  0.17699007438E+04  0.00000000000E+00 0. -1.
         23    2    1    2    0    0  0.61647678314E+02  0.11442135583E+03 -0.14379330351E+03  0.21417892399E+03  0.91123073018E+02 0.  0.
        -24    2    1    2    0    0 -0.20879134138E+03 -0.24088520645E+03 -0.13987183865E+04  0.14370414320E+04  0.83996700524E+02 0.  0.
         11    1    4    4    0    0 -0.98692451011E+02 -0.63806147988E+02 -0.40635910342E+03  0.42301199196E+03  0.00000000000E+00 0. -1.
        -12    1    4    4    0    0 -0.11009889037E+03 -0.17707905847E+03 -0.99235928307E+03  0.10140294401E+04  0.00000000000E+00 0.  1.
        -13    1    3    3    0    0  0.45151621588E+00  0.57720233660E+02 -0.13199336867E+02  0.59211922231E+02  0.00000000000E+00 0.  1.
         13    1    3    3    0    0  0.61196162098E+02  0.56701122173E+02 -0.13059396664E+03  0.15496700176E+03  0.00000000000E+00 0. -1.
         21    1    1    2  502  501  0.14714366306E+03  0.12646385062E+03 -0.11864626784E+03  0.22742317376E+03  0.00000000000E+00 0.  1.
<scales pt_clust_5="13000.00000" pt_clust_6="13000.00000" pt_clust_7="13000.00000" pt_clust_8="13000.00000" pt_clust_9="285.82873"></scales>
<clustering>
<clus scale="   83.997">  5  6 -1 -1</clus>
<clus scale="   91.123">  7  8 -1 -1</clus>
<clus scale="  158.733">  1  7  2 -1</clus>
<clus scale="  285.829">  1  9  2 -1</clus>
<clus scale="  297.915">  2  5  1 -1</clus>
</clustering>
</event>
<event>
 9    1  0.2333971E-005  0.2228136E+03  0.7546771E-02  0.1162011E+00
          1   -1    0    0  502    0  0.00000000000E+00  0.00000000000E+00  0.77489032605E+03  0.77489032605E+03  0.00000000000E+00 0. -1.
         -2   -1    0    0    0  501 -0.00000000000E+00 -0.00000000000E+00 -0.10014496583E+03  0.10014496583E+03  0.00000000000E+00 0.  1.
         23    2    1    2    0    0  0.13327327779E+03  0.15469492543E+03  0.19401003045E+03  0.29618731302E+03  0.91622846252E+02 0.  0.
        -24    2    1    2    0    0  0.49407213113E+02 -0.53417905662E+02  0.21531609909E+03  0.24109575532E+03  0.80446226477E+02 0.  0.
         13    1    4    4    0    0  0.69381105196E+02 -0.52054476289E+02  0.18965811910E+03  0.20855121290E+03  0.00000000000E+00 0. -1.
        -14    1    4    4    0    0 -0.19973892083E+02 -0.13634293732E+01  0.25657979992E+02  0.32544542428E+02  0.00000000000E+00 0.  1.
        -13    1    3    3    0    0  0.85448667118E+02  0.91581193854E+02  0.17420769842E+03  0.21456214011E+03  0.00000000000E+00 0.  1.
         13    1    3    3    0    0  0.47824610668E+02  0.63113731578E+02  0.19802332027E+02  0.81625172913E+02  0.00000000000E+00 0. -1.
         21    1    1    2  502  501 -0.18268049090E+03 -0.10127701977E+03  0.26541923068E+03  0.33775222354E+03  0.00000000000E+00 0. -1.
<scales pt_clust_5="13000.00000" pt_clust_6="13000.00000" pt_clust_7="13000.00000" pt_clust_8="13000.00000" pt_clust_9="203.10384"></scales>
<clustering>
<clus scale="   80.446">  5  6 -1 -1</clus>
<clus scale="   91.623">  7  8 -1 -1</clus>
<clus scale="  108.472">  1  5  2 -1</clus>
<clus scale="  203.104">  1  9  2 -1</clus>
<clus scale="  108.472">  1  5  2 -1</clus>
</clustering>
</event>
<event>
 9    1  0.2333971E-005  0.1169569E+03  0.7546771E-02  0.1252724E+00
         -4   -1    0    0    0  501 -0.00000000000E+00  0.00000000000E+00  0.74523450019E+03  0.74523450019E+03  0.00000000000E+00 0.  1.
          3   -1    0    0  502    0  0.00000000000E+00 -0.00000000000E+00 -0.94018719205E+02  0.94018719205E+02  0.00000000000E+00 0. -1.
         23    2    1    2    0    0  0.77496461048E+02  0.34409844720E+02  0.53271102639E+03  0.54692001762E+03  0.90281388768E+02 0.  0.
        -24    2    1    2    0    0 -0.74136044155E+02  0.31553874595E+00 -0.51707449154E+02  0.11858240619E+03  0.76758544485E+02 0.  0.
         11    1    4    4    0    0 -0.45165585293E+02 -0.22582485500E+02 -0.62272868293E+02  0.80173617054E+02  0.00000000000E+00 0. -1.
        -12    1    4    4    0    0 -0.28970458863E+02  0.22898024246E+02  0.10565419138E+02  0.38408789133E+02  0.00000000000E+00 0.  1.
        -11    1    3    3    0    0  0.14978603628E+02  0.54692895253E+02  0.28842005837E+03  0.29394183341E+03  0.00000000000E+00 0.  1.
         11    1    3    3    0    0  0.62517857420E+02 -0.20283050533E+02  0.24429096802E+03  0.25297818422E+03  0.00000000000E+00 0. -1.
         21    1    1    2  502  501 -0.33604168929E+01 -0.34725383466E+02  0.17021220375E+03  0.17375079558E+03  0.00000000000E+00 0.  1.
<scales pt_clust_5="13000.00000" pt_clust_6="13000.00000" pt_clust_7="13000.00000" pt_clust_8="13000.00000" pt_clust_9="34.88760"></scales>
<clustering>
<clus scale="   34.888">  1  9  2 -1</clus>
<clus scale="   76.759">  5  6 -1 -1</clus>
<clus scale="   90.281">  7  8 -1 -1</clus>
<clus scale="  106.865">  2  5  1 -1</clus>
<clus scale="  106.865">  2  5  1 -1</clus>
</clustering>
</event>
<event>
 9    1  0.2475595E-005  0.1467685E+03  0.7546771E-02  0.1206871E+00
         -2   -1    0    0    0  501 -0.00000000000E+00  0.00000000000E+00  0.21440695559E+03  0.21440695559E+03  0.00000000000E+00 0.  1.
          1   -1    0    0  502    0  0.00000000000E+00 -0.00000000000E+00 -0.52692970491E+03  0.52692970491E+03  0.00000000000E+00 0. -1.
         23    2    1    2    0    0  0.45029292102E+02 -0.31239790504E+02  0.16127464696E+03  0.19369076234E+03  0.92211919006E+02 0.  0.
        -24    2    1    2    0    0 -0.10523526405E+03  0.52971424600E+02 -0.46081657836E+03  0.48233491430E+03  0.80091310646E+02 0.  0.
         11    1    4    4    0    0 -0.68745047793E+02  0.72629514205E+02 -0.29834224370E+03  0.31465699151E+03  0.00000000000E+00 0. -1.
        -12    1    4    4    0    0 -0.36490216258E+02 -0.19658089605E+02 -0.16247433466E+03  0.16767792279E+03  0.00000000000E+00 0.  1.
        -13    1    3    3    0    0  0.22033958080E+02 -0.47302948723E+02  0.15683874853E+03  0.16529203643E+03  0.00000000000E+00 0.  1.
         13    1    3    3    0    0  0.22995334022E+02  0.16063158218E+02  0.44358984323E+01  0.28398725915E+02  0.00000000000E+00 0. -1.
         21    1    1    2  502  501  0.60205971949E+02 -0.21731634096E+02 -0.12980817913E+02  0.65310983858E+02  0.00000000000E+00 0.  1.
<scales pt_clust_5="13000.00000" pt_clust_6="13000.00000" pt_clust_7="13000.00000" pt_clust_8="13000.00000" pt_clust_9="64.00799"></scales>
<clustering>
<clus scale="   64.008">  1  9  2 -1</clus>
<clus scale="   80.091">  5  6 -1 -1</clus>
<clus scale="   92.212">  7  8 -1 -1</clus>
<clus scale="  139.473">  2  5  1 -1</clus>
<clus scale="  139.473">  2  5  1 -1</clus>
</clustering>
</event>
<event>
 9    1  0.2333971E-005  0.1292166E+03  0.7546771E-02  0.1233035E+00
         -2   -1    0    0    0  501 -0.00000000000E+00  0.00000000000E+00  0.48726233836E+02  0.48726233836E+02  0.00000000000E+00 0.  1.
          1   -1    0    0  502    0  0.00000000000E+00 -0.00000000000E+00 -0.50286911075E+03  0.50286911075E+03  0.00000000000E+00 0. -1.
         23    2    1    2    0    0 -0.29455124241E+02  0.78673444910E+02 -0.19793039257E+03  0.23373643527E+03  0.91646961739E+02 0.  0.
        -24    2    1    2    0    0  0.61239242188E+02 -0.39351090647E+02 -0.22319412314E+03  0.25747108044E+03  0.10572127289E+03 0.  0.
         11    1    4    4    0    0  0.66830467507E+02  0.36010071524E+01 -0.64415623273E+02  0.92890533218E+02  0.00000000000E+00 0. -1.
        -12    1    4    4    0    0 -0.55912253194E+01 -0.42952097800E+02 -0.15877849986E+03  0.16458054722E+03  0.00000000000E+00 0.  1.
        -13    1    3    3    0    0 -0.37930375062E+02 -0.46981588851E+01 -0.42527260403E+02  0.57178264460E+02  0.00000000000E+00 0.  1.
         13    1    3    3    0    0  0.84752508206E+01  0.83371603795E+02 -0.15540313216E+03  0.17655817082E+03  0.00000000000E+00 0. -1.
         21    1    1    2  502  501 -0.31784117947E+02 -0.39322354262E+02 -0.33018361214E+02  0.60387828870E+02  0.00000000000E+00 0.  1.
<scales pt_clust_5="13000.00000" pt_clust_6="13000.00000" pt_clust_7="13000.00000" pt_clust_8="13000.00000" pt_clust_9="50.56162"></scales>
<clustering>
<clus scale="   50.562">  1  9  2 -1</clus>
<clus scale="   91.647">  7  8 -1 -1</clus>
<clus scale="  105.721">  5  6 -1 -1</clus>
<clus scale="  117.979">  1  7  2 -1</clus>
<clus scale="  129.217">  2  5  1 -1</clus>
</clustering>
</event>
<event>
 9    1  0.2333971E-005  0.1339461E+03  0.7546771E-02  0.1226336E+00
         -2   -1    0    0    0  501 -0.00000000000E+00  0.00000000000E+00  0.90414711693E+02  0.90414711693E+02  0.00000000000E+00 0.  1.
          1   -1    0    0  502    0  0.00000000000E+00 -0.00000000000E+00 -0.37356346545E+03  0.37356346545E+03  0.00000000000E+00 0. -1.
         23    2    1    2    0    0 -0.66032712265E+02  0.15707833397E+02  0.32960744288E+01  0.12324653126E+03  0.10281920172E+03 0.  0.
        -24    2    1    2    0    0  0.88664323883E+02 -0.12217891591E+02 -0.29185549990E+03  0.31720198574E+03  0.86179044619E+02 0.  0.
         13    1    4    4    0    0  0.42776018032E+02  0.80358728571E+01 -0.24408301785E+03  0.24793322200E+03  0.00000000000E+00 0. -1.
        -14    1    4    4    0    0  0.45888305852E+02 -0.20253764448E+02 -0.47772482051E+02  0.69268763736E+02  0.00000000000E+00 0.  1.
        -11    1    3    3    0    0  0.31068375880E+01  0.40068531611E+02  0.24334034632E+02  0.46981750784E+02  0.00000000000E+00 0.  1.
         11    1    3    3    0    0 -0.69139549853E+02 -0.24360698215E+02 -0.21037960203E+02  0.76264780474E+02  0.00000000000E+00 0. -1.
         21    1    1    2  502  501 -0.22631611619E+02 -0.34899418054E+01  0.54106717098E+01  0.23529660147E+02  0.00000000000E+00 0.  1.
<scales pt_clust_5="13000.00000" pt_clust_6="13000.00000" pt_clust_7="13000.00000" pt_clust_8="13000.00000" pt_clust_9="22.89912"></scales>
<clustering>
<clus scale="   22.899">  1  9  2 -1</clus>
<clus scale="   86.179">  5  6 -1 -1</clus>
<clus scale="  102.819">  7  8 -1 -1</clus>
<clus scale="  121.641">  2  5  1 -1</clus>
<clus scale="  121.641">  2  5  1 -1</clus>
</clustering>
</event>
<event>
 9    1  0.2333971E-005  0.1400350E+03  0.7546771E-02  0.1215392E+00
          1   -1    0    0  502    0  0.00000000000E+00  0.00000000000E+00  0.19885535195E+03  0.19885535195E+03  0.00000000000E+00 0. -1.
         -2   -1    0    0    0  501 -0.00000000000E+00 -0.00000000000E+00 -0.15309760237E+03  0.15309760237E+03  0.00000000000E+00 0.  1.
        -24    2    1    2    0    0  0.79785313682E+02  0.76793150243E+02 -0.73011067565E+02  0.15569482137E+03  0.81531449216E+02 0.  0.
         23    2    1    2    0    0 -0.55081711678E+02 -0.73624633056E+02  0.10971484087E+03  0.16975753033E+03  0.91245225855E+02 0.  0.
         11    1    3    3    0    0  0.63405334354E+02  0.48570349832E+01 -0.30227005820E+02  0.70409509970E+02  0.00000000000E+00 0. -1.
        -12    1    3    3    0    0  0.16379979328E+02  0.71936115259E+02 -0.42784061745E+02  0.85285311401E+02  0.00000000000E+00 0.  1.
        -13    1    4    4    0    0 -0.72142554224E+02 -0.50903624273E+02  0.45042660122E+02  0.99118960472E+02  0.00000000000E+00 0.  1.
         13    1    4    4    0    0  0.17060842546E+02 -0.22721008784E+02  0.64672180746E+02  0.70638569854E+02  0.00000000000E+00 0. -1.
         21    1    1    2  502  501 -0.24703602004E+02 -0.31685171863E+01  0.90539762814E+01  0.26500602627E+02  0.00000000000E+00 0.  1.
<scales pt_clust_5="13000.00000" pt_clust_6="13000.00000" pt_clust_7="13000.00000" pt_clust_8="13000.00000" pt_clust_9="24.90597"></scales>
<clustering>
<clus scale="   24.906">  1  9  2 -1</clus>
<clus scale="   81.531">  5  6 -1 -1</clus>
<clus scale="   91.245">  7  8 -1 -1</clus>
<clus scale="  133.909">  2  5  1 -1</clus>
<clus scale="   24.906">  1  5  2 -1</clus>
</clustering>
</event>
<event>
 9    1  0.2333971E-005  0.1277005E+03  0.7546771E-02  0.1233149E+00
          3   -1    0    0  502    0  0.00000000000E+00  0.00000000000E+00  0.45035465978E+02  0.45035465978E+02  0.00000000000E+00 0. -1.
         -4   -1    0    0    0  501 -0.00000000000E+00 -0.00000000000E+00 -0.84320969705E+03  0.84320969705E+03  0.00000000000E+00 0.  1.
         23    2    1    2    0    0 -0.67819409952E+02 -0.13487799176E+03 -0.31409032342E+03  0.35989349495E+03  0.89883543603E+02 0.  0.
        -24    2    1    2    0    0  0.49521379028E+02  0.37690825078E+02 -0.16475871715E+03  0.19406325878E+03  0.81499375797E+02 0.  0.
         11    1    4    4    0    0  0.52200971540E+02 -0.51253970352E+01 -0.53973590673E+02  0.75261940014E+02  0.00000000000E+00 0. -1.
        -12    1    4    4    0    0 -0.26795925116E+01  0.42816222113E+02 -0.11078512648E+03  0.11880131877E+03  0.00000000000E+00 0.  1.
        -13    1    3    3    0    0 -0.14859845205E+02 -0.11169620711E+03 -0.24595122841E+03  0.27053440527E+03  0.00000000000E+00 0. -1.
         13    1    3    3    0    0 -0.52959564747E+02 -0.23181784651E+02 -0.68139095017E+02  0.89359089675E+02  0.00000000000E+00 0.  1.
         21    1    1    2  502  501  0.18298030924E+02  0.97187166685E+02 -0.31932519050E+03  0.33428840930E+03  0.00000000000E+00 0.  1.
<scales pt_clust_5="13000.00000" pt_clust_6="13000.00000" pt_clust_7="13000.00000" pt_clust_8="13000.00000" pt_clust_9="98.89471"></scales>
<clustering>
<clus scale="   81.499">  5  6 -1 -1</clus>
<clus scale="   89.884">  7  8 -1 -1</clus>
<clus scale="   98.895">  2  9  1 -1</clus>
<clus scale="  121.945">  1  5  2 -1</clus>
<clus scale="  121.945">  1  5  2 -1</clus>
</clustering>
</event>
<event>
 9    1  0.2333971E-005  0.1242131E+03  0.7546771E-02  0.1251587E+00
          1   -1    0    0  502    0  0.00000000000E+00  0.00000000000E+00  0.60372383376E+03  0.60372383376E+03  0.00000000000E+00 0. -1.
         -2   -1    0    0    0  501 -0.00000000000E+00 -0.00000000000E+00 -0.85385861349E+02  0.85385861349E+02  0.00000000000E+00 0.  1.
        -24    2    1    2    0    0 -0.74239975833E+02  0.46177789419E+02 -0.14556333190E+01  0.11773777892E+03  0.78842269556E+02 0.  0.
         23    2    1    2    0    0 -0.24272349689E+02  0.33175669230E+02  0.33658715209E+03  0.34873711583E+03  0.81467128421E+02 0.  0.
         11    1    3    3    0    0 -0.55025357003E+02  0.57961386900E+02  0.24279590298E+02  0.83527305653E+02  0.00000000000E+00 0. -1.
        -12    1    3    3    0    0 -0.19214618830E+02 -0.11783597481E+02 -0.25735223617E+02  0.34210473264E+02  0.00000000000E+00 0.  1.
        -11    1    4    4    0    0 -0.30907330144E+02 -0.19971327953E+02  0.16159953947E+03  0.16573632116E+03  0.00000000000E+00 0.  1.
         11    1    4    4    0    0  0.66349804545E+01  0.53146997182E+02  0.17498761263E+03  0.18300079466E+03  0.00000000000E+00 0. -1.
         21    1    1    2  502  501  0.98512325522E+02 -0.79353458649E+02  0.18320645364E+03  0.22263480037E+03  0.00000000000E+00 0. -1.
<scales pt_clust_5="13000.00000" pt_clust_6="13000.00000" pt_clust_7="13000.00000" pt_clust_8="13000.00000" pt_clust_9="95.98326"></scales>
<clustering>
<clus scale="   78.842">  5  6 -1 -1</clus>
<clus scale="   81.467">  7  8 -1 -1</clus>
<clus scale="   91.251">  1  7  2 -1</clus>
<clus scale="   95.983">  1  9  2 -1</clus>
<clus scale="   91.251">  1  5  2 -1</clus>
</clustering>
</event>
<event>
 9    1  0.2333971E-005  0.1079068E+03  0.7546771E-02  0.1269163E+00
         -2   -1    0    0    0  501 -0.00000000000E+00  0.00000000000E+00  0.46903156086E+02  0.46903156086E+02  0.00000000000E+00 0.  1.
          1   -1    0    0  502    0  0.00000000000E+00 -0.00000000000E+00 -0.59540592597E+03  0.59540592597E+03  0.00000000000E+00 0. -1.
        -24    2    1    2    0    0  0.82909268552E+02  0.53213146307E+02 -0.17471855988E+03  0.21582769038E+03  0.79683317053E+02 0.  0.
         23    2    1    2    0    0 -0.47103091369E+02  0.53437691344E+01 -0.32874565192E+03  0.34438713862E+03  0.91002969770E+02 0.  0.
         13    1    3    3    0    0  0.22238301876E+02  0.22166012126E+02 -0.13133858348E+03  0.13503961520E+03  0.00000000000E+00 0. -1.
        -14    1    3    3    0    0  0.60670966676E+02  0.31047134182E+02 -0.43379976400E+02  0.80788075177E+02  0.00000000000E+00 0.  1.
        -11    1    4    4    0    0 -0.55666221629E+02  0.34527888680E+02 -0.15944719126E+03  0.17237839229E+03  0.00000000000E+00 0.  1.
         11    1    4    4    0    0  0.85631302606E+01 -0.29184119545E+02 -0.16929846066E+03  0.17200874633E+03  0.00000000000E+00 0. -1.
         21    1    1    2  502  501 -0.35806177184E+02 -0.58556915442E+02 -0.45038558092E+02  0.82094253061E+02  0.00000000000E+00 0. -1.
<scales pt_clust_5="13000.00000" pt_clust_6="13000.00000" pt_clust_7="13000.00000" pt_clust_8="13000.00000" pt_clust_9="68.63669"></scales>
<clustering>
<clus scale="   68.637">  1  9  2 -1</clus>
<clus scale="   79.683">  5  6 -1 -1</clus>
<clus scale="   91.003">  7  8 -1 -1</clus>
<clus scale="   98.548">  1  5  2 -1</clus>
<clus scale="  107.907">  2  5  1 -1</clus>
</clustering>
</event>
<event>
 9    1  0.2333971E-005  0.1542406E+03  0.7546771E-02  0.1197139E+00
         -2   -1    0    0    0  501 -0.00000000000E+00  0.00000000000E+00  0.69485201550E+02  0.69485201550E+02  0.00000000000E+00 0.  1.
          1   -1    0    0  502    0  0.00000000000E+00 -0.00000000000E+00 -0.41816544879E+03  0.41816544879E+03  0.00000000000E+00 0. -1.
         23    2    1    2    0    0  0.13561553577E+03  0.18136499808E+02 -0.16756580150E+03  0.23412210426E+03  0.89522933960E+02 0.  0.
        -24    2    1    2    0    0 -0.11751028494E+03  0.96028652189E+01 -0.16172818427E+03  0.21514756623E+03  0.78940405262E+02 0.  0.
         13    1    4    4    0    0 -0.88675543712E+02 -0.29345180253E+02 -0.10834039506E+03  0.14304591172E+03  0.00000000000E+00 0. -1.
        -14    1    4    4    0    0 -0.28834741224E+02  0.38948045472E+02 -0.53387789204E+02  0.72101654514E+02  0.00000000000E+00 0.  1.
        -11    1    3    3    0    0  0.97169040250E+02 -0.23520323712E+02 -0.13735720779E+03  0.16988828842E+03  0.00000000000E+00 0. -1.
         11    1    3    3    0    0  0.38446495522E+02  0.41656823520E+02 -0.30208593704E+02  0.64233815840E+02  0.00000000000E+00 0.  1.
         21    1    1    2  502  501 -0.18105250836E+02 -0.27739365027E+02 -0.19386261479E+02  0.38380979848E+02  0.00000000000E+00 0. -1.
<scales pt_clust_5="13000.00000" pt_clust_6="13000.00000" pt_clust_7="13000.00000" pt_clust_8="13000.00000" pt_clust_9="33.12510"></scales>
<clustering>
<clus scale="   33.125">  1  9  2 -1</clus>
<clus scale="   78.940">  5  6 -1 -1</clus>
<clus scale="   89.523">  7  8 -1 -1</clus>
<clus scale="  148.349">  2  5  1 -1</clus>
<clus scale="  148.349">  2  5  1 -1</clus>
</clustering>
</event>
<event>
 9    1  0.2333971E-005  0.9869842E+02  0.7546771E-02  0.1287929E+00
         -2   -1    0    0    0  501 -0.00000000000E+00  0.00000000000E+00  0.86184440674E+02  0.86184440674E+02  0.00000000000E+00 0.  1.
          1   -1    0    0  502    0  0.00000000000E+00 -0.00000000000E+00 -0.20165211005E+03  0.20165211005E+03  0.00000000000E+00 0. -1.
         23    2    1    2    0    0 -0.20635747334E+02  0.48696551813E+02 -0.11163017959E+02  0.10678735935E+03  0.92096356719E+02 0.  0.
        -24    2    1    2    0    0  0.34851304534E+02 -0.57996080073E+01 -0.10169967773E+03  0.13578313629E+03  0.82740478429E+02 0.  0.
         11    1    4    4    0    0  0.43540947668E+02  0.29238616556E+02 -0.71762552632E+02  0.88885177517E+02  0.00000000000E+00 0. -1.
        -12    1    4    4    0    0 -0.86896431338E+01 -0.35038224563E+02 -0.29937125097E+02  0.46897958776E+02  0.00000000000E+00 0.  1.
        -11    1    3    3    0    0  0.36854698590E+02  0.17952992018E+02 -0.51223163897E+01  0.41313640069E+02  0.00000000000E+00 0. -1.
         11    1    3    3    0    0 -0.57490445923E+02  0.30743559795E+02 -0.60407015695E+01  0.65473719283E+02  0.00000000000E+00 0.  1.
         21    1    1    2  502  501 -0.14215557201E+02 -0.42896943806E+02 -0.26049736864E+01  0.45266055078E+02  0.00000000000E+00 0.  1.
<scales pt_clust_5="13000.00000" pt_clust_6="13000.00000" pt_clust_7="13000.00000" pt_clust_8="13000.00000" pt_clust_9="45.19104"></scales>
<clustering>
<clus scale="   45.191">  1  9  2 -1</clus>
<clus scale="   82.740">  5  6 -1 -1</clus>
<clus scale="   90.031">  2  5  1 -1</clus>
<clus scale="   92.096">  7  8 -1 -1</clus>
<clus scale="   90.031">  2  5  1 -1</clus>
</clustering>
</event>
<event>
 9    1  0.2333971E-005  0.1004272E+03  0.7546771E-02  0.1283734E+00
          1   -1    0    0  502    0  0.00000000000E+00  0.00000000000E+00  0.79289756024E+02  0.79289756024E+02  0.00000000000E+00 0. -1.
         -2   -1    0    0    0  501 -0.00000000000E+00 -0.00000000000E+00 -0.35933664595E+03  0.35933664595E+03  0.00000000000E+00 0.  1.
        -24    2    1    2    0    0 -0.32977290816E+02 -0.15764404704E+02 -0.13734228558E+03  0.16335248766E+03  0.80530203351E+02 0.  0.
         23    2    1    2    0    0  0.48796956236E+02 -0.27149683857E+01  0.25647537411E+02  0.10517337734E+03  0.89527253587E+02 0.  0.
         11    1    3    3    0    0 -0.38275793854E+02 -0.29911247143E+02 -0.34928995200E+02  0.59831043836E+02  0.00000000000E+00 0. -1.
        -12    1    3    3    0    0  0.52985030379E+01  0.14146842439E+02 -0.10241329038E+03  0.10352144383E+03  0.00000000000E+00 0.  1.
        -13    1    4    4    0    0  0.62389783791E+02  0.27882144033E+02  0.14255181478E+02  0.69807659152E+02  0.00000000000E+00 0.  1.
         13    1    4    4    0    0 -0.13592827554E+02 -0.30597112419E+02  0.11392355933E+02  0.35365718189E+02  0.00000000000E+00 0. -1.
         21    1    1    2  502  501 -0.15819665420E+02  0.18479373090E+02 -0.16835214176E+03  0.17010053697E+03  0.00000000000E+00 0. -1.
<scales pt_clust_5="13000.00000" pt_clust_6="13000.00000" pt_clust_7="13000.00000" pt_clust_8="13000.00000" pt_clust_9="24.32589"></scales>
<clustering>
<clus scale="   24.326">  2  9  1 -1</clus>
<clus scale="   80.530">  5  6 -1 -1</clus>
<clus scale="   89.527">  7  8 -1 -1</clus>
<clus scale="   92.497">  2  5  1 -1</clus>
<clus scale="  100.427">  1  5  2 -1</clus>
</clustering>
</event>
<event>
 9    1  0.2333971E-005  0.2868796E+03  0.7546771E-02  0.1132815E+00
         -2   -1    0    0    0  501 -0.00000000000E+00  0.00000000000E+00  0.16548120942E+03  0.16548120942E+03  0.00000000000E+00 0.  1.
          1   -1    0    0  502    0  0.00000000000E+00 -0.00000000000E+00 -0.80895134426E+03  0.80895134426E+03  0.00000000000E+00 0. -1.
         23    2    1    2    0    0  0.28383378959E+02 -0.33771143582E+02  0.11439427039E+02  0.10248047107E+03  0.91789324646E+02 0.  0.
        -24    2    1    2    0    0 -0.24940998005E+03  0.15210042244E+03 -0.47434502795E+03  0.56298909528E+03  0.81324284305E+02 0.  0.
         13    1    4    4    0    0 -0.24850548151E+03  0.14053146423E+03 -0.42284552119E+03  0.51019839433E+03  0.00000000000E+00 0. -1.
        -14    1    4    4    0    0 -0.90449853484E+00  0.11568958208E+02 -0.51499506757E+02  0.52790700960E+02  0.00000000000E+00 0.  1.
        -13    1    3    3    0    0  0.59446693807E+02 -0.37396373721E+02  0.11736382048E+02  0.71204921428E+02  0.00000000000E+00 0.  1.
         13    1    3    3    0    0 -0.31063314847E+02  0.36252301387E+01 -0.29695500862E+00  0.31275549638E+02  0.00000000000E+00 0. -1.
         21    1    1    2  502  501  0.22102660109E+03 -0.11832927886E+03 -0.18056453393E+03  0.30896298733E+03  0.00000000000E+00 0.  1.
<scales pt_clust_5="13000.00000" pt_clust_6="13000.00000" pt_clust_7="13000.00000" pt_clust_8="13000.00000" pt_clust_9="275.11138"></scales>
<clustering>
<clus scale="   81.324">  5  6 -1 -1</clus>
<clus scale="   91.789">  7  8 -1 -1</clus>
<clus scale="  101.840">  1  7  2 -1</clus>
<clus scale="  275.111">  1  9  2 -1</clus>
<clus scale="  286.880">  2  5  1 -1</clus>
</clustering>
</event>
<event>
 9    1  0.2333971E-005  0.1295508E+03  0.7546771E-02  0.1230190E+00
         -2   -1    0    0    0  501 -0.00000000000E+00  0.00000000000E+00  0.46733617309E+03  0.46733617309E+03  0.00000000000E+00 0.  1.
          1   -1    0    0  502    0  0.00000000000E+00 -0.00000000000E+00 -0.23630454257E+03  0.23630454257E+03  0.00000000000E+00 0. -1.
         23    2    1    2    0    0  0.40961835611E+02  0.58993458573E+02  0.11611336091E+03  0.16374452142E+03  0.90398316259E+02 0.  0.
        -24    2    1    2    0    0 -0.81833463054E+02 -0.50922328412E+02 -0.19202879629E+03  0.23013477906E+03  0.82444882939E+02 0.  0.
         13    1    4    4    0    0 -0.59319768156E+01 -0.39236737999E+02 -0.11376031206E+03  0.12048285587E+03  0.00000000000E+00 0. -1.
        -14    1    4    4    0    0 -0.75901486238E+02 -0.11685590413E+02 -0.78268484226E+02  0.10965192319E+03  0.00000000000E+00 0.  1.
        -11    1    3    3    0    0  0.15440352280E+02  0.30831613760E+02  0.12063911700E+03  0.12547027312E+03  0.00000000000E+00 0.  1.
         11    1    3    3    0    0  0.25521483331E+02  0.28161844813E+02 -0.45257560938E+01  0.38274248300E+02  0.00000000000E+00 0. -1.
         21    1    1    2  502  501  0.40871627443E+02 -0.80711301611E+01  0.30694706590E+03  0.30976141519E+03  0.00000000000E+00 0.  1.
<scales pt_clust_5="13000.00000" pt_clust_6="13000.00000" pt_clust_7="13000.00000" pt_clust_8="13000.00000" pt_clust_9="41.66093"></scales>
<clustering>
<clus scale="   41.661">  1  9  2 -1</clus>
<clus scale="   82.445">  5  6 -1 -1</clus>
<clus scale="   90.398">  7  8 -1 -1</clus>
<clus scale="  124.132">  2  5  1 -1</clus>
<clus scale="  124.132">  2  5  1 -1</clus>
</clustering>
</event>
<event>
 9    1  0.2333971E-005  0.1015368E+03  0.7546771E-02  0.1283716E+00
         -4   -1    0    0    0  501 -0.00000000000E+00  0.00000000000E+00  0.10323568729E+03  0.10323568729E+03  0.00000000000E+00 0.  1.
          3   -1    0    0  502    0  0.00000000000E+00 -0.00000000000E+00 -0.25933411200E+03  0.25933411200E+03  0.00000000000E+00 0. -1.
        -24    2    1    2    0    0 -0.44600951778E+01  0.86612477140E+01  0.42807590202E+02  0.90631148800E+02  0.79288118233E+02 0.  0.
         23    2    1    2    0    0 -0.67460353562E+01 -0.47351263060E+02 -0.20614985071E+03  0.23101227994E+03  0.92635098261E+02 0.  0.
         11    1    3    3    0    0 -0.30339632443E+02  0.30351101578E+02  0.11137542723E+02  0.44336525818E+02  0.00000000000E+00 0. -1.
        -12    1    3    3    0    0  0.25879537265E+02 -0.21689853864E+02  0.31670047479E+02  0.46294622981E+02  0.00000000000E+00 0.  1.
        -11    1    4    4    0    0 -0.34063130895E+02 -0.62552819651E+02 -0.12236459748E+03  0.14158476913E+03  0.00000000000E+00 0.  1.
         11    1    4    4    0    0  0.27317095539E+02  0.15201556591E+02 -0.83785253229E+02  0.89427510812E+02  0.00000000000E+00 0. -1.
         21    1    1    2  502  501  0.11206130534E+02  0.38690015346E+02  0.72438357995E+01  0.40926370546E+02  0.00000000000E+00 0. -1.
<scales pt_clust_5="13000.00000" pt_clust_6="13000.00000" pt_clust_7="13000.00000" pt_clust_8="13000.00000" pt_clust_9="40.28020"></scales>
<clustering>
<clus scale="   40.280">  1  9  2 -1</clus>
<clus scale="   79.288">  5  6 -1 -1</clus>
<clus scale="   89.527">  1  5  2 -1</clus>
<clus scale="   92.635">  7  8 -1 -1</clus>
<clus scale="  101.537">  2  5  1 -1</clus>
</clustering>
</event>
<event>
 9    1  0.2333971E-005  0.1718855E+03  0.7546771E-02  0.1200763E+00
          1   -1    0    0  502    0  0.00000000000E+00  0.00000000000E+00  0.10756511310E+04  0.10756511310E+04  0.00000000000E+00 0. -1.
         -2   -1    0    0    0  501 -0.00000000000E+00 -0.00000000000E+00 -0.64290782113E+02  0.64290782113E+02  0.00000000000E+00 0.  1.
         23    2    1    2    0    0 -0.46587498405E+01 -0.27966098180E+02  0.36062128572E+02  0.10542284595E+03  0.94919401254E+02 0.  0.
        -24    2    1    2    0    0 -0.14795500735E+03 -0.69300013216E+01  0.67313757920E+03  0.69421075154E+03  0.82919587005E+02 0.  0.
         11    1    4    4    0    0 -0.59624899771E+02 -0.43459830562E+02  0.31644060822E+03  0.32492852149E+03  0.00000000000E+00 0. -1.
        -12    1    4    4    0    0 -0.88330107575E+02  0.36529829240E+02  0.35669697098E+03  0.36928223006E+03  0.00000000000E+00 0.  1.
        -11    1    3    3    0    0 -0.32184253442E+02 -0.18072887224E+01 -0.19834164498E+02  0.37848203967E+02  0.00000000000E+00 0. -1.
         11    1    3    3    0    0  0.27525503601E+02 -0.26158809458E+02  0.55896293070E+02  0.67574641987E+02  0.00000000000E+00 0.  1.
         21    1    1    2  502  501  0.15261375719E+03  0.34896099502E+02  0.30216064116E+03  0.34030831567E+03  0.00000000000E+00 0.  1.
<scales pt_clust_5="13000.00000" pt_clust_6="13000.00000" pt_clust_7="13000.00000" pt_clust_8="13000.00000" pt_clust_9="150.56217"></scales>
<clustering>
<clus scale="   82.920">  5  6 -1 -1</clus>
<clus scale="   94.919">  7  8 -1 -1</clus>
<clus scale="   99.063">  2  7  1 -1</clus>
<clus scale="  150.562">  2  9  1 -1</clus>
<clus scale="  171.886">  1  5  2 -1</clus>
</clustering>
</event>
<event>
 9    1  0.2333971E-005  0.1082871E+03  0.7546771E-02  0.1267675E+00
          3   -1    0    0  502    0  0.00000000000E+00  0.00000000000E+00  0.23713759084E+03  0.23713759084E+03  0.00000000000E+00 0. -1.
         -4   -1    0    0    0  501 -0.00000000000E+00 -0.00000000000E+00 -0.36487396857E+03  0.36487396857E+03  0.00000000000E+00 0.  1.
        -24    2    1    2    0    0 -0.69644973352E+02 -0.37105114601E+02 -0.19411905874E+03  0.22419613581E+03  0.79715033119E+02 0.  0.
         23    2    1    2    0    0  0.41573568217E+02  0.43384793150E+02  0.20748528760E+03  0.23381061905E+03  0.89479937181E+02 0.  0.
         13    1    3    3    0    0 -0.37220979833E+02 -0.61078103287E+02 -0.11587395889E+03  0.13617162109E+03  0.00000000000E+00 0. -1.
        -14    1    3    3    0    0 -0.32423993519E+02  0.23972988686E+02 -0.78245099850E+02  0.88024514726E+02  0.00000000000E+00 0.  1.
        -11    1    4    4    0    0 -0.21337466715E+02  0.25075164930E+02  0.12045293210E+03  0.12487177517E+03  0.00000000000E+00 0.  1.
         11    1    4    4    0    0  0.62911034933E+02  0.18309628220E+02  0.87032355498E+02  0.10893884388E+03  0.00000000000E+00 0. -1.
         21    1    1    2  502  501  0.28071405135E+02 -0.62796785493E+01 -0.14110260659E+03  0.14400480455E+03  0.00000000000E+00 0. -1.
<scales pt_clust_5="13000.00000" pt_clust_6="13000.00000" pt_clust_7="13000.00000" pt_clust_8="13000.00000" pt_clust_9="28.76522"></scales>
<clustering>
<clus scale="   28.765">  2  9  1 -1</clus>
<clus scale="   79.715">  5  6 -1 -1</clus>
<clus scale="   89.480">  7  8 -1 -1</clus>
<clus scale="  100.369">  2  5  1 -1</clus>
<clus scale="  108.287">  1  5  2 -1</clus>
</clustering>
</event>
<event>
 9    1  0.2333971E-005  0.2564700E+03  0.7546771E-02  0.1110301E+00
          1   -1    0    0  502    0  0.00000000000E+00  0.00000000000E+00  0.35313623832E+03  0.35313623832E+03  0.00000000000E+00 0. -1.
         -2   -1    0    0    0  501 -0.00000000000E+00 -0.00000000000E+00 -0.60926783051E+03  0.60926783051E+03  0.00000000000E+00 0.  1.
         23    2    1    2    0    0  0.34601899901E+01  0.17279043639E+03 -0.37040591658E+03  0.41826622961E+03  0.88755777144E+02 0.  0.
        -24    2    1    2    0    0  0.41699996257E+02 -0.24657058625E+03  0.26486979464E+03  0.37046588237E+03  0.67476056471E+02 0.  0.
         13    1    4    4    0    0  0.49124838381E+02 -0.20989103234E+03  0.25024097738E+03  0.33028478918E+03  0.00000000000E+00 0. -1.
        -14    1    4    4    0    0 -0.74248421239E+01 -0.36679553914E+02  0.14628817259E+02  0.40181093195E+02  0.00000000000E+00 0.  1.
        -13    1    3    3    0    0  0.94448144436E+01  0.12302380790E+03 -0.33471511834E+03  0.35673277432E+03  0.00000000000E+00 0.  1.
         13    1    3    3    0    0 -0.59846244535E+01  0.49766628490E+02 -0.35690798236E+02  0.61533455289E+02  0.00000000000E+00 0. -1.
         21    1    1    2  502  501 -0.45160186247E+02  0.73780149868E+02 -0.15059547025E+03  0.17367195685E+03  0.00000000000E+00 0.  1.
<scales pt_clust_5="13000.00000" pt_clust_6="13000.00000" pt_clust_7="13000.00000" pt_clust_8="13000.00000" pt_clust_9="86.50406"></scales>
<clustering>
<clus scale="   67.476">  5  6 -1 -1</clus>
<clus scale="   86.504">  2  9  1 -1</clus>
<clus scale="   88.756">  7  8 -1 -1</clus>
<clus scale="  249.905">  1  5  2 -1</clus>
<clus scale="  249.905">  1  5  2 -1</clus>
</clustering>
</event>
<event>
 9    1  0.2333971E-005  0.1037061E+03  0.7546771E-02  0.1277160E+00
          1   -1    0    0  502    0  0.00000000000E+00  0.00000000000E+00  0.15078204689E+03  0.15078204689E+03  0.00000000000E+00 0. -1.
         -2   -1    0    0    0  501 -0.00000000000E+00 -0.00000000000E+00 -0.17250854925E+03  0.17250854925E+03  0.00000000000E+00 0.  1.
        -24    2    1    2    0    0  0.17232919477E+01  0.28679365868E+02 -0.67118328456E+02  0.10891242878E+03  0.80818137606E+02 0.  0.
         23    2    1    2    0    0 -0.32503608733E+02 -0.46682906416E+02  0.10174010775E+03  0.14769470450E+03  0.90702248482E+02 0.  0.
         11    1    3    3    0    0  0.36317557741E+02 -0.70591208101E+00 -0.46640564984E+02  0.59116880958E+02  0.00000000000E+00 0. -1.
        -12    1    3    3    0    0 -0.34594265794E+02  0.29385277949E+02 -0.20477763472E+02  0.49795547821E+02  0.00000000000E+00 0.  1.
        -11    1    4    4    0    0  0.27074656403E+02 -0.28349761154E+02  0.17577897232E+02  0.42961941854E+02  0.00000000000E+00 0.  1.
         11    1    4    4    0    0 -0.59578265135E+02 -0.18333145262E+02  0.84162210519E+02  0.10473276264E+03  0.00000000000E+00 0. -1.
         21    1    1    2  502  501  0.30780316785E+02  0.18003540547E+02 -0.56348281655E+02  0.66683462861E+02  0.00000000000E+00 0.  1.
<scales pt_clust_5="13000.00000" pt_clust_6="13000.00000" pt_clust_7="13000.00000" pt_clust_8="13000.00000" pt_clust_9="35.65888"></scales>
<clustering>
<clus scale="   35.659">  2  9  1 -1</clus>
<clus scale="   80.818">  5  6 -1 -1</clus>
<clus scale="   90.702">  7  8 -1 -1</clus>
<clus scale="   95.182">  2  5  1 -1</clus>
<clus scale="  103.706">  1  5  2 -1</clus>
</clustering>
</event>
<event>
 9    1  0.2333971E-005  0.9902878E+02  0.7546771E-02  0.1286283E+00
         -2   -1    0    0    0  501 -0.00000000000E+00  0.00000000000E+00  0.79501283438E+02  0.79501283438E+02  0.00000000000E+00 0.  1.
          1   -1    0    0  502    0  0.00000000000E+00 -0.00000000000E+00 -0.18652591816E+03  0.18652591816E+03  0.00000000000E+00 0. -1.
         23    2    1    2    0    0 -0.49974561624E+02 -0.31864241583E+02 -0.12598150124E+02  0.10732290319E+03  0.88581631629E+02 0.  0.
        -24    2    1    2    0    0  0.33048233906E+02  0.20674777926E+02 -0.10318997678E+03  0.13660218398E+03  0.80575139804E+02 0.  0.
         13    1    4    4    0    0  0.16137567136E+02  0.24105499238E+02 -0.11306099539E+03  0.11672311188E+03  0.00000000000E+00 0. -1.
        -14    1    4    4    0    0  0.16910666770E+02 -0.34307213122E+01  0.98710186141E+01  0.19879072106E+02  0.00000000000E+00 0.  1.
        -11    1    3    3    0    0 -0.29688163993E+02 -0.52463367653E+02 -0.35925392667E+02  0.70174253576E+02  0.00000000000E+00 0. -1.
         11    1    3    3    0    0 -0.20286397631E+02  0.20599126069E+02  0.23327242543E+02  0.37148649616E+02  0.00000000000E+00 0.  1.
         21    1    1    2  502  501  0.16926327717E+02  0.11189463657E+02  0.87634921779E+01  0.22102114426E+02  0.00000000000E+00 0. -1.
<scales pt_clust_5="13000.00000" pt_clust_6="13000.00000" pt_clust_7="13000.00000" pt_clust_8="13000.00000" pt_clust_9="20.29051"></scales>
<clustering>
<clus scale="   20.291">  1  9  2 -1</clus>
<clus scale="   80.575">  5  6 -1 -1</clus>
<clus scale="   88.582">  7  8 -1 -1</clus>
<clus scale="   91.937">  2  5  1 -1</clus>
<clus scale="   91.937">  2  5  1 -1</clus>
</clustering>
</event>
<event>
 9    1  0.2333971E-005  0.1518222E+03  0.7546771E-02  0.1200366E+00
         -2   -1    0    0    0  501 -0.00000000000E+00  0.00000000000E+00  0.23850774153E+03  0.23850774153E+03  0.00000000000E+00 0.  1.
          1   -1    0    0  502    0  0.00000000000E+00 -0.00000000000E+00 -0.25031017327E+03  0.25031017327E+03  0.00000000000E+00 0. -1.
        -24    2    1    2    0    0 -0.30840638799E+00 -0.13228654714E+03  0.16427291595E+02  0.15526209422E+03  0.79602991922E+02 0.  0.
         23    2    1    2    0    0 -0.10344752183E+03  0.83493321197E+02 -0.10775182134E+03  0.19402146778E+03  0.91440420504E+02 0.  0.
         13    1    3    3    0    0  0.65610490427E+00 -0.98605713988E+02 -0.25131553087E+02  0.10176007206E+03  0.00000000000E+00 0. -1.
        -14    1    3    3    0    0 -0.96451129226E+00 -0.33680833152E+02  0.41558844682E+02  0.53502022159E+02  0.00000000000E+00 0.  1.
        -13    1    4    4    0    0  0.14310866265E+02  0.16669532311E+02 -0.17015077184E+01  0.22035637709E+02  0.00000000000E+00 0.  1.
         13    1    4    4    0    0 -0.11775838809E+03  0.66823788886E+02 -0.10605031362E+03  0.17198583008E+03  0.00000000000E+00 0. -1.
         21    1    1    2  502  501  0.10375592822E+03  0.48793225943E+02  0.79522098012E+02  0.13953435280E+03  0.00000000000E+00 0.  1.
<scales pt_clust_5="13000.00000" pt_clust_6="13000.00000" pt_clust_7="13000.00000" pt_clust_8="13000.00000" pt_clust_9="114.65632"></scales>
<clustering>
<clus scale="   79.603">  5  6 -1 -1</clus>
<clus scale="   91.440">  7  8 -1 -1</clus>
<clus scale="  114.656">  1  9  2 -1</clus>
<clus scale="  145.001">  1  5  2 -1</clus>
<clus scale="  151.822">  2  5  1 -1</clus>
</clustering>
</event>
<event>
 9    1  0.2333971E-005  0.1038121E+03  0.7546771E-02  0.1281356E+00
         -2   -1    0    0    0  501 -0.00000000000E+00  0.00000000000E+00  0.53301942335E+02  0.53301942335E+02  0.00000000000E+00 0.  1.
          1   -1    0    0  502    0  0.00000000000E+00 -0.00000000000E+00 -0.42226091104E+03  0.42226091104E+03  0.00000000000E+00 0. -1.
        -24    2    1    2    0    0  0.12119727145E+02  0.16763043361E+02 -0.41455517630E+02  0.92294733322E+02  0.79823996694E+02 0.  0.
         23    2    1    2    0    0 -0.18637283545E+02 -0.36492465946E+02 -0.34199807603E+03  0.35793389795E+03  0.97339318310E+02 0.  0.
         11    1    3    3    0    0  0.37710061975E+02 -0.14237691710E+02 -0.30741039830E+02  0.50692920307E+02  0.00000000000E+00 0. -1.
        -12    1    3    3    0    0 -0.25590334830E+02  0.31000735071E+02 -0.10714477800E+02  0.41601813015E+02  0.00000000000E+00 0.  1.
        -13    1    4    4    0    0 -0.23347285400E+02  0.26643228083E+02 -0.67522478175E+02  0.76251179644E+02  0.00000000000E+00 0.  1.
         13    1    4    4    0    0  0.47100018546E+01 -0.63135694029E+02 -0.27447559785E+03  0.28168271831E+03  0.00000000000E+00 0. -1.
         21    1    1    2  502  501  0.65175563996E+01  0.19729422585E+02  0.14494624951E+02  0.25334222100E+02  0.00000000000E+00 0.  1.
<scales pt_clust_5="13000.00000" pt_clust_6="13000.00000" pt_clust_7="13000.00000" pt_clust_8="13000.00000" pt_clust_9="20.77808"></scales>
<clustering>
<clus scale="   20.778">  1  9  2 -1</clus>
<clus scale="   79.824">  5  6 -1 -1</clus>
<clus scale="   87.601">  1  5  2 -1</clus>
<clus scale="   97.339">  7  8 -1 -1</clus>
<clus scale="  103.812">  2  5  1 -1</clus>
</clustering>
</event>
<event>
 9    1  0.2333971E-005  0.9374262E+02  0.7546771E-02  0.1296775E+00
          1   -1    0    0  502    0  0.00000000000E+00  0.00000000000E+00  0.29578679319E+03  0.29578679319E+03  0.00000000000E+00 0. -1.
         -2   -1    0    0    0  501 -0.00000000000E+00 -0.00000000000E+00 -0.38435308516E+02  0.38435308516E+02  0.00000000000E+00 0.  1.
        -24    2    1    2    0    0 -0.17003979078E+02 -0.15725747015E+02  0.63114045885E+02  0.10573378017E+03  0.81607689939E+02 0.  0.
         23    2    1    2    0    0  0.23829075765E+02  0.36554840928E+02  0.17052647422E+03  0.19619833952E+03  0.86662730011E+02 0.  0.
         11    1    3    3    0    0  0.74089534355E+01 -0.45588833884E+02  0.32221341431E+02  0.56315621363E+02  0.00000000000E+00 0. -1.
        -12    1    3    3    0    0 -0.24412932514E+02  0.29863086869E+02  0.30892704455E+02  0.49418158806E+02  0.00000000000E+00 0.  1.
        -11    1    4    4    0    0 -0.28780663107E+02 -0.55111061150E+01  0.59768742170E+02  0.66565767479E+02  0.00000000000E+00 0.  1.
         11    1    4    4    0    0  0.52609738872E+02  0.42065947043E+02  0.11075773205E+03  0.12963257204E+03  0.00000000000E+00 0. -1.
         21    1    1    2  502  501 -0.68250966871E+01 -0.20829093913E+02  0.23710964569E+02  0.32289982020E+02  0.00000000000E+00 0. -1.
<scales pt_clust_5="13000.00000" pt_clust_6="13000.00000" pt_clust_7="13000.00000" pt_clust_8="13000.00000" pt_clust_9="21.91878"></scales>
<clustering>
<clus scale="   21.919">  2  9  1 -1</clus>
<clus scale="   81.608">  5  6 -1 -1</clus>
<clus scale="   86.663">  7  8 -1 -1</clus>
<clus scale="   89.090">  2  5  1 -1</clus>
<clus scale="   93.743">  1  5  2 -1</clus>
</clustering>
</event>
<event>
 9    1  0.2333971E-005  0.9435862E+02  0.7546771E-02  0.1298633E+00
         -4   -1    0    0    0  501 -0.00000000000E+00  0.00000000000E+00  0.23755390693E+03  0.23755390693E+03  0.00000000000E+00 0.  1.
          3   -1    0    0  502    0  0.00000000000E+00 -0.00000000000E+00 -0.66584851302E+02  0.66584851302E+02  0.00000000000E+00 0. -1.
        -24    2    1    2    0    0  0.26742981770E+02 -0.34970133044E+02  0.59488610179E+02  0.10875281766E+03  0.79688037550E+02 0.  0.
         23    2    1    2    0    0  0.22749746738E+01  0.20648261579E+02  0.15142499698E+02  0.93758397112E+02  0.90165489606E+02 0.  0.
         11    1    3    3    0    0 -0.18598482434E+02 -0.36899856764E+02  0.11916813851E+02  0.43005969707E+02  0.00000000000E+00 0. -1.
        -12    1    3    3    0    0  0.45341464204E+02  0.19297237199E+01  0.47571796328E+02  0.65746847952E+02  0.00000000000E+00 0.  1.
        -11    1    4    4    0    0 -0.23990387064E+02  0.31126789175E+02  0.40023842271E+02  0.56092099497E+02  0.00000000000E+00 0. -1.
         11    1    4    4    0    0  0.26265361737E+02 -0.10478527597E+02 -0.24881342573E+02  0.37666297615E+02  0.00000000000E+00 0.  1.
         21    1    1    2  502  501 -0.29017956444E+02  0.14321871465E+02  0.96337945755E+02  0.10162754347E+03  0.00000000000E+00 0. -1.
<scales pt_clust_5="13000.00000" pt_clust_6="13000.00000" pt_clust_7="13000.00000" pt_clust_8="13000.00000" pt_clust_9="32.35982"></scales>
<clustering>
<clus scale="   32.360">  1  9  2 -1</clus>
<clus scale="   79.688">  5  6 -1 -1</clus>
<clus scale="   84.403">  1  5  2 -1</clus>
<clus scale="   90.165">  7  8 -1 -1</clus>
<clus scale="   94.359">  2  5  1 -1</clus>
</clustering>
</event>
<event>
 9    1  0.2333971E-005  0.1198780E+03  0.7546771E-02  0.1261938E+00
         -2   -1    0    0    0  501 -0.00000000000E+00  0.00000000000E+00  0.18680903516E+03  0.18680903516E+03  0.00000000000E+00 0.  1.
          1   -1    0    0  502    0  0.00000000000E+00 -0.00000000000E+00 -0.30591532385E+03  0.30591532385E+03  0.00000000000E+00 0. -1.
         23    2    1    2    0    0  0.16166139115E+01 -0.62180854786E+02  0.11713234403E+02  0.13488732098E+03  0.11911472351E+03 0.  0.
        -24    2    1    2    0    0  0.24667977466E+00  0.87972241542E+01 -0.23053371081E+03  0.24471673432E+03  0.81627423288E+02 0.  0.
         13    1    4    4    0    0 -0.30276318853E+02  0.31768154047E+02 -0.12555659142E+03  0.13300499519E+03  0.00000000000E+00 0. -1.
        -14    1    4    4    0    0  0.30522998628E+02 -0.22970929893E+02 -0.10497711938E+03  0.11171173913E+03  0.00000000000E+00 0.  1.
        -11    1    3    3    0    0 -0.49628595680E+02 -0.66442721070E+02  0.84730263433E+01  0.83363210517E+02  0.00000000000E+00 0.  1.
         11    1    3    3    0    0  0.51245209591E+02  0.42618662845E+01  0.32402080600E+01  0.51524110459E+02  0.00000000000E+00 0. -1.
         21    1    1    2  502  501 -0.18632936862E+01  0.53383630632E+02  0.99714187707E+02  0.11312030372E+03  0.00000000000E+00 0.  1.
<scales pt_clust_5="13000.00000" pt_clust_6="13000.00000" pt_clust_7="13000.00000" pt_clust_8="13000.00000" pt_clust_9="53.41614"></scales>
<clustering>
<clus scale="   53.416">  1  9  2 -1</clus>
<clus scale="   81.627">  5  6 -1 -1</clus>
<clus scale="   82.737">  2  5  1 -1</clus>
<clus scale="  119.115">  7  8 -1 -1</clus>
<clus scale="   82.737">  2  5  1 -1</clus>
</clustering>
</event>
<event>
 9    1  0.2333971E-005  0.9589822E+02  0.7546771E-02  0.1294203E+00
         -2   -1    0    0    0  501 -0.00000000000E+00  0.00000000000E+00  0.25005315246E+03  0.25005315246E+03  0.00000000000E+00 0.  1.
          1   -1    0    0  502    0  0.00000000000E+00 -0.00000000000E+00 -0.98742022592E+02  0.98742022592E+02  0.00000000000E+00 0. -1.
         23    2    1    2    0    0 -0.35951197343E+02 -0.38619182651E+02  0.14765441452E+03  0.18058846555E+03  0.89590389571E+02 0.  0.
        -24    2    1    2    0    0  0.16752201475E+02  0.26903193194E+02 -0.57041713311E+02  0.10347522495E+03  0.80305336446E+02 0.  0.
         13    1    4    4    0    0  0.87171534837E+01  0.38254954149E+02 -0.72651095435E+02  0.82568831587E+02  0.00000000000E+00 0. -1.
        -14    1    4    4    0    0  0.80350479914E+01 -0.11351760954E+02  0.15609382123E+02  0.20906393359E+02  0.00000000000E+00 0.  1.
        -11    1    3    3    0    0  0.24663942799E+00 -0.49037263730E+02  0.13009332735E+03  0.13902873043E+03  0.00000000000E+00 0.  1.
         11    1    3    3    0    0 -0.36197836771E+02  0.10418081079E+02  0.17561087168E+02  0.41559735115E+02  0.00000000000E+00 0. -1.
         21    1    1    2  502  501  0.19198995868E+02  0.11715989456E+02  0.60698428668E+02  0.64731484566E+02  0.00000000000E+00 0.  1.
<scales pt_clust_5="13000.00000" pt_clust_6="13000.00000" pt_clust_7="13000.00000" pt_clust_8="13000.00000" pt_clust_9="22.49146"></scales>
<clustering>
<clus scale="   22.491">  1  9  2 -1</clus>
<clus scale="   80.305">  5  6 -1 -1</clus>
<clus scale="   87.287">  2  5  1 -1</clus>
<clus scale="   89.590">  7  8 -1 -1</clus>
<clus scale="   87.287">  2  5  1 -1</clus>
</clustering>
</event>
<event>
 9    1  0.2333971E-005  0.8908279E+02  0.7546771E-02  0.1314874E+00
         -2   -1    0    0    0  501 -0.00000000000E+00  0.00000000000E+00  0.27120939906E+02  0.27120939906E+02  0.00000000000E+00 0.  1.
          1   -1    0    0  502    0  0.00000000000E+00 -0.00000000000E+00 -0.49496211188E+03  0.49496211188E+03  0.00000000000E+00 0. -1.
        -24    2    1    2    0    0  0.58149475594E+01  0.76361721125E+01 -0.61443801264E+02  0.95238010311E+02  0.72130528589E+02 0.  0.
         23    2    1    2    0    0 -0.18156263081E+02  0.17655058467E+02 -0.36941129855E+03  0.38037005953E+03  0.87036335584E+02 0.  0.
         11    1    3    3    0    0 -0.81416654306E+01 -0.24272054691E+02 -0.53801921682E+02  0.59582431400E+02  0.00000000000E+00 0. -1.
        -12    1    3    3    0    0  0.13956612990E+02  0.31908226804E+02 -0.76418795822E+01  0.35655578911E+02  0.00000000000E+00 0.  1.
        -13    1    4    4    0    0  0.95446325216E+01  0.45893425158E+02 -0.14180152588E+03  0.14934851598E+03  0.00000000000E+00 0. -1.
         13    1    4    4    0    0 -0.27700895603E+02 -0.28238366691E+02 -0.22760977267E+03  0.23102154355E+03  0.00000000000E+00 0.  1.
         21    1    1    2  502  501  0.12341315522E+02 -0.25291230580E+02 -0.36986072159E+02  0.46474981945E+02  0.00000000000E+00 0. -1.
<scales pt_clust_5="13000.00000" pt_clust_6="13000.00000" pt_clust_7="13000.00000" pt_clust_8="13000.00000" pt_clust_9="28.14168"></scales>
<clustering>
<clus scale="   28.142">  1  9  2 -1</clus>
<clus scale="   72.131">  5  6 -1 -1</clus>
<clus scale="   74.587">  1  5  2 -1</clus>
<clus scale="   87.036">  7  8 -1 -1</clus>
<clus scale="   89.083">  2  5  1 -1</clus>
</clustering>
</event>
<event>
 9    1  0.2333971E-005  0.1038267E+03  0.7546771E-02  0.1278108E+00
          1   -1    0    0  502    0  0.00000000000E+00  0.00000000000E+00  0.58594632317E+03  0.58594632317E+03  0.00000000000E+00 0. -1.
         -2   -1    0    0    0  501 -0.00000000000E+00 -0.00000000000E+00 -0.27955026031E+02  0.27955026031E+02  0.00000000000E+00 0.  1.
         23    2    1    2    0    0  0.20589900849E+02  0.49905356898E+02  0.11320680679E+03  0.15529207835E+03  0.91571610392E+02 0.  0.
        -24    2    1    2    0    0 -0.23701682270E+01 -0.38321817078E+02  0.31669121620E+03  0.32870921722E+03  0.79260606269E+02 0.  0.
         13    1    4    4    0    0 -0.37276784248E+02 -0.22175285652E+02  0.22720679245E+03  0.23130981059E+03  0.00000000000E+00 0. -1.
        -14    1    4    4    0    0  0.34906616021E+02 -0.16146531426E+02  0.89484423750E+02  0.97399406636E+02  0.00000000000E+00 0.  1.
        -13    1    3    3    0    0  0.44400199149E+02  0.50420636623E+02  0.39729765424E+02  0.78051729914E+02  0.00000000000E+00 0.  1.
         13    1    3    3    0    0 -0.23810298300E+02 -0.51527972523E+00  0.73477041363E+02  0.77240348431E+02  0.00000000000E+00 0. -1.
         21    1    1    2  502  501 -0.18219732622E+02 -0.11583539819E+02  0.12809327415E+03  0.12990005363E+03  0.00000000000E+00 0. -1.
<scales pt_clust_5="13000.00000" pt_clust_6="13000.00000" pt_clust_7="13000.00000" pt_clust_8="13000.00000" pt_clust_9="21.59021"></scales>
<clustering>
<clus scale="   21.590">  1  9  2 -1</clus>
<clus scale="   79.261">  5  6 -1 -1</clus>
<clus scale="   91.572">  7  8 -1 -1</clus>
<clus scale="   93.150">  1  5  2 -1</clus>
<clus scale="   21.590">  1  5  2 -1</clus>
</clustering>
</event>
<event>
 9    1  0.2333971E-005  0.1211485E+03  0.7546771E-02  0.1245210E+00
          1   -1    0    0  502    0  0.00000000000E+00  0.00000000000E+00  0.26432701724E+03  0.26432701724E+03  0.00000000000E+00 0. -1.
         -2   -1    0    0    0  501 -0.00000000000E+00 -0.00000000000E+00 -0.80770842307E+02  0.80770842307E+02  0.00000000000E+00 0.  1.
         23    2    1    2    0    0  0.64305505052E+02  0.22088678703E+02  0.25542080273E+02  0.11690573000E+03  0.91604825942E+02 0.  0.
        -24    2    1    2    0    0 -0.83255793985E+02 -0.11562454702E+02  0.16850169948E+03  0.20411091909E+03  0.78760567369E+02 0.  0.
         13    1    4    4    0    0 -0.53723567977E+02  0.24226926276E+02  0.13368984380E+03  0.14610318288E+03  0.00000000000E+00 0. -1.
        -14    1    4    4    0    0 -0.29532226008E+02 -0.35789380978E+02  0.34811855681E+02  0.58007736206E+02  0.00000000000E+00 0.  1.
        -11    1    3    3    0    0  0.57474353275E+02  0.55295626869E+02  0.22493973582E+02  0.82866678965E+02  0.00000000000E+00 0. -1.
         11    1    3    3    0    0  0.68311517767E+01 -0.33206948166E+02  0.30481066914E+01  0.34039051037E+02  0.00000000000E+00 0.  1.
         21    1    1    2  502  501  0.18950288933E+02 -0.10526224001E+02 -0.10487604819E+02  0.24081210460E+02  0.00000000000E+00 0.  1.
<scales pt_clust_5="13000.00000" pt_clust_6="13000.00000" pt_clust_7="13000.00000" pt_clust_8="13000.00000" pt_clust_9="21.67752"></scales>
<clustering>
<clus scale="   21.678">  2  9  1 -1</clus>
<clus scale="   78.761">  5  6 -1 -1</clus>
<clus scale="   91.605">  7  8 -1 -1</clus>
<clus scale="  111.753">  1  5  2 -1</clus>
<clus scale="  111.753">  1  5  2 -1</clus>
</clustering>
</event>
<event>
 9    1  0.2333971E-005  0.1270260E+03  0.7546771E-02  0.1253808E+00
         -2   -1    0    0    0  501 -0.00000000000E+00  0.00000000000E+00  0.74472114710E+02  0.74472114710E+02  0.00000000000E+00 0.  1.
          1   -1    0    0  502    0  0.00000000000E+00 -0.00000000000E+00 -0.40575133308E+03  0.40575133308E+03  0.00000000000E+00 0. -1.
        -24    2    1    2    0    0 -0.19410770119E+02 -0.60666307394E+01 -0.29842854104E+02  0.86918884189E+02  0.79061460159E+02 0.  0.
         23    2    1    2    0    0  0.24049244279E+02  0.87949133825E+02 -0.28019730319E+03  0.30858527731E+03  0.91656578420E+02 0.  0.
         13    1    3    3    0    0  0.20649000545E+02  0.23735920648E+02 -0.82803256029E+01  0.32532121735E+02  0.00000000000E+00 0. -1.
        -14    1    3    3    0    0 -0.40059770664E+02 -0.29802551388E+02 -0.21562528501E+02  0.54386762454E+02  0.00000000000E+00 0.  1.
        -11    1    4    4    0    0  0.29323409590E+02  0.58175239592E+02 -0.26829219326E+03  0.27608861225E+03  0.00000000000E+00 0. -1.
         11    1    4    4    0    0 -0.52741653110E+01  0.29773894233E+02 -0.11905109930E+02  0.32496665059E+02  0.00000000000E+00 0.  1.
         21    1    1    2  502  501 -0.46384741600E+01 -0.81882503086E+02 -0.21239061079E+02  0.84719286291E+02  0.00000000000E+00 0.  1.
<scales pt_clust_5="13000.00000" pt_clust_6="13000.00000" pt_clust_7="13000.00000" pt_clust_8="13000.00000" pt_clust_9="87.94694"></scales>
<clustering>
<clus scale="   79.061">  5  6 -1 -1</clus>
<clus scale="   81.635">  1  5  2 -1</clus>
<clus scale="   87.947">  1  9  2 -1</clus>
<clus scale="   91.657">  7  8 -1 -1</clus>
<clus scale="  127.026">  2  5  1 -1</clus>
</clustering>
</event>
<event>
 9    1  0.2333971E-005  0.9539105E+02  0.7546771E-02  0.1296886E+00
          1   -1    0    0  502    0  0.00000000000E+00  0.00000000000E+00  0.63770397732E+02  0.63770397732E+02  0.00000000000E+00 0. -1.
         -2   -1    0    0    0  501 -0.00000000000E+00 -0.00000000000E+00 -0.38422848581E+03  0.38422848581E+03  0.00000000000E+00 0.  1.
        -24    2    1    2    0    0  0.30870614217E+02  0.84986834299E+01 -0.19126040532E+03  0.20975338269E+03  0.79941956855E+02 0.  0.
         23    2    1    2    0    0  0.85227927785E+01 -0.31244536072E+02  0.43610031037E+01  0.97152847262E+02  0.91492067153E+02 0.  0.
         13    1    3    3    0    0 -0.22412335206E+02  0.78218056136E+01 -0.11033279068E+03  0.11285751243E+03  0.00000000000E+00 0. -1.
        -14    1    3    3    0    0  0.53282949423E+02  0.67687781634E+00 -0.80927614636E+02  0.96895870260E+02  0.00000000000E+00 0.  1.
        -13    1    4    4    0    0  0.26458547753E+01 -0.51977287627E+02  0.32764907551E+02  0.61499415797E+02  0.00000000000E+00 0. -1.
         13    1    4    4    0    0  0.58769380031E+01  0.20732751555E+02 -0.28403904448E+02  0.35653431465E+02  0.00000000000E+00 0.  1.
         21    1    1    2  502  501 -0.39393406996E+02  0.22745852642E+02 -0.13355868587E+03  0.14109265359E+03  0.00000000000E+00 0. -1.
<scales pt_clust_5="13000.00000" pt_clust_6="13000.00000" pt_clust_7="13000.00000" pt_clust_8="13000.00000" pt_clust_9="45.48862"></scales>
<clustering>
<clus scale="   45.489">  2  9  1 -1</clus>
<clus scale="   79.942">  5  6 -1 -1</clus>
<clus scale="   84.376">  2  5  1 -1</clus>
<clus scale="   91.492">  7  8 -1 -1</clus>
<clus scale="   95.391">  1  5  2 -1</clus>
</clustering>
</event>
<event>
 9    1  0.2333971E-005  0.2291711E+03  0.7546771E-02  0.1128059E+00
          1   -1    0    0  502    0  0.00000000000E+00  0.00000000000E+00  0.33547562216E+03  0.33547562216E+03  0.00000000000E+00 0. -1.
         -2   -1    0    0    0  501 -0.00000000000E+00 -0.00000000000E+00 -0.37967371537E+03  0.37967371537E+03  0.00000000000E+00 0.  1.
         23    2    1    2    0    0  0.20260293793E+02 -0.25115657368E+03 -0.16795292169E+03  0.31661217177E+03  0.92439057765E+02 0.  0.
        -24    2    1    2    0    0  0.20680170099E+02  0.20103847493E+03  0.20215285679E+03  0.29687991689E+03  0.80173372821E+02 0.  0.
         11    1    4    4    0    0 -0.26972326323E+02  0.10180202008E+03  0.11907095495E+03  0.15896241692E+03  0.00000000000E+00 0. -1.
        -12    1    4    4    0    0  0.47652496422E+02  0.99236454848E+02  0.83081901836E+02  0.13791749997E+03  0.00000000000E+00 0.  1.
        -11    1    3    3    0    0  0.18482800109E+02 -0.15902213544E+03 -0.15627779752E+03  0.22372394476E+03  0.00000000000E+00 0.  1.
         11    1    3    3    0    0  0.17774936843E+01 -0.92134438235E+02 -0.11675124174E+02  0.92888227011E+02  0.00000000000E+00 0. -1.
         21    1    1    2  502  501 -0.40940463892E+02  0.50118098749E+02 -0.78398028309E+02  0.10165724887E+03  0.00000000000E+00 0. -1.
<scales pt_clust_5="13000.00000" pt_clust_6="13000.00000" pt_clust_7="13000.00000" pt_clust_8="13000.00000" pt_clust_9="64.71434"></scales>
<clustering>
<clus scale="   64.714">  2  9  1 -1</clus>
<clus scale="   80.173">  5  6 -1 -1</clus>
<clus scale="   92.439">  7  8 -1 -1</clus>
<clus scale="  224.504">  1  5  2 -1</clus>
<clus scale="  224.504">  1  5  2 -1</clus>
</clustering>
</event>
<event>
 9    1  0.2333971E-005  0.1117305E+03  0.7546771E-02  0.1261696E+00
          1   -1    0    0  502    0  0.00000000000E+00  0.00000000000E+00  0.39901898077E+03  0.39901898077E+03  0.00000000000E+00 0. -1.
         -2   -1    0    0    0  501 -0.00000000000E+00 -0.00000000000E+00 -0.11014848669E+03  0.11014848669E+03  0.00000000000E+00 0.  1.
        -24    2    1    2    0    0 -0.61021879087E+02 -0.46669584650E+02  0.26279723635E+02  0.11364992363E+03  0.79523338759E+02 0.  0.
         23    2    1    2    0    0  0.39812837873E+02  0.48509475524E+02  0.31774291467E+03  0.33639929251E+03  0.90915856183E+02 0.  0.
         13    1    3    3    0    0 -0.27417399893E+02 -0.57883818595E+02  0.40163776915E+02  0.75600127302E+02  0.00000000000E+00 0. -1.
        -14    1    3    3    0    0 -0.33604479194E+02  0.11214233945E+02 -0.13884053280E+02  0.38049796325E+02  0.00000000000E+00 0.  1.
        -13    1    4    4    0    0 -0.26152573505E+02  0.43778383890E+01  0.43897099809E+02  0.51284285522E+02  0.00000000000E+00 0.  1.
         13    1    4    4    0    0  0.65965411379E+02  0.44131637135E+02  0.27384581486E+03  0.28511500699E+03  0.00000000000E+00 0. -1.
         21    1    1    2  502  501  0.21209041214E+02 -0.18398908746E+01 -0.55152144222E+02  0.59118251327E+02  0.00000000000E+00 0.  1.
<scales pt_clust_5="13000.00000" pt_clust_6="13000.00000" pt_clust_7="13000.00000" pt_clust_8="13000.00000" pt_clust_9="21.28870"></scales>
<clustering>
<clus scale="   21.289">  2  9  1 -1</clus>
<clus scale="   79.523">  5  6 -1 -1</clus>
<clus scale="   90.916">  7  8 -1 -1</clus>
<clus scale="  102.674">  2  5  1 -1</clus>
<clus scale="  111.730">  1  5  2 -1</clus>
</clustering>
</event>
<event>
 9    1  0.2333971E-005  0.2222313E+03  0.7546771E-02  0.1132910E+00
         -2   -1    0    0    0  501 -0.00000000000E+00  0.00000000000E+00  0.48698698671E+03  0.48698698671E+03  0.00000000000E+00 0.  1.
          1   -1    0    0  502    0  0.00000000000E+00 -0.00000000000E+00 -0.13204963653E+03  0.13204963653E+03  0.00000000000E+00 0. -1.
        -24    2    1    2    0    0 -0.17439691180E+03 -0.13172877160E+03  0.24421804521E+03  0.33775544722E+03  0.81667229749E+02 0.  0.
         23    2    1    2    0    0  0.16612576803E+03  0.10258752104E+03  0.62443942791E+02  0.22428876515E+03  0.91017766963E+02 0.  0.
         13    1    3    3    0    0 -0.16248632485E+03 -0.10701541713E+03  0.24159418831E+03  0.31019648143E+03  0.00000000000E+00 0. -1.
        -14    1    3    3    0    0 -0.11910586947E+02 -0.24713354470E+02  0.26238568934E+01  0.27558965793E+02  0.00000000000E+00 0.  1.
        -13    1    4    4    0    0  0.11911459657E+03  0.10243512594E+03  0.77159410873E+02  0.17502804584E+03  0.00000000000E+00 0.  1.
         13    1    4    4    0    0  0.47011171461E+02  0.15239510125E+00 -0.14715468082E+02  0.49260719313E+02  0.00000000000E+00 0. -1.
         21    1    1    2  502  501  0.82711437642E+01  0.29141250553E+02  0.48275362181E+02  0.56992410869E+02  0.00000000000E+00 0.  1.
<scales pt_clust_5="13000.00000" pt_clust_6="13000.00000" pt_clust_7="13000.00000" pt_clust_8="13000.00000" pt_clust_9="30.29231"></scales>
<clustering>
<clus scale="   30.292">  1  9  2 -1</clus>
<clus scale="   81.667">  5  6 -1 -1</clus>
<clus scale="   91.018">  7  8 -1 -1</clus>
<clus scale="  218.568">  1  5  2 -1</clus>
<clus scale="  222.231">  2  5  1 -1</clus>
</clustering>
</event>
<event>
 9    1  0.2333971E-005  0.1071127E+03  0.7546771E-02  0.1271966E+00
         -2   -1    0    0    0  501 -0.00000000000E+00  0.00000000000E+00  0.15435495013E+03  0.15435495013E+03  0.00000000000E+00 0.  1.
          1   -1    0    0  502    0  0.00000000000E+00 -0.00000000000E+00 -0.18411189444E+03  0.18411189444E+03  0.00000000000E+00 0. -1.
        -24    2    1    2    0    0 -0.23399065629E+01 -0.32890920997E+02  0.40442360120E+02  0.96020513945E+02  0.80604384245E+02 0.  0.
         23    2    1    2    0    0  0.37442088035E+02  0.44449485088E+02 -0.13089701300E+03  0.17138315188E+03  0.94130176118E+02 0.  0.
         13    1    3    3    0    0 -0.37651693294E+02 -0.32381871360E+01  0.55502881450E+01  0.38196093548E+02  0.00000000000E+00 0. -1.
        -14    1    3    3    0    0  0.35311786731E+02 -0.29652733861E+02  0.34892071975E+02  0.57824420397E+02  0.00000000000E+00 0.  1.
        -13    1    4    4    0    0 -0.29579869328E+02  0.20595053832E+02 -0.65444836752E+02  0.74713797717E+02  0.00000000000E+00 0. -1.
         13    1    4    4    0    0  0.67021957363E+02  0.23854431256E+02 -0.65452176249E+02  0.96669354166E+02  0.00000000000E+00 0.  1.
         21    1    1    2  502  501 -0.35102181472E+02 -0.11558564091E+02  0.60697708571E+02  0.71063178747E+02  0.00000000000E+00 0. -1.
<scales pt_clust_5="13000.00000" pt_clust_6="13000.00000" pt_clust_7="13000.00000" pt_clust_8="13000.00000" pt_clust_9="36.95624"></scales>
<clustering>
<clus scale="   36.956">  1  9  2 -1</clus>
<clus scale="   80.604">  5  6 -1 -1</clus>
<clus scale="   94.130">  7  8 -1 -1</clus>
<clus scale="   95.445">  1  5  2 -1</clus>
<clus scale="  107.113">  2  5  1 -1</clus>
</clustering>
</event>
<event>
 9    1  0.2333971E-005  0.1410243E+03  0.7546771E-02  0.1216017E+00
         -2   -1    0    0    0  501 -0.00000000000E+00  0.00000000000E+00  0.27261986136E+02  0.27261986136E+02  0.00000000000E+00 0.  1.
          1   -1    0    0  502    0  0.00000000000E+00 -0.00000000000E+00 -0.83685394628E+03  0.83685394628E+03  0.00000000000E+00 0. -1.
         23    2    1    2    0    0  0.10813806923E+03 -0.28593290144E+00 -0.38835048224E+03  0.41490726713E+03  0.98173415379E+02 0.  0.
        -24    2    1    2    0    0 -0.93809344529E+02 -0.25466558981E+02 -0.35194009543E+03  0.37390139603E+03  0.80570990038E+02 0.  0.
         11    1    4    4    0    0 -0.43857910871E+02 -0.50125452127E+02 -0.23687960504E+03  0.24606508200E+03  0.00000000000E+00 0. -1.
        -12    1    4    4    0    0 -0.49951433658E+02  0.24658893146E+02 -0.11506049039E+03  0.12783631403E+03  0.00000000000E+00 0.  1.
        -11    1    3    3    0    0  0.55380989437E+02  0.47348337525E+02 -0.23166426336E+03  0.24285232133E+03  0.00000000000E+00 0. -1.
         11    1    3    3    0    0  0.52757079795E+02 -0.47634270426E+02 -0.15668621888E+03  0.17205494580E+03  0.00000000000E+00 0.  1.
         21    1    1    2  502  501 -0.14328724703E+02  0.25752491882E+02 -0.69301382474E+02  0.75307269254E+02  0.00000000000E+00 0. -1.
<scales pt_clust_5="13000.00000" pt_clust_6="13000.00000" pt_clust_7="13000.00000" pt_clust_8="13000.00000" pt_clust_9="29.47038"></scales>
<clustering>
<clus scale="   29.470">  1  9  2 -1</clus>
<clus scale="   80.571">  5  6 -1 -1</clus>
<clus scale="   98.173">  7  8 -1 -1</clus>
<clus scale="  129.389">  2  5  1 -1</clus>
<clus scale="  129.389">  2  5  1 -1</clus>
</clustering>
</event>
<event>
 9    1  0.2333971E-005  0.1023602E+03  0.7546771E-02  0.1280680E+00
          1   -1    0    0  502    0  0.00000000000E+00  0.00000000000E+00  0.25463162068E+03  0.25463162068E+03  0.00000000000E+00 0. -1.
         -2   -1    0    0    0  501 -0.00000000000E+00 -0.00000000000E+00 -0.14970481021E+03  0.14970481021E+03  0.00000000000E+00 0.  1.
        -24    2    1    2    0    0 -0.23556712952E+02 -0.33808812285E+02 -0.98601302122E+02  0.13410575484E+03  0.81019640748E+02 0.  0.
         23    2    1    2    0    0  0.47034544710E+02  0.71075383036E+02  0.18240799613E+03  0.22138330970E+03  0.92053974885E+02 0.  0.
         13    1    3    3    0    0  0.26966268613E+02  0.27776974074E+01 -0.19630738016E+02  0.33470302073E+02  0.00000000000E+00 0. -1.
        -14    1    3    3    0    0 -0.50522981565E+02 -0.36586509693E+02 -0.78970564106E+02  0.10063545276E+03  0.00000000000E+00 0.  1.
        -11    1    4    4    0    0  0.12810495689E+02 -0.21610085176E+02  0.24355143356E+02  0.34989678320E+02  0.00000000000E+00 0.  1.
         11    1    4    4    0    0  0.34224049021E+02  0.92685468212E+02  0.15805285277E+03  0.18639363138E+03  0.00000000000E+00 0. -1.
         21    1    1    2  502  501 -0.23477831758E+02 -0.37266570751E+02  0.21120116462E+02  0.48847366346E+02  0.00000000000E+00 0.  1.
<scales pt_clust_5="13000.00000" pt_clust_6="13000.00000" pt_clust_7="13000.00000" pt_clust_8="13000.00000" pt_clust_9="44.04550"></scales>
<clustering>
<clus scale="   44.045">  1  9  2 -1</clus>
<clus scale="   81.020">  5  6 -1 -1</clus>
<clus scale="   92.054">  7  8 -1 -1</clus>
<clus scale="   92.563">  2  5  1 -1</clus>
<clus scale="   44.045">  1  5  2 -1</clus>
</clustering>
</event>
<event>
 9    1  0.2333971E-005  0.9655635E+02  0.7546771E-02  0.1288758E+00
         -2   -1    0    0    0  501 -0.00000000000E+00  0.00000000000E+00  0.71889563804E+02  0.71889563804E+02  0.00000000000E+00 0.  1.
          1   -1    0    0  502    0  0.00000000000E+00 -0.00000000000E+00 -0.26459787795E+03  0.26459787795E+03  0.00000000000E+00 0. -1.
        -24    2    1    2    0    0 -0.12468402617E+02 -0.26326588702E+02 -0.70816209061E+02  0.11709516747E+03  0.88587766888E+02 0.  0.
         23    2    1    2    0    0 -0.14345476283E+02  0.37595788391E+02 -0.14944037570E+03  0.17933124363E+03  0.90598195672E+02 0.  0.
         11    1    3    3    0    0  0.36479404403E+02  0.14642097942E+01 -0.33602058156E+02  0.49618435770E+02  0.00000000000E+00 0. -1.
        -12    1    3    3    0    0 -0.48947807020E+02 -0.27790798496E+02 -0.37214150905E+02  0.67476731698E+02  0.00000000000E+00 0.  1.
        -11    1    4    4    0    0 -0.25978943305E+02 -0.24456045727E+02 -0.47171835201E+02  0.59145462244E+02  0.00000000000E+00 0.  1.
         11    1    4    4    0    0  0.11633467022E+02  0.62051834118E+02 -0.10226854050E+03  0.12018578139E+03  0.00000000000E+00 0. -1.
         21    1    1    2  502  501  0.26813878900E+02 -0.11269199689E+02  0.27548270614E+02  0.40061030654E+02  0.00000000000E+00 0.  1.
<scales pt_clust_5="13000.00000" pt_clust_6="13000.00000" pt_clust_7="13000.00000" pt_clust_8="13000.00000" pt_clust_9="29.08572"></scales>
<clustering>
<clus scale="   29.086">  1  9  2 -1</clus>
<clus scale="   88.588">  5  6 -1 -1</clus>
<clus scale="   90.598">  7  8 -1 -1</clus>
<clus scale="   94.673">  1  5  2 -1</clus>
<clus scale="   96.556">  2  5  1 -1</clus>
</clustering>
</event>
<event>
 9    1  0.2333971E-005  0.1096381E+03  0.7546771E-02  0.1270617E+00
          1   -1    0    0  502    0  0.00000000000E+00  0.00000000000E+00  0.36305294394E+03  0.36305294394E+03  0.00000000000E+00 0. -1.
         -2   -1    0    0    0  501 -0.00000000000E+00 -0.00000000000E+00 -0.17372839866E+03  0.17372839866E+03  0.00000000000E+00 0.  1.
         23    2    1    2    0    0  0.79255588387E+02  0.92959745034E+01 -0.65891848502E+02  0.13818135034E+03  0.91566841428E+02 0.  0.
        -24    2    1    2    0    0 -0.58065596016E+02 -0.11041355844E+02  0.31887411245E+03  0.33148540906E+03  0.68617431081E+02 0.  0.
         13    1    4    4    0    0 -0.63733143874E+02 -0.62805717096E+01  0.31757814379E+03  0.32397104288E+03  0.00000000000E+00 0. -1.
        -14    1    4    4    0    0  0.56675478587E+01 -0.47607841349E+01  0.12959686565E+01  0.75143661788E+01  0.00000000000E+00 0.  1.
        -13    1    3    3    0    0  0.98367377107E+02  0.18197239882E+02 -0.50377372880E+02  0.11200517897E+03  0.00000000000E+00 0.  1.
         13    1    3    3    0    0 -0.19111788721E+02 -0.89012653782E+01 -0.15514475622E+02  0.26176171364E+02  0.00000000000E+00 0. -1.
         21    1    1    2  502  501 -0.21189992371E+02  0.17453813410E+01 -0.63657718670E+02  0.67114583206E+02  0.00000000000E+00 0.  1.
<scales pt_clust_5="13000.00000" pt_clust_6="13000.00000" pt_clust_7="13000.00000" pt_clust_8="13000.00000" pt_clust_9="21.26175"></scales>
<clustering>
<clus scale="   21.262">  2  9  1 -1</clus>
<clus scale="   68.617">  5  6 -1 -1</clus>
<clus scale="   91.348">  1  5  2 -1</clus>
<clus scale="   91.567">  7  8 -1 -1</clus>
<clus scale="   91.348">  1  5  2 -1</clus>
</clustering>
</event>
<event>
 9    1  0.2333971E-005  0.9390333E+02  0.7546771E-02  0.1301848E+00
         -2   -1    0    0    0  501 -0.00000000000E+00  0.00000000000E+00  0.76491478507E+02  0.76491478507E+02  0.00000000000E+00 0.  1.
          1   -1    0    0  502    0  0.00000000000E+00 -0.00000000000E+00 -0.32492665370E+03  0.32492665370E+03  0.00000000000E+00 0. -1.
        -24    2    1    2    0    0 -0.26070614201E+02 -0.28582069824E+02 -0.36323619659E+01  0.86122673595E+02  0.76859021679E+02 0.  0.
         23    2    1    2    0    0  0.23706454717E+02  0.58942018841E+00 -0.26475734722E+03  0.28083735201E+03  0.90613585983E+02 0.  0.
         13    1    3    3    0    0 -0.10084144560E+02  0.26519321477E+02 -0.45916796968E+01  0.28741049138E+02  0.00000000000E+00 0. -1.
        -14    1    3    3    0    0 -0.15986469641E+02 -0.55101391300E+02  0.95931773097E+00  0.57381624457E+02  0.00000000000E+00 0.  1.
        -11    1    4    4    0    0 -0.14317283693E+02 -0.36989932300E+02 -0.98090766322E+02  0.10580660727E+03  0.00000000000E+00 0.  1.
         11    1    4    4    0    0  0.38023738410E+02  0.37579352489E+02 -0.16666658090E+03  0.17503074474E+03  0.00000000000E+00 0. -1.
         21    1    1    2  502  501  0.23641594842E+01  0.27992649635E+02  0.19954533995E+02  0.34458106602E+02  0.00000000000E+00 0. -1.
<scales pt_clust_5="13000.00000" pt_clust_6="13000.00000" pt_clust_7="13000.00000" pt_clust_8="13000.00000" pt_clust_9="28.09231"></scales>
<clustering>
<clus scale="   28.092">  1  9  2 -1</clus>
<clus scale="   76.859">  5  6 -1 -1</clus>
<clus scale="   80.711">  1  5  2 -1</clus>
<clus scale="   90.614">  7  8 -1 -1</clus>
<clus scale="   93.903">  2  5  1 -1</clus>
</clustering>
</event>
<event>
 9    1  0.2333971E-005  0.1543901E+03  0.7546771E-02  0.1196925E+00
          1   -1    0    0  502    0  0.00000000000E+00  0.00000000000E+00  0.64043414668E+03  0.64043414668E+03  0.00000000000E+00 0. -1.
         -2   -1    0    0    0  501 -0.00000000000E+00 -0.00000000000E+00 -0.50424217482E+02  0.50424217482E+02  0.00000000000E+00 0.  1.
        -24    2    1    2    0    0 -0.11584162264E+03  0.58414944590E+02  0.14015977332E+03  0.20796424385E+03  0.82296885586E+02 0.  0.
         23    2    1    2    0    0  0.10455231416E+03 -0.41431629400E+02  0.32097566065E+03  0.35241608767E+03  0.92325282611E+02 0.  0.
         11    1    3    3    0    0 -0.70657440312E+02  0.19112554637E+02  0.23577287030E+02  0.76900273601E+02  0.00000000000E+00 0. -1.
        -12    1    3    3    0    0 -0.45184182327E+02  0.39302389953E+02  0.11658248629E+03  0.13106397025E+03  0.00000000000E+00 0.  1.
        -13    1    4    4    0    0  0.73128341482E+02  0.45328823135E+01  0.96645262779E+02  0.12127905082E+03  0.00000000000E+00 0.  1.
         13    1    4    4    0    0  0.31423972679E+02 -0.45964511714E+02  0.22433039787E+03  0.23113703685E+03  0.00000000000E+00 0. -1.
         21    1    1    2  502  501  0.11289308478E+02 -0.16983315189E+02  0.12887449522E+03  0.13047803263E+03  0.00000000000E+00 0. -1.
<scales pt_clust_5="13000.00000" pt_clust_6="13000.00000" pt_clust_7="13000.00000" pt_clust_8="13000.00000" pt_clust_9="20.39317"></scales>
<clustering>
<clus scale="   20.393">  1  9  2 -1</clus>
<clus scale="   82.297">  5  6 -1 -1</clus>
<clus scale="   92.325">  7  8 -1 -1</clus>
<clus scale="  148.611">  2  5  1 -1</clus>
<clus scale="   20.393">  1  5  2 -1</clus>
</clustering>
</event>
<event>
 9    1  0.2333971E-005  0.1199183E+03  0.7546771E-02  0.1249379E+00
          1   -1    0    0  502    0  0.00000000000E+00  0.00000000000E+00  0.49451537122E+03  0.49451537122E+03  0.00000000000E+00 0. -1.
         -2   -1    0    0    0  501 -0.00000000000E+00 -0.00000000000E+00 -0.10112364062E+03  0.10112364062E+03  0.00000000000E+00 0.  1.
         23    2    1    2    0    0  0.70969559708E+02  0.24588336183E+02  0.13722607646E+02  0.11870364698E+03  0.90889939842E+02 0.  0.
        -24    2    1    2    0    0 -0.79093976803E+02  0.66101812101E+01  0.41533771777E+03  0.42885623948E+03  0.71503165516E+02 0.  0.
         11    1    4    4    0    0 -0.82107893663E+02  0.26781880545E+02  0.34181056417E+03  0.35255274372E+03  0.00000000000E+00 0. -1.
        -12    1    4    4    0    0  0.30139168599E+01 -0.20171699335E+02  0.73527153602E+02  0.76303495763E+02  0.00000000000E+00 0.  1.
        -13    1    3    3    0    0  0.67900979129E+02 -0.76707275664E+00 -0.24962314350E+02  0.72348106437E+02  0.00000000000E+00 0.  1.
         13    1    3    3    0    0  0.30685805792E+01  0.25355408939E+02  0.38684921996E+02  0.46355540543E+02  0.00000000000E+00 0. -1.
         21    1    1    2  502  501  0.81244170954E+01 -0.31198517393E+02 -0.35668594812E+02  0.48079125372E+02  0.00000000000E+00 0.  1.
<scales pt_clust_5="13000.00000" pt_clust_6="13000.00000" pt_clust_7="13000.00000" pt_clust_8="13000.00000" pt_clust_9="32.23901"></scales>
<clustering>
<clus scale="   32.239">  2  9  1 -1</clus>
<clus scale="   71.503">  5  6 -1 -1</clus>
<clus scale="   90.890">  7  8 -1 -1</clus>
<clus scale="  105.982">  1  5  2 -1</clus>
<clus scale="  105.982">  1  5  2 -1</clus>
</clustering>
</event>
<event>
 9    1  0.2333971E-005  0.9767872E+02  0.7546771E-02  0.1293526E+00
          1   -1    0    0  502    0  0.00000000000E+00  0.00000000000E+00  0.36352369993E+03  0.36352369993E+03  0.00000000000E+00 0. -1.
         -2   -1    0    0    0  501 -0.00000000000E+00 -0.00000000000E+00 -0.14297219661E+03  0.14297219661E+03  0.00000000000E+00 0.  1.
         23    2    1    2    0    0 -0.50811687424E+02  0.28436519728E+02 -0.46294771836E+02  0.12030417808E+03  0.94548538487E+02 0.  0.
        -24    2    1    2    0    0 -0.29237111685E+02 -0.46663581946E+01  0.28774346615E+03  0.30011312990E+03  0.79968774085E+02 0.  0.
         11    1    4    4    0    0 -0.30130489427E+02 -0.34657830384E+02  0.23488492363E+03  0.23933227728E+03  0.00000000000E+00 0. -1.
        -12    1    4    4    0    0  0.89337774132E+00  0.29991472189E+02  0.52858542518E+02  0.60780852618E+02  0.00000000000E+00 0.  1.
        -11    1    3    3    0    0  0.21942834617E+02  0.34242634529E+01 -0.36532650098E+02  0.42753340155E+02  0.00000000000E+00 0.  1.
         11    1    3    3    0    0 -0.72754522041E+02  0.25012256275E+02 -0.97621217378E+01  0.77550837921E+02  0.00000000000E+00 0. -1.
         21    1    1    2  502  501  0.80048799110E+02 -0.23770161534E+02 -0.20897190983E+02  0.86078588564E+02  0.00000000000E+00 0.  1.
<scales pt_clust_5="13000.00000" pt_clust_6="13000.00000" pt_clust_7="13000.00000" pt_clust_8="13000.00000" pt_clust_9="83.50348"></scales>
<clustering>
<clus scale="   79.969">  5  6 -1 -1</clus>
<clus scale="   83.503">  2  9  1 -1</clus>
<clus scale="   83.646">  1  5  2 -1</clus>
<clus scale="   94.549">  7  8 -1 -1</clus>
<clus scale="   83.646">  1  5  2 -1</clus>
</clustering>
</event>
<event>
 9    1  0.2333971E-005  0.9445307E+02  0.7546771E-02  0.1298593E+00
          1   -1    0    0  502    0  0.00000000000E+00  0.00000000000E+00  0.67539200080E+02  0.67539200080E+02  0.00000000000E+00 0. -1.
         -2   -1    0    0    0  501 -0.00000000000E+00 -0.00000000000E+00 -0.30729765881E+03  0.30729765881E+03  0.00000000000E+00 0.  1.
         23    2    1    2    0    0 -0.21506201451E+02 -0.52070484265E+02 -0.20216844713E+03  0.22885825542E+03  0.91269754164E+02 0.  0.
        -24    2    1    2    0    0 -0.22441014232E+01  0.19542862665E+02  0.10046400690E+02  0.83597910711E+02  0.80627049035E+02 0.  0.
         13    1    4    4    0    0 -0.33800470404E+02  0.22575676593E+02  0.25855397755E+02  0.48172965097E+02  0.00000000000E+00 0. -1.
        -14    1    4    4    0    0  0.31556368981E+02 -0.30328139284E+01 -0.15808997065E+02  0.35424945614E+02  0.00000000000E+00 0.  1.
        -13    1    3    3    0    0  0.23914459679E+02 -0.50240477018E+02 -0.14817226307E+03  0.15827516057E+03  0.00000000000E+00 0.  1.
         13    1    3    3    0    0 -0.45420661130E+02 -0.18300072465E+01 -0.53996184062E+02  0.70583094841E+02  0.00000000000E+00 0. -1.
         21    1    1    2  502  501  0.23750302874E+02  0.32527621600E+02 -0.47636412287E+02  0.62380692760E+02  0.00000000000E+00 0. -1.
<scales pt_clust_5="13000.00000" pt_clust_6="13000.00000" pt_clust_7="13000.00000" pt_clust_8="13000.00000" pt_clust_9="40.27559"></scales>
<clustering>
<clus scale="   40.276">  2  9  1 -1</clus>
<clus scale="   80.627">  5  6 -1 -1</clus>
<clus scale="   84.214">  1  5  2 -1</clus>
<clus scale="   91.270">  7  8 -1 -1</clus>
<clus scale="   84.214">  1  5  2 -1</clus>
</clustering>
</event>
<event>
 9    1  0.2333971E-005  0.9616081E+02  0.7546771E-02  0.1288873E+00
         -2   -1    0    0    0  501 -0.00000000000E+00  0.00000000000E+00  0.62502694629E+03  0.62502694629E+03  0.00000000000E+00 0.  1.
          1   -1    0    0  502    0  0.00000000000E+00 -0.00000000000E+00 -0.20049657723E+02  0.20049657723E+02  0.00000000000E+00 0. -1.
        -24    2    1    2    0    0  0.30801021486E+02  0.33460853107E+02  0.31657367498E+03  0.33117967948E+03  0.85981142101E+02 0.  0.
         23    2    1    2    0    0 -0.10504645341E+02 -0.42420454996E+02  0.18786649071E+03  0.21094096100E+03  0.85395714874E+02 0.  0.
         13    1    3    3    0    0  0.31633465505E+02  0.61441235346E+02  0.21623566867E+03  0.22701005693E+03  0.00000000000E+00 0. -1.
        -14    1    3    3    0    0 -0.83244401945E+00 -0.27980382239E+02  0.10033800631E+03  0.10416962256E+03  0.00000000000E+00 0.  1.
        -13    1    4    4    0    0  0.25722380257E+02 -0.48803176933E+02  0.14068200012E+03  0.15111193229E+03  0.00000000000E+00 0. -1.
         13    1    4    4    0    0 -0.36227025598E+02  0.63827219373E+01  0.47184490598E+02  0.59829028707E+02  0.00000000000E+00 0.  1.
         21    1    1    2  502  501 -0.20296376145E+02  0.89596018892E+01  0.10053712288E+03  0.10295596353E+03  0.00000000000E+00 0.  1.
<scales pt_clust_5="13000.00000" pt_clust_6="13000.00000" pt_clust_7="13000.00000" pt_clust_8="13000.00000" pt_clust_9="22.18597"></scales>
<clustering>
<clus scale="   22.186">  1  9  2 -1</clus>
<clus scale="   85.396">  7  8 -1 -1</clus>
<clus scale="   85.981">  5  6 -1 -1</clus>
<clus scale="   95.638">  2  7  1 -1</clus>
<clus scale="   95.638">  2  5  1 -1</clus>
</clustering>
</event>
<event>
 9    1  0.2333971E-005  0.9720666E+02  0.7546771E-02  0.1293209E+00
         -2   -1    0    0    0  501 -0.00000000000E+00  0.00000000000E+00  0.10903402448E+03  0.10903402448E+03  0.00000000000E+00 0.  1.
          1   -1    0    0  502    0  0.00000000000E+00 -0.00000000000E+00 -0.24096218551E+03  0.24096218551E+03  0.00000000000E+00 0. -1.
         23    2    1    2    0    0  0.77525230195E+02  0.94008701529E+01 -0.22306590011E+02  0.12204435886E+03  0.91097222216E+02 0.  0.
        -24    2    1    2    0    0 -0.24124896972E+02 -0.22918884238E+01 -0.14280654342E+03  0.16467961707E+03  0.78347967607E+02 0.  0.
         11    1    4    4    0    0 -0.26700369711E+02  0.15408633289E+01 -0.15203015579E+03  0.15436467301E+03  0.00000000000E+00 0. -1.
        -12    1    4    4    0    0  0.25754727385E+01 -0.38327517527E+01  0.92236123717E+01  0.10314944062E+02  0.00000000000E+00 0.  1.
        -11    1    3    3    0    0  0.33754141597E+02 -0.29931454085E+02  0.20221949832E+02  0.49438459458E+02  0.00000000000E+00 0. -1.
         11    1    3    3    0    0  0.43771088598E+02  0.39332324238E+02 -0.42528539842E+02  0.72605899403E+02  0.00000000000E+00 0.  1.
         21    1    1    2  502  501 -0.53400333223E+02 -0.71089817290E+01  0.33184972400E+02  0.63272234058E+02  0.00000000000E+00 0.  1.
<scales pt_clust_5="13000.00000" pt_clust_6="13000.00000" pt_clust_7="13000.00000" pt_clust_8="13000.00000" pt_clust_9="53.87145"></scales>
<clustering>
<clus scale="   53.871">  1  9  2 -1</clus>
<clus scale="   78.348">  5  6 -1 -1</clus>
<clus scale="   85.375">  2  5  1 -1</clus>
<clus scale="   91.097">  7  8 -1 -1</clus>
<clus scale="   85.375">  2  5  1 -1</clus>
</clustering>
</event>
<event>
 9    1  0.2333971E-005  0.1086484E+03  0.7546771E-02  0.1267255E+00
          1   -1    0    0  502    0  0.00000000000E+00  0.00000000000E+00  0.26877844203E+02  0.26877844203E+02  0.00000000000E+00 0. -1.
         -2   -1    0    0    0  501 -0.00000000000E+00 -0.00000000000E+00 -0.11940018281E+04  0.11940018281E+04  0.00000000000E+00 0.  1.
        -24    2    1    2    0    0  0.25225863040E+02  0.75370326102E+02 -0.85507821867E+03  0.86300812220E+03  0.85482329882E+02 0.  0.
         23    2    1    2    0    0  0.11375667261E+01 -0.48538757735E+02 -0.11404129315E+03  0.15632568819E+03  0.95262790137E+02 0.  0.
         11    1    3    3    0    0  0.31122630924E+02  0.56539483363E+02 -0.27034281727E+03  0.27793986793E+03  0.00000000000E+00 0. -1.
        -12    1    3    3    0    0 -0.58967678848E+01  0.18830842739E+02 -0.58473540140E+03  0.58506825427E+03  0.00000000000E+00 0.  1.
        -11    1    4    4    0    0 -0.19164139453E+02 -0.59117264733E+02 -0.29597847535E+02  0.68834205226E+02  0.00000000000E+00 0. -1.
         11    1    4    4    0    0  0.20301706179E+02  0.10578506997E+02 -0.84443445616E+02  0.87491482965E+02  0.00000000000E+00 0.  1.
         21    1    1    2  502  501 -0.26363429766E+02 -0.26831568366E+02 -0.19800447208E+03  0.20154586191E+03  0.00000000000E+00 0.  1.
<scales pt_clust_5="13000.00000" pt_clust_6="13000.00000" pt_clust_7="13000.00000" pt_clust_8="13000.00000" pt_clust_9="37.61600"></scales>
<clustering>
<clus scale="   37.616">  2  9  1 -1</clus>
<clus scale="   85.482">  5  6 -1 -1</clus>
<clus scale="   95.263">  7  8 -1 -1</clus>
<clus scale="  100.183">  2  5  1 -1</clus>
<clus scale="  108.648">  1  5  2 -1</clus>
</clustering>
</event>
<event>
 9    1  0.2333971E-005  0.9691036E+02  0.7546771E-02  0.1289599E+00
         -2   -1    0    0    0  501 -0.00000000000E+00  0.00000000000E+00  0.50857794572E+02  0.50857794572E+02  0.00000000000E+00 0.  1.
          1   -1    0    0  502    0  0.00000000000E+00 -0.00000000000E+00 -0.55102512165E+03  0.55102512165E+03  0.00000000000E+00 0. -1.
        -24    2    1    2    0    0  0.40063115933E+02 -0.96476148516E+01 -0.22055517808E+02  0.94085035269E+02  0.81654260545E+02 0.  0.
         23    2    1    2    0    0 -0.36054530821E+02  0.61234246859E+02 -0.38757541749E+03  0.40351898763E+03  0.86967275178E+02 0.  0.
         11    1    3    3    0    0  0.24599471381E+01 -0.36765913787E+02 -0.29407237304E+02  0.47144133913E+02  0.00000000000E+00 0. -1.
        -12    1    3    3    0    0  0.37603168795E+02  0.27118298936E+02  0.73517194961E+01  0.46940901356E+02  0.00000000000E+00 0.  1.
        -13    1    4    4    0    0  0.11465128517E+02  0.62989198620E+02 -0.24475721343E+03  0.25299245412E+03  0.00000000000E+00 0.  1.
         13    1    4    4    0    0 -0.47519659338E+02 -0.17549517612E+01 -0.14281820406E+03  0.15052653351E+03  0.00000000000E+00 0. -1.
         21    1    1    2  502  501 -0.40085851128E+01 -0.51586632008E+02 -0.90536391780E+02  0.10427889333E+03  0.00000000000E+00 0. -1.
<scales pt_clust_5="13000.00000" pt_clust_6="13000.00000" pt_clust_7="13000.00000" pt_clust_8="13000.00000" pt_clust_9="51.74214"></scales>
<clustering>
<clus scale="   51.742">  2  9  1 -1</clus>
<clus scale="   81.654">  5  6 -1 -1</clus>
<clus scale="   86.967">  7  8 -1 -1</clus>
<clus scale="   92.172">  1  5  2 -1</clus>
<clus scale="   51.742">  2  5  1 -1</clus>
</clustering>
</event>
<event>
 9    1  0.2333971E-005  0.1161418E+03  0.7546771E-02  0.1253506E+00
          3   -1    0    0  502    0  0.00000000000E+00  0.00000000000E+00  0.24117788994E+03  0.24117788994E+03  0.00000000000E+00 0. -1.
         -4   -1    0    0    0  501 -0.00000000000E+00 -0.00000000000E+00 -0.26707915586E+03  0.26707915586E+03  0.00000000000E+00 0.  1.
        -24    2    1    2    0    0 -0.68757246956E+02 -0.25435883497E+01 -0.98815542314E+02  0.14495434512E+03  0.80704534663E+02 0.  0.
         23    2    1    2    0    0  0.65022779611E+02  0.30548092867E+02  0.20084639383E+03  0.23228810153E+03  0.91963799146E+02 0.  0.
         13    1    3    3    0    0 -0.22303222386E+02  0.37181529020E+02 -0.53510581146E+02  0.68871489919E+02  0.00000000000E+00 0. -1.
        -14    1    3    3    0    0 -0.46454024571E+02 -0.39725117370E+02 -0.45304961168E+02  0.76082855199E+02  0.00000000000E+00 0.  1.
        -13    1    4    4    0    0  0.20060669522E+02 -0.32422587627E+02  0.51372869783E+02  0.63975201444E+02  0.00000000000E+00 0.  1.
         13    1    4    4    0    0  0.44962110089E+02  0.62970680494E+02  0.14947352404E+03  0.16831290009E+03  0.00000000000E+00 0. -1.
         21    1    1    2  502  501  0.37344673452E+01 -0.28004504517E+02 -0.12793211743E+03  0.13101459915E+03  0.00000000000E+00 0.  1.
<scales pt_clust_5="13000.00000" pt_clust_6="13000.00000" pt_clust_7="13000.00000" pt_clust_8="13000.00000" pt_clust_9="28.25241"></scales>
<clustering>
<clus scale="   28.252">  2  9  1 -1</clus>
<clus scale="   80.705">  5  6 -1 -1</clus>
<clus scale="   91.964">  7  8 -1 -1</clus>
<clus scale="  107.447">  2  5  1 -1</clus>
<clus scale="  116.142">  1  5  2 -1</clus>
</clustering>
</event>
<event>
 9    1  0.2333971E-005  0.9913298E+02  0.7546771E-02  0.1284928E+00
          1   -1    0    0  502    0  0.00000000000E+00  0.00000000000E+00  0.23861420694E+03  0.23861420694E+03  0.00000000000E+00 0. -1.
         -2   -1    0    0    0  501 -0.00000000000E+00 -0.00000000000E+00 -0.64709263671E+02  0.64709263671E+02  0.00000000000E+00 0.  1.
        -24    2    1    2    0    0 -0.31479590266E+02 -0.55559459576E+02  0.74220064547E+02  0.12999144718E+03  0.85506375235E+02 0.  0.
         23    2    1    2    0    0  0.10201325640E+02  0.18803145499E+02  0.89867250214E+02  0.12974100372E+03  0.91098737976E+02 0.  0.
         13    1    3    3    0    0  0.10373775914E+02 -0.37706341129E+02  0.74888204285E+02  0.84484475077E+02  0.00000000000E+00 0. -1.
        -14    1    3    3    0    0 -0.41853366179E+02 -0.17853118448E+02 -0.66813973865E+00  0.45506972098E+02  0.00000000000E+00 0.  1.
        -13    1    4    4    0    0  0.91009808989E+01 -0.36743372190E+02  0.32659656673E+02  0.49995564076E+02  0.00000000000E+00 0.  1.
         13    1    4    4    0    0  0.11003447407E+01  0.55546517690E+02  0.57207593541E+02  0.79745439648E+02  0.00000000000E+00 0. -1.
         21    1    1    2  502  501  0.21278264626E+02  0.36756314077E+02  0.98176285098E+01  0.43591019712E+02  0.00000000000E+00 0.  1.
<scales pt_clust_5="13000.00000" pt_clust_6="13000.00000" pt_clust_7="13000.00000" pt_clust_8="13000.00000" pt_clust_9="42.47106"></scales>
<clustering>
<clus scale="   42.471">  2  9  1 -1</clus>
<clus scale="   85.506">  5  6 -1 -1</clus>
<clus scale="   91.099">  7  8 -1 -1</clus>
<clus scale="   94.020">  2  5  1 -1</clus>
<clus scale="   99.133">  1  5  2 -1</clus>
</clustering>
</event>
<event>
 9    1  0.2333971E-005  0.1116493E+03  0.7546771E-02  0.1259774E+00
         -4   -1    0    0    0  501 -0.00000000000E+00  0.00000000000E+00  0.48033919870E+03  0.48033919870E+03  0.00000000000E+00 0.  1.
          3   -1    0    0  502    0  0.00000000000E+00 -0.00000000000E+00 -0.48006360966E+02  0.48006360966E+02  0.00000000000E+00 0. -1.
         23    2    1    2    0    0  0.16113017387E+02 -0.56955237249E+02  0.21903273240E+03  0.24362196540E+03  0.88728776516E+02 0.  0.
        -24    2    1    2    0    0  0.19580511327E+01  0.71693844088E+02  0.50912299880E+02  0.12066997679E+03  0.82615614591E+02 0.  0.
         13    1    4    4    0    0  0.35641568084E+02  0.52929291685E+02  0.10242248384E+02  0.64627663935E+02  0.00000000000E+00 0. -1.
        -14    1    4    4    0    0 -0.33683516951E+02  0.18764552403E+02  0.40670051496E+02  0.56042312852E+02  0.00000000000E+00 0.  1.
        -11    1    3    3    0    0 -0.28943605202E+02  0.44599914586E+01  0.45524353977E+02  0.54130311388E+02  0.00000000000E+00 0. -1.
         11    1    3    3    0    0  0.45056622589E+02 -0.61415228707E+02  0.17350837843E+03  0.18949165401E+03  0.00000000000E+00 0.  1.
         21    1    1    2  502  501 -0.18071068520E+02 -0.14738606839E+02  0.16238780544E+03  0.16405361747E+03  0.00000000000E+00 0. -1.
<scales pt_clust_5="13000.00000" pt_clust_6="13000.00000" pt_clust_7="13000.00000" pt_clust_8="13000.00000" pt_clust_9="23.31931"></scales>
<clustering>
<clus scale="   23.319">  1  9  2 -1</clus>
<clus scale="   82.616">  5  6 -1 -1</clus>
<clus scale="   88.729">  7  8 -1 -1</clus>
<clus scale="  106.856">  2  5  1 -1</clus>
<clus scale="  106.856">  2  5  1 -1</clus>
</clustering>
</event>
<event>
 9    1  0.2333971E-005  0.2593637E+03  0.7546771E-02  0.1108205E+00
         -2   -1    0    0    0  501 -0.00000000000E+00  0.00000000000E+00  0.15348282892E+03  0.15348282892E+03  0.00000000000E+00 0.  1.
          1   -1    0    0  502    0  0.00000000000E+00 -0.00000000000E+00 -0.13693642810E+04  0.13693642810E+04  0.00000000000E+00 0. -1.
        -24    2    1    2    0    0  0.13962907132E+03 -0.23151998041E+03 -0.78003993786E+03  0.82945028431E+03  0.80172879445E+02 0.  0.
         23    2    1    2    0    0 -0.12314074414E+03  0.17510818854E+03 -0.53182368001E+03  0.58085025153E+03  0.93402716872E+02 0.  0.
         11    1    3    3    0    0  0.34927305877E+02 -0.10610460701E+03 -0.41008978255E+03  0.42503145069E+03  0.00000000000E+00 0. -1.
        -12    1    3    3    0    0  0.10470176544E+03 -0.12541537340E+03 -0.36995015531E+03  0.40441883362E+03  0.00000000000E+00 0.  1.
        -13    1    4    4    0    0 -0.85416477228E+02  0.17620461260E+03 -0.44715237728E+03  0.48814883856E+03  0.00000000000E+00 0. -1.
         13    1    4    4    0    0 -0.37724266910E+02 -0.10964240579E+01 -0.84671302737E+02  0.92701412971E+02  0.00000000000E+00 0.  1.
         21    1    1    2  502  501 -0.16488327179E+02  0.56411791868E+02  0.95982165779E+02  0.11254657410E+03  0.00000000000E+00 0.  1.
<scales pt_clust_5="13000.00000" pt_clust_6="13000.00000" pt_clust_7="13000.00000" pt_clust_8="13000.00000" pt_clust_9="58.77206"></scales>
<clustering>
<clus scale="   58.772">  1  9  2 -1</clus>
<clus scale="   80.173">  5  6 -1 -1</clus>
<clus scale="   93.403">  7  8 -1 -1</clus>
<clus scale="  254.898">  1  5  2 -1</clus>
<clus scale="  259.364">  2  5  1 -1</clus>
</clustering>
</event>
<event>
 9    1  0.2333971E-005  0.1011323E+03  0.7546771E-02  0.1284263E+00
         -2   -1    0    0    0  501 -0.00000000000E+00  0.00000000000E+00  0.98760964339E+02  0.98760964339E+02  0.00000000000E+00 0.  1.
          1   -1    0    0  502    0  0.00000000000E+00 -0.00000000000E+00 -0.19883604761E+03  0.19883604761E+03  0.00000000000E+00 0. -1.
        -24    2    1    2    0    0  0.23697180258E+02  0.60637132826E+01  0.35737491583E+02  0.91416538057E+02  0.80507702456E+02 0.  0.
         23    2    1    2    0    0 -0.32871982637E+02 -0.29176965219E+02 -0.14654485432E+03  0.17909576905E+03  0.93102296540E+02 0.  0.
         11    1    3    3    0    0 -0.11449113982E+02  0.35046801898E+02  0.25199184944E+02  0.44658251826E+02  0.00000000000E+00 0. -1.
        -12    1    3    3    0    0  0.35146294240E+02 -0.28983088616E+02  0.10538306639E+02  0.46758286232E+02  0.00000000000E+00 0.  1.
        -11    1    4    4    0    0 -0.72122287576E-01 -0.54727870163E+02 -0.50623943472E+02  0.74551516596E+02  0.00000000000E+00 0.  1.
         11    1    4    4    0    0 -0.32799860350E+02  0.25550904945E+02 -0.95920910848E+02  0.10454425245E+03  0.00000000000E+00 0. -1.
         21    1    1    2  502  501  0.91748023796E+01  0.23113251936E+02  0.10732279469E+02  0.27084704842E+02  0.00000000000E+00 0.  1.
<scales pt_clust_5="13000.00000" pt_clust_6="13000.00000" pt_clust_7="13000.00000" pt_clust_8="13000.00000" pt_clust_9="24.86764"></scales>
<clustering>
<clus scale="   24.868">  1  9  2 -1</clus>
<clus scale="   80.508">  5  6 -1 -1</clus>
<clus scale="   89.673">  1  5  2 -1</clus>
<clus scale="   93.102">  7  8 -1 -1</clus>
<clus scale="  101.132">  2  5  1 -1</clus>
</clustering>
</event>
<event>
 9    1  0.2333971E-005  0.1025667E+03  0.7546771E-02  0.1276916E+00
         -2   -1    0    0    0  501 -0.00000000000E+00  0.00000000000E+00  0.55754957467E+03  0.55754957467E+03  0.00000000000E+00 0.  1.
          1   -1    0    0  502    0  0.00000000000E+00 -0.00000000000E+00 -0.50668258213E+02  0.50668258213E+02  0.00000000000E+00 0. -1.
        -24    2    1    2    0    0 -0.64135945339E+02  0.26297494308E+01  0.37783222067E+03  0.39184523700E+03  0.81640478407E+02 0.  0.
         23    2    1    2    0    0  0.51374071413E+02  0.19915091779E+02  0.19837942119E+02  0.10413084173E+03  0.86103322565E+02 0.  0.
         13    1    3    3    0    0 -0.58296993357E+02 -0.32515017441E+02  0.21333702607E+03  0.22353624423E+03  0.00000000000E+00 0. -1.
        -14    1    3    3    0    0 -0.58389519818E+01  0.35144766871E+02  0.16449519460E+03  0.16830899276E+03  0.00000000000E+00 0.  1.
        -13    1    4    4    0    0  0.27394040385E+02  0.41965774014E+02 -0.18859474469E+02  0.53546609738E+02  0.00000000000E+00 0.  1.
         13    1    4    4    0    0  0.23980031028E+02 -0.22050682235E+02  0.38697416588E+02  0.50584231987E+02  0.00000000000E+00 0. -1.
         21    1    1    2  502  501  0.12761873926E+02 -0.22544841210E+02  0.10921115367E+03  0.11224175416E+03  0.00000000000E+00 0. -1.
<scales pt_clust_5="13000.00000" pt_clust_6="13000.00000" pt_clust_7="13000.00000" pt_clust_8="13000.00000" pt_clust_9="25.90628"></scales>
<clustering>
<clus scale="   25.906">  1  9  2 -1</clus>
<clus scale="   81.640">  5  6 -1 -1</clus>
<clus scale="   86.103">  7  8 -1 -1</clus>
<clus scale="   98.850">  1  5  2 -1</clus>
<clus scale="  102.567">  2  5  1 -1</clus>
</clustering>
</event>
<event>
 9    1  0.2333971E-005  0.1161685E+03  0.7546771E-02  0.1255664E+00
          1   -1    0    0  502    0  0.00000000000E+00  0.00000000000E+00  0.85420347537E+03  0.85420347537E+03  0.00000000000E+00 0. -1.
         -2   -1    0    0    0  501 -0.00000000000E+00 -0.00000000000E+00 -0.33433070475E+02  0.33433070475E+02  0.00000000000E+00 0.  1.
         23    2    1    2    0    0  0.31889522087E+02 -0.85034602162E+02  0.23879964818E+03  0.27150077794E+03  0.91867161001E+02 0.  0.
        -24    2    1    2    0    0 -0.52035395443E+02  0.43788279012E+02  0.55243970488E+03  0.56155373414E+03  0.74349667429E+02 0.  0.
         11    1    4    4    0    0  0.54015737199E+01  0.40693761802E+02  0.17460288765E+03  0.17936367420E+03  0.00000000000E+00 0. -1.
        -12    1    4    4    0    0 -0.57436969163E+02  0.30945172102E+01  0.37783681723E+03  0.38219005994E+03  0.00000000000E+00 0.  1.
        -11    1    3    3    0    0  0.66552473774E+01 -0.96202116950E+02  0.14836784646E+03  0.17695241588E+03  0.00000000000E+00 0.  1.
         11    1    3    3    0    0  0.25234274710E+02  0.11167514788E+02  0.90431801715E+02  0.94548362060E+02  0.00000000000E+00 0. -1.
         21    1    1    2  502  501  0.20145873356E+02  0.41246323150E+02  0.29531051846E+02  0.54582033764E+02  0.00000000000E+00 0. -1.
<scales pt_clust_5="13000.00000" pt_clust_6="13000.00000" pt_clust_7="13000.00000" pt_clust_8="13000.00000" pt_clust_9="45.90333"></scales>
<clustering>
<clus scale="   45.903">  2  9  1 -1</clus>
<clus scale="   74.350">  5  6 -1 -1</clus>
<clus scale="   91.867">  7  8 -1 -1</clus>
<clus scale="  102.876">  1  5  2 -1</clus>
<clus scale="  102.876">  1  5  2 -1</clus>
</clustering>
</event>
<event>
 9    1  0.2333971E-005  0.8773111E+02  0.7546771E-02  0.1309137E+00
          1   -1    0    0  502    0  0.00000000000E+00  0.00000000000E+00  0.54238329411E+03  0.54238329411E+03  0.00000000000E+00 0. -1.
         -2   -1    0    0    0  501 -0.00000000000E+00 -0.00000000000E+00 -0.75610692692E+02  0.75610692692E+02  0.00000000000E+00 0.  1.
        -24    2    1    2    0    0 -0.28981378133E+02 -0.17469268460E+02  0.96254274728E+02  0.13065157711E+03  0.81607925964E+02 0.  0.
         23    2    1    2    0    0  0.32392727183E+02 -0.11822513219E+02  0.42039241041E+03  0.42940218183E+03  0.80420112130E+02 0.  0.
         11    1    3    3    0    0 -0.37680188795E+02 -0.28267373000E+02  0.10442478290E+03  0.11455730570E+03  0.00000000000E+00 0. -1.
        -12    1    3    3    0    0  0.86988106623E+01  0.10798104540E+02 -0.81705081765E+01  0.16094271417E+02  0.00000000000E+00 0.  1.
        -13    1    4    4    0    0  0.59379327479E+02 -0.47351911987E+01  0.29161644928E+03  0.29763816969E+03  0.00000000000E+00 0.  1.
         13    1    4    4    0    0 -0.26986600296E+02 -0.70873220199E+01  0.12877596114E+03  0.13176401214E+03  0.00000000000E+00 0. -1.
         21    1    1    2  502  501 -0.34113490499E+01  0.29291781679E+02 -0.49874083726E+02  0.57940227854E+02  0.00000000000E+00 0.  1.
<scales pt_clust_5="13000.00000" pt_clust_6="13000.00000" pt_clust_7="13000.00000" pt_clust_8="13000.00000" pt_clust_9="29.48976"></scales>
<clustering>
<clus scale="   29.490">  2  9  1 -1</clus>
<clus scale="   80.420">  7  8 -1 -1</clus>
<clus scale="   81.608">  5  6 -1 -1</clus>
<clus scale="   86.627">  1  7  2 -1</clus>
<clus scale="   86.627">  1  5  2 -1</clus>
</clustering>
</event>
<event>
 9    1  0.2333971E-005  0.9337031E+02  0.7546771E-02  0.1304212E+00
          1   -1    0    0  502    0  0.00000000000E+00  0.00000000000E+00  0.39387515150E+03  0.39387515150E+03  0.00000000000E+00 0. -1.
         -2   -1    0    0    0  501 -0.00000000000E+00 -0.00000000000E+00 -0.34516709829E+02  0.34516709829E+02  0.00000000000E+00 0.  1.
        -24    2    1    2    0    0 -0.17239412124E+02  0.24799073091E+01  0.87339672431E+02  0.11865769999E+03  0.78409719530E+02 0.  0.
         23    2    1    2    0    0 -0.18267483937E+02 -0.16980171532E+00  0.25109770707E+03  0.26845744758E+03  0.93196635494E+02 0.  0.
         11    1    3    3    0    0 -0.32680374625E+02 -0.24042511937E+02  0.75601012516E+02  0.85799547547E+02  0.00000000000E+00 0. -1.
        -12    1    3    3    0    0  0.15440962501E+02  0.26522419246E+02  0.11738659916E+02  0.32858152447E+02  0.00000000000E+00 0.  1.
        -11    1    4    4    0    0 -0.41264196131E+02 -0.28484175948E+02  0.19649592420E+03  0.20279233316E+03  0.00000000000E+00 0. -1.
         11    1    4    4    0    0  0.22996712194E+02  0.28314374233E+02  0.54601782863E+02  0.65665114420E+02  0.00000000000E+00 0.  1.
         21    1    1    2  502  501  0.35506896061E+02 -0.23101055938E+01  0.20921062178E+02  0.41276713755E+02  0.00000000000E+00 0.  1.
<scales pt_clust_5="13000.00000" pt_clust_6="13000.00000" pt_clust_7="13000.00000" pt_clust_8="13000.00000" pt_clust_9="35.58197"></scales>
<clustering>
<clus scale="   35.582">  2  9  1 -1</clus>
<clus scale="   78.410">  5  6 -1 -1</clus>
<clus scale="   78.616">  2  5  1 -1</clus>
<clus scale="   93.197">  7  8 -1 -1</clus>
<clus scale="   93.370">  1  5  2 -1</clus>
</clustering>
</event>
<event>
 9    1  0.2333971E-005  0.1291710E+03  0.7546771E-02  0.1234070E+00
         -2   -1    0    0    0  501 -0.00000000000E+00  0.00000000000E+00  0.26234121174E+03  0.26234121174E+03  0.00000000000E+00 0.  1.
          1   -1    0    0  502    0  0.00000000000E+00 -0.00000000000E+00 -0.14478415403E+03  0.14478415403E+03  0.00000000000E+00 0. -1.
        -24    2    1    2    0    0 -0.65519391543E+02 -0.36658189838E+02  0.10155236687E+03  0.14577893568E+03  0.72814842737E+02 0.  0.
         23    2    1    2    0    0  0.95914205893E+02 -0.42363087323E+02 -0.55384865263E+02  0.15060043375E+03  0.92837714786E+02 0.  0.
         13    1    3    3    0    0 -0.14534000831E+02 -0.24588182973E+02 -0.31131580391E+01  0.28731649362E+02  0.00000000000E+00 0. -1.
        -14    1    3    3    0    0 -0.50985390712E+02 -0.12070006865E+02  0.10466552491E+03  0.11704728632E+03  0.00000000000E+00 0.  1.
        -11    1    4    4    0    0  0.47649413966E+02 -0.10565367093E+02 -0.75071124589E+02  0.89541986688E+02  0.00000000000E+00 0. -1.
         11    1    4    4    0    0  0.48264791928E+02 -0.31797720231E+02  0.19686259326E+02  0.61058447064E+02  0.00000000000E+00 0.  1.
         21    1    1    2  502  501 -0.30394814350E+02  0.79021277161E+02  0.71389556109E+02  0.11074599634E+03  0.00000000000E+00 0. -1.
<scales pt_clust_5="13000.00000" pt_clust_6="13000.00000" pt_clust_7="13000.00000" pt_clust_8="13000.00000" pt_clust_9="84.66526"></scales>
<clustering>
<clus scale="   72.815">  5  6 -1 -1</clus>
<clus scale="   84.665">  1  9  2 -1</clus>
<clus scale="   92.838">  7  8 -1 -1</clus>
<clus scale="  115.621">  1  5  2 -1</clus>
<clus scale="  129.171">  2  5  1 -1</clus>
</clustering>
</event>
<event>
 9    1  0.2333971E-005  0.1591161E+03  0.7546771E-02  0.1221807E+00
         -2   -1    0    0    0  501 -0.00000000000E+00  0.00000000000E+00  0.20709444841E+03  0.20709444841E+03  0.00000000000E+00 0.  1.
          1   -1    0    0  502    0  0.00000000000E+00 -0.00000000000E+00 -0.58958445684E+03  0.58958445684E+03  0.00000000000E+00 0. -1.
        -24    2    1    2    0    0 -0.11729433092E+02 -0.12048191653E+01  0.90827417191E+02  0.12087247804E+03  0.78876517695E+02 0.  0.
         23    2    1    2    0    0  0.10934408899E+03 -0.71225142533E+02 -0.52116846365E+03  0.54517548816E+03  0.92577506212E+02 0.  0.
         11    1    3    3    0    0  0.17111279218E+02  0.14820555668E+02 -0.16384235462E+01  0.22696457400E+02  0.00000000000E+00 0. -1.
        -12    1    3    3    0    0 -0.28840712310E+02 -0.16025374834E+02  0.92465840737E+02  0.98176020638E+02  0.00000000000E+00 0.  1.
        -11    1    4    4    0    0  0.28436952926E+02 -0.54568416173E+02 -0.11236925559E+03  0.12811409734E+03  0.00000000000E+00 0.  1.
         11    1    4    4    0    0  0.80907136067E+02 -0.16656726360E+02 -0.40879920806E+03  0.41706139081E+03  0.00000000000E+00 0. -1.
         21    1    1    2  502  501 -0.97614655900E+02  0.72429961699E+02  0.47851038026E+02  0.13063093905E+03  0.00000000000E+00 0.  1.
<scales pt_clust_5="13000.00000" pt_clust_6="13000.00000" pt_clust_7="13000.00000" pt_clust_8="13000.00000" pt_clust_9="129.41150"></scales>
<clustering>
<clus scale="   78.877">  5  6 -1 -1</clus>
<clus scale="   79.753">  1  5  2 -1</clus>
<clus scale="   92.578">  7  8 -1 -1</clus>
<clus scale="  129.412">  1  9  2 -1</clus>
<clus scale="  159.116">  2  5  1 -1</clus>
</clustering>
</event>
<event>
 9    1  0.2333971E-005  0.9961023E+02  0.7546771E-02  0.1285307E+00
         -2   -1    0    0    0  501 -0.00000000000E+00  0.00000000000E+00  0.58003152676E+02  0.58003152676E+02  0.00000000000E+00 0.  1.
          1   -1    0    0  502    0  0.00000000000E+00 -0.00000000000E+00 -0.66793341039E+03  0.66793341039E+03  0.00000000000E+00 0. -1.
         23    2    1    2    0    0  0.48320046123E+02  0.20653794045E+02 -0.17071575321E+02  0.10436318445E+03  0.88537164620E+02 0.  0.
        -24    2    1    2    0    0 -0.19039753125E+02  0.56485401382E+02 -0.39092349644E+03  0.40343211623E+03  0.79894803141E+02 0.  0.
         13    1    4    4    0    0 -0.34103708324E+02 -0.66300343743E+01 -0.13025753932E+03  0.13481115246E+03  0.00000000000E+00 0. -1.
        -14    1    4    4    0    0  0.15063955199E+02  0.63115435756E+02 -0.26066595712E+03  0.26862096377E+03  0.00000000000E+00 0.  1.
        -11    1    3    3    0    0  0.38688503866E+02  0.55008887041E+02 -0.12272428164E+02  0.68362200652E+02  0.00000000000E+00 0.  1.
         11    1    3    3    0    0  0.96315422565E+01 -0.34355092997E+02 -0.47991471567E+01  0.36000983799E+02  0.00000000000E+00 0. -1.
         21    1    1    2  502  501 -0.29280292998E+02 -0.77139195427E+02 -0.20193518594E+03  0.21814126238E+03  0.00000000000E+00 0.  1.
<scales pt_clust_5="13000.00000" pt_clust_6="13000.00000" pt_clust_7="13000.00000" pt_clust_8="13000.00000" pt_clust_9="82.50934"></scales>
<clustering>
<clus scale="   79.895">  5  6 -1 -1</clus>
<clus scale="   82.509">  2  9  1 -1</clus>
<clus scale="   88.537">  7  8 -1 -1</clus>
<clus scale="   92.014">  2  5  1 -1</clus>
<clus scale="   82.509">  2  5  1 -1</clus>
</clustering>
</event>
<event>
 9    1  0.2333971E-005  0.1669620E+03  0.7546771E-02  0.1182950E+00
          1   -1    0    0  502    0  0.00000000000E+00  0.00000000000E+00  0.65895170820E+03  0.65895170820E+03  0.00000000000E+00 0. -1.
         -2   -1    0    0    0  501 -0.00000000000E+00 -0.00000000000E+00 -0.20985639113E+03  0.20985639113E+03  0.00000000000E+00 0.  1.
        -24    2    1    2    0    0 -0.70324420487E+02 -0.17832455714E+02 -0.10623682608E+03  0.15060933752E+03  0.78315954572E+02 0.  0.
         23    2    1    2    0    0  0.13112200698E+03  0.64157762483E+02  0.60364547704E+03  0.62777443542E+03  0.91671591089E+02 0.  0.
         13    1    3    3    0    0 -0.36716756744E+02  0.29462504056E+02 -0.60918291601E+02  0.76988295361E+02  0.00000000000E+00 0. -1.
        -14    1    3    3    0    0 -0.33607663743E+02 -0.47294959770E+02 -0.45318534477E+02  0.73621042162E+02  0.00000000000E+00 0.  1.
        -13    1    4    4    0    0  0.10923751021E+03  0.80429768631E+02  0.56089875524E+03  0.57706948884E+03  0.00000000000E+00 0. -1.
         13    1    4    4    0    0  0.21884496770E+02 -0.16272006148E+02  0.42746721799E+02  0.50704946578E+02  0.00000000000E+00 0.  1.
         21    1    1    2  502  501 -0.60797586492E+02 -0.46325306769E+02 -0.48313333890E+02  0.90424326384E+02  0.00000000000E+00 0.  1.
<scales pt_clust_5="13000.00000" pt_clust_6="13000.00000" pt_clust_7="13000.00000" pt_clust_8="13000.00000" pt_clust_9="76.43547"></scales>
<clustering>
<clus scale="   76.435">  2  9  1 -1</clus>
<clus scale="   78.316">  5  6 -1 -1</clus>
<clus scale="   91.672">  7  8 -1 -1</clus>
<clus scale="  160.019">  2  5  1 -1</clus>
<clus scale="  166.962">  1  5  2 -1</clus>
</clustering>
</event>
<event>
 9    1  0.2333971E-005  0.1932011E+03  0.7546771E-02  0.1157027E+00
         -2   -1    0    0    0  501 -0.00000000000E+00  0.00000000000E+00  0.24131620159E+03  0.24131620159E+03  0.00000000000E+00 0.  1.
          1   -1    0    0  502    0  0.00000000000E+00 -0.00000000000E+00 -0.70873474692E+03  0.70873474692E+03  0.00000000000E+00 0. -1.
        -24    2    1    2    0    0  0.13047340437E+03 -0.73830268281E+02 -0.51314682861E+02  0.17721897295E+03  0.79367184234E+02 0.  0.
         23    2    1    2    0    0 -0.13601082304E+03  0.10959927241E+03 -0.57589570104E+03  0.60899206487E+03  0.93298081932E+02 0.  0.
         13    1    3    3    0    0  0.14901713697E+02 -0.49195814288E+02 -0.13469855694E+02  0.53138745064E+02  0.00000000000E+00 0. -1.
        -14    1    3    3    0    0  0.11557169067E+03 -0.24634453993E+02 -0.37844827167E+02  0.12408022788E+03  0.00000000000E+00 0.  1.
        -11    1    4    4    0    0 -0.44801447123E+02  0.66682484421E+02 -0.13832746774E+03  0.15996315740E+03  0.00000000000E+00 0.  1.
         11    1    4    4    0    0 -0.91209375917E+02  0.42916787984E+02 -0.43756823330E+03  0.44902890747E+03  0.00000000000E+00 0. -1.
         21    1    1    2  502  501  0.55374186720E+01 -0.35769004124E+02  0.15979183857E+03  0.16383991070E+03  0.00000000000E+00 0.  1.
<scales pt_clust_5="13000.00000" pt_clust_6="13000.00000" pt_clust_7="13000.00000" pt_clust_8="13000.00000" pt_clust_9="36.19509"></scales>
<clustering>
<clus scale="   36.195">  1  9  2 -1</clus>
<clus scale="   79.367">  5  6 -1 -1</clus>
<clus scale="   93.298">  7  8 -1 -1</clus>
<clus scale="  186.872">  1  5  2 -1</clus>
<clus scale="  193.201">  2  5  1 -1</clus>
</clustering>
</event>
<event>
 9    1  0.2333971E-005  0.1454453E+03  0.7546771E-02  0.1208392E+00
         -2   -1    0    0    0  501 -0.00000000000E+00  0.00000000000E+00  0.36456582830E+03  0.36456582830E+03  0.00000000000E+00 0.  1.
          1   -1    0    0  502    0  0.00000000000E+00 -0.00000000000E+00 -0.15903454997E+03  0.15903454997E+03  0.00000000000E+00 0. -1.
        -24    2    1    2    0    0 -0.17659118808E+02  0.10037697332E+03  0.25332202943E+03  0.28458003114E+03  0.80164594932E+02 0.  0.
         23    2    1    2    0    0  0.51347485360E+02 -0.10333362431E+03 -0.99215135157E+02  0.17747268184E+03  0.91315429091E+02 0.  0.
         13    1    3    3    0    0  0.20350617732E+02  0.14078725393E+01  0.21345103240E+02  0.29525297280E+02  0.00000000000E+00 0. -1.
        -14    1    3    3    0    0 -0.38009736540E+02  0.98969100783E+02  0.23197692619E+03  0.25505473386E+03  0.00000000000E+00 0.  1.
        -11    1    4    4    0    0  0.18605299665E+02 -0.11089289988E+03 -0.85143502760E+02  0.14104186783E+03  0.00000000000E+00 0. -1.
         11    1    4    4    0    0  0.32742185694E+02  0.75592755678E+01 -0.14071632397E+02  0.36430814011E+02  0.00000000000E+00 0.  1.
         21    1    1    2  502  501 -0.33688366551E+02  0.29566509894E+01  0.51424384065E+02  0.61547665288E+02  0.00000000000E+00 0. -1.
<scales pt_clust_5="13000.00000" pt_clust_6="13000.00000" pt_clust_7="13000.00000" pt_clust_8="13000.00000" pt_clust_9="33.81786"></scales>
<clustering>
<clus scale="   33.818">  1  9  2 -1</clus>
<clus scale="   80.165">  5  6 -1 -1</clus>
<clus scale="   91.315">  7  8 -1 -1</clus>
<clus scale="  138.716">  1  5  2 -1</clus>
<clus scale="  145.445">  2  5  1 -1</clus>
</clustering>
</event>
<event>
 9    1  0.2333971E-005  0.1133918E+03  0.7546771E-02  0.1258170E+00
         -4   -1    0    0    0  501 -0.00000000000E+00  0.00000000000E+00  0.46130784028E+02  0.46130784028E+02  0.00000000000E+00 0.  1.
          3   -1    0    0  502    0  0.00000000000E+00 -0.00000000000E+00 -0.33041970954E+03  0.33041970954E+03  0.00000000000E+00 0. -1.
        -24    2    1    2    0    0  0.14716879216E+02  0.58202578751E+02 -0.74975142785E+02  0.12477949187E+03  0.79652513137E+02 0.  0.
         23    2    1    2    0    0 -0.22999455554E+01 -0.75380717050E+02 -0.18809326952E+03  0.22177802155E+03  0.90104775420E+02 0.  0.
         13    1    3    3    0    0  0.35863065253E+02  0.15019624977E+01 -0.44041764341E+02  0.56816303531E+02  0.00000000000E+00 0. -1.
        -14    1    3    3    0    0 -0.21146186038E+02  0.56700616254E+02 -0.30933378444E+02  0.67963188341E+02  0.00000000000E+00 0.  1.
        -11    1    4    4    0    0  0.35352092440E+02 -0.15310145385E+02 -0.31071890868E+02  0.49493771262E+02  0.00000000000E+00 0. -1.
         11    1    4    4    0    0 -0.37652037995E+02 -0.60070571664E+02 -0.15702137865E+03  0.17228425029E+03  0.00000000000E+00 0.  1.
         21    1    1    2  502  501 -0.12416933661E+02  0.17178138298E+02 -0.21220513206E+02  0.29992980140E+02  0.00000000000E+00 0.  1.
<scales pt_clust_5="13000.00000" pt_clust_6="13000.00000" pt_clust_7="13000.00000" pt_clust_8="13000.00000" pt_clust_9="21.19596"></scales>
<clustering>
<clus scale="   21.196">  1  9  2 -1</clus>
<clus scale="   79.653">  5  6 -1 -1</clus>
<clus scale="   90.105">  7  8 -1 -1</clus>
<clus scale="  105.278">  1  5  2 -1</clus>
<clus scale="  113.392">  2  5  1 -1</clus>
</clustering>
</event>
<event>
 9    1  0.2333971E-005  0.1055192E+03  0.7546771E-02  0.1276742E+00
          1   -1    0    0  502    0  0.00000000000E+00  0.00000000000E+00  0.33783747971E+03  0.33783747971E+03  0.00000000000E+00 0. -1.
         -2   -1    0    0    0  501 -0.00000000000E+00 -0.00000000000E+00 -0.78870834224E+02  0.78870834224E+02  0.00000000000E+00 0.  1.
        -24    2    1    2    0    0  0.66706325197E+02  0.42384398865E+02 -0.21012457520E+01  0.10988052497E+03  0.76309523945E+02 0.  0.
         23    2    1    2    0    0 -0.43999275936E+02 -0.89761517853E+01  0.23993402488E+03  0.26123874022E+03  0.93063610012E+02 0.  0.
         11    1    3    3    0    0  0.11950475942E+02  0.50521574541E+02 -0.12866397868E+02  0.53486330622E+02  0.00000000000E+00 0. -1.
        -12    1    3    3    0    0  0.54755849255E+02 -0.81371756758E+01  0.10765152116E+02  0.56394194344E+02  0.00000000000E+00 0.  1.
        -13    1    4    4    0    0 -0.38214691626E+02 -0.37042256850E+02  0.21996328243E+03  0.22631026725E+03  0.00000000000E+00 0. -1.
         13    1    4    4    0    0 -0.57845843099E+01  0.28066105065E+02  0.19970742458E+02  0.34928472962E+02  0.00000000000E+00 0.  1.
         21    1    1    2  502  501 -0.22707049261E+02 -0.33408247080E+02  0.21133866354E+02  0.45589048752E+02  0.00000000000E+00 0.  1.
<scales pt_clust_5="13000.00000" pt_clust_6="13000.00000" pt_clust_7="13000.00000" pt_clust_8="13000.00000" pt_clust_9="40.39457"></scales>
<clustering>
<clus scale="   40.395">  2  9  1 -1</clus>
<clus scale="   76.310">  5  6 -1 -1</clus>
<clus scale="   91.086">  2  5  1 -1</clus>
<clus scale="   93.064">  7  8 -1 -1</clus>
<clus scale="  105.519">  1  5  2 -1</clus>
</clustering>
</event>
<event>
 9    1  0.2333971E-005  0.1806118E+03  0.7546771E-02  0.1168107E+00
         -2   -1    0    0    0  501 -0.00000000000E+00  0.00000000000E+00  0.90885693637E+02  0.90885693637E+02  0.00000000000E+00 0.  1.
          1   -1    0    0  502    0  0.00000000000E+00 -0.00000000000E+00 -0.50056979572E+03  0.50056979572E+03  0.00000000000E+00 0. -1.
        -24    2    1    2    0    0 -0.86677610138E+02 -0.12937698191E+03 -0.70025157917E+02  0.19074279614E+03  0.85016939425E+02 0.  0.
         23    2    1    2    0    0  0.65140652900E+02  0.14119855767E+03 -0.32541679577E+03  0.37231500015E+03  0.92423108704E+02 0.  0.
         11    1    3    3    0    0 -0.19894402511E+02  0.23979593739E+01 -0.32728866807E+02  0.38375984455E+02  0.00000000000E+00 0. -1.
        -12    1    3    3    0    0 -0.66783207627E+02 -0.13177494128E+03 -0.37296291110E+02  0.15236681168E+03  0.00000000000E+00 0.  1.
        -13    1    4    4    0    0  0.33441876117E+02  0.55617720206E+02 -0.49278861451E+02  0.81486784603E+02  0.00000000000E+00 0.  1.
         13    1    4    4    0    0  0.31698776783E+02  0.85580837464E+02 -0.27613793432E+03  0.29082821555E+03  0.00000000000E+00 0. -1.
         21    1    1    2  502  501  0.21536957238E+02 -0.11821575760E+02 -0.14242148394E+02  0.28397693065E+02  0.00000000000E+00 0.  1.
<scales pt_clust_5="13000.00000" pt_clust_6="13000.00000" pt_clust_7="13000.00000" pt_clust_8="13000.00000" pt_clust_9="24.56807"></scales>
<clustering>
<clus scale="   24.568">  1  9  2 -1</clus>
<clus scale="   85.017">  5  6 -1 -1</clus>
<clus scale="   92.423">  7  8 -1 -1</clus>
<clus scale="  176.936">  1  5  2 -1</clus>
<clus scale="  180.612">  2  5  1 -1</clus>
</clustering>
</event>
<event>
 9    1  0.2333971E-005  0.1542043E+03  0.7546771E-02  0.1196566E+00
          1   -1    0    0  502    0  0.00000000000E+00  0.00000000000E+00  0.71096882058E+03  0.71096882058E+03  0.00000000000E+00 0. -1.
         -2   -1    0    0    0  501 -0.00000000000E+00 -0.00000000000E+00 -0.16894205079E+03  0.16894205079E+03  0.00000000000E+00 0.  1.
         23    2    1    2    0    0  0.14136773917E+02 -0.87699094975E+02 -0.16538466971E+02  0.12842242302E+03  0.91256880333E+02 0.  0.
        -24    2    1    2    0    0 -0.50039345862E+01  0.12875084447E+03  0.64082959302E+03  0.65909754403E+03  0.84529201741E+02 0.  0.
         11    1    4    4    0    0 -0.12680577282E+02  0.13980420360E+03  0.59481568045E+03  0.61115604071E+03  0.00000000000E+00 0. -1.
        -12    1    4    4    0    0  0.76766426955E+01 -0.11053359129E+02  0.46013912565E+02  0.47941503321E+02  0.00000000000E+00 0.  1.
        -13    1    3    3    0    0 -0.28757999276E+02 -0.11239533019E+02 -0.25837398927E+02  0.40260660801E+02  0.00000000000E+00 0. -1.
         13    1    3    3    0    0  0.42894773193E+02 -0.76459561956E+02  0.92989319560E+01  0.88161762217E+02  0.00000000000E+00 0.  1.
         21    1    1    2  502  501 -0.91328393310E+01 -0.41051749492E+02 -0.82264356259E+02  0.92390904321E+02  0.00000000000E+00 0.  1.
<scales pt_clust_5="13000.00000" pt_clust_6="13000.00000" pt_clust_7="13000.00000" pt_clust_8="13000.00000" pt_clust_9="42.05538"></scales>
<clustering>
<clus scale="   42.055">  2  9  1 -1</clus>
<clus scale="   84.529">  5  6 -1 -1</clus>
<clus scale="   91.257">  7  8 -1 -1</clus>
<clus scale="  150.321">  1  5  2 -1</clus>
<clus scale="  150.321">  1  5  2 -1</clus>
</clustering>
</event>
<event>
 9    1  0.2333971E-005  0.1140665E+03  0.7546771E-02  0.1259189E+00
         -2   -1    0    0    0  501 -0.00000000000E+00  0.00000000000E+00  0.65700038648E+02  0.65700038648E+02  0.00000000000E+00 0.  1.
          1   -1    0    0  502    0  0.00000000000E+00 -0.00000000000E+00 -0.52979591178E+03  0.52979591178E+03  0.00000000000E+00 0. -1.
        -24    2    1    2    0    0  0.32200147600E+02 -0.52792015784E+02  0.42420111069E+01  0.10026345835E+03  0.78809390217E+02 0.  0.
         23    2    1    2    0    0 -0.53871069681E+02  0.35880350685E+02 -0.44387689804E+03  0.45843611826E+03  0.94591131714E+02 0.  0.
         11    1    3    3    0    0  0.12950849014E+01 -0.50599289975E+02 -0.26055980893E+02  0.56928723252E+02  0.00000000000E+00 0. -1.
        -12    1    3    3    0    0  0.30905062699E+02 -0.21927258090E+01  0.30297992000E+02  0.43334735099E+02  0.00000000000E+00 0.  1.
        -13    1    4    4    0    0 -0.61761077811E+02  0.55372359190E+02 -0.41186803033E+03  0.42013783846E+03  0.00000000000E+00 0. -1.
         13    1    4    4    0    0  0.78900081300E+01 -0.19492008506E+02 -0.32008867702E+02  0.38298279797E+02  0.00000000000E+00 0.  1.
         21    1    1    2  502  501  0.21670922081E+02  0.16911665099E+02 -0.24460986204E+02  0.36796373820E+02  0.00000000000E+00 0.  1.
<scales pt_clust_5="13000.00000" pt_clust_6="13000.00000" pt_clust_7="13000.00000" pt_clust_8="13000.00000" pt_clust_9="27.48878"></scales>
<clustering>
<clus scale="   27.489">  1  9  2 -1</clus>
<clus scale="   78.809">  5  6 -1 -1</clus>
<clus scale="   94.591">  7  8 -1 -1</clus>
<clus scale="  101.364">  1  5  2 -1</clus>
<clus scale="  114.066">  2  5  1 -1</clus>
</clustering>
</event>
<event>
 9    1  0.2333971E-005  0.1007163E+03  0.7546771E-02  0.1284474E+00
          1   -1    0    0  502    0  0.00000000000E+00  0.00000000000E+00  0.31064647954E+03  0.31064647954E+03  0.00000000000E+00 0. -1.
         -2   -1    0    0    0  501 -0.00000000000E+00 -0.00000000000E+00 -0.61720862704E+02  0.61720862704E+02  0.00000000000E+00 0.  1.
        -24    2    1    2    0    0  0.17335962184E+02  0.14571059099E+02  0.83680124511E+02  0.11843446680E+03  0.80693917609E+02 0.  0.
         23    2    1    2    0    0 -0.49476166490E+02 -0.26975317747E+02  0.18501974703E+03  0.21421034387E+03  0.92077173133E+02 0.  0.
         13    1    3    3    0    0  0.46633292544E+01 -0.29377738141E+02  0.59908341639E+02  0.66886527312E+02  0.00000000000E+00 0. -1.
        -14    1    3    3    0    0  0.12672632929E+02  0.43948797239E+02  0.23771782872E+02  0.51547939484E+02  0.00000000000E+00 0.  1.
        -11    1    4    4    0    0 -0.17440981588E+02  0.34350036395E+02  0.73132879111E+02  0.82659124398E+02  0.00000000000E+00 0. -1.
         11    1    4    4    0    0 -0.32035184903E+02 -0.61325354141E+02  0.11188686792E+03  0.13155121947E+03  0.00000000000E+00 0.  1.
         21    1    1    2  502  501  0.32140204307E+02  0.12404258648E+02 -0.19774254707E+02  0.39722531575E+02  0.00000000000E+00 0.  1.
<scales pt_clust_5="13000.00000" pt_clust_6="13000.00000" pt_clust_7="13000.00000" pt_clust_8="13000.00000" pt_clust_9="34.45081"></scales>
<clustering>
<clus scale="   34.451">  2  9  1 -1</clus>
<clus scale="   80.694">  5  6 -1 -1</clus>
<clus scale="   90.427">  2  5  1 -1</clus>
<clus scale="   92.077">  7  8 -1 -1</clus>
<clus scale="  100.716">  1  5  2 -1</clus>
</clustering>
</event>
<event>
 9    1  0.2333971E-005  0.2362345E+03  0.7546771E-02  0.1158296E+00
          1   -1    0    0  502    0  0.00000000000E+00  0.00000000000E+00  0.56960772010E+03  0.56960772010E+03  0.00000000000E+00 0. -1.
         -2   -1    0    0    0  501 -0.00000000000E+00 -0.00000000000E+00 -0.14785574775E+03  0.14785574775E+03  0.00000000000E+00 0.  1.
         23    2    1    2    0    0  0.11954080831E+02 -0.22158722536E+02  0.33708858754E+02  0.10480235390E+03  0.95986130208E+02 0.  0.
        -24    2    1    2    0    0  0.10985173066E+03 -0.18034031985E+03  0.25476951729E+03  0.34135986191E+03  0.83839219294E+02 0.  0.
         13    1    4    4    0    0  0.86735204239E+02 -0.18380267722E+03  0.23544416108E+03  0.31103114441E+03  0.00000000000E+00 0. -1.
        -14    1    4    4    0    0  0.23116526426E+02  0.34623573716E+01  0.19325356208E+02  0.30328717499E+02  0.00000000000E+00 0.  1.
        -13    1    3    3    0    0  0.34002045240E+02 -0.17500682990E+02 -0.22412821887E+02  0.44325473156E+02  0.00000000000E+00 0. -1.
         13    1    3    3    0    0 -0.22047964408E+02 -0.46580395466E+01  0.56121680641E+02  0.60476880748E+02  0.00000000000E+00 0.  1.
         21    1    1    2  502  501 -0.12180581150E+03  0.20249904239E+03  0.13327359631E+03  0.27130125203E+03  0.00000000000E+00 0.  1.
<scales pt_clust_5="13000.00000" pt_clust_6="13000.00000" pt_clust_7="13000.00000" pt_clust_8="13000.00000" pt_clust_9="220.85675"></scales>
<clustering>
<clus scale="   83.839">  5  6 -1 -1</clus>
<clus scale="   95.986">  7  8 -1 -1</clus>
<clus scale="   99.233">  2  7  1 -1</clus>
<clus scale="  220.857">  2  9  1 -1</clus>
<clus scale="  236.234">  1  5  2 -1</clus>
</clustering>
</event>
<event>
 9    1  0.2333971E-005  0.1095565E+03  0.7546771E-02  0.1266739E+00
         -2   -1    0    0    0  501 -0.00000000000E+00  0.00000000000E+00  0.28764631886E+03  0.28764631886E+03  0.00000000000E+00 0.  1.
          1   -1    0    0  502    0  0.00000000000E+00 -0.00000000000E+00 -0.18955737400E+03  0.18955737400E+03  0.00000000000E+00 0. -1.
         23    2    1    2    0    0  0.16535611912E+02  0.20661906735E+02  0.17662490189E+03  0.20080415594E+03  0.91791133693E+02 0.  0.
        -24    2    1    2    0    0 -0.57936648183E+02  0.27675767499E+02 -0.14976662656E+03  0.18087789102E+03  0.78512201086E+02 0.  0.
         11    1    4    4    0    0 -0.72438859709E+02  0.16655356503E+02 -0.81858512631E+02  0.11056945956E+03  0.00000000000E+00 0. -1.
        -12    1    4    4    0    0  0.14502211526E+02  0.11020410996E+02 -0.67908113929E+02  0.70308431465E+02  0.00000000000E+00 0.  1.
        -11    1    3    3    0    0  0.45931255053E+02  0.12561677317E+02  0.44390500063E+02  0.65099865005E+02  0.00000000000E+00 0.  1.
         11    1    3    3    0    0 -0.29395643141E+02  0.81002294182E+01  0.13223440182E+03  0.13570429094E+03  0.00000000000E+00 0. -1.
         21    1    1    2  502  501  0.41401036271E+02 -0.48337674234E+02  0.71230669532E+02  0.95521645906E+02  0.00000000000E+00 0.  1.
<scales pt_clust_5="13000.00000" pt_clust_6="13000.00000" pt_clust_7="13000.00000" pt_clust_8="13000.00000" pt_clust_9="63.64414"></scales>
<clustering>
<clus scale="   63.644">  1  9  2 -1</clus>
<clus scale="   78.512">  5  6 -1 -1</clus>
<clus scale="   91.791">  7  8 -1 -1</clus>
<clus scale="   98.697">  2  5  1 -1</clus>
<clus scale="   98.697">  2  5  1 -1</clus>
</clustering>
</event>
<event>
 9    1  0.2333971E-005  0.9697374E+02  0.7546771E-02  0.1295110E+00
         -2   -1    0    0    0  501 -0.00000000000E+00  0.00000000000E+00  0.68247461760E+02  0.68247461760E+02  0.00000000000E+00 0.  1.
          1   -1    0    0  502    0  0.00000000000E+00 -0.00000000000E+00 -0.21494143075E+03  0.21494143075E+03  0.00000000000E+00 0. -1.
         23    2    1    2    0    0 -0.11283653788E+02 -0.80556330375E+01 -0.58030848800E+01  0.96189153033E+02  0.95007701270E+02 0.  0.
        -24    2    1    2    0    0  0.18614699036E+02 -0.13575791275E+02 -0.14108635154E+03  0.16415896564E+03  0.80696953341E+02 0.  0.
         13    1    4    4    0    0 -0.19843100464E+02 -0.90396329765E+01 -0.11597105150E+03  0.11800317108E+03  0.00000000000E+00 0. -1.
        -14    1    4    4    0    0  0.38457799500E+02 -0.45361582982E+01 -0.25115300044E+02  0.46155794553E+02  0.00000000000E+00 0.  1.
        -13    1    3    3    0    0  0.72435663624E+01 -0.39008305562E+02  0.26544618049E+02  0.47736085971E+02  0.00000000000E+00 0.  1.
         13    1    3    3    0    0 -0.18527220150E+02  0.30952672525E+02 -0.32347702929E+02  0.48453067062E+02  0.00000000000E+00 0. -1.
         21    1    1    2  502  501 -0.73310452482E+01  0.21631424312E+02  0.19546742962E+00  0.22840773843E+02  0.00000000000E+00 0.  1.
<scales pt_clust_5="13000.00000" pt_clust_6="13000.00000" pt_clust_7="13000.00000" pt_clust_8="13000.00000" pt_clust_9="22.83994"></scales>
<clustering>
<clus scale="   22.840">  1  9  2 -1</clus>
<clus scale="   80.697">  5  6 -1 -1</clus>
<clus scale="   83.003">  2  5  1 -1</clus>
<clus scale="   95.008">  7  8 -1 -1</clus>
<clus scale="   83.003">  2  5  1 -1</clus>
</clustering>
</event>
<event>
 9    1  0.2542223E-005  0.1090468E+03  0.7546771E-02  0.1268184E+00
         -2   -1    0    0    0  501 -0.00000000000E+00  0.00000000000E+00  0.27834068657E+03  0.27834068657E+03  0.00000000000E+00 0.  1.
          1   -1    0    0  502    0  0.00000000000E+00 -0.00000000000E+00 -0.19521252664E+03  0.19521252664E+03  0.00000000000E+00 0. -1.
        -24    2    1    2    0    0 -0.37240888566E+02  0.40172003065E+02  0.23055663947E+03  0.25071462018E+03  0.81858311454E+02 0.  0.
         23    2    1    2    0    0  0.10917517482E+01 -0.21958688042E+02 -0.15328812367E+03  0.18193846632E+03  0.95503825914E+02 0.  0.
         11    1    3    3    0    0  0.24641626747E+02  0.49266760373E+00  0.49271852124E+02  0.55092357926E+02  0.00000000000E+00 0. -1.
        -12    1    3    3    0    0 -0.61882515313E+02  0.39679335462E+02  0.18128478735E+03  0.19562226225E+03  0.00000000000E+00 0.  1.
        -13    1    4    4    0    0 -0.22738237292E+02 -0.40080500653E+02 -0.29809505577E+02  0.54882425152E+02  0.00000000000E+00 0.  1.
         13    1    4    4    0    0  0.23829989040E+02  0.18121812611E+02 -0.12347861809E+03  0.12705604116E+03  0.00000000000E+00 0. -1.
         21    1    1    2  502  501  0.36149136817E+02 -0.18213315023E+02  0.58596441264E+01  0.40900126724E+02  0.00000000000E+00 0. -1.
<scales pt_clust_5="13000.00000" pt_clust_6="13000.00000" pt_clust_7="13000.00000" pt_clust_8="13000.00000" pt_clust_9="40.47820"></scales>
<clustering>
<clus scale="   40.478">  2  9  1 -1</clus>
<clus scale="   81.858">  5  6 -1 -1</clus>
<clus scale="   95.504">  7  8 -1 -1</clus>
<clus scale="   97.319">  1  5  2 -1</clus>
<clus scale="   40.478">  2  5  1 -1</clus>
</clustering>
</event>
<event>
 9    1  0.2333971E-005  0.4640322E+03  0.7546771E-02  0.1023798E+00
          1   -1    0    0  502    0  0.00000000000E+00  0.00000000000E+00  0.94016772872E+03  0.94016772872E+03  0.00000000000E+00 0. -1.
         -2   -1    0    0    0  501 -0.00000000000E+00 -0.00000000000E+00 -0.35836131281E+03  0.35836131281E+03  0.00000000000E+00 0.  1.
         23    2    1    2    0    0  0.38928721706E+03  0.22233538978E+03 -0.56768704999E+01  0.45758887469E+03  0.91530259868E+02 0.  0.
        -24    2    1    2    0    0 -0.38761165349E+03 -0.24238522355E+03  0.63674965967E+03  0.78772382647E+03  0.77880082133E+02 0.  0.
         13    1    4    4    0    0 -0.28829046139E+03 -0.17753332825E+03  0.52533913082E+03  0.62498854000E+03  0.00000000000E+00 0. -1.
        -14    1    4    4    0    0 -0.99321192095E+02 -0.64851895305E+02  0.11141052885E+03  0.16273528647E+03  0.00000000000E+00 0.  1.
        -11    1    3    3    0    0  0.24376055017E+03  0.86992410746E+02 -0.33439719042E+01  0.25883984912E+03  0.00000000000E+00 0.  1.
         11    1    3    3    0    0  0.14552666689E+03  0.13534297903E+03 -0.23328985957E+01  0.19874902557E+03  0.00000000000E+00 0. -1.
         21    1    1    2  502  501 -0.16755635752E+01  0.20049833777E+02 -0.49266373259E+02  0.53216340365E+02  0.00000000000E+00 0. -1.
<scales pt_clust_5="13000.00000" pt_clust_6="13000.00000" pt_clust_7="13000.00000" pt_clust_8="13000.00000" pt_clust_9="20.11973"></scales>
<clustering>
<clus scale="   20.120">  2  9  1 -1</clus>
<clus scale="   77.880">  5  6 -1 -1</clus>
<clus scale="   91.530">  7  8 -1 -1</clus>
<clus scale="  461.534">  1  5  2 -1</clus>
<clus scale="  461.534">  1  5  2 -1</clus>
</clustering>
</event>
<event>
 9    1  0.2333971E-005  0.2073152E+03  0.7546771E-02  0.1144651E+00
         -2   -1    0    0    0  501 -0.00000000000E+00  0.00000000000E+00  0.44933670617E+03  0.44933670617E+03  0.00000000000E+00 0.  1.
          1   -1    0    0  502    0  0.00000000000E+00 -0.00000000000E+00 -0.39816768532E+03  0.39816768532E+03  0.00000000000E+00 0. -1.
        -24    2    1    2    0    0 -0.14127403415E+03  0.17836668466E+03 -0.31961077732E+02  0.24332022649E+03  0.80063694685E+02 0.  0.
         23    2    1    2    0    0  0.10974535929E+03 -0.13229289189E+03 -0.22131173012E+03  0.29466570226E+03  0.91123767880E+02 0.  0.
         11    1    3    3    0    0 -0.30542193769E+02  0.49511996423E+02 -0.44084278925E+02  0.72991006558E+02  0.00000000000E+00 0. -1.
        -12    1    3    3    0    0 -0.11073184038E+03  0.12885468823E+03  0.12123201193E+02  0.17032921993E+03  0.00000000000E+00 0.  1.
        -11    1    4    4    0    0  0.68895545495E+02 -0.32988698645E+02 -0.46251751480E+02  0.89297676019E+02  0.00000000000E+00 0.  1.
         11    1    4    4    0    0  0.40849813792E+02 -0.99304193241E+02 -0.17505997864E+03  0.20536802624E+03  0.00000000000E+00 0. -1.
         21    1    1    2  502  501  0.31528674862E+02 -0.46073792772E+02  0.30444182870E+03  0.30951846274E+03  0.00000000000E+00 0.  1.
<scales pt_clust_5="13000.00000" pt_clust_6="13000.00000" pt_clust_7="13000.00000" pt_clust_8="13000.00000" pt_clust_9="55.82877"></scales>
<clustering>
<clus scale="   55.829">  1  9  2 -1</clus>
<clus scale="   80.064">  5  6 -1 -1</clus>
<clus scale="   91.124">  7  8 -1 -1</clus>
<clus scale="  202.697">  1  5  2 -1</clus>
<clus scale="  207.315">  2  5  1 -1</clus>
</clustering>
</event>
<event>
 9    1  0.2333971E-005  0.1229471E+03  0.7546771E-02  0.1241860E+00
         -2   -1    0    0    0  501 -0.00000000000E+00  0.00000000000E+00  0.78132201625E+02  0.78132201625E+02  0.00000000000E+00 0.  1.
          1   -1    0    0  502    0  0.00000000000E+00 -0.00000000000E+00 -0.26921016952E+03  0.26921016952E+03  0.00000000000E+00 0. -1.
        -24    2    1    2    0    0  0.24112440784E+02  0.68147087768E+02 -0.72566422284E+02  0.13023461232E+03  0.80434651932E+02 0.  0.
         23    2    1    2    0    0 -0.47733825787E+02 -0.76733552032E+02 -0.13520560439E+03  0.18693510901E+03  0.92182554689E+02 0.  0.
         11    1    3    3    0    0  0.74217173896E+01  0.49261368388E+02 -0.87681563906E+02  0.10084553016E+03  0.00000000000E+00 0. -1.
        -12    1    3    3    0    0  0.16690723394E+02  0.18885719380E+02  0.15115141622E+02  0.29389082159E+02  0.00000000000E+00 0.  1.
        -11    1    4    4    0    0 -0.72009097955E+02 -0.65187985493E+02 -0.81173407622E+02  0.12658556689E+03  0.00000000000E+00 0.  1.
         11    1    4    4    0    0  0.24275272168E+02 -0.11545566539E+02 -0.54032196770E+02  0.60349542113E+02  0.00000000000E+00 0. -1.
         21    1    1    2  502  501  0.23621385003E+02  0.85864642639E+01  0.16694058784E+02  0.30172649813E+02  0.00000000000E+00 0.  1.
<scales pt_clust_5="13000.00000" pt_clust_6="13000.00000" pt_clust_7="13000.00000" pt_clust_8="13000.00000" pt_clust_9="25.13359"></scales>
<clustering>
<clus scale="   25.134">  1  9  2 -1</clus>
<clus scale="   80.435">  5  6 -1 -1</clus>
<clus scale="   92.183">  7  8 -1 -1</clus>
<clus scale="  114.403">  1  5  2 -1</clus>
<clus scale="  122.947">  2  5  1 -1</clus>
</clustering>
</event>
<event>
 9    1  0.2333971E-005  0.1476306E+03  0.7546771E-02  0.1207085E+00
         -2   -1    0    0    0  501 -0.00000000000E+00  0.00000000000E+00  0.63073090149E+03  0.63073090149E+03  0.00000000000E+00 0.  1.
          1   -1    0    0  502    0  0.00000000000E+00 -0.00000000000E+00 -0.10213368969E+03  0.10213368969E+03  0.00000000000E+00 0. -1.
         23    2    1    2    0    0 -0.56352124705E+02  0.12981425460E+03  0.47868958654E+03  0.50850561076E+03  0.96989346064E+02 0.  0.
        -24    2    1    2    0    0  0.69184582610E+02 -0.83479457242E+02 -0.23978563539E+02  0.13620709833E+03  0.78880136122E+02 0.  0.
         11    1    4    4    0    0  0.23850695146E+02 -0.85381725982E+02 -0.14000532988E+02  0.89749148823E+02  0.00000000000E+00 0. -1.
        -12    1    4    4    0    0  0.45333887464E+02  0.19022687402E+01 -0.99780305502E+01  0.46457949510E+02  0.00000000000E+00 0.  1.
        -11    1    3    3    0    0 -0.15647699212E+02  0.12381957295E+03  0.29590698820E+03  0.32114962681E+03  0.00000000000E+00 0.  1.
         11    1    3    3    0    0 -0.40704425493E+02  0.59946816505E+01  0.18278259835E+03  0.18735598395E+03  0.00000000000E+00 0. -1.
         21    1    1    2  502  501 -0.12832457905E+02 -0.46334797354E+02  0.73886188789E+02  0.88151882087E+02  0.00000000000E+00 0. -1.
<scales pt_clust_5="13000.00000" pt_clust_6="13000.00000" pt_clust_7="13000.00000" pt_clust_8="13000.00000" pt_clust_9="48.07895"></scales>
<clustering>
<clus scale="   48.079">  1  9  2 -1</clus>
<clus scale="   78.880">  5  6 -1 -1</clus>
<clus scale="   96.989">  7  8 -1 -1</clus>
<clus scale="  136.418">  2  5  1 -1</clus>
<clus scale="  136.418">  2  5  1 -1</clus>
</clustering>
</event>
<event>
 9    1  0.2333971E-005  0.1974793E+03  0.7546771E-02  0.1153794E+00
         -2   -1    0    0    0  501 -0.00000000000E+00  0.00000000000E+00  0.13368725150E+03  0.13368725150E+03  0.00000000000E+00 0.  1.
          1   -1    0    0  502    0  0.00000000000E+00 -0.00000000000E+00 -0.38724658544E+03  0.38724658544E+03  0.00000000000E+00 0. -1.
         23    2    1    2    0    0 -0.16127751193E+03 -0.14087106023E+02 -0.83664954314E+02  0.20782552850E+03  0.99913679280E+02 0.  0.
        -24    2    1    2    0    0  0.16745358629E+03  0.63050010291E+02 -0.17540393509E+03  0.26345083075E+03  0.81386684508E+02 0.  0.
         13    1    4    4    0    0  0.34261797756E+02 -0.11654131372E+02 -0.83990661632E+01  0.37151498973E+02  0.00000000000E+00 0. -1.
        -14    1    4    4    0    0  0.13319178854E+03  0.74704141663E+02 -0.16700486893E+03  0.22629933178E+03  0.00000000000E+00 0.  1.
        -11    1    3    3    0    0 -0.96881336275E+02 -0.29606301707E+02 -0.97001751604E+02  0.14025643028E+03  0.00000000000E+00 0. -1.
         11    1    3    3    0    0 -0.64396175650E+02  0.15519195684E+02  0.13336797290E+02  0.67569098226E+02  0.00000000000E+00 0.  1.
         21    1    1    2  502  501 -0.61760743678E+01 -0.48962904268E+02  0.55095554628E+01  0.49657477688E+02  0.00000000000E+00 0. -1.
<scales pt_clust_5="13000.00000" pt_clust_6="13000.00000" pt_clust_7="13000.00000" pt_clust_8="13000.00000" pt_clust_9="49.35089"></scales>
<clustering>
<clus scale="   49.351">  1  9  2 -1</clus>
<clus scale="   81.387">  5  6 -1 -1</clus>
<clus scale="   99.914">  7  8 -1 -1</clus>
<clus scale="  188.783">  2  5  1 -1</clus>
<clus scale="  188.783">  2  5  1 -1</clus>
</clustering>
</event>
<event>
 9    1  0.2333971E-005  0.1025129E+03  0.7546771E-02  0.1280675E+00
          1   -1    0    0  502    0  0.00000000000E+00  0.00000000000E+00  0.58061281557E+03  0.58061281557E+03  0.00000000000E+00 0. -1.
         -2   -1    0    0    0  501 -0.00000000000E+00 -0.00000000000E+00 -0.60825643218E+02  0.60825643218E+02  0.00000000000E+00 0.  1.
        -24    2    1    2    0    0  0.24777085652E+02  0.35321632922E+02  0.12011014452E+02  0.90400991573E+02  0.78527403392E+02 0.  0.
         23    2    1    2    0    0  0.33556753488E+02 -0.41385524875E+02  0.46929042361E+03  0.48088934309E+03  0.90455741821E+02 0.  0.
         11    1    3    3    0    0  0.50897452692E+02  0.37634885956E+02  0.67877843609E+01  0.63663249587E+02  0.00000000000E+00 0. -1.
        -12    1    3    3    0    0 -0.26120367040E+02 -0.23132530341E+01  0.52232300908E+01  0.26737741986E+02  0.00000000000E+00 0.  1.
        -11    1    4    4    0    0  0.45840118282E+02  0.14049548584E+02  0.19820007536E+03  0.20391659111E+03  0.00000000000E+00 0. -1.
         11    1    4    4    0    0 -0.12283364794E+02 -0.55435073459E+02  0.27109034826E+03  0.27697275198E+03  0.00000000000E+00 0.  1.
         21    1    1    2  502  501 -0.58333839140E+02  0.60638919533E+01  0.38485734282E+02  0.70148124121E+02  0.00000000000E+00 0.  1.
<scales pt_clust_5="13000.00000" pt_clust_6="13000.00000" pt_clust_7="13000.00000" pt_clust_8="13000.00000" pt_clust_9="58.64817"></scales>
<clustering>
<clus scale="   58.648">  2  9  1 -1</clus>
<clus scale="   78.527">  5  6 -1 -1</clus>
<clus scale="   90.456">  7  8 -1 -1</clus>
<clus scale="   92.159">  2  5  1 -1</clus>
<clus scale="  102.513">  1  5  2 -1</clus>
</clustering>
</event>
<event>
 9    1  0.2333971E-005  0.3012064E+03  0.7546771E-02  0.1084988E+00
          1   -1    0    0  502    0  0.00000000000E+00  0.00000000000E+00  0.10379692045E+04  0.10379692045E+04  0.00000000000E+00 0. -1.
         -2   -1    0    0    0  501 -0.00000000000E+00 -0.00000000000E+00 -0.18010592845E+03  0.18010592845E+03  0.00000000000E+00 0.  1.
        -24    2    1    2    0    0  0.19676746032E+03 -0.18126840271E+03  0.25828715796E+03  0.38085689361E+03  0.82243845850E+02 0.  0.
         23    2    1    2    0    0 -0.20032572150E+03  0.22060689221E+03  0.67974001088E+03  0.74785142408E+03  0.91855726683E+02 0.  0.
         13    1    3    3    0    0  0.18946725032E+03 -0.13413243172E+03  0.21142690894E+03  0.31399153811E+03  0.00000000000E+00 0. -1.
        -14    1    3    3    0    0  0.73002100006E+01 -0.47135970991E+02  0.46860249015E+02  0.66865355492E+02  0.00000000000E+00 0.  1.
        -13    1    4    4    0    0 -0.12406410041E+03  0.10788382023E+03  0.27019260162E+03  0.31628288232E+03  0.00000000000E+00 0.  1.
         13    1    4    4    0    0 -0.76261621095E+02  0.11272307198E+03  0.40954740926E+03  0.43156854177E+03  0.00000000000E+00 0. -1.
         21    1    1    2  502  501  0.35582611796E+01 -0.39338489498E+02 -0.80163892744E+02  0.89366815310E+02  0.00000000000E+00 0. -1.
<scales pt_clust_5="13000.00000" pt_clust_6="13000.00000" pt_clust_7="13000.00000" pt_clust_8="13000.00000" pt_clust_9="39.49909"></scales>
<clustering>
<clus scale="   39.499">  2  9  1 -1</clus>
<clus scale="   82.244">  5  6 -1 -1</clus>
<clus scale="   91.856">  7  8 -1 -1</clus>
<clus scale="  298.416">  2  5  1 -1</clus>
<clus scale="  301.206">  1  5  2 -1</clus>
</clustering>
</event>
<event>
 9    1  0.2333971E-005  0.1460005E+03  0.7546771E-02  0.1205807E+00
         -2   -1    0    0    0  501 -0.00000000000E+00  0.00000000000E+00  0.12135185882E+03  0.12135185882E+03  0.00000000000E+00 0.  1.
          1   -1    0    0  502    0  0.00000000000E+00 -0.00000000000E+00 -0.32985779836E+03  0.32985779836E+03  0.00000000000E+00 0. -1.
        -24    2    1    2    0    0  0.10342832289E+03 -0.16516954445E+02  0.37584200764E+02  0.13728763884E+03  0.80405819889E+02 0.  0.
         23    2    1    2    0    0 -0.11572466700E+03  0.47705306286E+02 -0.23487660663E+03  0.27857153452E+03  0.82262292096E+02 0.  0.
         11    1    3    3    0    0  0.52733777623E+01  0.24192878999E+02  0.13981232188E+02  0.28435519352E+02  0.00000000000E+00 0. -1.
        -12    1    3    3    0    0  0.98154945127E+02 -0.40709833445E+02  0.23602968576E+02  0.10885211949E+03  0.00000000000E+00 0.  1.
        -11    1    4    4    0    0 -0.55366476222E+02  0.66446672135E+02 -0.13086384898E+03  0.15686285059E+03  0.00000000000E+00 0. -1.
         11    1    4    4    0    0 -0.60358190777E+02 -0.18741365850E+02 -0.10401275765E+03  0.12170868392E+03  0.00000000000E+00 0.  1.
         21    1    1    2  502  501  0.12296344110E+02 -0.31188351841E+02 -0.11213533676E+02  0.35350483823E+02  0.00000000000E+00 0.  1.
<scales pt_clust_5="13000.00000" pt_clust_6="13000.00000" pt_clust_7="13000.00000" pt_clust_8="13000.00000" pt_clust_9="33.52482"></scales>
<clustering>
<clus scale="   33.525">  1  9  2 -1</clus>
<clus scale="   80.406">  5  6 -1 -1</clus>
<clus scale="   82.262">  7  8 -1 -1</clus>
<clus scale="  144.963">  1  5  2 -1</clus>
<clus scale="  146.001">  2  5  1 -1</clus>
</clustering>
</event>
<event>
 9    1  0.2333971E-005  0.9252121E+02  0.7546771E-02  0.1300234E+00
          1   -1    0    0  502    0  0.00000000000E+00  0.00000000000E+00  0.37056971667E+03  0.37056971667E+03  0.00000000000E+00 0. -1.
         -2   -1    0    0    0  501 -0.00000000000E+00 -0.00000000000E+00 -0.10844113476E+03  0.10844113476E+03  0.00000000000E+00 0.  1.
         23    2    1    2    0    0 -0.67522054349E+01  0.83288434420E-01 -0.40930406625E+01  0.89982225730E+02  0.89635086602E+02 0.  0.
        -24    2    1    2    0    0  0.18255590005E+02 -0.17328598425E+02  0.31980706937E+03  0.33157317617E+03  0.83849046750E+02 0.  0.
         11    1    4    4    0    0  0.47748025711E+02 -0.16903495190E+02  0.13055577717E+03  0.14003718457E+03  0.00000000000E+00 0. -1.
        -12    1    4    4    0    0 -0.29492435706E+02 -0.42510323449E+00  0.18925129220E+03  0.19153599160E+03  0.00000000000E+00 0.  1.
        -13    1    3    3    0    0  0.34743113224E+02 -0.23699924541E+02 -0.23639555415E+01  0.42123136464E+02  0.00000000000E+00 0. -1.
         13    1    3    3    0    0 -0.41495318659E+02  0.23783212975E+02 -0.17290851211E+01  0.47859089266E+02  0.00000000000E+00 0.  1.
         21    1    1    2  502  501 -0.11503384570E+02  0.17245309991E+02 -0.53585446802E+02  0.57455449543E+02  0.00000000000E+00 0.  1.
<scales pt_clust_5="13000.00000" pt_clust_6="13000.00000" pt_clust_7="13000.00000" pt_clust_8="13000.00000" pt_clust_9="20.72990"></scales>
<clustering>
<clus scale="   20.730">  2  9  1 -1</clus>
<clus scale="   83.849">  5  6 -1 -1</clus>
<clus scale="   86.927">  1  5  2 -1</clus>
<clus scale="   89.635">  7  8 -1 -1</clus>
<clus scale="   86.927">  1  5  2 -1</clus>
</clustering>
</event>
<event>
 9    1  0.2333971E-005  0.1184048E+03  0.7546771E-02  0.1249790E+00
         -4   -1    0    0    0  501 -0.00000000000E+00  0.00000000000E+00  0.18735513891E+03  0.18735513891E+03  0.00000000000E+00 0.  1.
          3   -1    0    0  502    0  0.00000000000E+00 -0.00000000000E+00 -0.31039634744E+03  0.31039634744E+03  0.00000000000E+00 0. -1.
         23    2    1    2    0    0  0.34494000463E+02 -0.40035822245E+02  0.54967195427E+02  0.11927735115E+03  0.91722357110E+02 0.  0.
        -24    2    1    2    0    0  0.26883889756E+02  0.76903020357E+02 -0.25138707718E+03  0.27595162357E+03  0.79479669789E+02 0.  0.
         11    1    4    4    0    0  0.26365174751E+02  0.14306625484E+02 -0.17327018606E+03  0.17584754576E+03  0.00000000000E+00 0. -1.
        -12    1    4    4    0    0  0.51871500531E+00  0.62596394873E+02 -0.78116891125E+02  0.10010407782E+03  0.00000000000E+00 0.  1.
        -13    1    3    3    0    0 -0.58742418461E+01 -0.60235275543E+02  0.27880622993E+02  0.66634257522E+02  0.00000000000E+00 0.  1.
         13    1    3    3    0    0  0.40368242309E+02  0.20199453298E+02  0.27086572434E+02  0.52643093630E+02  0.00000000000E+00 0. -1.
         21    1    1    2  502  501 -0.61377890220E+02 -0.36867198112E+02  0.73378673224E+02  0.10252251162E+03  0.00000000000E+00 0.  1.
<scales pt_clust_5="13000.00000" pt_clust_6="13000.00000" pt_clust_7="13000.00000" pt_clust_8="13000.00000" pt_clust_9="71.59913"></scales>
<clustering>
<clus scale="   71.599">  1  9  2 -1</clus>
<clus scale="   79.480">  5  6 -1 -1</clus>
<clus scale="   91.722">  7  8 -1 -1</clus>
<clus scale="  109.196">  2  5  1 -1</clus>
<clus scale="  109.196">  2  5  1 -1</clus>
</clustering>
</event>
<event>
 9    1  0.2333971E-005  0.1192617E+03  0.7546771E-02  0.1251369E+00
         -2   -1    0    0    0  501 -0.00000000000E+00  0.00000000000E+00  0.86307756099E+02  0.86307756099E+02  0.00000000000E+00 0.  1.
          1   -1    0    0  502    0  0.00000000000E+00 -0.00000000000E+00 -0.47491615579E+03  0.47491615579E+03  0.00000000000E+00 0. -1.
        -24    2    1    2    0    0  0.87478110576E+01  0.88137710966E+02 -0.36268153272E+02  0.12380653891E+03  0.78535978011E+02 0.  0.
         23    2    1    2    0    0 -0.74400808660E+02 -0.14737591468E+02 -0.30259648560E+03  0.32708906575E+03  0.98335888159E+02 0.  0.
         11    1    3    3    0    0 -0.17406349439E+02  0.50346149213E+02 -0.52762379899E+02  0.74977226369E+02  0.00000000000E+00 0. -1.
        -12    1    3    3    0    0  0.26154160497E+02  0.37791561754E+02  0.16494226628E+02  0.48829312540E+02  0.00000000000E+00 0.  1.
        -11    1    4    4    0    0 -0.88893862583E+02  0.11643706211E+02 -0.25926926132E+03  0.27433236149E+03  0.00000000000E+00 0. -1.
         11    1    4    4    0    0  0.14493053923E+02 -0.26381297679E+02 -0.43327224288E+02  0.52756704254E+02  0.00000000000E+00 0.  1.
         21    1    1    2  502  501  0.65652997602E+02 -0.73400119499E+02 -0.49743760813E+02  0.11032830723E+03  0.00000000000E+00 0.  1.
<scales pt_clust_5="13000.00000" pt_clust_6="13000.00000" pt_clust_7="13000.00000" pt_clust_8="13000.00000" pt_clust_9="98.47788"></scales>
<clustering>
<clus scale="   78.536">  5  6 -1 -1</clus>
<clus scale="   98.336">  7  8 -1 -1</clus>
<clus scale="   98.478">  1  9  2 -1</clus>
<clus scale="  103.544">  1  5  2 -1</clus>
<clus scale="  119.262">  2  5  1 -1</clus>
</clustering>
</event>
<event>
 9    1  0.2333971E-005  0.1436502E+03  0.7546771E-02  0.1210264E+00
         -2   -1    0    0    0  501 -0.00000000000E+00  0.00000000000E+00  0.12554386922E+03  0.12554386922E+03  0.00000000000E+00 0.  1.
          1   -1    0    0  502    0  0.00000000000E+00 -0.00000000000E+00 -0.39957987180E+03  0.39957987180E+03  0.00000000000E+00 0. -1.
         23    2    1    2    0    0  0.91942321462E+02  0.46699859403E+02  0.39789110369E+02  0.14256345409E+03  0.90038312923E+02 0.  0.
        -24    2    1    2    0    0 -0.66473755049E+02 -0.94248971785E+02 -0.29212789662E+03  0.32441963712E+03  0.81288155177E+02 0.  0.
         11    1    4    4    0    0 -0.77730334198E+02 -0.47655091206E+02 -0.16435053311E+03  0.18794709443E+03  0.00000000000E+00 0. -1.
        -12    1    4    4    0    0  0.11256579149E+02 -0.46593880579E+02 -0.12777736351E+03  0.13647254269E+03  0.00000000000E+00 0.  1.
        -13    1    3    3    0    0  0.32672100411E+02 -0.23585236939E+02 -0.44376448012E+01  0.40539144516E+02  0.00000000000E+00 0. -1.
         13    1    3    3    0    0  0.59270221051E+02  0.70285096342E+02  0.44226755171E+02  0.10202430957E+03  0.00000000000E+00 0.  1.
         21    1    1    2  502  501 -0.25468566413E+02  0.47549112382E+02 -0.21697216337E+02  0.58140649809E+02  0.00000000000E+00 0. -1.
<scales pt_clust_5="13000.00000" pt_clust_6="13000.00000" pt_clust_7="13000.00000" pt_clust_8="13000.00000" pt_clust_9="53.94039"></scales>
<clustering>
<clus scale="   53.940">  1  9  2 -1</clus>
<clus scale="   81.288">  5  6 -1 -1</clus>
<clus scale="   90.038">  7  8 -1 -1</clus>
<clus scale="  138.334">  2  5  1 -1</clus>
<clus scale="  138.334">  2  5  1 -1</clus>
</clustering>
</event>
<event>
 9    1  0.2333971E-005  0.1000267E+03  0.7546771E-02  0.1285609E+00
          3   -1    0    0  502    0  0.00000000000E+00  0.00000000000E+00  0.16805943457E+03  0.16805943457E+03  0.00000000000E+00 0. -1.
         -4   -1    0    0    0  501 -0.00000000000E+00 -0.00000000000E+00 -0.13134196168E+03  0.13134196168E+03  0.00000000000E+00 0.  1.
         23    2    1    2    0    0 -0.34323220018E+02  0.70478878992E+01  0.89803233201E+01  0.97706753591E+02  0.90764570919E+02 0.  0.
        -24    2    1    2    0    0  0.34493998568E+02 -0.31422491001E+02  0.93480908904E+02  0.13157765233E+03  0.79979931143E+02 0.  0.
         13    1    4    4    0    0  0.42156952131E+02  0.28246540598E+00  0.89225041096E+02  0.98683313474E+02  0.00000000000E+00 0. -1.
        -14    1    4    4    0    0 -0.76629535631E+01 -0.31704956407E+02  0.42558678085E+01  0.32894338857E+02  0.00000000000E+00 0.  1.
        -11    1    3    3    0    0 -0.59536574335E+02 -0.56325048379E+01 -0.13874496944E+02  0.61390801101E+02  0.00000000000E+00 0.  1.
         11    1    3    3    0    0  0.25213354318E+02  0.12680392737E+02  0.22854820265E+02  0.36315952490E+02  0.00000000000E+00 0. -1.
         21    1    1    2  502  501 -0.17077855064E+00  0.24374603101E+02 -0.65743759334E+02  0.70116990330E+02  0.00000000000E+00 0.  1.
<scales pt_clust_5="13000.00000" pt_clust_6="13000.00000" pt_clust_7="13000.00000" pt_clust_8="13000.00000" pt_clust_9="24.37520"></scales>
<clustering>
<clus scale="   24.375">  2  9  1 -1</clus>
<clus scale="   79.980">  5  6 -1 -1</clus>
<clus scale="   90.354">  1  5  2 -1</clus>
<clus scale="   90.765">  7  8 -1 -1</clus>
<clus scale="   90.354">  1  5  2 -1</clus>
</clustering>
</event>
<event>
 9    1  0.2333971E-005  0.2643083E+03  0.7546771E-02  0.1105043E+00
          1   -1    0    0  502    0  0.00000000000E+00  0.00000000000E+00  0.39299792902E+03  0.39299792902E+03  0.00000000000E+00 0. -1.
         -2   -1    0    0    0  501 -0.00000000000E+00 -0.00000000000E+00 -0.59568660362E+03  0.59568660362E+03  0.00000000000E+00 0.  1.
        -24    2    1    2    0    0  0.17545455203E+03 -0.11023988547E+03 -0.48640954610E+03  0.53764421964E+03  0.97621351146E+02 0.  0.
         23    2    1    2    0    0 -0.19786015994E+03  0.15191073804E+03  0.30079134869E+03  0.40074247594E+03  0.88845829112E+02 0.  0.
         11    1    3    3    0    0  0.19591007644E+02 -0.54497464031E+02 -0.18395279928E+03  0.19285334721E+03  0.00000000000E+00 0. -1.
        -12    1    3    3    0    0  0.15586354438E+03 -0.55742421437E+02 -0.30245674683E+03  0.34479087244E+03  0.00000000000E+00 0.  1.
        -11    1    4    4    0    0 -0.11726948614E+03  0.74849872509E+02  0.22956661233E+03  0.26843149087E+03  0.00000000000E+00 0. -1.
         11    1    4    4    0    0 -0.80590673801E+02  0.77060865536E+02  0.71224736364E+02  0.13231098507E+03  0.00000000000E+00 0.  1.
         21    1    1    2  502  501  0.22405607913E+02 -0.41670852576E+02 -0.17070477188E+02  0.50297837049E+02  0.00000000000E+00 0.  1.
<scales pt_clust_5="13000.00000" pt_clust_6="13000.00000" pt_clust_7="13000.00000" pt_clust_8="13000.00000" pt_clust_9="47.31248"></scales>
<clustering>
<clus scale="   47.312">  2  9  1 -1</clus>
<clus scale="   88.846">  7  8 -1 -1</clus>
<clus scale="   97.621">  5  6 -1 -1</clus>
<clus scale="  261.194">  1  7  2 -1</clus>
<clus scale="  261.194">  1  5  2 -1</clus>
</clustering>
</event>
<event>
 9    1  0.2333971E-005  0.1547175E+03  0.7546771E-02  0.1196805E+00
         -2   -1    0    0    0  501 -0.00000000000E+00  0.00000000000E+00  0.92977302035E+02  0.92977302035E+02  0.00000000000E+00 0.  1.
          1   -1    0    0  502    0  0.00000000000E+00 -0.00000000000E+00 -0.43052967840E+03  0.43052967840E+03  0.00000000000E+00 0. -1.
        -24    2    1    2    0    0 -0.49208011086E+02 -0.13370019173E+03 -0.34791672110E+02  0.16703063881E+03  0.79947509199E+02 0.  0.
         23    2    1    2    0    0  0.31269821845E+02  0.11563171229E+03 -0.29233519662E+03  0.32896380281E+03  0.91699627766E+02 0.  0.
         13    1    3    3    0    0  0.20037695786E+02 -0.12217879509E+02 -0.66814159774E+01  0.24401376018E+02  0.00000000000E+00 0. -1.
        -14    1    3    3    0    0 -0.69245706872E+02 -0.12148231223E+03 -0.28110256133E+02  0.14262926279E+03  0.00000000000E+00 0.  1.
        -11    1    4    4    0    0 -0.24139069927E+02  0.17716048805E+01 -0.49133459979E+02  0.54771618292E+02  0.00000000000E+00 0. -1.
         11    1    4    4    0    0  0.55408891772E+02  0.11386010741E+03 -0.24320173664E+03  0.27419218452E+03  0.00000000000E+00 0.  1.
         21    1    1    2  502  501  0.17938189241E+02  0.18068479441E+02 -0.10425507633E+02  0.27512538813E+02  0.00000000000E+00 0. -1.
<scales pt_clust_5="13000.00000" pt_clust_6="13000.00000" pt_clust_7="13000.00000" pt_clust_8="13000.00000" pt_clust_9="25.46073"></scales>
<clustering>
<clus scale="   25.461">  1  9  2 -1</clus>
<clus scale="   79.948">  5  6 -1 -1</clus>
<clus scale="   91.700">  7  8 -1 -1</clus>
<clus scale="  148.055">  1  5  2 -1</clus>
<clus scale="  154.718">  2  5  1 -1</clus>
</clustering>
</event>
<event>
 9    1  0.2333971E-005  0.1331075E+03  0.7546771E-02  0.1225667E+00
          1   -1    0    0  502    0  0.00000000000E+00  0.00000000000E+00  0.14690359911E+03  0.14690359911E+03  0.00000000000E+00 0. -1.
         -2   -1    0    0    0  501 -0.00000000000E+00 -0.00000000000E+00 -0.40052485142E+03  0.40052485142E+03  0.00000000000E+00 0.  1.
         23    2    1    2    0    0 -0.49418946873E+02 -0.33414185168E+02 -0.30285767424E+03  0.32196129645E+03  0.91529041746E+02 0.  0.
        -24    2    1    2    0    0  0.86224310154E+02  0.51479355285E+02  0.98042646523E+02  0.16172523149E+03  0.80361273514E+02 0.  0.
         11    1    4    4    0    0  0.81480303459E+02  0.26215391704E+02  0.10463856344E+03  0.13518696524E+03  0.00000000000E+00 0. -1.
        -12    1    4    4    0    0  0.47440066949E+01  0.25263963580E+02 -0.65959169135E+01  0.26538266244E+02  0.00000000000E+00 0.  1.
        -13    1    3    3    0    0  0.27132547105E+02 -0.97076183616E+01 -0.90984652057E+02  0.95439089877E+02  0.00000000000E+00 0. -1.
         13    1    3    3    0    0 -0.76551493978E+02 -0.23706566807E+02 -0.21187302218E+03  0.22652220657E+03  0.00000000000E+00 0.  1.
         21    1    1    2  502  501 -0.36805363281E+02 -0.18065170116E+02 -0.48806224588E+02  0.63741922595E+02  0.00000000000E+00 0.  1.
<scales pt_clust_5="13000.00000" pt_clust_6="13000.00000" pt_clust_7="13000.00000" pt_clust_8="13000.00000" pt_clust_9="40.99982"></scales>
<clustering>
<clus scale="   41.000">  2  9  1 -1</clus>
<clus scale="   80.361">  5  6 -1 -1</clus>
<clus scale="   91.529">  7  8 -1 -1</clus>
<clus scale="  125.690">  1  5  2 -1</clus>
<clus scale="  125.690">  1  5  2 -1</clus>
</clustering>
</event>
<event>
 9    1  0.2333971E-005  0.1123474E+03  0.7546771E-02  0.1261773E+00
         -2   -1    0    0    0  501 -0.00000000000E+00  0.00000000000E+00  0.42436014986E+03  0.42436014986E+03  0.00000000000E+00 0.  1.
          1   -1    0    0  502    0  0.00000000000E+00 -0.00000000000E+00 -0.51062620527E+02  0.51062620527E+02  0.00000000000E+00 0. -1.
        -24    2    1    2    0    0 -0.59299920397E+02 -0.51081131526E+02  0.24050560848E+03  0.26523420195E+03  0.79877854346E+02 0.  0.
         23    2    1    2    0    0  0.39052913898E+02  0.40548736565E+02  0.43255897136E+02  0.11778958490E+03  0.93989273608E+02 0.  0.
         11    1    3    3    0    0 -0.35529191528E+02 -0.18656394417E+02  0.27935826083E+02  0.48895755258E+02  0.00000000000E+00 0. -1.
        -12    1    3    3    0    0 -0.23770728869E+02 -0.32424737109E+02  0.21256978240E+03  0.21633844669E+03  0.00000000000E+00 0.  1.
        -13    1    4    4    0    0  0.13713306617E+02 -0.30729679405E+02  0.17104906418E+02  0.37748454251E+02  0.00000000000E+00 0.  1.
         13    1    4    4    0    0  0.25339607281E+02  0.71278415970E+02  0.26150990718E+02  0.80041130651E+02  0.00000000000E+00 0. -1.
         21    1    1    2  502  501  0.20247006499E+02  0.10532394961E+02  0.89536023717E+02  0.92398983538E+02  0.00000000000E+00 0.  1.
<scales pt_clust_5="13000.00000" pt_clust_6="13000.00000" pt_clust_7="13000.00000" pt_clust_8="13000.00000" pt_clust_9="22.82263"></scales>
<clustering>
<clus scale="   22.823">  1  9  2 -1</clus>
<clus scale="   79.878">  5  6 -1 -1</clus>
<clus scale="   93.989">  7  8 -1 -1</clus>
<clus scale="  100.839">  1  5  2 -1</clus>
<clus scale="  112.347">  2  5  1 -1</clus>
</clustering>
</event>
<event>
 9    1  0.2333971E-005  0.9141269E+02  0.7546771E-02  0.1306854E+00
         -4   -1    0    0    0  501 -0.00000000000E+00  0.00000000000E+00  0.20051327111E+03  0.20051327111E+03  0.00000000000E+00 0.  1.
          3   -1    0    0  502    0  0.00000000000E+00 -0.00000000000E+00 -0.82293037645E+02  0.82293037645E+02  0.00000000000E+00 0. -1.
        -24    2    1    2    0    0 -0.50172623601E+01 -0.15060607277E+02  0.87999624095E+02  0.11933493853E+03  0.79024672724E+02 0.  0.
         23    2    1    2    0    0 -0.13785542567E+02  0.36954541020E+01 -0.32189262382E+02  0.97307148236E+02  0.90712925871E+02 0.  0.
         13    1    3    3    0    0 -0.41130722096E+02 -0.68705403884E+01  0.59253829839E+02  0.72456586837E+02  0.00000000000E+00 0. -1.
        -14    1    3    3    0    0  0.36113459736E+02 -0.81900668885E+01  0.28745794256E+02  0.46878351690E+02  0.00000000000E+00 0.  1.
        -13    1    4    4    0    0 -0.39493457753E+02 -0.18797659957E+02 -0.43141688909E+02  0.61435254920E+02  0.00000000000E+00 0. -1.
         13    1    4    4    0    0  0.25707915186E+02  0.22493114059E+02  0.10952426526E+02  0.35871893316E+02  0.00000000000E+00 0.  1.
         21    1    1    2  502  501  0.18802804927E+02  0.11365153175E+02  0.62409871755E+02  0.66164221996E+02  0.00000000000E+00 0.  1.
<scales pt_clust_5="13000.00000" pt_clust_6="13000.00000" pt_clust_7="13000.00000" pt_clust_8="13000.00000" pt_clust_9="21.97071"></scales>
<clustering>
<clus scale="   21.971">  1  9  2 -1</clus>
<clus scale="   79.025">  5  6 -1 -1</clus>
<clus scale="   79.827">  1  5  2 -1</clus>
<clus scale="   90.713">  7  8 -1 -1</clus>
<clus scale="   91.413">  2  5  1 -1</clus>
</clustering>
</event>
<event>
 9    1  0.2333971E-005  0.1008951E+03  0.7546771E-02  0.1282554E+00
          1   -1    0    0  502    0  0.00000000000E+00  0.00000000000E+00  0.79437903255E+02  0.79437903255E+02  0.00000000000E+00 0. -1.
         -2   -1    0    0    0  501 -0.00000000000E+00 -0.00000000000E+00 -0.38389681968E+03  0.38389681968E+03  0.00000000000E+00 0.  1.
        -24    2    1    2    0    0  0.98661485303E+00 -0.84555827783E+02 -0.13867479588E+03  0.18089527545E+03  0.79635044092E+02 0.  0.
         23    2    1    2    0    0  0.46338541688E+02  0.17404285347E+02 -0.45119422393E+01  0.10144852067E+03  0.88437973344E+02 0.  0.
         13    1    3    3    0    0  0.29366671531E+02 -0.25953195541E+02 -0.16643177834E+02  0.42578928169E+02  0.00000000000E+00 0. -1.
        -14    1    3    3    0    0 -0.28380056678E+02 -0.58602632241E+02 -0.12203161804E+03  0.13831634728E+03  0.00000000000E+00 0.  1.
        -11    1    4    4    0    0  0.26556630633E+02  0.51285997900E+02 -0.17121213816E+02  0.60238228507E+02  0.00000000000E+00 0. -1.
         11    1    4    4    0    0  0.19781911055E+02 -0.33881712553E+02  0.12609271577E+02  0.41210292163E+02  0.00000000000E+00 0.  1.
         21    1    1    2  502  501 -0.47325156541E+02  0.67151542436E+02 -0.16127217831E+03  0.18099092681E+03  0.00000000000E+00 0. -1.
<scales pt_clust_5="13000.00000" pt_clust_6="13000.00000" pt_clust_7="13000.00000" pt_clust_8="13000.00000" pt_clust_9="82.15230"></scales>
<clustering>
<clus scale="   79.635">  5  6 -1 -1</clus>
<clus scale="   82.152">  2  9  1 -1</clus>
<clus scale="   88.438">  7  8 -1 -1</clus>
<clus scale="   93.275">  2  5  1 -1</clus>
<clus scale="  100.895">  1  5  2 -1</clus>
</clustering>
</event>
<event>
 9    1  0.2333971E-005  0.1457425E+03  0.7546771E-02  0.1208727E+00
         -2   -1    0    0    0  501 -0.00000000000E+00  0.00000000000E+00  0.80473812559E+02  0.80473812559E+02  0.00000000000E+00 0.  1.
          1   -1    0    0  502    0  0.00000000000E+00 -0.00000000000E+00 -0.51351628026E+03  0.51351628026E+03  0.00000000000E+00 0. -1.
        -24    2    1    2    0    0  0.49270842041E+02  0.82261518145E+02 -0.77965173606E+02  0.14887465647E+03  0.83009166968E+02 0.  0.
         23    2    1    2    0    0 -0.49852597322E+02 -0.10264750807E+03 -0.38260511031E+03  0.41085601881E+03  0.96923709112E+02 0.  0.
         13    1    3    3    0    0 -0.18159597550E+02  0.39966361794E+02 -0.44561044280E+02  0.62552120072E+02  0.00000000000E+00 0. -1.
        -14    1    3    3    0    0  0.67430439591E+02  0.42295156351E+02 -0.33404129326E+02  0.86322536398E+02  0.00000000000E+00 0.  1.
        -13    1    4    4    0    0 -0.36488948873E+02 -0.23763847473E+02 -0.40322608811E+02  0.59347086010E+02  0.00000000000E+00 0.  1.
         13    1    4    4    0    0 -0.13363648449E+02 -0.78883660601E+02 -0.34228250149E+03  0.35150893280E+03  0.00000000000E+00 0. -1.
         21    1    1    2  502  501  0.58175528102E+00  0.20385989929E+02  0.27527816211E+02  0.34259417536E+02  0.00000000000E+00 0. -1.
<scales pt_clust_5="13000.00000" pt_clust_6="13000.00000" pt_clust_7="13000.00000" pt_clust_8="13000.00000" pt_clust_9="20.39429"></scales>
<clustering>
<clus scale="   20.394">  1  9  2 -1</clus>
<clus scale="   83.009">  5  6 -1 -1</clus>
<clus scale="   96.924">  7  8 -1 -1</clus>
<clus scale="  136.884">  1  5  2 -1</clus>
<clus scale="  145.743">  2  5  1 -1</clus>
</clustering>
</event>
<event>
 9    1  0.2333971E-005  0.1059330E+03  0.7546771E-02  0.1272630E+00
         -2   -1    0    0    0  501 -0.00000000000E+00  0.00000000000E+00  0.61193632296E+02  0.61193632296E+02  0.00000000000E+00 0.  1.
          1   -1    0    0  502    0  0.00000000000E+00 -0.00000000000E+00 -0.47479756241E+03  0.47479756241E+03  0.00000000000E+00 0. -1.
         23    2    1    2    0    0 -0.23740100231E+02  0.40709203601E+02 -0.36013081713E+02  0.10973618156E+03  0.92326896802E+02 0.  0.
        -24    2    1    2    0    0 -0.30865605982E+02 -0.48190049145E+02 -0.35100198364E+03  0.36506094537E+03  0.82414409241E+02 0.  0.
         13    1    4    4    0    0  0.20940045645E+02 -0.34458301428E+02 -0.90098906860E+02  0.98710045417E+02  0.00000000000E+00 0. -1.
        -14    1    4    4    0    0 -0.51805651627E+02 -0.13731747717E+02 -0.26090307678E+03  0.26635089995E+03  0.00000000000E+00 0.  1.
        -13    1    3    3    0    0 -0.42329401050E+02  0.61623522254E+02 -0.32554624466E+02  0.81541647410E+02  0.00000000000E+00 0.  1.
         13    1    3    3    0    0  0.18589300819E+02 -0.20914318653E+02 -0.34584572471E+01  0.28194534154E+02  0.00000000000E+00 0. -1.
         21    1    1    2  502  501  0.54605706213E+02  0.74808455441E+01 -0.26588864770E+02  0.61194067775E+02  0.00000000000E+00 0.  1.
<scales pt_clust_5="13000.00000" pt_clust_6="13000.00000" pt_clust_7="13000.00000" pt_clust_8="13000.00000" pt_clust_9="55.11575"></scales>
<clustering>
<clus scale="   55.116">  1  9  2 -1</clus>
<clus scale="   82.414">  5  6 -1 -1</clus>
<clus scale="   92.327">  7  8 -1 -1</clus>
<clus scale="   97.415">  2  5  1 -1</clus>
<clus scale="   97.415">  2  5  1 -1</clus>
</clustering>
</event>
<event>
 9    1  0.2333971E-005  0.9820901E+02  0.7546771E-02  0.1290103E+00
          3   -1    0    0  502    0  0.00000000000E+00  0.00000000000E+00  0.39275779102E+03  0.39275779102E+03  0.00000000000E+00 0. -1.
         -4   -1    0    0    0  501 -0.00000000000E+00 -0.00000000000E+00 -0.82358536738E+02  0.82358536738E+02  0.00000000000E+00 0.  1.
        -24    2    1    2    0    0  0.58740651683E+02  0.24468363586E+02  0.25284117605E+02  0.10611432767E+03  0.81066632818E+02 0.  0.
         23    2    1    2    0    0 -0.23985545806E+02  0.23449354905E+02  0.29324311358E+03  0.30925177718E+03  0.92303625995E+02 0.  0.
         13    1    3    3    0    0  0.58859704964E+02  0.56594673010E+01 -0.15562729736E+02  0.61144852567E+02  0.00000000000E+00 0. -1.
        -14    1    3    3    0    0 -0.11905328133E+00  0.18808896285E+02  0.40846847341E+02  0.44969475101E+02  0.00000000000E+00 0.  1.
        -13    1    4    4    0    0 -0.56548939372E+02  0.22370481613E+02  0.14089787582E+03  0.15346150137E+03  0.00000000000E+00 0.  1.
         13    1    4    4    0    0  0.32563393567E+02  0.10788732922E+01  0.15234523776E+03  0.15579027581E+03  0.00000000000E+00 0. -1.
         21    1    1    2  502  501 -0.34755105877E+02 -0.47917718492E+02 -0.81279769014E+01  0.59750222916E+02  0.00000000000E+00 0.  1.
<scales pt_clust_5="13000.00000" pt_clust_6="13000.00000" pt_clust_7="13000.00000" pt_clust_8="13000.00000" pt_clust_9="59.19481"></scales>
<clustering>
<clus scale="   59.195">  2  9  1 -1</clus>
<clus scale="   81.067">  5  6 -1 -1</clus>
<clus scale="   87.732">  2  5  1 -1</clus>
<clus scale="   92.304">  7  8 -1 -1</clus>
<clus scale="   98.209">  1  5  2 -1</clus>
</clustering>
</event>
<event>
 9    1  0.2333971E-005  0.1468334E+03  0.7546771E-02  0.1208150E+00
          1   -1    0    0  502    0  0.00000000000E+00  0.00000000000E+00  0.13547454152E+03  0.13547454152E+03  0.00000000000E+00 0. -1.
         -2   -1    0    0    0  501 -0.00000000000E+00 -0.00000000000E+00 -0.59163414340E+03  0.59163414340E+03  0.00000000000E+00 0.  1.
        -24    2    1    2    0    0 -0.34180196443E+02 -0.96687665381E+02 -0.34701362832E+03  0.37054490829E+03  0.79801505983E+02 0.  0.
         23    2    1    2    0    0 -0.24902638004E+02  0.10950103625E+03  0.72141150338E+02  0.16546174866E+03  0.97788682264E+02 0.  0.
         11    1    3    3    0    0 -0.50748039356E+02 -0.61358049911E+02 -0.15123897001E+03  0.17091927872E+03  0.00000000000E+00 0. -1.
        -12    1    3    3    0    0  0.16567842913E+02 -0.35329615470E+02 -0.19577465830E+03  0.19962562957E+03  0.00000000000E+00 0.  1.
        -13    1    4    4    0    0 -0.41865571516E+00  0.27222198783E+02  0.74774720062E+02  0.79576894508E+02  0.00000000000E+00 0. -1.
         13    1    4    4    0    0 -0.24483982289E+02  0.82278837467E+02 -0.26335697241E+01  0.85884854154E+02  0.00000000000E+00 0.  1.
         21    1    1    2  502  501  0.59082834447E+02 -0.12813370868E+02 -0.18128712391E+03  0.19110202797E+03  0.00000000000E+00 0.  1.
<scales pt_clust_5="13000.00000" pt_clust_6="13000.00000" pt_clust_7="13000.00000" pt_clust_8="13000.00000" pt_clust_9="60.45630"></scales>
<clustering>
<clus scale="   60.456">  2  9  1 -1</clus>
<clus scale="   79.802">  5  6 -1 -1</clus>
<clus scale="   97.789">  7  8 -1 -1</clus>
<clus scale="  135.520">  2  5  1 -1</clus>
<clus scale="  146.833">  1  5  2 -1</clus>
</clustering>
</event>
<event>
 9    1  0.2333971E-005  0.1098161E+03  0.7546771E-02  0.1263801E+00
          1   -1    0    0  502    0  0.00000000000E+00  0.00000000000E+00  0.28408471584E+03  0.28408471584E+03  0.00000000000E+00 0. -1.
         -2   -1    0    0    0  501 -0.00000000000E+00 -0.00000000000E+00 -0.16771585368E+03  0.16771585368E+03  0.00000000000E+00 0.  1.
         23    2    1    2    0    0 -0.63486331422E+02  0.91717627889E+01 -0.12615788790E+03  0.16822946276E+03  0.90943410709E+02 0.  0.
        -24    2    1    2    0    0  0.32261086435E+02  0.67932601206E+00  0.23276957219E+03  0.24940588475E+03  0.83548682979E+02 0.  0.
         13    1    4    4    0    0  0.55303558857E+02 -0.40087966044E+01  0.97989534626E+02  0.11258997721E+03  0.00000000000E+00 0. -1.
        -14    1    4    4    0    0 -0.23042472422E+02  0.46881226165E+01  0.13478003757E+03  0.13681590754E+03  0.00000000000E+00 0.  1.
        -11    1    3    3    0    0  0.99601416645E+00 -0.33621299908E+02 -0.43655286025E+02  0.55110505801E+02  0.00000000000E+00 0. -1.
         11    1    3    3    0    0 -0.64482345588E+02  0.42793062697E+02 -0.82502601875E+02  0.11311895696E+03  0.00000000000E+00 0.  1.
         21    1    1    2  502  501  0.31225244987E+02 -0.98510888009E+01  0.97571778659E+01  0.34165222010E+02  0.00000000000E+00 0. -1.
<scales pt_clust_5="13000.00000" pt_clust_6="13000.00000" pt_clust_7="13000.00000" pt_clust_8="13000.00000" pt_clust_9="32.74233"></scales>
<clustering>
<clus scale="   32.742">  1  9  2 -1</clus>
<clus scale="   83.549">  5  6 -1 -1</clus>
<clus scale="   90.943">  7  8 -1 -1</clus>
<clus scale="  103.775">  1  5  2 -1</clus>
<clus scale="   32.742">  1  5  2 -1</clus>
</clustering>
</event>
<event>
 9    1  0.2333971E-005  0.1260975E+03  0.7546771E-02  0.1235882E+00
          1   -1    0    0  502    0  0.00000000000E+00  0.00000000000E+00  0.92817408350E+02  0.92817408350E+02  0.00000000000E+00 0. -1.
         -2   -1    0    0    0  501 -0.00000000000E+00 -0.00000000000E+00 -0.27960749410E+03  0.27960749410E+03  0.00000000000E+00 0.  1.
        -24    2    1    2    0    0 -0.10454743549E+03 -0.31281154303E+02 -0.15487269195E+03  0.20583022032E+03  0.80447821603E+02 0.  0.
         23    2    1    2    0    0  0.77275807408E+02  0.27654140278E+02  0.37151080599E+01  0.12157721755E+03  0.89615377662E+02 0.  0.
         11    1    3    3    0    0 -0.94833290810E+02 -0.55035759916E+02 -0.13035525152E+03  0.17033725228E+03  0.00000000000E+00 0. -1.
        -12    1    3    3    0    0 -0.97141446829E+01  0.23754605613E+02 -0.24517440433E+02  0.35492968038E+02  0.00000000000E+00 0.  1.
        -13    1    4    4    0    0  0.50214950320E+02 -0.14071397852E+02  0.35015973293E+02  0.62814519490E+02  0.00000000000E+00 0. -1.
         13    1    4    4    0    0  0.27060857088E+02  0.41725538130E+02 -0.31300865233E+02  0.58762698056E+02  0.00000000000E+00 0.  1.
         21    1    1    2  502  501  0.27271628085E+02  0.36270140253E+01 -0.35632501863E+02  0.45017464590E+02  0.00000000000E+00 0.  1.
<scales pt_clust_5="13000.00000" pt_clust_6="13000.00000" pt_clust_7="13000.00000" pt_clust_8="13000.00000" pt_clust_9="27.51176"></scales>
<clustering>
<clus scale="   27.512">  2  9  1 -1</clus>
<clus scale="   80.448">  5  6 -1 -1</clus>
<clus scale="   89.615">  7  8 -1 -1</clus>
<clus scale="  119.756">  2  5  1 -1</clus>
<clus scale="  126.098">  1  5  2 -1</clus>
</clustering>
</event>
<event>
 9    1  0.2333971E-005  0.1016762E+03  0.7546771E-02  0.1278015E+00
         -2   -1    0    0    0  501 -0.00000000000E+00  0.00000000000E+00  0.15385720297E+03  0.15385720297E+03  0.00000000000E+00 0.  1.
          1   -1    0    0  502    0  0.00000000000E+00 -0.00000000000E+00 -0.10661003065E+03  0.10661003065E+03  0.00000000000E+00 0. -1.
        -24    2    1    2    0    0  0.36393545045E+02 -0.38664220614E+02  0.60561039303E+02  0.11414680568E+03  0.80885361397E+02 0.  0.
         23    2    1    2    0    0 -0.62811940991E+02  0.11005100561E+02 -0.20995505518E+02  0.10730804353E+03  0.83712321588E+02 0.  0.
         11    1    3    3    0    0  0.45454365472E+02  0.98602110667E+01  0.21710903114E+02  0.51329196533E+02  0.00000000000E+00 0. -1.
        -12    1    3    3    0    0 -0.90608204266E+01 -0.48524431680E+02  0.38850136189E+02  0.62817609144E+02  0.00000000000E+00 0.  1.
        -11    1    4    4    0    0 -0.60728739963E+02 -0.14575622073E+02 -0.41050202999E+02  0.74736522414E+02  0.00000000000E+00 0.  1.
         11    1    4    4    0    0 -0.20832010278E+01  0.25580722633E+02  0.20054697481E+02  0.32571521119E+02  0.00000000000E+00 0. -1.
         21    1    1    2  502  501  0.26418395946E+02  0.27659120053E+02  0.76816385344E+01  0.39012384406E+02  0.00000000000E+00 0. -1.
<scales pt_clust_5="13000.00000" pt_clust_6="13000.00000" pt_clust_7="13000.00000" pt_clust_8="13000.00000" pt_clust_9="38.24864"></scales>
<clustering>
<clus scale="   38.249">  1  9  2 -1</clus>
<clus scale="   80.885">  5  6 -1 -1</clus>
<clus scale="   83.712">  7  8 -1 -1</clus>
<clus scale="   99.362">  1  5  2 -1</clus>
<clus scale="  101.676">  2  5  1 -1</clus>
</clustering>
</event>
<event>
 9    1  0.2333971E-005  0.1210128E+03  0.7546771E-02  0.1244733E+00
         -2   -1    0    0    0  501 -0.00000000000E+00  0.00000000000E+00  0.37150066057E+02  0.37150066057E+02  0.00000000000E+00 0.  1.
          1   -1    0    0  502    0  0.00000000000E+00 -0.00000000000E+00 -0.55065323214E+03  0.55065323214E+03  0.00000000000E+00 0. -1.
        -24    2    1    2    0    0 -0.71184314968E+02 -0.69901752617E+02 -0.17621357231E+03  0.21750926555E+03  0.79407781840E+02 0.  0.
         23    2    1    2    0    0  0.49993008874E+02  0.50688876457E+02 -0.31060558209E+03  0.33117571797E+03  0.90182400781E+02 0.  0.
         11    1    3    3    0    0 -0.81669971891E+02 -0.32643659121E+02 -0.11032118954E+03  0.14108989209E+03  0.00000000000E+00 0. -1.
        -12    1    3    3    0    0  0.10485656923E+02 -0.37258093496E+02 -0.65892382773E+02  0.76419373457E+02  0.00000000000E+00 0.  1.
        -11    1    4    4    0    0  0.71673773697E+02  0.39348142780E+02 -0.17222320358E+03  0.19064689357E+03  0.00000000000E+00 0.  1.
         11    1    4    4    0    0 -0.21680764823E+02  0.11340733677E+02 -0.13838237851E+03  0.14052882440E+03  0.00000000000E+00 0. -1.
         21    1    1    2  502  501  0.21191306094E+02  0.19212876160E+02 -0.26684011682E+02  0.39118314685E+02  0.00000000000E+00 0.  1.
<scales pt_clust_5="13000.00000" pt_clust_6="13000.00000" pt_clust_7="13000.00000" pt_clust_8="13000.00000" pt_clust_9="28.60430"></scales>
<clustering>
<clus scale="   28.604">  1  9  2 -1</clus>
<clus scale="   79.408">  5  6 -1 -1</clus>
<clus scale="   90.182">  7  8 -1 -1</clus>
<clus scale="  113.211">  1  5  2 -1</clus>
<clus scale="  121.013">  2  5  1 -1</clus>
</clustering>
</event>
<event>
 9    1  0.2333971E-005  0.1348402E+03  0.7546771E-02  0.1223324E+00
         -2   -1    0    0    0  501 -0.00000000000E+00  0.00000000000E+00  0.23414652109E+03  0.23414652109E+03  0.00000000000E+00 0.  1.
          1   -1    0    0  502    0  0.00000000000E+00 -0.00000000000E+00 -0.98128331446E+02  0.98128331446E+02  0.00000000000E+00 0. -1.
         23    2    1    2    0    0  0.35471774617E+02  0.83497988987E+02  0.10534226689E+03  0.16689639980E+03  0.92343132470E+02 0.  0.
        -24    2    1    2    0    0 -0.51935136498E+02 -0.10027826191E+03  0.22204797265E+02  0.14039085960E+03  0.80396220199E+02 0.  0.
         11    1    4    4    0    0 -0.52410601630E+02 -0.63507025302E+02  0.48149578463E+02  0.95385509025E+02  0.00000000000E+00 0. -1.
        -12    1    4    4    0    0  0.47546513127E+00 -0.36771236607E+02 -0.25944781198E+02  0.45005350572E+02  0.00000000000E+00 0.  1.
        -13    1    3    3    0    0  0.28226603214E+02  0.17720564231E+02  0.94029383920E+02  0.99761137553E+02  0.00000000000E+00 0.  1.
         13    1    3    3    0    0  0.72451714032E+01  0.65777424756E+02  0.11312882971E+02  0.67135262250E+02  0.00000000000E+00 0. -1.
         21    1    1    2  502  501  0.16463361881E+02  0.16780272921E+02  0.84711254899E+01  0.24987593137E+02  0.00000000000E+00 0.  1.
<scales pt_clust_5="13000.00000" pt_clust_6="13000.00000" pt_clust_7="13000.00000" pt_clust_8="13000.00000" pt_clust_9="23.50787"></scales>
<clustering>
<clus scale="   23.508">  2  9  1 -1</clus>
<clus scale="   80.396">  5  6 -1 -1</clus>
<clus scale="   92.343">  7  8 -1 -1</clus>
<clus scale="  126.957">  2  5  1 -1</clus>
<clus scale="   23.508">  2  5  1 -1</clus>
</clustering>
</event>
<event>
 9    1  0.2333971E-005  0.1301872E+03  0.7546771E-02  0.1232027E+00
          1   -1    0    0  502    0  0.00000000000E+00  0.00000000000E+00  0.66529282512E+03  0.66529282512E+03  0.00000000000E+00 0. -1.
         -2   -1    0    0    0  501 -0.00000000000E+00 -0.00000000000E+00 -0.64739352387E+02  0.64739352387E+02  0.00000000000E+00 0.  1.
         23    2    1    2    0    0 -0.22360717926E+02 -0.47314031263E+02  0.14980211390E+02  0.10809951749E+03  0.93394216569E+02 0.  0.
        -24    2    1    2    0    0  0.83868796330E+02  0.50841187599E+02  0.50833243466E+03  0.52313068712E+03  0.75133549924E+02 0.  0.
         11    1    4    4    0    0  0.92382412828E+02  0.44719274095E+02  0.49779077581E+03  0.50826172407E+03  0.00000000000E+00 0. -1.
        -12    1    4    4    0    0 -0.85136164983E+01  0.61219135042E+01  0.10541658857E+02  0.14868963054E+02  0.00000000000E+00 0.  1.
        -13    1    3    3    0    0  0.16457853112E+02  0.22039278453E+02  0.21205083385E+01  0.27587810341E+02  0.00000000000E+00 0. -1.
         13    1    3    3    0    0 -0.38818571038E+02 -0.69353309716E+02  0.12859703051E+02  0.80511707152E+02  0.00000000000E+00 0.  1.
         21    1    1    2  502  501 -0.61508078404E+02 -0.35271563359E+01  0.77240826677E+02  0.98801972888E+02  0.00000000000E+00 0. -1.
<scales pt_clust_5="13000.00000" pt_clust_6="13000.00000" pt_clust_7="13000.00000" pt_clust_8="13000.00000" pt_clust_9="61.60913"></scales>
<clustering>
<clus scale="   61.609">  2  9  1 -1</clus>
<clus scale="   75.134">  5  6 -1 -1</clus>
<clus scale="   93.394">  7  8 -1 -1</clus>
<clus scale="  117.776">  1  5  2 -1</clus>
<clus scale="  117.776">  1  5  2 -1</clus>
</clustering>
</event>
<event>
 9    1  0.2333971E-005  0.1409192E+03  0.7546771E-02  0.1222001E+00
         -2   -1    0    0    0  501 -0.00000000000E+00  0.00000000000E+00  0.97194778533E+02  0.97194778533E+02  0.00000000000E+00 0.  1.
          1   -1    0    0  502    0  0.00000000000E+00 -0.00000000000E+00 -0.62140458796E+03  0.62140458796E+03  0.00000000000E+00 0. -1.
         23    2    1    2    0    0  0.52193868880E+02  0.17234301208E+01 -0.13257646461E+02  0.12679732594E+03  0.11478077590E+03 0.  0.
        -24    2    1    2    0    0 -0.23897153694E+01  0.93225931408E+02 -0.45414739069E+03  0.47046524846E+03  0.79943183038E+02 0.  0.
         11    1    4    4    0    0  0.34215494467E+02  0.46480597862E+02 -0.29523936021E+03  0.30082790073E+03  0.00000000000E+00 0. -1.
        -12    1    4    4    0    0 -0.36605209836E+02  0.46745333546E+02 -0.15890803048E+03  0.16963734774E+03  0.00000000000E+00 0.  1.
        -11    1    3    3    0    0  0.77976628107E+02  0.30082105676E+02 -0.24068732085E+02  0.86974659971E+02  0.00000000000E+00 0.  1.
         11    1    3    3    0    0 -0.25782759227E+02 -0.28358675555E+02  0.10811085625E+02  0.39822665970E+02  0.00000000000E+00 0. -1.
         21    1    1    2  502  501 -0.49804153511E+02 -0.94949361528E+02 -0.56804772278E+02  0.12133679209E+03  0.00000000000E+00 0. -1.
<scales pt_clust_5="13000.00000" pt_clust_6="13000.00000" pt_clust_7="13000.00000" pt_clust_8="13000.00000" pt_clust_9="107.21863"></scales>
<clustering>
<clus scale="   79.943">  5  6 -1 -1</clus>
<clus scale="  107.219">  1  9  2 -1</clus>
<clus scale="  114.344">  2  5  1 -1</clus>
<clus scale="  114.781">  7  8 -1 -1</clus>
<clus scale="  114.344">  2  5  1 -1</clus>
</clustering>
</event>
<event>
 9    1  0.2333971E-005  0.1052230E+03  0.7546771E-02  0.1279013E+00
          1   -1    0    0  502    0  0.00000000000E+00  0.00000000000E+00  0.23474231423E+03  0.23474231423E+03  0.00000000000E+00 0. -1.
         -2   -1    0    0    0  501 -0.00000000000E+00 -0.00000000000E+00 -0.67523868475E+02  0.67523868475E+02  0.00000000000E+00 0.  1.
        -24    2    1    2    0    0 -0.47760942696E+02  0.80896668402E+01  0.37985690445E+01  0.87571001270E+02  0.72853968868E+02 0.  0.
         23    2    1    2    0    0  0.53630457846E+02  0.18335729952E+02  0.10981607792E+03  0.15464420269E+03  0.92966840613E+02 0.  0.
         11    1    3    3    0    0 -0.26630765074E+02 -0.26435336389E+02  0.21661130273E+02  0.43327003395E+02  0.00000000000E+00 0. -1.
        -12    1    3    3    0    0 -0.21130177622E+02  0.34525003230E+02 -0.17862561229E+02  0.44243997875E+02  0.00000000000E+00 0.  1.
        -13    1    4    4    0    0 -0.94269916177E+01 -0.28604839605E+02  0.26820840122E+02  0.40329424551E+02  0.00000000000E+00 0.  1.
         13    1    4    4    0    0  0.63057449464E+02  0.46940569557E+02  0.82995237800E+02  0.11431477814E+03  0.00000000000E+00 0. -1.
         21    1    1    2  502  501 -0.58695151497E+01 -0.26425396792E+02  0.53603798786E+02  0.60050978744E+02  0.00000000000E+00 0.  1.
<scales pt_clust_5="13000.00000" pt_clust_6="13000.00000" pt_clust_7="13000.00000" pt_clust_8="13000.00000" pt_clust_9="27.06941"></scales>
<clustering>
<clus scale="   27.069">  1  9  2 -1</clus>
<clus scale="   72.854">  5  6 -1 -1</clus>
<clus scale="   87.959">  2  5  1 -1</clus>
<clus scale="   92.967">  7  8 -1 -1</clus>
<clus scale="   27.069">  1  5  2 -1</clus>
</clustering>
</event>
<event>
 9    1  0.2333971E-005  0.1263828E+03  0.7546771E-02  0.1237546E+00
         -2   -1    0    0    0  501 -0.00000000000E+00  0.00000000000E+00  0.71317626996E+02  0.71317626996E+02  0.00000000000E+00 0.  1.
          1   -1    0    0  502    0  0.00000000000E+00 -0.00000000000E+00 -0.54901826994E+03  0.54901826994E+03  0.00000000000E+00 0. -1.
        -24    2    1    2    0    0 -0.93898826019E+02  0.11972761581E+02 -0.36413417924E+02  0.13010089521E+03  0.81486007274E+02 0.  0.
         23    2    1    2    0    0  0.78782354351E+02  0.31032189970E+01 -0.45011440758E+03  0.46713279279E+03  0.96921498464E+02 0.  0.
         11    1    3    3    0    0 -0.20570072079E+02 -0.11906812956E+02 -0.46600832556E+02  0.52311926509E+02  0.00000000000E+00 0. -1.
        -12    1    3    3    0    0 -0.73328753939E+02  0.23879574537E+02  0.10187414632E+02  0.77788968699E+02  0.00000000000E+00 0.  1.
        -11    1    4    4    0    0  0.52832426823E+02 -0.40948663340E+02 -0.17547937709E+03  0.18777931232E+03  0.00000000000E+00 0.  1.
         11    1    4    4    0    0  0.25949927528E+02  0.44051882337E+02 -0.27463503049E+03  0.27935348047E+03  0.00000000000E+00 0. -1.
         21    1    1    2  502  501  0.15116471668E+02 -0.15075980578E+02  0.88271825563E+01  0.23102208941E+02  0.00000000000E+00 0.  1.
<scales pt_clust_5="13000.00000" pt_clust_6="13000.00000" pt_clust_7="13000.00000" pt_clust_8="13000.00000" pt_clust_9="21.34931"></scales>
<clustering>
<clus scale="   21.349">  1  9  2 -1</clus>
<clus scale="   81.486">  5  6 -1 -1</clus>
<clus scale="   96.921">  7  8 -1 -1</clus>
<clus scale="  114.973">  1  5  2 -1</clus>
<clus scale="  126.383">  2  5  1 -1</clus>
</clustering>
</event>
<event>
 9    1  0.2333971E-005  0.1242061E+03  0.7546771E-02  0.1241228E+00
          1   -1    0    0  502    0  0.00000000000E+00  0.00000000000E+00  0.27158477993E+03  0.27158477993E+03  0.00000000000E+00 0. -1.
         -2   -1    0    0    0  501 -0.00000000000E+00 -0.00000000000E+00 -0.67506278732E+02  0.67506278732E+02  0.00000000000E+00 0.  1.
         23    2    1    2    0    0  0.14393867372E+02  0.83240538377E+02  0.69445923967E+02  0.14108046994E+03  0.89133562675E+02 0.  0.
        -24    2    1    2    0    0  0.13254956978E+02 -0.90418423108E+02  0.10165619696E+03  0.15438237339E+03  0.71754788773E+02 0.  0.
         11    1    4    4    0    0  0.28728346758E+02 -0.76707681207E+02  0.10528195446E+03  0.13339293909E+03  0.00000000000E+00 0. -1.
        -12    1    4    4    0    0 -0.15473389781E+02 -0.13710741901E+02 -0.36257575041E+01  0.20989434301E+02  0.00000000000E+00 0.  1.
        -11    1    3    3    0    0  0.61991678575E+01  0.48558175639E+02 -0.13519567638E+02  0.50784887640E+02  0.00000000000E+00 0.  1.
         11    1    3    3    0    0  0.81946995148E+01  0.34682362738E+02  0.82965491605E+02  0.90295582298E+02  0.00000000000E+00 0. -1.
         21    1    1    2  502  501 -0.27648824350E+02  0.71778847310E+01  0.32976380271E+02  0.43628215331E+02  0.00000000000E+00 0.  1.
<scales pt_clust_5="13000.00000" pt_clust_6="13000.00000" pt_clust_7="13000.00000" pt_clust_8="13000.00000" pt_clust_9="28.56536"></scales>
<clustering>
<clus scale="   28.565">  1  9  2 -1</clus>
<clus scale="   71.755">  5  6 -1 -1</clus>
<clus scale="   89.134">  7  8 -1 -1</clus>
<clus scale="  112.388">  1  5  2 -1</clus>
<clus scale="   28.565">  1  5  2 -1</clus>
</clustering>
</event>
<event>
 9    1  0.2333971E-005  0.9730675E+02  0.7546771E-02  0.1291201E+00
          1   -1    0    0  502    0  0.00000000000E+00  0.00000000000E+00  0.35675170072E+02  0.35675170072E+02  0.00000000000E+00 0. -1.
         -2   -1    0    0    0  501 -0.00000000000E+00 -0.00000000000E+00 -0.38356057839E+03  0.38356057839E+03  0.00000000000E+00 0.  1.
        -24    2    1    2    0    0  0.33683988033E+02  0.12259911470E+01 -0.21567921484E+03  0.23306833652E+03  0.81652995481E+02 0.  0.
         23    2    1    2    0    0 -0.29063758105E+02 -0.30749925602E+02 -0.94116091060E+02  0.13775393104E+03  0.91258133674E+02 0.  0.
         11    1    3    3    0    0  0.27151387989E+02 -0.93437163391E+01 -0.15743564112E+02  0.32746949716E+02  0.00000000000E+00 0. -1.
        -12    1    3    3    0    0  0.65326000439E+01  0.10569707486E+02 -0.19993565073E+03  0.20032138681E+03  0.00000000000E+00 0.  1.
        -11    1    4    4    0    0 -0.47134575797E+02 -0.40057745642E+02 -0.26759618152E+02  0.67397094783E+02  0.00000000000E+00 0. -1.
         11    1    4    4    0    0  0.18070817692E+02  0.93078200402E+01 -0.67356472908E+02  0.70356836260E+02  0.00000000000E+00 0.  1.
         21    1    1    2  502  501 -0.46202299284E+01  0.29523934455E+02 -0.38090102422E+02  0.48413480900E+02  0.00000000000E+00 0.  1.
<scales pt_clust_5="13000.00000" pt_clust_6="13000.00000" pt_clust_7="13000.00000" pt_clust_8="13000.00000" pt_clust_9="29.88326"></scales>
<clustering>
<clus scale="   29.883">  1  9  2 -1</clus>
<clus scale="   81.653">  5  6 -1 -1</clus>
<clus scale="   88.362">  2  5  1 -1</clus>
<clus scale="   91.258">  7  8 -1 -1</clus>
<clus scale="   29.883">  1  5  2 -1</clus>
</clustering>
</event>
<event>
 9    1  0.2333971E-005  0.1529064E+03  0.7546771E-02  0.1202645E+00
          1   -1    0    0  502    0  0.00000000000E+00  0.00000000000E+00  0.77968148964E+03  0.77968148964E+03  0.00000000000E+00 0. -1.
         -2   -1    0    0    0  501 -0.00000000000E+00 -0.00000000000E+00 -0.67136418150E+02  0.67136418150E+02  0.00000000000E+00 0.  1.
        -24    2    1    2    0    0  0.51577364447E+02  0.12173506878E+03  0.94905038061E+02  0.17369732272E+03  0.60697134835E+02 0.  0.
         23    2    1    2    0    0 -0.30999472930E+02 -0.11417715886E+03  0.63007123868E+03  0.64791926595E+03  0.93873417179E+02 0.  0.
         13    1    3    3    0    0  0.27190139165E+02  0.10072934250E+03  0.43483925654E+02  0.11303342823E+03  0.00000000000E+00 0. -1.
        -14    1    3    3    0    0  0.24387225283E+02  0.21005726287E+02  0.51421112407E+02  0.60663894492E+02  0.00000000000E+00 0.  1.
        -13    1    4    4    0    0 -0.59224458873E+02 -0.10411565101E+03  0.53466380542E+03  0.54791695551E+03  0.00000000000E+00 0.  1.
         13    1    4    4    0    0  0.28224985944E+02 -0.10061507859E+02  0.95407433260E+02  0.10000231044E+03  0.00000000000E+00 0. -1.
         21    1    1    2  502  501 -0.20577891518E+02 -0.75579099171E+01 -0.12431205243E+02  0.25201319121E+02  0.00000000000E+00 0.  1.
<scales pt_clust_5="13000.00000" pt_clust_6="13000.00000" pt_clust_7="13000.00000" pt_clust_8="13000.00000" pt_clust_9="21.92194"></scales>
<clustering>
<clus scale="   21.922">  2  9  1 -1</clus>
<clus scale="   60.697">  5  6 -1 -1</clus>
<clus scale="   93.873">  7  8 -1 -1</clus>
<clus scale="  135.101">  2  5  1 -1</clus>
<clus scale="  152.906">  1  5  2 -1</clus>
</clustering>
</event>
<event>
 9    1  0.2333971E-005  0.1665096E+03  0.7546771E-02  0.1186121E+00
          1   -1    0    0  502    0  0.00000000000E+00  0.00000000000E+00  0.56447243753E+03  0.56447243753E+03  0.00000000000E+00 0. -1.
         -2   -1    0    0    0  501 -0.00000000000E+00 -0.00000000000E+00 -0.19869013875E+03  0.19869013875E+03  0.00000000000E+00 0.  1.
        -24    2    1    2    0    0  0.48544678922E+02  0.42320261357E+02 -0.99930578770E+02  0.14477311992E+03  0.82616858474E+02 0.  0.
         23    2    1    2    0    0 -0.78309685250E+02 -0.10730264997E+03  0.50730837720E+03  0.53569210440E+03  0.10935252919E+03 0.  0.
         11    1    3    3    0    0  0.68413907344E+02  0.21378788440E+02 -0.51025208231E+02  0.87983448377E+02  0.00000000000E+00 0. -1.
        -12    1    3    3    0    0 -0.19869228423E+02  0.20941472917E+02 -0.48905370539E+02  0.56789671540E+02  0.00000000000E+00 0.  1.
        -11    1    4    4    0    0 -0.46265086512E+02 -0.60348676219E+02  0.44458516333E+03  0.45104144865E+03  0.00000000000E+00 0. -1.
         11    1    4    4    0    0 -0.32044598738E+02 -0.46953973751E+02  0.62723213870E+02  0.84650655741E+02  0.00000000000E+00 0.  1.
         21    1    1    2  502  501  0.29765006329E+02  0.64982388612E+02 -0.41595499647E+02  0.82697351967E+02  0.00000000000E+00 0.  1.
<scales pt_clust_5="13000.00000" pt_clust_6="13000.00000" pt_clust_7="13000.00000" pt_clust_8="13000.00000" pt_clust_9="71.47494"></scales>
<clustering>
<clus scale="   71.475">  2  9  1 -1</clus>
<clus scale="   82.617">  5  6 -1 -1</clus>
<clus scale="  109.353">  7  8 -1 -1</clus>
<clus scale="  150.310">  2  5  1 -1</clus>
<clus scale="  166.510">  1  5  2 -1</clus>
</clustering>
</event>
<event>
 9    1  0.2333971E-005  0.9272284E+02  0.7546771E-02  0.1301924E+00
         -2   -1    0    0    0  501 -0.00000000000E+00  0.00000000000E+00  0.89672708928E+02  0.89672708928E+02  0.00000000000E+00 0.  1.
          1   -1    0    0  502    0  0.00000000000E+00 -0.00000000000E+00 -0.49178143823E+03  0.49178143823E+03  0.00000000000E+00 0. -1.
         23    2    1    2    0    0 -0.27119863154E+02  0.65792484791E+01 -0.53416506137E+02  0.11006091578E+03  0.92094020250E+02 0.  0.
        -24    2    1    2    0    0 -0.10607373197E+02 -0.96626325064E+01 -0.39935824997E+03  0.40814848541E+03  0.83019825882E+02 0.  0.
         13    1    4    4    0    0 -0.36771110755E+02 -0.31161736500E+02 -0.27830214373E+03  0.28244513027E+03  0.00000000000E+00 0. -1.
        -14    1    4    4    0    0  0.26163737558E+02  0.21499103993E+02 -0.12105610624E+03  0.12570335514E+03  0.00000000000E+00 0.  1.
        -13    1    3    3    0    0 -0.43245181360E+01 -0.31581029851E+02  0.92862345568E+01  0.33200859263E+02  0.00000000000E+00 0. -1.
         13    1    3    3    0    0 -0.22795345018E+02  0.38160278331E+02 -0.62702740694E+02  0.76860056514E+02  0.00000000000E+00 0.  1.
         21    1    1    2  502  501  0.37727236351E+02  0.30833840272E+01  0.50666026810E+02  0.63244745967E+02  0.00000000000E+00 0.  1.
<scales pt_clust_5="13000.00000" pt_clust_6="13000.00000" pt_clust_7="13000.00000" pt_clust_8="13000.00000" pt_clust_9="37.85303"></scales>
<clustering>
<clus scale="   37.853">  1  9  2 -1</clus>
<clus scale="   83.020">  5  6 -1 -1</clus>
<clus scale="   83.717">  2  5  1 -1</clus>
<clus scale="   92.094">  7  8 -1 -1</clus>
<clus scale="   83.717">  2  5  1 -1</clus>
</clustering>
</event>
<event>
 9    1  0.2333971E-005  0.1166197E+03  0.7546771E-02  0.1252893E+00
         -2   -1    0    0    0  501 -0.00000000000E+00  0.00000000000E+00  0.52763278516E+02  0.52763278516E+02  0.00000000000E+00 0.  1.
          1   -1    0    0  502    0  0.00000000000E+00 -0.00000000000E+00 -0.38318337567E+03  0.38318337567E+03  0.00000000000E+00 0. -1.
         23    2    1    2    0    0  0.77094375839E+02  0.49401829118E+02 -0.10888806668E+03  0.16945709745E+03  0.92059835454E+02 0.  0.
        -24    2    1    2    0    0 -0.54378930580E+02 -0.33640708861E+02 -0.21485010131E+03  0.23804570780E+03  0.80102606608E+02 0.  0.
         13    1    4    4    0    0 -0.40706498701E+02 -0.36455300177E+02 -0.21713096754E+03  0.22390146273E+03  0.00000000000E+00 0. -1.
        -14    1    4    4    0    0 -0.13672431878E+02  0.28145913151E+01  0.22808662339E+01  0.14144245067E+02  0.00000000000E+00 0.  1.
        -13    1    3    3    0    0  0.36686487148E+02 -0.25215926087E+02 -0.44432613647E+02  0.62896728239E+02  0.00000000000E+00 0.  1.
         13    1    3    3    0    0  0.40407888691E+02  0.74617755204E+02 -0.64455453036E+02  0.10656036921E+03  0.00000000000E+00 0. -1.
         21    1    1    2  502  501 -0.22715445260E+02 -0.15761120256E+02 -0.66819291618E+01  0.28443848938E+02  0.00000000000E+00 0. -1.
<scales pt_clust_5="13000.00000" pt_clust_6="13000.00000" pt_clust_7="13000.00000" pt_clust_8="13000.00000" pt_clust_9="27.64786"></scales>
<clustering>
<clus scale="   27.648">  1  9  2 -1</clus>
<clus scale="   80.103">  5  6 -1 -1</clus>
<clus scale="   92.060">  7  8 -1 -1</clus>
<clus scale="  107.432">  2  5  1 -1</clus>
<clus scale="  107.432">  2  5  1 -1</clus>
</clustering>
</event>
<event>
 9    1  0.2333971E-005  0.1541234E+03  0.7546771E-02  0.1208347E+00
          1   -1    0    0  502    0  0.00000000000E+00  0.00000000000E+00  0.15092160856E+03  0.15092160856E+03  0.00000000000E+00 0. -1.
         -2   -1    0    0    0  501 -0.00000000000E+00 -0.00000000000E+00 -0.57770469177E+03  0.57770469177E+03  0.00000000000E+00 0.  1.
         23    2    1    2    0    0  0.69846044647E+02 -0.12448332370E+03 -0.43912132726E+02  0.17380032021E+03  0.88902801264E+02 0.  0.
        -24    2    1    2    0    0 -0.83171019513E+02 -0.15866707304E+01  0.32014939419E+02  0.12100401191E+03  0.81835680127E+02 0.  0.
         13    1    4    4    0    0 -0.54737721914E+02  0.38718003500E+02  0.22859734472E+02  0.70836921556E+02  0.00000000000E+00 0. -1.
        -14    1    4    4    0    0 -0.28433297598E+02 -0.40304674230E+02  0.91552049475E+01  0.50167090355E+02  0.00000000000E+00 0.  1.
        -13    1    3    3    0    0  0.89688882957E+02 -0.87585641158E+02 -0.40614679993E+02  0.13177591773E+03  0.00000000000E+00 0.  1.
         13    1    3    3    0    0 -0.19842838310E+02 -0.36897682546E+02 -0.32974527333E+01  0.42024402482E+02  0.00000000000E+00 0. -1.
         21    1    1    2  502  501  0.13324974865E+02  0.12606999443E+03 -0.41488588990E+03  0.43382196820E+03  0.00000000000E+00 0. -1.
<scales pt_clust_5="13000.00000" pt_clust_6="13000.00000" pt_clust_7="13000.00000" pt_clust_8="13000.00000" pt_clust_9="125.89798"></scales>
<clustering>
<clus scale="   81.836">  5  6 -1 -1</clus>
<clus scale="   88.903">  7  8 -1 -1</clus>
<clus scale="  116.692">  1  5  2 -1</clus>
<clus scale="  125.898">  2  9  1 -1</clus>
<clus scale="  116.692">  1  5  2 -1</clus>
</clustering>
</event>
<event>
 9    1  0.2333971E-005  0.3447404E+03  0.7546771E-02  0.1065110E+00
          1   -1    0    0  502    0  0.00000000000E+00  0.00000000000E+00  0.17127124221E+04  0.17127124221E+04  0.00000000000E+00 0. -1.
         -2   -1    0    0    0  501 -0.00000000000E+00 -0.00000000000E+00 -0.77094984750E+02  0.77094984750E+02  0.00000000000E+00 0.  1.
         23    2    1    2    0    0 -0.20508952777E+03  0.23817452525E+03  0.58423524840E+03  0.66978558206E+03  0.92157916582E+02 0.  0.
        -24    2    1    2    0    0  0.22770752615E+03 -0.25935239349E+03  0.98421552866E+03  0.10460526676E+04  0.80197226516E+02 0.  0.
         11    1    4    4    0    0  0.10563929756E+03 -0.16555594205E+03  0.62813291241E+03  0.65811806447E+03  0.00000000000E+00 0. -1.
        -12    1    4    4    0    0  0.12206822859E+03 -0.93796451442E+02  0.35608261625E+03  0.38793460316E+03  0.00000000000E+00 0.  1.
        -13    1    3    3    0    0 -0.20727194805E+02  0.61769158763E+02  0.18335919250E+03  0.19459095317E+03  0.00000000000E+00 0.  1.
         13    1    3    3    0    0 -0.18436233297E+03  0.17640536649E+03  0.40087605590E+03  0.47519462890E+03  0.00000000000E+00 0. -1.
         21    1    1    2  502  501 -0.22617998380E+02  0.21177868241E+02  0.67166660249E+02  0.73969157106E+02  0.00000000000E+00 0. -1.
<scales pt_clust_5="13000.00000" pt_clust_6="13000.00000" pt_clust_7="13000.00000" pt_clust_8="13000.00000" pt_clust_9="30.98509"></scales>
<clustering>
<clus scale="   30.985">  2  9  1 -1</clus>
<clus scale="   80.197">  5  6 -1 -1</clus>
<clus scale="   92.158">  7  8 -1 -1</clus>
<clus scale="  341.737">  1  5  2 -1</clus>
<clus scale="  341.737">  1  5  2 -1</clus>
</clustering>
</event>
<event>
 9    1  0.2333971E-005  0.1572124E+03  0.7546771E-02  0.1192131E+00
         -2   -1    0    0    0  501 -0.00000000000E+00  0.00000000000E+00  0.34727349904E+02  0.34727349904E+02  0.00000000000E+00 0.  1.
          1   -1    0    0  502    0  0.00000000000E+00 -0.00000000000E+00 -0.96587437293E+03  0.96587437293E+03  0.00000000000E+00 0. -1.
         23    2    1    2    0    0  0.34478518925E+02  0.10791721591E+03 -0.25481849362E+03  0.29173726162E+03  0.85692889829E+02 0.  0.
        -24    2    1    2    0    0 -0.72199280277E+02 -0.12531658395E+03 -0.58652901150E+03  0.60992232024E+03  0.84095024274E+02 0.  0.
         11    1    4    4    0    0  0.91840602982E+01 -0.35117610214E+02 -0.65181133428E+02  0.74606793696E+02  0.00000000000E+00 0. -1.
        -12    1    4    4    0    0 -0.81383340575E+02 -0.90198973738E+02 -0.52134787807E+03  0.53531552654E+03  0.00000000000E+00 0.  1.
        -11    1    3    3    0    0  0.62552670376E+01  0.23014179938E+02 -0.24458056561E+01  0.23974211338E+02  0.00000000000E+00 0.  1.
         11    1    3    3    0    0  0.28223251888E+02  0.84903035976E+02 -0.25237268796E+03  0.26776305028E+03  0.00000000000E+00 0. -1.
         21    1    1    2  502  501  0.37720761352E+02  0.17399368037E+02 -0.89799517903E+02  0.98942140975E+02  0.00000000000E+00 0. -1.
<scales pt_clust_5="13000.00000" pt_clust_6="13000.00000" pt_clust_7="13000.00000" pt_clust_8="13000.00000" pt_clust_9="41.54027"></scales>
<clustering>
<clus scale="   41.540">  1  9  2 -1</clus>
<clus scale="   84.095">  5  6 -1 -1</clus>
<clus scale="   85.693">  7  8 -1 -1</clus>
<clus scale="  156.347">  2  5  1 -1</clus>
<clus scale="  156.347">  2  5  1 -1</clus>
</clustering>
</event>
<event>
 9    1  0.2333971E-005  0.2177914E+03  0.7546771E-02  0.1135785E+00
         -2   -1    0    0    0  501 -0.00000000000E+00  0.00000000000E+00  0.10346654547E+03  0.10346654547E+03  0.00000000000E+00 0.  1.
          1   -1    0    0  502    0  0.00000000000E+00 -0.00000000000E+00 -0.11065158636E+04  0.11065158636E+04  0.00000000000E+00 0. -1.
        -24    2    1    2    0    0  0.10154145297E+03  0.19247099170E+03 -0.97855410205E+02  0.25118654916E+03  0.78506380990E+02 0.  0.
         23    2    1    2    0    0 -0.13648580407E+03 -0.14633524077E+03 -0.85582258112E+03  0.88272258536E+03  0.82003017917E+02 0.  0.
         13    1    3    3    0    0  0.26964604679E+02  0.31217574752E+02 -0.54425416278E+02  0.68291674573E+02  0.00000000000E+00 0. -1.
        -14    1    3    3    0    0  0.74576848287E+02  0.16125341695E+03 -0.43429993927E+02  0.18289487459E+03  0.00000000000E+00 0.  1.
        -13    1    4    4    0    0 -0.13597496925E+03 -0.97524172488E+02 -0.65051863661E+03  0.67169535733E+03  0.00000000000E+00 0. -1.
         13    1    4    4    0    0 -0.51083482257E+00 -0.48811068286E+02 -0.20530394450E+03  0.21102722803E+03  0.00000000000E+00 0.  1.
         21    1    1    2  502  501  0.34944351106E+02 -0.46135750929E+02 -0.49371326795E+02  0.76073274529E+02  0.00000000000E+00 0. -1.
<scales pt_clust_5="13000.00000" pt_clust_6="13000.00000" pt_clust_7="13000.00000" pt_clust_8="13000.00000" pt_clust_9="57.87586"></scales>
<clustering>
<clus scale="   57.876">  1  9  2 -1</clus>
<clus scale="   78.506">  5  6 -1 -1</clus>
<clus scale="   82.003">  7  8 -1 -1</clus>
<clus scale="  216.499">  1  5  2 -1</clus>
<clus scale="  217.791">  2  5  1 -1</clus>
</clustering>
</event>
<event>
 9    1  0.2333971E-005  0.1637129E+03  0.7546771E-02  0.1220888E+00
         -2   -1    0    0    0  501 -0.00000000000E+00  0.00000000000E+00  0.46812194445E+03  0.46812194445E+03  0.00000000000E+00 0.  1.
          1   -1    0    0  502    0  0.00000000000E+00 -0.00000000000E+00 -0.10204211831E+03  0.10204211831E+03  0.00000000000E+00 0. -1.
        -24    2    1    2    0    0 -0.15177560825E+02  0.39610197909E+02  0.21865843019E+03  0.23104822123E+03  0.61420235343E+02 0.  0.
         23    2    1    2    0    0  0.97286273914E+02 -0.11652418008E+03  0.39458673938E+02  0.18318781082E+03  0.94648208894E+02 0.  0.
         11    1    3    3    0    0  0.10999410574E+02  0.46324391068E+02  0.13789425690E+03  0.14588270057E+03  0.00000000000E+00 0. -1.
        -12    1    3    3    0    0 -0.26176971400E+02 -0.67141931588E+01  0.80764173297E+02  0.85165520663E+02  0.00000000000E+00 0.  1.
        -13    1    4    4    0    0  0.39809142923E+02 -0.88417801190E+02  0.62295985347E+02  0.11525304863E+03  0.00000000000E+00 0.  1.
         13    1    4    4    0    0  0.57477130990E+02 -0.28106378893E+02 -0.22837311409E+02  0.67934762190E+02  0.00000000000E+00 0. -1.
         21    1    1    2  502  501 -0.82108713088E+02  0.76913982174E+02  0.10796272201E+03  0.15592803072E+03  0.00000000000E+00 0.  1.
<scales pt_clust_5="13000.00000" pt_clust_6="13000.00000" pt_clust_7="13000.00000" pt_clust_8="13000.00000" pt_clust_9="133.58002"></scales>
<clustering>
<clus scale="   61.420">  5  6 -1 -1</clus>
<clus scale="   74.644">  1  5  2 -1</clus>
<clus scale="   94.648">  7  8 -1 -1</clus>
<clus scale="  133.580">  1  9  2 -1</clus>
<clus scale="  163.713">  2  5  1 -1</clus>
</clustering>
</event>
<event>
 9    1  0.2333971E-005  0.1511035E+03  0.7546771E-02  0.1200027E+00
         -4   -1    0    0    0  501 -0.00000000000E+00  0.00000000000E+00  0.10572465571E+03  0.10572465571E+03  0.00000000000E+00 0.  1.
          3   -1    0    0  502    0  0.00000000000E+00 -0.00000000000E+00 -0.67542531098E+03  0.67542531098E+03  0.00000000000E+00 0. -1.
         23    2    1    2    0    0 -0.11021615559E+03 -0.18286518861E+02  0.30047940695E+02  0.13776363325E+03  0.74792661278E+02 0.  0.
        -24    2    1    2    0    0  0.11099176978E+03  0.69376987406E+02 -0.55363601722E+03  0.57455895900E+03  0.80453828199E+02 0.  0.
         11    1    4    4    0    0  0.10714065983E+03  0.26270997970E+02 -0.40399280006E+03  0.41878331965E+03  0.00000000000E+00 0. -1.
        -12    1    4    4    0    0  0.38511099551E+01  0.43105989436E+02 -0.14964321716E+03  0.15577563935E+03  0.00000000000E+00 0.  1.
        -13    1    3    3    0    0 -0.10085515595E+03  0.11132355100E+02  0.12451885923E+02  0.10222886713E+03  0.00000000000E+00 0.  1.
         13    1    3    3    0    0 -0.93609996360E+01 -0.29418873961E+02  0.17596054772E+02  0.35534766115E+02  0.00000000000E+00 0. -1.
         21    1    1    2  502  501 -0.77561419710E+00 -0.51090468545E+02 -0.46112578743E+02  0.68827374437E+02  0.00000000000E+00 0. -1.
<scales pt_clust_5="13000.00000" pt_clust_6="13000.00000" pt_clust_7="13000.00000" pt_clust_8="13000.00000" pt_clust_9="51.09636"></scales>
<clustering>
<clus scale="   51.096">  1  9  2 -1</clus>
<clus scale="   74.793">  7  8 -1 -1</clus>
<clus scale="   80.454">  5  6 -1 -1</clus>
<clus scale="  148.167">  1  7  2 -1</clus>
<clus scale="  151.104">  2  5  1 -1</clus>
</clustering>
</event>
<event>
 9    1  0.2333971E-005  0.1634601E+03  0.7546771E-02  0.1206608E+00
          1   -1    0    0  502    0  0.00000000000E+00  0.00000000000E+00  0.23831084818E+03  0.23831084818E+03  0.00000000000E+00 0. -1.
         -2   -1    0    0    0  501 -0.00000000000E+00 -0.00000000000E+00 -0.73714271347E+03  0.73714271347E+03  0.00000000000E+00 0.  1.
        -24    2    1    2    0    0 -0.13789496152E+03 -0.43219032739E+02 -0.54179562052E+03  0.56595180151E+03  0.76655345659E+02 0.  0.
         23    2    1    2    0    0 -0.11140564070E+02  0.43560644584E+02  0.18024437528E+03  0.20687482898E+03  0.91035806816E+02 0.  0.
         13    1    3    3    0    0 -0.24774301684E+02  0.21867421975E+02 -0.10530020241E+03  0.11036341239E+03  0.00000000000E+00 0. -1.
        -14    1    3    3    0    0 -0.11312065983E+03 -0.65086454714E+02 -0.43649541811E+03  0.45558838912E+03  0.00000000000E+00 0.  1.
        -13    1    4    4    0    0 -0.48401256019E+02  0.33761310905E+02  0.79455884502E+02  0.98973457453E+02  0.00000000000E+00 0.  1.
         13    1    4    4    0    0  0.37260691948E+02  0.97993336789E+01  0.10078849077E+03  0.10790137153E+03  0.00000000000E+00 0. -1.
         21    1    1    2  502  501  0.14903552559E+03 -0.34161184469E+00 -0.13728062005E+03  0.20262693115E+03  0.00000000000E+00 0. -1.
<scales pt_clust_5="13000.00000" pt_clust_6="13000.00000" pt_clust_7="13000.00000" pt_clust_8="13000.00000" pt_clust_9="144.37165"></scales>
<clustering>
<clus scale="   76.655">  5  6 -1 -1</clus>
<clus scale="   91.036">  7  8 -1 -1</clus>
<clus scale="  101.534">  1  7  2 -1</clus>
<clus scale="  144.372">  1  9  2 -1</clus>
<clus scale="  101.534">  1  5  2 -1</clus>
</clustering>
</event>
<event>
 9    1  0.2333971E-005  0.1164559E+03  0.7546771E-02  0.1252087E+00
          1   -1    0    0  502    0  0.00000000000E+00  0.00000000000E+00  0.16295474327E+03  0.16295474327E+03  0.00000000000E+00 0. -1.
         -2   -1    0    0    0  501 -0.00000000000E+00 -0.00000000000E+00 -0.43678244828E+03  0.43678244828E+03  0.00000000000E+00 0.  1.
        -24    2    1    2    0    0  0.39849310851E+02 -0.10750508689E+03 -0.28119905044E+03  0.31423761283E+03  0.80790222591E+02 0.  0.
         23    2    1    2    0    0 -0.22899982358E+02  0.67177879359E+02  0.11928703581E+03  0.16533849868E+03  0.89833988929E+02 0.  0.
         11    1    3    3    0    0  0.13131681293E+02 -0.59011770088E+02 -0.56255045193E+02  0.82580022840E+02  0.00000000000E+00 0. -1.
        -12    1    3    3    0    0  0.26717629558E+02 -0.48493316799E+02 -0.22494400524E+03  0.23165758999E+03  0.00000000000E+00 0.  1.
        -11    1    4    4    0    0  0.32418627819E+01  0.79380171028E+02  0.60519418965E+02  0.99871523963E+02  0.00000000000E+00 0. -1.
         11    1    4    4    0    0 -0.26141845139E+02 -0.12202291669E+02  0.58767616848E+02  0.65466974722E+02  0.00000000000E+00 0.  1.
         21    1    1    2  502  501 -0.16949328493E+02  0.40327207527E+02 -0.11191569038E+03  0.12016108004E+03  0.00000000000E+00 0.  1.
<scales pt_clust_5="13000.00000" pt_clust_6="13000.00000" pt_clust_7="13000.00000" pt_clust_8="13000.00000" pt_clust_9="43.74430"></scales>
<clustering>
<clus scale="   43.744">  2  9  1 -1</clus>
<clus scale="   80.790">  5  6 -1 -1</clus>
<clus scale="   89.834">  7  8 -1 -1</clus>
<clus scale="  109.631">  2  5  1 -1</clus>
<clus scale="  116.456">  1  5  2 -1</clus>
</clustering>
</event>
<event>
 9    1  0.2333971E-005  0.1319639E+03  0.7546771E-02  0.1227478E+00
          1   -1    0    0  502    0  0.00000000000E+00  0.00000000000E+00  0.20543482841E+03  0.20543482841E+03  0.00000000000E+00 0. -1.
         -2   -1    0    0    0  501 -0.00000000000E+00 -0.00000000000E+00 -0.22003315450E+03  0.22003315450E+03  0.00000000000E+00 0.  1.
        -24    2    1    2    0    0 -0.67141650790E+02  0.99014757630E+02 -0.37933769611E+02  0.14935562373E+03  0.80970414116E+02 0.  0.
         23    2    1    2    0    0  0.54580398931E+02 -0.67575020746E+02  0.11944377456E+03  0.17421509033E+03  0.92404973039E+02 0.  0.
         11    1    3    3    0    0 -0.32600067785E+02  0.86586057941E+02  0.52606174492E+01  0.92669217895E+02  0.00000000000E+00 0. -1.
        -12    1    3    3    0    0 -0.34541583005E+02  0.12428699690E+02 -0.43194387061E+02  0.56686405831E+02  0.00000000000E+00 0.  1.
        -13    1    4    4    0    0 -0.11942284771E+02 -0.36579562377E+02  0.57710760299E+01  0.38909997016E+02  0.00000000000E+00 0. -1.
         13    1    4    4    0    0  0.66522683701E+02 -0.30995458369E+02  0.11367269853E+03  0.13530509332E+03  0.00000000000E+00 0.  1.
         21    1    1    2  502  501  0.12561251859E+02 -0.31439736884E+02 -0.96108331046E+02  0.10189726885E+03  0.00000000000E+00 0.  1.
<scales pt_clust_5="13000.00000" pt_clust_6="13000.00000" pt_clust_7="13000.00000" pt_clust_8="13000.00000" pt_clust_9="33.85620"></scales>
<clustering>
<clus scale="   33.856">  2  9  1 -1</clus>
<clus scale="   80.970">  5  6 -1 -1</clus>
<clus scale="   92.405">  7  8 -1 -1</clus>
<clus scale="  124.226">  2  5  1 -1</clus>
<clus scale="  131.964">  1  5  2 -1</clus>
</clustering>
</event>
<event>
 9    1  0.2333971E-005  0.1337882E+03  0.7546771E-02  0.1225229E+00
         -2   -1    0    0    0  501 -0.00000000000E+00  0.00000000000E+00  0.39267981117E+03  0.39267981117E+03  0.00000000000E+00 0.  1.
          1   -1    0    0  502    0  0.00000000000E+00 -0.00000000000E+00 -0.73814233601E+02  0.73814233601E+02  0.00000000000E+00 0. -1.
         23    2    1    2    0    0 -0.24994938714E+02 -0.10969923977E+03  0.13665487612E+03  0.19869809810E+03  0.90264660043E+02 0.  0.
        -24    2    1    2    0    0  0.24254073052E+02  0.88544145179E+02  0.43025109422E+02  0.12700988225E+03  0.76498525754E+02 0.  0.
         13    1    4    4    0    0 -0.66270819992E+00  0.22746222328E+02 -0.21674365047E+02  0.31426229691E+02  0.00000000000E+00 0. -1.
        -14    1    4    4    0    0  0.24916781252E+02  0.65797922850E+02  0.64699474469E+02  0.95583652556E+02  0.00000000000E+00 0.  1.
        -11    1    3    3    0    0  0.13859614590E+02 -0.58874463863E+02  0.11710503404E+03  0.13180242945E+03  0.00000000000E+00 0.  1.
         11    1    3    3    0    0 -0.38854553304E+02 -0.50824775906E+02  0.19549842082E+02  0.66895668647E+02  0.00000000000E+00 0. -1.
         21    1    1    2  502  501  0.74086566225E+00  0.21155094590E+02  0.13918559203E+03  0.14078606443E+03  0.00000000000E+00 0.  1.
<scales pt_clust_5="13000.00000" pt_clust_6="13000.00000" pt_clust_7="13000.00000" pt_clust_8="13000.00000" pt_clust_9="21.16806"></scales>
<clustering>
<clus scale="   21.168">  1  9  2 -1</clus>
<clus scale="   76.499">  5  6 -1 -1</clus>
<clus scale="   90.265">  7  8 -1 -1</clus>
<clus scale="  124.914">  2  5  1 -1</clus>
<clus scale="  124.914">  2  5  1 -1</clus>
</clustering>
</event>
<event>
 9    1  0.2333971E-005  0.9748037E+02  0.7546771E-02  0.1291914E+00
         -2   -1    0    0    0  501 -0.00000000000E+00  0.00000000000E+00  0.42843251511E+02  0.42843251511E+02  0.00000000000E+00 0.  1.
          1   -1    0    0  502    0  0.00000000000E+00 -0.00000000000E+00 -0.47093815371E+03  0.47093815371E+03  0.00000000000E+00 0. -1.
         23    2    1    2    0    0  0.78278121680E+01  0.33674098725E+02 -0.32458579914E+02  0.10369971953E+03  0.92221759109E+02 0.  0.
        -24    2    1    2    0    0  0.11110559119E+02 -0.19569900665E+02 -0.32288243842E+03  0.33359169989E+03  0.80770834213E+02 0.  0.
         11    1    4    4    0    0  0.28449776772E+02 -0.39529674135E+02 -0.27120613794E+03  0.27554446863E+03  0.00000000000E+00 0. -1.
        -12    1    4    4    0    0 -0.17339217653E+02  0.19959773470E+02 -0.51676300481E+02  0.58047231262E+02  0.00000000000E+00 0.  1.
        -13    1    3    3    0    0 -0.45656603665E+01 -0.29935713401E+02 -0.23387936932E+02  0.38262093322E+02  0.00000000000E+00 0. -1.
         13    1    3    3    0    0  0.12393472534E+02  0.63609812126E+02 -0.90706429818E+01  0.65437626213E+02  0.00000000000E+00 0.  1.
         21    1    1    2  502  501 -0.18938371287E+02 -0.14104198060E+02 -0.72753883866E+02  0.76489985799E+02  0.00000000000E+00 0. -1.
<scales pt_clust_5="13000.00000" pt_clust_6="13000.00000" pt_clust_7="13000.00000" pt_clust_8="13000.00000" pt_clust_9="23.61335"></scales>
<clustering>
<clus scale="   23.613">  2  9  1 -1</clus>
<clus scale="   80.771">  5  6 -1 -1</clus>
<clus scale="   86.727">  2  5  1 -1</clus>
<clus scale="   92.222">  7  8 -1 -1</clus>
<clus scale="   23.613">  2  5  1 -1</clus>
</clustering>
</event>
<event>
 9    1  0.2333971E-005  0.9786716E+02  0.7546771E-02  0.1292768E+00
          1   -1    0    0  502    0  0.00000000000E+00  0.00000000000E+00  0.27119510176E+03  0.27119510176E+03  0.00000000000E+00 0. -1.
         -2   -1    0    0    0  501 -0.00000000000E+00 -0.00000000000E+00 -0.49445802663E+02  0.49445802663E+02  0.00000000000E+00 0.  1.
         23    2    1    2    0    0  0.28702811943E+01 -0.74448782525E+01  0.40807904881E+02  0.10271685588E+03  0.93924451843E+02 0.  0.
        -24    2    1    2    0    0 -0.33764547647E+02  0.12019570532E+02  0.15198192540E+03  0.17533256649E+03  0.79740130877E+02 0.  0.
         13    1    4    4    0    0 -0.46416074838E+02 -0.19836763117E+02  0.68513052634E+02  0.85099868129E+02  0.00000000000E+00 0. -1.
        -14    1    4    4    0    0  0.12651527191E+02  0.31856333649E+02  0.83468872763E+02  0.90232698364E+02  0.00000000000E+00 0.  1.
        -11    1    3    3    0    0 -0.23645209118E+02 -0.30898346978E+02  0.52581046158E+02  0.65410780268E+02  0.00000000000E+00 0. -1.
         11    1    3    3    0    0  0.26515490312E+02  0.23453468726E+02 -0.11773141276E+02  0.37306075608E+02  0.00000000000E+00 0.  1.
         21    1    1    2  502  501  0.30894266453E+02 -0.45746922799E+01  0.28959468818E+02  0.42591482052E+02  0.00000000000E+00 0. -1.
<scales pt_clust_5="13000.00000" pt_clust_6="13000.00000" pt_clust_7="13000.00000" pt_clust_8="13000.00000" pt_clust_9="31.23113"></scales>
<clustering>
<clus scale="   31.231">  2  9  1 -1</clus>
<clus scale="   79.740">  5  6 -1 -1</clus>
<clus scale="   84.348">  1  5  2 -1</clus>
<clus scale="   93.924">  7  8 -1 -1</clus>
<clus scale="   84.348">  1  5  2 -1</clus>
</clustering>
</event>
<event>
 9    1  0.2333971E-005  0.2865021E+03  0.7546771E-02  0.1092523E+00
          1   -1    0    0  502    0  0.00000000000E+00  0.00000000000E+00  0.47710047819E+03  0.47710047819E+03  0.00000000000E+00 0. -1.
         -2   -1    0    0    0  501 -0.00000000000E+00 -0.00000000000E+00 -0.59585913977E+03  0.59585913977E+03  0.00000000000E+00 0.  1.
        -24    2    1    2    0    0 -0.22316810653E+03  0.15271439550E+03 -0.48128490605E+03  0.55808417224E+03  0.81835763268E+02 0.  0.
         23    2    1    2    0    0  0.21169805507E+03 -0.20041313464E+03  0.34981838001E+03  0.46419782132E+03  0.90140042490E+02 0.  0.
         11    1    3    3    0    0 -0.61051386019E+02  0.35177007572E+02 -0.20569138837E+03  0.21742502351E+03  0.00000000000E+00 0. -1.
        -12    1    3    3    0    0 -0.16211672051E+03  0.11753738793E+03 -0.27559351768E+03  0.34065914874E+03  0.00000000000E+00 0.  1.
        -11    1    4    4    0    0  0.11567274620E+03 -0.84567081720E+02  0.23371073571E+03  0.27413953292E+03  0.00000000000E+00 0.  1.
         11    1    4    4    0    0  0.96025308872E+02 -0.11584605292E+03  0.11610764430E+03  0.19005828839E+03  0.00000000000E+00 0. -1.
         21    1    1    2  502  501  0.11470051459E+02  0.47698739141E+02  0.12707864460E+02  0.50677624404E+02  0.00000000000E+00 0. -1.
<scales pt_clust_5="13000.00000" pt_clust_6="13000.00000" pt_clust_7="13000.00000" pt_clust_8="13000.00000" pt_clust_9="49.05845"></scales>
<clustering>
<clus scale="   49.058">  1  9  2 -1</clus>
<clus scale="   81.836">  5  6 -1 -1</clus>
<clus scale="   90.140">  7  8 -1 -1</clus>
<clus scale="  283.999">  2  5  1 -1</clus>
<clus scale="   49.058">  1  5  2 -1</clus>
</clustering>
</event>
<event>
 9    1  0.2333971E-005  0.8230069E+02  0.7546771E-02  0.1326813E+00
         -2   -1    0    0    0  501 -0.00000000000E+00  0.00000000000E+00  0.27526778723E+02  0.27526778723E+02  0.00000000000E+00 0.  1.
          1   -1    0    0  502    0  0.00000000000E+00 -0.00000000000E+00 -0.40196108180E+03  0.40196108180E+03  0.00000000000E+00 0. -1.
        -24    2    1    2    0    0 -0.17090608897E+02 -0.15152352891E+02 -0.94983784702E+02  0.12752131629E+03  0.81963919146E+02 0.  0.
         23    2    1    2    0    0 -0.56217224834E+01  0.48069520001E+01 -0.25791481656E+03  0.26900196067E+03  0.76074251196E+02 0.  0.
         11    1    3    3    0    0 -0.46462309750E+02  0.44743313602E+01 -0.70456570887E+02  0.84515644999E+02  0.00000000000E+00 0. -1.
        -12    1    3    3    0    0  0.29371700854E+02 -0.19626684251E+02 -0.24527213814E+02  0.43005671292E+02  0.00000000000E+00 0.  1.
        -11    1    4    4    0    0  0.29959999160E+02 -0.17111034793E+02 -0.10857282583E+03  0.11392298964E+03  0.00000000000E+00 0.  1.
         11    1    4    4    0    0 -0.35581721643E+02  0.21917986793E+02 -0.14934199073E+03  0.15507897103E+03  0.00000000000E+00 0. -1.
         21    1    1    2  502  501  0.22712331380E+02  0.10345400891E+02 -0.21535701817E+02  0.32964583556E+02  0.00000000000E+00 0.  1.
<scales pt_clust_5="13000.00000" pt_clust_6="13000.00000" pt_clust_7="13000.00000" pt_clust_8="13000.00000" pt_clust_9="24.95751"></scales>
<clustering>
<clus scale="   24.958">  1  9  2 -1</clus>
<clus scale="   76.074">  7  8 -1 -1</clus>
<clus scale="   76.437">  2  7  1 -1</clus>
<clus scale="   81.964">  5  6 -1 -1</clus>
<clus scale="   76.437">  2  5  1 -1</clus>
</clustering>
</event>
<event>
 9    1  0.2333971E-005  0.1547450E+03  0.7546771E-02  0.1197510E+00
          1   -1    0    0  502    0  0.00000000000E+00  0.00000000000E+00  0.26726507172E+03  0.26726507172E+03  0.00000000000E+00 0. -1.
         -2   -1    0    0    0  501 -0.00000000000E+00 -0.00000000000E+00 -0.12541176834E+03  0.12541176834E+03  0.00000000000E+00 0.  1.
        -24    2    1    2    0    0 -0.11297059434E+03  0.72780011699E+02  0.15985212187E+02  0.17140993676E+03  0.10519769068E+03 0.  0.
         23    2    1    2    0    0  0.83478514226E+02 -0.64397915068E+02  0.12953006356E+03  0.19038887915E+03  0.91400952600E+02 0.  0.
         11    1    3    3    0    0 -0.34651249379E+02 -0.11959738196E+01  0.47824686784E+02  0.59070636554E+02  0.00000000000E+00 0. -1.
        -12    1    3    3    0    0 -0.78319344964E+02  0.73975985518E+02 -0.31839474597E+02  0.11233930021E+03  0.00000000000E+00 0.  1.
        -13    1    4    4    0    0  0.27628272173E+02  0.21888867280E+02  0.21567095647E+02  0.41322917960E+02  0.00000000000E+00 0.  1.
         13    1    4    4    0    0  0.55850242052E+02 -0.86286782348E+02  0.10796296791E+03  0.14906596119E+03  0.00000000000E+00 0. -1.
         21    1    1    2  502  501  0.29492080118E+02 -0.83820966305E+01 -0.36619723686E+01  0.30878024147E+02  0.00000000000E+00 0. -1.
<scales pt_clust_5="13000.00000" pt_clust_6="13000.00000" pt_clust_7="13000.00000" pt_clust_8="13000.00000" pt_clust_9="30.66011"></scales>
<clustering>
<clus scale="   30.660">  2  9  1 -1</clus>
<clus scale="   91.401">  7  8 -1 -1</clus>
<clus scale="  105.198">  5  6 -1 -1</clus>
<clus scale="  145.718">  1  7  2 -1</clus>
<clus scale="  145.718">  1  5  2 -1</clus>
</clustering>
</event>
<event>
 9    1  0.2333971E-005  0.1259943E+03  0.7546771E-02  0.1238709E+00
          3   -1    0    0  502    0  0.00000000000E+00  0.00000000000E+00  0.60559215692E+03  0.60559215692E+03  0.00000000000E+00 0. -1.
         -4   -1    0    0    0  501 -0.00000000000E+00 -0.00000000000E+00 -0.60614257987E+02  0.60614257987E+02  0.00000000000E+00 0.  1.
         23    2    1    2    0    0  0.10567734821E+01  0.23030366208E+02  0.27253267717E+02  0.10232628736E+03  0.95897935041E+02 0.  0.
        -24    2    1    2    0    0 -0.59567478905E+02 -0.76363756095E+02  0.41998076563E+03  0.43809532566E+03  0.78510910590E+02 0.  0.
         11    1    4    4    0    0 -0.85984164741E+00 -0.56975572735E+02  0.26856433291E+03  0.27454281293E+03  0.00000000000E+00 0. -1.
        -12    1    4    4    0    0 -0.58707637257E+02 -0.19388183360E+02  0.15141643271E+03  0.16355251273E+03  0.00000000000E+00 0.  1.
        -11    1    3    3    0    0 -0.19005200817E+02  0.56435314969E+02  0.18876921989E+02  0.62469837662E+02  0.00000000000E+00 0.  1.
         11    1    3    3    0    0  0.20061974299E+02 -0.33404948761E+02  0.83763457282E+01  0.39856449695E+02  0.00000000000E+00 0. -1.
         21    1    1    2  502  501  0.58510705422E+02  0.53333389887E+02  0.97743865589E+02  0.12578480189E+03  0.00000000000E+00 0. -1.
<scales pt_clust_5="13000.00000" pt_clust_6="13000.00000" pt_clust_7="13000.00000" pt_clust_8="13000.00000" pt_clust_9="79.17041"></scales>
<clustering>
<clus scale="   78.511">  5  6 -1 -1</clus>
<clus scale="   79.170">  2  9  1 -1</clus>
<clus scale="   95.898">  7  8 -1 -1</clus>
<clus scale="  113.323">  1  5  2 -1</clus>
<clus scale="  113.323">  1  5  2 -1</clus>
</clustering>
</event>
<event>
 9    1  0.2333971E-005  0.9855907E+02  0.7546771E-02  0.1288441E+00
         -2   -1    0    0    0  501 -0.00000000000E+00  0.00000000000E+00  0.59500691263E+02  0.59500691263E+02  0.00000000000E+00 0.  1.
          1   -1    0    0  502    0  0.00000000000E+00 -0.00000000000E+00 -0.37966297984E+03  0.37966297984E+03  0.00000000000E+00 0. -1.
        -24    2    1    2    0    0 -0.51295304305E+02 -0.19919836528E+02 -0.29663354444E+02  0.10097040369E+03  0.79291233391E+02 0.  0.
         23    2    1    2    0    0  0.32115260407E+02 -0.31436660759E+02 -0.25223857441E+03  0.27134104963E+03  0.89342113240E+02 0.  0.
         11    1    3    3    0    0 -0.38399669947E+02 -0.49191304044E+02 -0.94066265671E+01  0.63109457841E+02  0.00000000000E+00 0. -1.
        -12    1    3    3    0    0 -0.12895634358E+02  0.29271467516E+02 -0.20256727877E+02  0.37860945846E+02  0.00000000000E+00 0.  1.
        -11    1    4    4    0    0  0.45750041064E+02 -0.49476838368E+02 -0.22983042949E+03  0.23950584567E+03  0.00000000000E+00 0. -1.
         11    1    4    4    0    0 -0.13634780657E+02  0.18040177608E+02 -0.22408144927E+02  0.31835203954E+02  0.00000000000E+00 0.  1.
         21    1    1    2  502  501  0.19180043898E+02  0.51356497288E+02 -0.38260359714E+02  0.66852217787E+02  0.00000000000E+00 0.  1.
<scales pt_clust_5="13000.00000" pt_clust_6="13000.00000" pt_clust_7="13000.00000" pt_clust_8="13000.00000" pt_clust_9="54.82120"></scales>
<clustering>
<clus scale="   54.821">  1  9  2 -1</clus>
<clus scale="   79.291">  5  6 -1 -1</clus>
<clus scale="   89.342">  7  8 -1 -1</clus>
<clus scale="   89.549">  1  5  2 -1</clus>
<clus scale="   98.559">  2  5  1 -1</clus>
</clustering>
</event>
<event>
 9    1  0.2333971E-005  0.1084150E+03  0.7546771E-02  0.1267600E+00
          1   -1    0    0  502    0  0.00000000000E+00  0.00000000000E+00  0.47747415786E+02  0.47747415786E+02  0.00000000000E+00 0. -1.
         -2   -1    0    0    0  501 -0.00000000000E+00 -0.00000000000E+00 -0.90568622502E+03  0.90568622502E+03  0.00000000000E+00 0.  1.
        -24    2    1    2    0    0 -0.10985904175E+02 -0.10383809858E+03 -0.62993055325E+03  0.64368371625E+03  0.81321484485E+02 0.  0.
         23    2    1    2    0    0 -0.13627234737E+02  0.51845219900E+02 -0.40061485810E+02  0.11319699413E+03  0.91296267624E+02 0.  0.
         13    1    3    3    0    0  0.38814780989E+01 -0.81626124555E+02 -0.25438845633E+03  0.26719164807E+03  0.00000000000E+00 0. -1.
        -14    1    3    3    0    0 -0.14867382274E+02 -0.22211974023E+02 -0.37554209692E+03  0.37649206818E+03  0.00000000000E+00 0.  1.
        -13    1    4    4    0    0 -0.43105755557E+02 -0.34016372121E+01 -0.17188575125E+02  0.46530897399E+02  0.00000000000E+00 0.  1.
         13    1    4    4    0    0  0.29478520820E+02  0.55246857112E+02 -0.22872910685E+02  0.66666096734E+02  0.00000000000E+00 0. -1.
         21    1    1    2  502  501  0.24613138913E+02  0.51992878678E+02 -0.18794677017E+03  0.19655293042E+03  0.00000000000E+00 0. -1.
<scales pt_clust_5="13000.00000" pt_clust_6="13000.00000" pt_clust_7="13000.00000" pt_clust_8="13000.00000" pt_clust_9="57.52448"></scales>
<clustering>
<clus scale="   57.524">  2  9  1 -1</clus>
<clus scale="   81.321">  5  6 -1 -1</clus>
<clus scale="   91.296">  7  8 -1 -1</clus>
<clus scale="  100.160">  2  5  1 -1</clus>
<clus scale="  108.415">  1  5  2 -1</clus>
</clustering>
</event>
<event>
 9    1  0.2333971E-005  0.1452142E+03  0.7546771E-02  0.1208372E+00
          1   -1    0    0  502    0  0.00000000000E+00  0.00000000000E+00  0.53491312850E+03  0.53491312850E+03  0.00000000000E+00 0. -1.
         -2   -1    0    0    0  501 -0.00000000000E+00 -0.00000000000E+00 -0.10382903372E+03  0.10382903372E+03  0.00000000000E+00 0.  1.
        -24    2    1    2    0    0 -0.10791652805E+02 -0.12747719247E+03  0.72193167405E+02  0.16768126400E+03  0.80859498561E+02 0.  0.
         23    2    1    2    0    0 -0.17227172835E+02  0.10924389554E+03  0.39607663156E+03  0.42105805528E+03  0.90455423547E+02 0.  0.
         11    1    3    3    0    0  0.24311280436E+02 -0.23677987071E+02  0.42051264288E+02  0.54036971199E+02  0.00000000000E+00 0. -1.
        -12    1    3    3    0    0 -0.35102933241E+02 -0.10379920539E+03  0.30141903117E+02  0.11364429280E+03  0.00000000000E+00 0.  1.
        -13    1    4    4    0    0 -0.32100240318E+02  0.17518034376E+02  0.45494829218E+02  0.58370253061E+02  0.00000000000E+00 0.  1.
         13    1    4    4    0    0  0.14873067483E+02  0.91725861162E+02  0.35058180234E+03  0.36268780222E+03  0.00000000000E+00 0. -1.
         21    1    1    2  502  501  0.28018825641E+02  0.18233296927E+02 -0.37185704185E+02  0.50002842948E+02  0.00000000000E+00 0. -1.
<scales pt_clust_5="13000.00000" pt_clust_6="13000.00000" pt_clust_7="13000.00000" pt_clust_8="13000.00000" pt_clust_9="33.42914"></scales>
<clustering>
<clus scale="   33.429">  2  9  1 -1</clus>
<clus scale="   80.859">  5  6 -1 -1</clus>
<clus scale="   90.455">  7  8 -1 -1</clus>
<clus scale="  139.439">  2  5  1 -1</clus>
<clus scale="  145.214">  1  5  2 -1</clus>
</clustering>
</event>
<event>
 9    1  0.2333971E-005  0.1255908E+03  0.7546771E-02  0.1237535E+00
         -2   -1    0    0    0  501 -0.00000000000E+00  0.00000000000E+00  0.38190143687E+02  0.38190143687E+02  0.00000000000E+00 0.  1.
          1   -1    0    0  502    0  0.00000000000E+00 -0.00000000000E+00 -0.74710489556E+03  0.74710489556E+03  0.00000000000E+00 0. -1.
        -24    2    1    2    0    0  0.49006298973E+02  0.10239073197E+03 -0.16266165167E+03  0.21388687781E+03  0.80020648863E+02 0.  0.
         23    2    1    2    0    0 -0.35774059540E+02 -0.68984765405E+02 -0.49075363058E+03  0.50529279339E+03  0.91885798312E+02 0.  0.
         11    1    3    3    0    0  0.67122036609E+02  0.89851540578E+02 -0.11133842004E+03  0.15803452446E+03  0.00000000000E+00 0. -1.
        -12    1    3    3    0    0 -0.18115737636E+02  0.12539191394E+02 -0.51323231628E+02  0.55852353358E+02  0.00000000000E+00 0.  1.
        -11    1    4    4    0    0  0.15019557107E+02  0.14910566526E+02 -0.11623374368E+03  0.11814480632E+03  0.00000000000E+00 0. -1.
         11    1    4    4    0    0 -0.50793616647E+02 -0.83895331930E+02 -0.37451988689E+03  0.38714798707E+03  0.00000000000E+00 0.  1.
         21    1    1    2  502  501 -0.13232239433E+02 -0.33405966568E+02 -0.55499469627E+02  0.66115368045E+02  0.00000000000E+00 0.  1.
<scales pt_clust_5="13000.00000" pt_clust_6="13000.00000" pt_clust_7="13000.00000" pt_clust_8="13000.00000" pt_clust_9="35.93119"></scales>
<clustering>
<clus scale="   35.931">  1  9  2 -1</clus>
<clus scale="   80.021">  5  6 -1 -1</clus>
<clus scale="   91.886">  7  8 -1 -1</clus>
<clus scale="  117.189">  1  5  2 -1</clus>
<clus scale="  125.591">  2  5  1 -1</clus>
</clustering>
</event>
<event>
 9    1  0.2657129E-005  0.1010955E+03  0.7546771E-02  0.1282954E+00
          1   -1    0    0  502    0  0.00000000000E+00  0.00000000000E+00  0.89125508074E+03  0.89125508074E+03  0.00000000000E+00 0. -1.
         -2   -1    0    0    0  501 -0.00000000000E+00 -0.00000000000E+00 -0.27567081136E+03  0.27567081136E+03  0.00000000000E+00 0.  1.
         23    2    1    2    0    0 -0.22776088109E+02  0.35641919544E+02 -0.25295507949E+03  0.27218946585E+03  0.91168725243E+02 0.  0.
        -24    2    1    2    0    0  0.69243321195E+02 -0.87309833858E+02  0.45491577934E+03  0.47531630944E+03  0.80991253301E+02 0.  0.
         11    1    4    4    0    0  0.83602305346E+02 -0.56325963149E+02  0.29354529967E+03  0.31037203892E+03  0.00000000000E+00 0. -1.
        -12    1    4    4    0    0 -0.14358984151E+02 -0.30983870709E+02  0.16137047967E+03  0.16494427053E+03  0.00000000000E+00 0.  1.
        -11    1    3    3    0    0 -0.13930630939E+02  0.64597750702E+02 -0.20581635733E+03  0.21616499444E+03  0.00000000000E+00 0.  1.
         11    1    3    3    0    0 -0.88454571692E+01 -0.28955831159E+02 -0.47138722153E+02  0.56024471410E+02  0.00000000000E+00 0. -1.
         21    1    1    2  502  501 -0.46467233086E+02  0.51667914315E+02  0.41362356952E+03  0.41942011681E+03  0.00000000000E+00 0.  1.
<scales pt_clust_5="13000.00000" pt_clust_6="13000.00000" pt_clust_7="13000.00000" pt_clust_8="13000.00000" pt_clust_9="69.48940"></scales>
<clustering>
<clus scale="   69.489">  1  9  2 -1</clus>
<clus scale="   80.991">  5  6 -1 -1</clus>
<clus scale="   91.169">  7  8 -1 -1</clus>
<clus scale="   92.023">  1  5  2 -1</clus>
<clus scale="   69.489">  1  5  2 -1</clus>
</clustering>
</event>
<event>
 9    1  0.2333971E-005  0.9532574E+02  0.7546771E-02  0.1297314E+00
          1   -1    0    0  502    0  0.00000000000E+00  0.00000000000E+00  0.11435843976E+03  0.11435843976E+03  0.00000000000E+00 0. -1.
         -2   -1    0    0    0  501 -0.00000000000E+00 -0.00000000000E+00 -0.12605364006E+03  0.12605364006E+03  0.00000000000E+00 0.  1.
         23    2    1    2    0    0  0.93345560487E-01 -0.81627136071E+00 -0.67761157665E+02  0.11552218624E+03  0.93558142425E+02 0.  0.
        -24    2    1    2    0    0 -0.18796734866E+02  0.12587413768E+02  0.57777394719E+02  0.10272447946E+03  0.81867766021E+02 0.  0.
         13    1    4    4    0    0 -0.46431379997E+02  0.41567060854E+01  0.57248242028E+02  0.73827586099E+02  0.00000000000E+00 0. -1.
        -14    1    4    4    0    0  0.27634645131E+02  0.84307076828E+01  0.52915269142E+00  0.28896893364E+02  0.00000000000E+00 0.  1.
        -13    1    3    3    0    0  0.10502917676E+02 -0.33612272939E+02 -0.72682045892E+02  0.80763704515E+02  0.00000000000E+00 0.  1.
         13    1    3    3    0    0 -0.10409572116E+02  0.32796001578E+02  0.49208882268E+01  0.34758481729E+02  0.00000000000E+00 0. -1.
         21    1    1    2  502  501  0.18703389306E+02 -0.11771142408E+02 -0.17114373447E+01  0.22165414115E+02  0.00000000000E+00 0. -1.
<scales pt_clust_5="13000.00000" pt_clust_6="13000.00000" pt_clust_7="13000.00000" pt_clust_8="13000.00000" pt_clust_9="22.09924"></scales>
<clustering>
<clus scale="   22.099">  2  9  1 -1</clus>
<clus scale="   81.868">  5  6 -1 -1</clus>
<clus scale="   83.882">  1  5  2 -1</clus>
<clus scale="   93.558">  7  8 -1 -1</clus>
<clus scale="   83.882">  1  5  2 -1</clus>
</clustering>
</event>
<event>
 9    1  0.2333971E-005  0.1245241E+03  0.7546771E-02  0.1240514E+00
         -2   -1    0    0    0  501 -0.00000000000E+00  0.00000000000E+00  0.91699287039E+02  0.91699287039E+02  0.00000000000E+00 0.  1.
          1   -1    0    0  502    0  0.00000000000E+00 -0.00000000000E+00 -0.31845052386E+03  0.31845052386E+03  0.00000000000E+00 0. -1.
         23    2    1    2    0    0 -0.15762773119E+02  0.10524420548E+03 -0.68712236037E+02  0.15825985995E+03  0.94868351346E+02 0.  0.
        -24    2    1    2    0    0  0.39184396617E+02 -0.62402584284E+02 -0.17005339377E+03  0.20160752267E+03  0.79359542581E+02 0.  0.
         11    1    4    4    0    0  0.50652554478E+02 -0.34923715010E+02 -0.15787047551E+03  0.16943563434E+03  0.00000000000E+00 0. -1.
        -12    1    4    4    0    0 -0.11468157861E+02 -0.27478869274E+02 -0.12182918262E+02  0.32171888329E+02  0.00000000000E+00 0.  1.
        -13    1    3    3    0    0 -0.47448365048E+02  0.51151062427E+02 -0.67159998160E+01  0.70091962354E+02  0.00000000000E+00 0.  1.
         13    1    3    3    0    0  0.31685591928E+02  0.54093143056E+02 -0.61996236221E+02  0.88167897600E+02  0.00000000000E+00 0. -1.
         21    1    1    2  502  501 -0.23421623498E+02 -0.42841621199E+02  0.12014392992E+02  0.50282428275E+02  0.00000000000E+00 0.  1.
<scales pt_clust_5="13000.00000" pt_clust_6="13000.00000" pt_clust_7="13000.00000" pt_clust_8="13000.00000" pt_clust_9="48.82599"></scales>
<clustering>
<clus scale="   48.826">  1  9  2 -1</clus>
<clus scale="   79.360">  5  6 -1 -1</clus>
<clus scale="   94.868">  7  8 -1 -1</clus>
<clus scale="  113.156">  2  5  1 -1</clus>
<clus scale="  113.156">  2  5  1 -1</clus>
</clustering>
</event>
<event>
 9    1  0.2333971E-005  0.1550772E+03  0.7546771E-02  0.1196699E+00
         -2   -1    0    0    0  501 -0.00000000000E+00  0.00000000000E+00  0.13632361091E+03  0.13632361091E+03  0.00000000000E+00 0.  1.
          1   -1    0    0  502    0  0.00000000000E+00 -0.00000000000E+00 -0.44040460444E+03  0.44040460444E+03  0.00000000000E+00 0. -1.
         23    2    1    2    0    0  0.23318542675E+02 -0.95480057327E+02 -0.20469105823E+02  0.13698169323E+03  0.93192296925E+02 0.  0.
        -24    2    1    2    0    0 -0.62818932592E+02  0.11624584914E+03 -0.33670960192E+03  0.37038611434E+03  0.79706975455E+02 0.  0.
         11    1    4    4    0    0 -0.73572953118E+02  0.92547126301E+02 -0.20965048067E+03  0.24068916482E+03  0.00000000000E+00 0. -1.
        -12    1    4    4    0    0  0.10754020526E+02  0.23698722840E+02 -0.12705912125E+03  0.12969694952E+03  0.00000000000E+00 0.  1.
        -13    1    3    3    0    0  0.39672147996E+02 -0.80165642510E+02  0.19144753016E+02  0.91470930539E+02  0.00000000000E+00 0.  1.
         13    1    3    3    0    0 -0.16353605321E+02 -0.15314414817E+02 -0.39613858839E+02  0.45510762686E+02  0.00000000000E+00 0. -1.
         21    1    1    2  502  501  0.39500389917E+02 -0.20765791815E+02  0.53097714212E+02  0.69360407783E+02  0.00000000000E+00 0.  1.
<scales pt_clust_5="13000.00000" pt_clust_6="13000.00000" pt_clust_7="13000.00000" pt_clust_8="13000.00000" pt_clust_9="44.62621"></scales>
<clustering>
<clus scale="   44.626">  1  9  2 -1</clus>
<clus scale="   79.707">  5  6 -1 -1</clus>
<clus scale="   93.192">  7  8 -1 -1</clus>
<clus scale="  147.368">  2  5  1 -1</clus>
<clus scale="  147.368">  2  5  1 -1</clus>
</clustering>
</event>
<event>
 9    1  0.2333971E-005  0.1053676E+03  0.7546771E-02  0.1272932E+00
          1   -1    0    0  502    0  0.00000000000E+00  0.00000000000E+00  0.24770981614E+03  0.24770981614E+03  0.00000000000E+00 0. -1.
         -2   -1    0    0    0  501 -0.00000000000E+00 -0.00000000000E+00 -0.94933965296E+02  0.94933965296E+02  0.00000000000E+00 0.  1.
        -24    2    1    2    0    0  0.42826487549E+02 -0.64224097096E+02  0.63278662668E+02  0.13103408944E+03  0.84893467138E+02 0.  0.
         23    2    1    2    0    0  0.28199399020E+02  0.39300223082E+02  0.87270090226E+02  0.13630473848E+03  0.92861183734E+02 0.  0.
         13    1    3    3    0    0  0.48798061274E+02 -0.28886995449E+02  0.74365988388E+02  0.93520102219E+02  0.00000000000E+00 0. -1.
        -14    1    3    3    0    0 -0.59715737256E+01 -0.35337101648E+02 -0.11087325720E+02  0.37513987221E+02  0.00000000000E+00 0.  1.
        -13    1    4    4    0    0  0.74891647481E+01  0.20935286333E+02  0.10238175033E+03  0.10476829961E+03  0.00000000000E+00 0. -1.
         13    1    4    4    0    0  0.20710234272E+02  0.18364936749E+02 -0.15111660105E+02  0.31536438869E+02  0.00000000000E+00 0.  1.
         21    1    1    2  502  501 -0.71025886569E+02  0.24923874014E+02  0.22270979489E+01  0.75304953516E+02  0.00000000000E+00 0.  1.
<scales pt_clust_5="13000.00000" pt_clust_6="13000.00000" pt_clust_7="13000.00000" pt_clust_8="13000.00000" pt_clust_9="75.27201"></scales>
<clustering>
<clus scale="   75.272">  2  9  1 -1</clus>
<clus scale="   84.893">  5  6 -1 -1</clus>
<clus scale="   92.861">  7  8 -1 -1</clus>
<clus scale="   98.418">  2  5  1 -1</clus>
<clus scale="  105.368">  1  5  2 -1</clus>
</clustering>
</event>
<event>
 9    1  0.2333971E-005  0.2629985E+03  0.7546771E-02  0.1105791E+00
          1   -1    0    0  502    0  0.00000000000E+00  0.00000000000E+00  0.12614875464E+04  0.12614875464E+04  0.00000000000E+00 0. -1.
         -2   -1    0    0    0  501 -0.00000000000E+00 -0.00000000000E+00 -0.14618264382E+03  0.14618264382E+03  0.00000000000E+00 0.  1.
        -24    2    1    2    0    0  0.64018645893E+02 -0.26968335950E+03  0.20803203949E+03  0.35585652257E+03  0.80802436770E+02 0.  0.
         23    2    1    2    0    0 -0.23338064556E+02  0.23961452882E+03  0.95090566240E+03  0.98500898633E+03  0.89784946867E+02 0.  0.
         13    1    3    3    0    0  0.49854431403E+02 -0.25647179387E+03  0.21153865234E+03  0.33617234689E+03  0.00000000000E+00 0. -1.
        -14    1    3    3    0    0  0.14164214490E+02 -0.13211565634E+02 -0.35066128476E+01  0.19684175682E+02  0.00000000000E+00 0.  1.
        -11    1    4    4    0    0 -0.56608682201E+02  0.12036879796E+03  0.47685095914E+03  0.49505558037E+03  0.00000000000E+00 0.  1.
         11    1    4    4    0    0  0.33270617646E+02  0.11924573087E+03  0.47405470326E+03  0.48995340596E+03  0.00000000000E+00 0. -1.
         21    1    1    2  502  501 -0.40680581337E+02  0.30068830684E+02 -0.43632799284E+02  0.66804681348E+02  0.00000000000E+00 0.  1.
<scales pt_clust_5="13000.00000" pt_clust_6="13000.00000" pt_clust_7="13000.00000" pt_clust_8="13000.00000" pt_clust_9="50.58700"></scales>
<clustering>
<clus scale="   50.587">  2  9  1 -1</clus>
<clus scale="   80.802">  5  6 -1 -1</clus>
<clus scale="   89.785">  7  8 -1 -1</clus>
<clus scale="  260.069">  2  5  1 -1</clus>
<clus scale="  262.998">  1  5  2 -1</clus>
</clustering>
</event>
<event>
 9    1  0.2333971E-005  0.1001669E+03  0.7546771E-02  0.1286523E+00
          1   -1    0    0  502    0  0.00000000000E+00  0.00000000000E+00  0.26444228502E+03  0.26444228502E+03  0.00000000000E+00 0. -1.
         -2   -1    0    0    0  501 -0.00000000000E+00 -0.00000000000E+00 -0.11903292441E+03  0.11903292441E+03  0.00000000000E+00 0.  1.
        -24    2    1    2    0    0 -0.19565467933E+02 -0.77629687980E+02 -0.37897621151E+02  0.11973880191E+03  0.80572793193E+02 0.  0.
         23    2    1    2    0    0  0.32162551767E+02  0.10300926307E+02  0.16549898387E+03  0.19296230591E+03  0.93295225086E+02 0.  0.
         11    1    3    3    0    0 -0.22027686528E+02 -0.93604050703E+02 -0.38457746464E+02  0.10356609264E+03  0.00000000000E+00 0. -1.
        -12    1    3    3    0    0  0.24622185949E+01  0.15974362722E+02  0.56012531288E+00  0.16172709271E+02  0.00000000000E+00 0.  1.
        -13    1    4    4    0    0  0.50265730205E+02  0.21564335748E+02  0.45683660539E+02  0.71264725142E+02  0.00000000000E+00 0.  1.
         13    1    4    4    0    0 -0.18103178438E+02 -0.11263409442E+02  0.11981532333E+03  0.12169758077E+03  0.00000000000E+00 0. -1.
         21    1    1    2  502  501 -0.12597083834E+02  0.67328761673E+02  0.17807997890E+02  0.70774101608E+02  0.00000000000E+00 0.  1.
<scales pt_clust_5="13000.00000" pt_clust_6="13000.00000" pt_clust_7="13000.00000" pt_clust_8="13000.00000" pt_clust_9="68.49707"></scales>
<clustering>
<clus scale="   68.497">  2  9  1 -1</clus>
<clus scale="   80.573">  5  6 -1 -1</clus>
<clus scale="   88.439">  2  5  1 -1</clus>
<clus scale="   93.295">  7  8 -1 -1</clus>
<clus scale="  100.167">  1  5  2 -1</clus>
</clustering>
</event>
<event>
 9    1  0.2333971E-005  0.2337032E+03  0.7546771E-02  0.1124723E+00
          1   -1    0    0  502    0  0.00000000000E+00  0.00000000000E+00  0.12160551927E+04  0.12160551927E+04  0.00000000000E+00 0. -1.
         -2   -1    0    0    0  501 -0.00000000000E+00 -0.00000000000E+00 -0.66991799748E+02  0.66991799748E+02  0.00000000000E+00 0.  1.
        -24    2    1    2    0    0 -0.31330710530E+02  0.20858946935E+03  0.36113110542E+03  0.42594305174E+03  0.80750404831E+02 0.  0.
         23    2    1    2    0    0 -0.14796564533E+02 -0.21890097451E+03  0.77121619436E+03  0.80696931779E+03  0.91041124986E+02 0.  0.
         13    1    3    3    0    0  0.22808828988E+02  0.41303063723E+02  0.10671683881E+03  0.11668191564E+03  0.00000000000E+00 0. -1.
        -14    1    3    3    0    0 -0.54139539518E+02  0.16728640563E+03  0.25441426661E+03  0.30926113610E+03  0.00000000000E+00 0.  1.
        -11    1    4    4    0    0  0.21955519440E+02 -0.51898269349E+02  0.30986797598E+03  0.31495021469E+03  0.00000000000E+00 0.  1.
         11    1    4    4    0    0 -0.36752083974E+02 -0.16700270516E+03  0.46134821838E+03  0.49201910310E+03  0.00000000000E+00 0. -1.
         21    1    1    2  502  501  0.46127275063E+02  0.10311505158E+02  0.16716093154E+02  0.50134622904E+02  0.00000000000E+00 0. -1.
<scales pt_clust_5="13000.00000" pt_clust_6="13000.00000" pt_clust_7="13000.00000" pt_clust_8="13000.00000" pt_clust_9="47.26577"></scales>
<clustering>
<clus scale="   47.266">  2  9  1 -1</clus>
<clus scale="   80.750">  5  6 -1 -1</clus>
<clus scale="   91.041">  7  8 -1 -1</clus>
<clus scale="  229.890">  2  5  1 -1</clus>
<clus scale="  233.703">  1  5  2 -1</clus>
</clustering>
</event>
<event>
 9    1  0.2333971E-005  0.1016658E+03  0.7546771E-02  0.1282848E+00
          1   -1    0    0  502    0  0.00000000000E+00  0.00000000000E+00  0.30139568757E+03  0.30139568757E+03  0.00000000000E+00 0. -1.
         -2   -1    0    0    0  501 -0.00000000000E+00 -0.00000000000E+00 -0.63886595386E+02  0.63886595386E+02  0.00000000000E+00 0.  1.
         23    2    1    2    0    0  0.40717588195E+02  0.25719681108E+02  0.71047998242E+01  0.10265415795E+03  0.90376844265E+02 0.  0.
        -24    2    1    2    0    0 -0.22406148254E+02 -0.41613305771E+02  0.21606995377E+03  0.23446095617E+03  0.77794680710E+02 0.  0.
         13    1    4    4    0    0 -0.16975180571E+02 -0.51182663787E+02  0.21682704882E+03  0.22343184851E+03  0.00000000000E+00 0. -1.
        -14    1    4    4    0    0 -0.54309676834E+01  0.95693580158E+01 -0.75709504885E+00  0.11029107658E+02  0.00000000000E+00 0.  1.
        -13    1    3    3    0    0  0.60469978277E+02  0.40571883056E+02  0.18955667910E+02  0.75246350832E+02  0.00000000000E+00 0.  1.
         13    1    3    3    0    0 -0.19752390082E+02 -0.14852201948E+02 -0.11850868086E+02  0.27407807119E+02  0.00000000000E+00 0. -1.
         21    1    1    2  502  501 -0.18311439941E+02  0.15893624663E+02  0.14334338587E+02  0.28167168839E+02  0.00000000000E+00 0.  1.
<scales pt_clust_5="13000.00000" pt_clust_6="13000.00000" pt_clust_7="13000.00000" pt_clust_8="13000.00000" pt_clust_9="24.24698"></scales>
<clustering>
<clus scale="   24.247">  2  9  1 -1</clus>
<clus scale="   77.795">  5  6 -1 -1</clus>
<clus scale="   90.377">  7  8 -1 -1</clus>
<clus scale="   90.664">  1  5  2 -1</clus>
<clus scale="   90.664">  1  5  2 -1</clus>
</clustering>
</event>
<event>
 9    1  0.6019547E-005  0.3482700E+03  0.7546771E-02  0.1063604E+00
         -2   -1    0    0    0  501 -0.00000000000E+00  0.00000000000E+00  0.74867127421E+03  0.74867127421E+03  0.00000000000E+00 0.  1.
          1   -1    0    0  502    0  0.00000000000E+00 -0.00000000000E+00 -0.64058687928E+03  0.64058687928E+03  0.00000000000E+00 0. -1.
        -24    2    1    2    0    0  0.19495685549E+03 -0.28984071707E+03  0.62436567788E+03  0.71990834429E+03  0.80123078355E+02 0.  0.
         23    2    1    2    0    0 -0.21729500048E+03  0.25538712600E+03 -0.52285515684E+03  0.62776545544E+03  0.90951913929E+02 0.  0.
         13    1    3    3    0    0  0.79722022206E+02 -0.10741110831E+03  0.16516347680E+03  0.21253639943E+03  0.00000000000E+00 0. -1.
        -14    1    3    3    0    0  0.11523483328E+03 -0.18242960877E+03  0.45920220108E+03  0.50737194486E+03  0.00000000000E+00 0.  1.
        -11    1    4    4    0    0 -0.19678490311E+03  0.23043771723E+03 -0.50952500796E+03  0.59282507821E+03  0.00000000000E+00 0. -1.
         11    1    4    4    0    0 -0.20510097365E+02  0.24949408770E+02 -0.13330148883E+02  0.34940377232E+02  0.00000000000E+00 0.  1.
         21    1    1    2  502  501  0.22338144990E+02  0.34453591074E+02  0.65738738950E+01  0.41584353758E+02  0.00000000000E+00 0.  1.
<scales pt_clust_5="13000.00000" pt_clust_6="13000.00000" pt_clust_7="13000.00000" pt_clust_8="13000.00000" pt_clust_9="41.06145"></scales>
<clustering>
<clus scale="   41.061">  1  9  2 -1</clus>
<clus scale="   80.123">  5  6 -1 -1</clus>
<clus scale="   90.952">  7  8 -1 -1</clus>
<clus scale="  345.600">  1  5  2 -1</clus>
<clus scale="  348.270">  2  5  1 -1</clus>
</clustering>
</event>
<event>
 9    1  0.2333971E-005  0.1262697E+03  0.7546771E-02  0.1237081E+00
         -2   -1    0    0    0  501 -0.00000000000E+00  0.00000000000E+00  0.10263486881E+03  0.10263486881E+03  0.00000000000E+00 0.  1.
          1   -1    0    0  502    0  0.00000000000E+00 -0.00000000000E+00 -0.54459686076E+03  0.54459686076E+03  0.00000000000E+00 0. -1.
         23    2    1    2    0    0  0.66936586931E+02  0.66136104399E+02  0.46948404780E+02  0.13764956106E+03  0.88818680319E+02 0.  0.
        -24    2    1    2    0    0 -0.60377200040E+02 -0.20939404508E+02 -0.32212288284E+03  0.33665489470E+03  0.74091170411E+02 0.  0.
         13    1    4    4    0    0 -0.20428333177E+02 -0.46105093202E+02 -0.15556770753E+03  0.16353687059E+03  0.00000000000E+00 0. -1.
        -14    1    4    4    0    0 -0.39948866863E+02  0.25165688695E+02 -0.16655517531E+03  0.17311802411E+03  0.00000000000E+00 0.  1.
        -13    1    3    3    0    0  0.43779335706E+02  0.86385135229E+02  0.45101645864E+02  0.10683248702E+03  0.00000000000E+00 0.  1.
         13    1    3    3    0    0  0.23157251225E+02 -0.20249030830E+02  0.18467589156E+01  0.30817074039E+02  0.00000000000E+00 0. -1.
         21    1    1    2  502  501 -0.65593868913E+01 -0.45196699891E+02 -0.16678751389E+03  0.17292727381E+03  0.00000000000E+00 0. -1.
<scales pt_clust_5="13000.00000" pt_clust_6="13000.00000" pt_clust_7="13000.00000" pt_clust_8="13000.00000" pt_clust_9="45.67020"></scales>
<clustering>
<clus scale="   45.670">  2  9  1 -1</clus>
<clus scale="   74.091">  5  6 -1 -1</clus>
<clus scale="   88.819">  7  8 -1 -1</clus>
<clus scale="  116.382">  2  5  1 -1</clus>
<clus scale="   45.670">  2  5  1 -1</clus>
</clustering>
</event>
<event>
 9    1  0.2333971E-005  0.1666898E+03  0.7546771E-02  0.1182865E+00
         -4   -1    0    0    0  501 -0.00000000000E+00  0.00000000000E+00  0.10734786096E+04  0.10734786096E+04  0.00000000000E+00 0.  1.
          3   -1    0    0  502    0  0.00000000000E+00 -0.00000000000E+00 -0.39969288471E+02  0.39969288471E+02  0.00000000000E+00 0. -1.
        -24    2    1    2    0    0  0.10049677313E+03 -0.71985822236E+02  0.49588132819E+03  0.51729667077E+03  0.80099899718E+02 0.  0.
         23    2    1    2    0    0 -0.15916588903E+03  0.76119732254E+02  0.40131175378E+03  0.44768819678E+03  0.90805307902E+02 0.  0.
         11    1    3    3    0    0  0.71549010828E+02 -0.54529497393E+02  0.19769594140E+03  0.21720131741E+03  0.00000000000E+00 0. -1.
        -12    1    3    3    0    0  0.28947762302E+02 -0.17456324843E+02  0.29818538679E+03  0.30009535337E+03  0.00000000000E+00 0.  1.
        -11    1    4    4    0    0 -0.17476789603E+02  0.50558423102E+02  0.90050355538E+02  0.10474091299E+03  0.00000000000E+00 0. -1.
         11    1    4    4    0    0 -0.14168909943E+03  0.25561309152E+02  0.31126139824E+03  0.34294728379E+03  0.00000000000E+00 0.  1.
         21    1    1    2  502  501  0.58669115903E+02 -0.41339100183E+01  0.13631623921E+03  0.14846303056E+03  0.00000000000E+00 0.  1.
<scales pt_clust_5="13000.00000" pt_clust_6="13000.00000" pt_clust_7="13000.00000" pt_clust_8="13000.00000" pt_clust_9="58.81458"></scales>
<clustering>
<clus scale="   58.815">  2  9  1 -1</clus>
<clus scale="   80.100">  5  6 -1 -1</clus>
<clus scale="   90.805">  7  8 -1 -1</clus>
<clus scale="  161.108">  1  5  2 -1</clus>
<clus scale="   58.815">  2  5  1 -1</clus>
</clustering>
</event>
<event>
 9    1  0.2333971E-005  0.1188543E+03  0.7546771E-02  0.1246865E+00
         -2   -1    0    0    0  501 -0.00000000000E+00  0.00000000000E+00  0.92248681919E+03  0.92248681919E+03  0.00000000000E+00 0.  1.
          1   -1    0    0  502    0  0.00000000000E+00 -0.00000000000E+00 -0.30697105197E+02  0.30697105197E+02  0.00000000000E+00 0. -1.
        -24    2    1    2    0    0 -0.17049807487E+02  0.37419966704E+02  0.59536161445E+03  0.60273674857E+03  0.84529203660E+02 0.  0.
         23    2    1    2    0    0  0.21569728597E+02 -0.84898028564E+02  0.14660752681E+03  0.19321867949E+03  0.90370142963E+02 0.  0.
         11    1    3    3    0    0  0.20690681352E+02  0.35135027538E+02  0.14024162482E+03  0.14604892258E+03  0.00000000000E+00 0. -1.
        -12    1    3    3    0    0 -0.37740488840E+02  0.22849391660E+01  0.45511998963E+03  0.45668782599E+03  0.00000000000E+00 0.  1.
        -11    1    4    4    0    0  0.40496886720E+02 -0.42784465723E+02  0.26604467762E+02  0.64639817807E+02  0.00000000000E+00 0. -1.
         11    1    4    4    0    0 -0.18927158122E+02 -0.42113562842E+02  0.12000305905E+03  0.12857886168E+03  0.00000000000E+00 0.  1.
         21    1    1    2  502  501 -0.45199211099E+01  0.47478061861E+02  0.14982057272E+03  0.15722849632E+03  0.00000000000E+00 0.  1.
<scales pt_clust_5="13000.00000" pt_clust_6="13000.00000" pt_clust_7="13000.00000" pt_clust_8="13000.00000" pt_clust_9="47.69273"></scales>
<clustering>
<clus scale="   47.693">  1  9  2 -1</clus>
<clus scale="   84.529">  5  6 -1 -1</clus>
<clus scale="   90.370">  7  8 -1 -1</clus>
<clus scale="  114.476">  1  5  2 -1</clus>
<clus scale="  118.854">  2  5  1 -1</clus>
</clustering>
</event>
<event>
 9    1  0.2333971E-005  0.9340227E+02  0.7546771E-02  0.1302046E+00
          1   -1    0    0  502    0  0.00000000000E+00  0.00000000000E+00  0.26883468638E+02  0.26883468638E+02  0.00000000000E+00 0. -1.
         -2   -1    0    0    0  501 -0.00000000000E+00 -0.00000000000E+00 -0.62835194709E+03  0.62835194709E+03  0.00000000000E+00 0.  1.
        -24    2    1    2    0    0 -0.38061278516E+02  0.19916853463E+02 -0.26777813424E+03  0.28266643364E+03  0.79685893084E+02 0.  0.
         23    2    1    2    0    0 -0.12246038509E+02 -0.16523054743E+02 -0.11667309104E+03  0.14977124379E+03  0.91628808223E+02 0.  0.
         11    1    3    3    0    0 -0.42534042621E+02 -0.17135308316E+02 -0.89950170349E+02  0.10096433389E+03  0.00000000000E+00 0. -1.
        -12    1    3    3    0    0  0.44727641049E+01  0.37052161779E+02 -0.17782796389E+03  0.18170209975E+03  0.00000000000E+00 0.  1.
        -11    1    4    4    0    0  0.35770375891E+02 -0.14095288098E+02 -0.81776967307E+02  0.90364093090E+02  0.00000000000E+00 0.  1.
         11    1    4    4    0    0 -0.48016414400E+02 -0.24277666451E+01 -0.34896123733E+02  0.59407150701E+02  0.00000000000E+00 0. -1.
         21    1    1    2  502  501  0.50307317025E+02 -0.33937987203E+01 -0.21701725317E+03  0.22279773829E+03  0.00000000000E+00 0.  1.
<scales pt_clust_5="13000.00000" pt_clust_6="13000.00000" pt_clust_7="13000.00000" pt_clust_8="13000.00000" pt_clust_9="50.42166"></scales>
<clustering>
<clus scale="   50.422">  2  9  1 -1</clus>
<clus scale="   79.686">  5  6 -1 -1</clus>
<clus scale="   81.719">  2  5  1 -1</clus>
<clus scale="   91.629">  7  8 -1 -1</clus>
<clus scale="   93.402">  1  5  2 -1</clus>
</clustering>
</event>
<event>
 9    1  0.2333971E-005  0.1910189E+03  0.7546771E-02  0.1158046E+00
          1   -1    0    0  502    0  0.00000000000E+00  0.00000000000E+00  0.57904298692E+03  0.57904298692E+03  0.00000000000E+00 0. -1.
         -2   -1    0    0    0  501 -0.00000000000E+00 -0.00000000000E+00 -0.34125513726E+03  0.34125513726E+03  0.00000000000E+00 0.  1.
         23    2    1    2    0    0  0.11245754097E+03 -0.11651518961E+03 -0.18724732574E+03  0.26347105979E+03  0.90182872103E+02 0.  0.
        -24    2    1    2    0    0 -0.96656134954E+02  0.13530885708E+03  0.52243161396E+03  0.55638328602E+03  0.94745313739E+02 0.  0.
         13    1    4    4    0    0 -0.34115736650E+02  0.12051144193E+03  0.30687310913E+03  0.33144833116E+03  0.00000000000E+00 0. -1.
        -14    1    4    4    0    0 -0.62540398304E+02  0.14797415149E+02  0.21555850482E+03  0.22493495486E+03  0.00000000000E+00 0.  1.
        -13    1    3    3    0    0  0.95286096446E+02 -0.54633877685E+02 -0.71370820169E+02  0.13098891075E+03  0.00000000000E+00 0.  1.
         13    1    3    3    0    0  0.17171444522E+02 -0.61881311922E+02 -0.11587650557E+03  0.13248214904E+03  0.00000000000E+00 0. -1.
         21    1    1    2  502  501 -0.15801406014E+02 -0.18793667468E+02 -0.97396438554E+02  0.10044377836E+03  0.00000000000E+00 0. -1.
<scales pt_clust_5="13000.00000" pt_clust_6="13000.00000" pt_clust_7="13000.00000" pt_clust_8="13000.00000" pt_clust_9="24.55374"></scales>
<clustering>
<clus scale="   24.554">  2  9  1 -1</clus>
<clus scale="   90.183">  7  8 -1 -1</clus>
<clus scale="   94.745">  5  6 -1 -1</clus>
<clus scale="  188.798">  2  7  1 -1</clus>
<clus scale="  191.019">  1  5  2 -1</clus>
</clustering>
</event>
<event>
 9    1  0.2333971E-005  0.1109266E+03  0.7546771E-02  0.1259331E+00
         -2   -1    0    0    0  501 -0.00000000000E+00  0.00000000000E+00  0.10738656855E+03  0.10738656855E+03  0.00000000000E+00 0.  1.
          1   -1    0    0  502    0  0.00000000000E+00 -0.00000000000E+00 -0.38167536098E+03  0.38167536098E+03  0.00000000000E+00 0. -1.
         23    2    1    2    0    0 -0.65405449724E+01 -0.40763845180E+02  0.62287928940E+02  0.11901966726E+03  0.92635982759E+02 0.  0.
        -24    2    1    2    0    0  0.11451689880E+02  0.61956457315E+02 -0.32863689960E+03  0.34688439269E+03  0.91415678689E+02 0.  0.
         11    1    4    4    0    0 -0.30629963502E+02  0.55862458549E+02 -0.24382065296E+03  0.25200658672E+03  0.00000000000E+00 0. -1.
        -12    1    4    4    0    0  0.42081653381E+02  0.60939987661E+01 -0.84816246637E+02  0.94877805971E+02  0.00000000000E+00 0.  1.
        -11    1    3    3    0    0 -0.25009367271E+02 -0.60833414483E+01 -0.16781271286E+02  0.30725991611E+02  0.00000000000E+00 0. -1.
         11    1    3    3    0    0  0.18468822299E+02 -0.34680503732E+02  0.79069200225E+02  0.88293675654E+02  0.00000000000E+00 0.  1.
         21    1    1    2  502  501 -0.49111449073E+01 -0.21192612135E+02 -0.79398217752E+01  0.23157869574E+02  0.00000000000E+00 0.  1.
<scales pt_clust_5="13000.00000" pt_clust_6="13000.00000" pt_clust_7="13000.00000" pt_clust_8="13000.00000" pt_clust_9="21.75422"></scales>
<clustering>
<clus scale="   21.754">  1  9  2 -1</clus>
<clus scale="   91.416">  5  6 -1 -1</clus>
<clus scale="   92.636">  7  8 -1 -1</clus>
<clus scale="  109.910">  2  5  1 -1</clus>
<clus scale="  109.910">  2  5  1 -1</clus>
</clustering>
</event>
<event>
 9    1  0.2333971E-005  0.1401580E+03  0.7546771E-02  0.1214125E+00
          1   -1    0    0  502    0  0.00000000000E+00  0.00000000000E+00  0.14063144367E+03  0.14063144367E+03  0.00000000000E+00 0. -1.
         -2   -1    0    0    0  501 -0.00000000000E+00 -0.00000000000E+00 -0.20499007770E+03  0.20499007770E+03  0.00000000000E+00 0.  1.
        -24    2    1    2    0    0 -0.74084114523E+02 -0.38621912469E+02 -0.99145326179E+02  0.15474604617E+03  0.84477422755E+02 0.  0.
         23    2    1    2    0    0  0.10692541171E+03  0.52167512354E+02  0.42213020147E+02  0.15458243972E+03  0.89214901133E+02 0.  0.
         11    1    3    3    0    0 -0.19824925857E+02 -0.54883630584E+02 -0.30816274257E+02  0.65991539991E+02  0.00000000000E+00 0. -1.
        -12    1    3    3    0    0 -0.54259188667E+02  0.16261718116E+02 -0.68329051922E+02  0.88754506181E+02  0.00000000000E+00 0.  1.
        -13    1    4    4    0    0  0.96818788737E+02  0.13600247160E+01  0.25142402871E+02  0.10003933197E+03  0.00000000000E+00 0. -1.
         13    1    4    4    0    0  0.10106622973E+02  0.50807487638E+02  0.17070617276E+02  0.54543107743E+02  0.00000000000E+00 0.  1.
         21    1    1    2  502  501 -0.32841297187E+02 -0.13545599886E+02 -0.74263279979E+01  0.36293035485E+02  0.00000000000E+00 0.  1.
<scales pt_clust_5="13000.00000" pt_clust_6="13000.00000" pt_clust_7="13000.00000" pt_clust_8="13000.00000" pt_clust_9="35.52512"></scales>
<clustering>
<clus scale="   35.525">  2  9  1 -1</clus>
<clus scale="   84.477">  5  6 -1 -1</clus>
<clus scale="   89.215">  7  8 -1 -1</clus>
<clus scale="  137.191">  2  5  1 -1</clus>
<clus scale="  140.158">  1  5  2 -1</clus>
</clustering>
</event>
<event>
 9    1  0.2333971E-005  0.1078484E+03  0.7546771E-02  0.1267361E+00
          1   -1    0    0  502    0  0.00000000000E+00  0.00000000000E+00  0.43103593180E+03  0.43103593180E+03  0.00000000000E+00 0. -1.
         -2   -1    0    0    0  501 -0.00000000000E+00 -0.00000000000E+00 -0.70426822838E+02  0.70426822838E+02  0.00000000000E+00 0.  1.
         23    2    1    2    0    0 -0.20561277842E+01 -0.32856437799E+02 -0.60968121591E+01  0.94763174494E+02  0.88651649480E+02 0.  0.
        -24    2    1    2    0    0  0.48362256266E+02  0.47020103481E+02  0.32805687980E+03  0.34474301991E+03  0.81710681271E+02 0.  0.
         13    1    4    4    0    0  0.58279116277E+02  0.28705393816E+02  0.12739605595E+03  0.14300423106E+03  0.00000000000E+00 0. -1.
        -14    1    4    4    0    0 -0.99168600108E+01  0.18314709665E+02  0.20066082385E+03  0.20173878886E+03  0.00000000000E+00 0.  1.
        -11    1    3    3    0    0  0.25338287564E+02  0.70421522974E+00 -0.34610395546E+02  0.42899932583E+02  0.00000000000E+00 0.  1.
         11    1    3    3    0    0 -0.27394415348E+02 -0.33560653029E+02  0.28513583387E+02  0.51863241912E+02  0.00000000000E+00 0. -1.
         21    1    1    2  502  501 -0.46306128482E+02 -0.14163665681E+02  0.38649041329E+02  0.61956560235E+02  0.00000000000E+00 0. -1.
<scales pt_clust_5="13000.00000" pt_clust_6="13000.00000" pt_clust_7="13000.00000" pt_clust_8="13000.00000" pt_clust_9="48.42383"></scales>
<clustering>
<clus scale="   48.424">  2  9  1 -1</clus>
<clus scale="   81.711">  5  6 -1 -1</clus>
<clus scale="   88.652">  7  8 -1 -1</clus>
<clus scale="  102.219">  1  5  2 -1</clus>
<clus scale="  102.219">  1  5  2 -1</clus>
</clustering>
</event>
<event>
 9    1  0.2333971E-005  0.1255464E+03  0.7546771E-02  0.1236814E+00
          1   -1    0    0  502    0  0.00000000000E+00  0.00000000000E+00  0.11554552249E+03  0.11554552249E+03  0.00000000000E+00 0. -1.
         -2   -1    0    0    0  501 -0.00000000000E+00 -0.00000000000E+00 -0.34995187617E+03  0.34995187617E+03  0.00000000000E+00 0.  1.
         23    2    1    2    0    0 -0.52801146219E+02  0.10336983587E+03 -0.72935408619E+02  0.16460168308E+03  0.91109034850E+02 0.  0.
        -24    2    1    2    0    0  0.15253306605E+02 -0.74182069882E+02  0.19954173722E+02  0.11334081784E+03  0.81928804974E+02 0.  0.
         13    1    4    4    0    0  0.47534334740E+02 -0.29628683430E+02  0.44997932662E+01  0.56192704157E+02  0.00000000000E+00 0. -1.
        -14    1    4    4    0    0 -0.32281028135E+02 -0.44553386452E+02  0.15454380456E+02  0.57148113679E+02  0.00000000000E+00 0.  1.
        -11    1    3    3    0    0 -0.38188372110E+01  0.83710941317E+02 -0.74023337582E+02  0.11181037394E+03  0.00000000000E+00 0. -1.
         11    1    3    3    0    0 -0.48982309008E+02  0.19658894551E+02  0.10879289637E+01  0.52791309135E+02  0.00000000000E+00 0.  1.
         21    1    1    2  502  501  0.37547839614E+02 -0.29187765987E+02 -0.18142511878E+03  0.18755489775E+03  0.00000000000E+00 0.  1.
<scales pt_clust_5="13000.00000" pt_clust_6="13000.00000" pt_clust_7="13000.00000" pt_clust_8="13000.00000" pt_clust_9="47.55803"></scales>
<clustering>
<clus scale="   47.558">  2  9  1 -1</clus>
<clus scale="   81.929">  5  6 -1 -1</clus>
<clus scale="   91.109">  7  8 -1 -1</clus>
<clus scale="  119.052">  1  5  2 -1</clus>
<clus scale="  119.052">  1  5  2 -1</clus>
</clustering>
</event>
<event>
 9    1  0.2333971E-005  0.1312301E+03  0.7546771E-02  0.1228184E+00
         -2   -1    0    0    0  501 -0.00000000000E+00  0.00000000000E+00  0.86656844029E+02  0.86656844029E+02  0.00000000000E+00 0.  1.
          1   -1    0    0  502    0  0.00000000000E+00 -0.00000000000E+00 -0.26924955987E+03  0.26924955987E+03  0.00000000000E+00 0. -1.
        -24    2    1    2    0    0 -0.94629783396E+02 -0.62946725905E+02 -0.94825975833E+02  0.16830622322E+03  0.80112002051E+02 0.  0.
         23    2    1    2    0    0  0.72329243237E+02  0.35668318234E+02 -0.92126226333E+02  0.15209763518E+03  0.90236914260E+02 0.  0.
         13    1    3    3    0    0 -0.59906668174E+02 -0.62091720510E+00 -0.16046457616E+02  0.62021635192E+02  0.00000000000E+00 0. -1.
        -14    1    3    3    0    0 -0.34723115222E+02 -0.62325808700E+02 -0.78779518217E+02  0.10628458802E+03  0.00000000000E+00 0.  1.
        -13    1    4    4    0    0  0.57333238157E+02  0.60191638392E+02 -0.39282095563E+02  0.91941375679E+02  0.00000000000E+00 0.  1.
         13    1    4    4    0    0  0.14996005080E+02 -0.24523320159E+02 -0.52844130770E+02  0.60156259498E+02  0.00000000000E+00 0. -1.
         21    1    1    2  502  501  0.22300540159E+02  0.27278407671E+02  0.43594863244E+01  0.35502545507E+02  0.00000000000E+00 0.  1.
<scales pt_clust_5="13000.00000" pt_clust_6="13000.00000" pt_clust_7="13000.00000" pt_clust_8="13000.00000" pt_clust_9="35.23387"></scales>
<clustering>
<clus scale="   35.234">  1  9  2 -1</clus>
<clus scale="   80.112">  5  6 -1 -1</clus>
<clus scale="   90.237">  7  8 -1 -1</clus>
<clus scale="  124.485">  1  5  2 -1</clus>
<clus scale="  131.230">  2  5  1 -1</clus>
</clustering>
</event>
<event>
 9    1  0.2333971E-005  0.1038024E+03  0.7546771E-02  0.1274606E+00
          1   -1    0    0  502    0  0.00000000000E+00  0.00000000000E+00  0.29684874769E+03  0.29684874769E+03  0.00000000000E+00 0. -1.
         -2   -1    0    0    0  501 -0.00000000000E+00 -0.00000000000E+00 -0.19414948988E+03  0.19414948988E+03  0.00000000000E+00 0.  1.
         23    2    1    2    0    0  0.67112803742E+02 -0.28453299301E+01 -0.32450738201E+02  0.11806443709E+03  0.91509215754E+02 0.  0.
        -24    2    1    2    0    0 -0.44594029591E+02  0.14677256083E+02  0.24292134868E+03  0.26220099540E+03  0.86801676396E+02 0.  0.
         13    1    4    4    0    0 -0.62872554022E+02  0.26122990292E+02  0.12514398723E+03  0.14246538601E+03  0.00000000000E+00 0. -1.
        -14    1    4    4    0    0  0.18278524431E+02 -0.11445734210E+02  0.11777736145E+03  0.11973560939E+03  0.00000000000E+00 0.  1.
        -11    1    3    3    0    0  0.77989545916E+02  0.25138915085E+02 -0.14892106448E+02  0.83283306600E+02  0.00000000000E+00 0.  1.
         11    1    3    3    0    0 -0.10876742174E+02 -0.27984245015E+02 -0.17558631754E+02  0.34781130494E+02  0.00000000000E+00 0. -1.
         21    1    1    2  502  501 -0.22518774151E+02 -0.11831926153E+02 -0.10777135266E+03  0.11073280508E+03  0.00000000000E+00 0. -1.
<scales pt_clust_5="13000.00000" pt_clust_6="13000.00000" pt_clust_7="13000.00000" pt_clust_8="13000.00000" pt_clust_9="25.43796"></scales>
<clustering>
<clus scale="   25.438">  2  9  1 -1</clus>
<clus scale="   86.802">  5  6 -1 -1</clus>
<clus scale="   91.509">  7  8 -1 -1</clus>
<clus scale="   99.677">  1  5  2 -1</clus>
<clus scale="   99.677">  1  5  2 -1</clus>
</clustering>
</event>
<event>
 9    1  0.2333971E-005  0.8908518E+02  0.7546771E-02  0.1310278E+00
          1   -1    0    0  502    0  0.00000000000E+00  0.00000000000E+00  0.23654314521E+03  0.23654314521E+03  0.00000000000E+00 0. -1.
         -2   -1    0    0    0  501 -0.00000000000E+00 -0.00000000000E+00 -0.90933008721E+02  0.90933008721E+02  0.00000000000E+00 0.  1.
         23    2    1    2    0    0  0.14690335194E+02 -0.67279615619E+01 -0.33452041352E+02  0.95613545385E+02  0.88101302917E+02 0.  0.
        -24    2    1    2    0    0 -0.50517239341E+01 -0.14061615728E+02  0.18984467580E+03  0.20653729289E+03  0.79958761090E+02 0.  0.
         11    1    4    4    0    0 -0.30792749416E+02 -0.34146188702E+02  0.13605163212E+03  0.14361128863E+03  0.00000000000E+00 0. -1.
        -12    1    4    4    0    0  0.25741025482E+02  0.20084572973E+02  0.53793043684E+02  0.62926004268E+02  0.00000000000E+00 0.  1.
        -13    1    3    3    0    0 -0.61831837867E+01 -0.29032990004E+02  0.18764276684E+02  0.35117578928E+02  0.00000000000E+00 0. -1.
         13    1    3    3    0    0  0.20873518980E+02  0.22305028442E+02 -0.52216318036E+02  0.60495966458E+02  0.00000000000E+00 0.  1.
         21    1    1    2  502  501 -0.96386112594E+01  0.20789577290E+02 -0.10782497955E+02  0.25325315656E+02  0.00000000000E+00 0. -1.
<scales pt_clust_5="13000.00000" pt_clust_6="13000.00000" pt_clust_7="13000.00000" pt_clust_8="13000.00000" pt_clust_9="22.91526"></scales>
<clustering>
<clus scale="   22.915">  2  9  1 -1</clus>
<clus scale="   79.959">  5  6 -1 -1</clus>
<clus scale="   81.042">  1  5  2 -1</clus>
<clus scale="   88.101">  7  8 -1 -1</clus>
<clus scale="   81.042">  1  5  2 -1</clus>
</clustering>
</event>
<event>
 9    1  0.2333971E-005  0.1060682E+03  0.7546771E-02  0.1271665E+00
         -2   -1    0    0    0  501 -0.00000000000E+00  0.00000000000E+00  0.48253587156E+03  0.48253587156E+03  0.00000000000E+00 0.  1.
          1   -1    0    0  502    0  0.00000000000E+00 -0.00000000000E+00 -0.33707154773E+03  0.33707154773E+03  0.00000000000E+00 0. -1.
        -24    2    1    2    0    0 -0.82783243489E+02  0.88274761278E+02  0.33825060349E+03  0.36900149717E+03  0.84280100091E+02 0.  0.
         23    2    1    2    0    0  0.50597234642E+02 -0.31510531545E+01 -0.29524969373E+03  0.31356309644E+03  0.92625182924E+02 0.  0.
         13    1    3    3    0    0 -0.52101421916E+02  0.66452209882E+01  0.18879229199E+03  0.19596236027E+03  0.00000000000E+00 0. -1.
        -14    1    3    3    0    0 -0.30681821574E+02  0.81629540290E+02  0.14945831151E+03  0.17303913691E+03  0.00000000000E+00 0.  1.
        -13    1    4    4    0    0  0.17014360099E+02 -0.32359468192E+02 -0.38921409310E+02  0.53399435708E+02  0.00000000000E+00 0.  1.
         13    1    4    4    0    0  0.33582874543E+02  0.29208415038E+02 -0.25632828442E+03  0.26016366073E+03  0.00000000000E+00 0. -1.
         21    1    1    2  502  501  0.32186008847E+02 -0.85123708124E+02  0.10246341406E+03  0.13704282568E+03  0.00000000000E+00 0. -1.
<scales pt_clust_5="13000.00000" pt_clust_6="13000.00000" pt_clust_7="13000.00000" pt_clust_8="13000.00000" pt_clust_9="91.00541"></scales>
<clustering>
<clus scale="   84.280">  5  6 -1 -1</clus>
<clus scale="   91.005">  1  9  2 -1</clus>
<clus scale="   92.625">  7  8 -1 -1</clus>
<clus scale="   98.864">  1  5  2 -1</clus>
<clus scale="  106.068">  2  5  1 -1</clus>
</clustering>
</event>
<event>
 9    1  0.2333971E-005  0.1157568E+03  0.7546771E-02  0.1255354E+00
         -2   -1    0    0    0  501 -0.00000000000E+00  0.00000000000E+00  0.65490079049E+02  0.65490079049E+02  0.00000000000E+00 0.  1.
          1   -1    0    0  502    0  0.00000000000E+00 -0.00000000000E+00 -0.37841934740E+03  0.37841934740E+03  0.00000000000E+00 0. -1.
        -24    2    1    2    0    0 -0.27838215615E+02  0.84034864514E+02 -0.19332828727E+03  0.22645355097E+03  0.77900958820E+02 0.  0.
         23    2    1    2    0    0  0.22263850405E+02 -0.44974794668E+02 -0.13838303532E+03  0.17375772717E+03  0.92322652131E+02 0.  0.
         11    1    3    3    0    0 -0.23207678006E+02  0.51700244627E+02 -0.18393226017E+03  0.19246451087E+03  0.00000000000E+00 0. -1.
        -12    1    3    3    0    0 -0.46305376096E+01  0.32334619886E+02 -0.93960271028E+01  0.33989040102E+02  0.00000000000E+00 0.  1.
        -13    1    4    4    0    0 -0.28147765148E+02 -0.54470897410E+01 -0.10149730595E+02  0.30413557842E+02  0.00000000000E+00 0.  1.
         13    1    4    4    0    0  0.50411615553E+02 -0.39527704927E+02 -0.12823330473E+03  0.14334416933E+03  0.00000000000E+00 0. -1.
         21    1    1    2  502  501  0.55743652104E+01 -0.39060069846E+02  0.18782054244E+02  0.43698148307E+02  0.00000000000E+00 0.  1.
<scales pt_clust_5="13000.00000" pt_clust_6="13000.00000" pt_clust_7="13000.00000" pt_clust_8="13000.00000" pt_clust_9="39.45583"></scales>
<clustering>
<clus scale="   39.456">  1  9  2 -1</clus>
<clus scale="   77.901">  5  6 -1 -1</clus>
<clus scale="   92.323">  7  8 -1 -1</clus>
<clus scale="  104.617">  1  5  2 -1</clus>
<clus scale="  115.757">  2  5  1 -1</clus>
</clustering>
</event>
<event>
 9    1  0.2333971E-005  0.1245400E+03  0.7546771E-02  0.1237961E+00
         -2   -1    0    0    0  501 -0.00000000000E+00  0.00000000000E+00  0.21468379362E+03  0.21468379362E+03  0.00000000000E+00 0.  1.
          1   -1    0    0  502    0  0.00000000000E+00 -0.00000000000E+00 -0.12979677261E+03  0.12979677261E+03  0.00000000000E+00 0. -1.
         23    2    1    2    0    0  0.85018383598E+02  0.54216960893E+01  0.10704079731E+03  0.16416213060E+03  0.90741129021E+02 0.  0.
        -24    2    1    2    0    0 -0.74052354921E+02 -0.47263557476E+02 -0.47747124535E+02  0.13005896267E+03  0.83174219166E+02 0.  0.
         11    1    4    4    0    0 -0.71567247372E+02 -0.65836753600E+02 -0.52796592376E+02  0.11065183771E+03  0.00000000000E+00 0. -1.
        -12    1    4    4    0    0 -0.24851075486E+01  0.18573196124E+02  0.50494678409E+01  0.19407124961E+02  0.00000000000E+00 0.  1.
        -11    1    3    3    0    0  0.28845615327E+02 -0.38808978818E+02  0.22184191799E+02  0.53200984260E+02  0.00000000000E+00 0. -1.
         11    1    3    3    0    0  0.56172768271E+02  0.44230674907E+02  0.84856605513E+02  0.11096114634E+03  0.00000000000E+00 0.  1.
         21    1    1    2  502  501 -0.10966028677E+02  0.41841861387E+02  0.25593348229E+02  0.50259472966E+02  0.00000000000E+00 0.  1.
<scales pt_clust_5="13000.00000" pt_clust_6="13000.00000" pt_clust_7="13000.00000" pt_clust_8="13000.00000" pt_clust_9="43.25500"></scales>
<clustering>
<clus scale="   43.255">  1  9  2 -1</clus>
<clus scale="   83.174">  5  6 -1 -1</clus>
<clus scale="   90.741">  7  8 -1 -1</clus>
<clus scale="  119.139">  2  5  1 -1</clus>
<clus scale="  119.139">  2  5  1 -1</clus>
</clustering>
</event>
<event>
 9    1  0.2333971E-005  0.1019096E+03  0.7546771E-02  0.1287316E+00
          1   -1    0    0  502    0  0.00000000000E+00  0.00000000000E+00  0.62468161631E+03  0.62468161631E+03  0.00000000000E+00 0. -1.
         -2   -1    0    0    0  501 -0.00000000000E+00 -0.00000000000E+00 -0.29758047286E+02  0.29758047286E+02  0.00000000000E+00 0.  1.
        -24    2    1    2    0    0  0.14083670286E+02 -0.12078692326E+02  0.10791749324E+03  0.13653291645E+03  0.81552482184E+02 0.  0.
         23    2    1    2    0    0  0.29598211763E+01 -0.24394466845E+02  0.45432130984E+03  0.46605054341E+03  0.10095249318E+03 0.  0.
         13    1    3    3    0    0  0.12524910893E+02 -0.29987913874E+02  0.60069106588E+01  0.33048923538E+02  0.00000000000E+00 0. -1.
        -14    1    3    3    0    0  0.15587593934E+01  0.17909221547E+02  0.10191058258E+03  0.10348399291E+03  0.00000000000E+00 0.  1.
        -13    1    4    4    0    0 -0.44175849179E+02 -0.32356662085E+02  0.27937142242E+03  0.28468728615E+03  0.00000000000E+00 0.  1.
         13    1    4    4    0    0  0.47135670356E+02  0.79621952400E+01  0.17494988743E+03  0.18136325726E+03  0.00000000000E+00 0. -1.
         21    1    1    2  502  501 -0.17043491463E+02  0.36473159172E+02  0.32684765941E+02  0.51856203735E+02  0.00000000000E+00 0.  1.
<scales pt_clust_5="13000.00000" pt_clust_6="13000.00000" pt_clust_7="13000.00000" pt_clust_8="13000.00000" pt_clust_9="40.25881"></scales>
<clustering>
<clus scale="   40.259">  2  9  1 -1</clus>
<clus scale="   81.552">  5  6 -1 -1</clus>
<clus scale="   82.734">  2  5  1 -1</clus>
<clus scale="  100.952">  7  8 -1 -1</clus>
<clus scale="  101.910">  1  5  2 -1</clus>
</clustering>
</event>
<event>
 9    1  0.2333971E-005  0.1033600E+03  0.7546771E-02  0.1274547E+00
          1   -1    0    0  502    0  0.00000000000E+00  0.00000000000E+00  0.47651361776E+02  0.47651361776E+02  0.00000000000E+00 0. -1.
         -2   -1    0    0    0  501 -0.00000000000E+00 -0.00000000000E+00 -0.46363991045E+03  0.46363991045E+03  0.00000000000E+00 0.  1.
        -24    2    1    2    0    0 -0.65007580478E+02  0.84317371447E+01 -0.21293584472E+03  0.23956686096E+03  0.88054115140E+02 0.  0.
         23    2    1    2    0    0  0.43035799576E+02 -0.10890572640E+02 -0.42293320170E+02  0.10945184888E+03  0.90665857274E+02 0.  0.
         11    1    3    3    0    0  0.94759752526E+00  0.26044755757E+02 -0.14735341617E+02  0.29939230720E+02  0.00000000000E+00 0. -1.
        -12    1    3    3    0    0 -0.65955178003E+02 -0.17613018613E+02 -0.19820050310E+03  0.20962763024E+03  0.00000000000E+00 0.  1.
        -13    1    4    4    0    0  0.49481465885E+01 -0.47645508718E+02 -0.17446542574E+02  0.50980001015E+02  0.00000000000E+00 0.  1.
         13    1    4    4    0    0  0.38087652987E+02  0.36754936078E+02 -0.24846777596E+02  0.58471847868E+02  0.00000000000E+00 0. -1.
         21    1    1    2  502  501  0.21971780902E+02  0.24588354954E+01 -0.16075938378E+03  0.16227256238E+03  0.00000000000E+00 0. -1.
<scales pt_clust_5="13000.00000" pt_clust_6="13000.00000" pt_clust_7="13000.00000" pt_clust_8="13000.00000" pt_clust_9="22.10894"></scales>
<clustering>
<clus scale="   22.109">  2  9  1 -1</clus>
<clus scale="   88.054">  5  6 -1 -1</clus>
<clus scale="   90.666">  7  8 -1 -1</clus>
<clus scale="  101.077">  2  5  1 -1</clus>
<clus scale="  103.360">  1  5  2 -1</clus>
</clustering>
</event>
<event>
 9    1  0.2333971E-005  0.9551986E+02  0.7546771E-02  0.1296613E+00
         -2   -1    0    0    0  501 -0.00000000000E+00  0.00000000000E+00  0.95861147727E+02  0.95861147727E+02  0.00000000000E+00 0.  1.
          1   -1    0    0  502    0  0.00000000000E+00 -0.00000000000E+00 -0.45658844312E+03  0.45658844312E+03  0.00000000000E+00 0. -1.
        -24    2    1    2    0    0 -0.65230013199E+01  0.23370672162E+02 -0.10042344352E+02  0.85405607324E+02  0.81268266985E+02 0.  0.
         23    2    1    2    0    0  0.22069902940E+02  0.16802016041E+02 -0.39414660488E+03  0.40585193843E+03  0.92708475464E+02 0.  0.
         13    1    3    3    0    0  0.59497074673E+01  0.32578422528E+02 -0.39845451234E+02  0.51811317465E+02  0.00000000000E+00 0. -1.
        -14    1    3    3    0    0 -0.12472708787E+02 -0.92077503665E+01  0.29803106882E+02  0.33594289859E+02  0.00000000000E+00 0.  1.
        -13    1    4    4    0    0  0.10629871604E+02 -0.37213885222E+02 -0.11624615554E+03  0.12251953355E+03  0.00000000000E+00 0.  1.
         13    1    4    4    0    0  0.11440031336E+02  0.54015901263E+02 -0.27790044934E+03  0.28333240487E+03  0.00000000000E+00 0. -1.
         21    1    1    2  502  501 -0.15546901620E+02 -0.40172688203E+02  0.43461653848E+02  0.61192045093E+02  0.00000000000E+00 0. -1.
<scales pt_clust_5="13000.00000" pt_clust_6="13000.00000" pt_clust_7="13000.00000" pt_clust_8="13000.00000" pt_clust_9="43.07611"></scales>
<clustering>
<clus scale="   43.076">  1  9  2 -1</clus>
<clus scale="   81.268">  5  6 -1 -1</clus>
<clus scale="   84.461">  1  5  2 -1</clus>
<clus scale="   92.708">  7  8 -1 -1</clus>
<clus scale="   95.520">  2  5  1 -1</clus>
</clustering>
</event>
<event>
 9    1  0.2333971E-005  0.1192245E+03  0.7546771E-02  0.1248893E+00
         -2   -1    0    0    0  501 -0.00000000000E+00  0.00000000000E+00  0.36210851017E+03  0.36210851017E+03  0.00000000000E+00 0.  1.
          1   -1    0    0  502    0  0.00000000000E+00 -0.00000000000E+00 -0.57159222732E+02  0.57159222732E+02  0.00000000000E+00 0. -1.
        -24    2    1    2    0    0 -0.36900403040E+02 -0.82496914554E+02  0.19253891879E+03  0.22595028465E+03  0.76255591471E+02 0.  0.
         23    2    1    2    0    0 -0.58100377334E+01  0.62322927741E+02  0.81608196262E+02  0.13692644437E+03  0.90393858257E+02 0.  0.
         13    1    3    3    0    0 -0.29859898880E+02 -0.46476491832E+02  0.37845022596E+02  0.66962105623E+02  0.00000000000E+00 0. -1.
        -14    1    3    3    0    0 -0.70405041602E+01 -0.36020422722E+02  0.15469389619E+03  0.15898817903E+03  0.00000000000E+00 0.  1.
        -11    1    4    4    0    0 -0.24944034591E+02  0.42359941047E+02  0.94420139038E+02  0.10645060884E+03  0.00000000000E+00 0.  1.
         11    1    4    4    0    0  0.19133996858E+02  0.19962986694E+02 -0.12811942776E+02  0.30475835529E+02  0.00000000000E+00 0. -1.
         21    1    1    2  502  501  0.42710440774E+02  0.20173986813E+02  0.30802172394E+02  0.56391003885E+02  0.00000000000E+00 0.  1.
<scales pt_clust_5="13000.00000" pt_clust_6="13000.00000" pt_clust_7="13000.00000" pt_clust_8="13000.00000" pt_clust_9="47.23528"></scales>
<clustering>
<clus scale="   47.235">  2  9  1 -1</clus>
<clus scale="   76.256">  5  6 -1 -1</clus>
<clus scale="   90.394">  7  8 -1 -1</clus>
<clus scale="  108.896">  1  5  2 -1</clus>
<clus scale="   47.235">  2  5  1 -1</clus>
</clustering>
</event>
<event>
 9    1  0.2333971E-005  0.1746669E+03  0.7546771E-02  0.1188818E+00
          3   -1    0    0  502    0  0.00000000000E+00  0.00000000000E+00  0.90505777630E+02  0.90505777630E+02  0.00000000000E+00 0. -1.
         -4   -1    0    0    0  501 -0.00000000000E+00 -0.00000000000E+00 -0.92790473700E+03  0.92790473700E+03  0.00000000000E+00 0.  1.
         23    2    1    2    0    0 -0.82799330429E+02 -0.56890559337E+01 -0.25886548647E+03  0.28645270155E+03  0.90309000992E+02 0.  0.
        -24    2    1    2    0    0  0.10158938919E+03  0.13054690362E+03 -0.52310939442E+02  0.19079914582E+03  0.79403914389E+02 0.  0.
         13    1    4    4    0    0  0.44713143907E+02  0.73583710802E+02  0.13077569124E+02  0.87091047459E+02  0.00000000000E+00 0. -1.
        -14    1    4    4    0    0  0.56876245280E+02  0.56963192818E+02 -0.65388508566E+02  0.10370809836E+03  0.00000000000E+00 0.  1.
        -13    1    3    3    0    0 -0.31887903900E+02 -0.28885992749E+02 -0.20255471924E+03  0.20707402849E+03  0.00000000000E+00 0.  1.
         13    1    3    3    0    0 -0.50911426529E+02  0.23196936815E+02 -0.56310767236E+02  0.79378673053E+02  0.00000000000E+00 0. -1.
         21    1    1    2  502  501 -0.18790058757E+02 -0.12485784769E+03 -0.52622253346E+03  0.54115866726E+03  0.00000000000E+00 0.  1.
<scales pt_clust_5="13000.00000" pt_clust_6="13000.00000" pt_clust_7="13000.00000" pt_clust_8="13000.00000" pt_clust_9="155.57485"></scales>
<clustering>
<clus scale="   79.404">  5  6 -1 -1</clus>
<clus scale="   90.309">  7  8 -1 -1</clus>
<clus scale="  122.653">  2  7  1 -1</clus>
<clus scale="  155.575">  2  9  1 -1</clus>
<clus scale="  174.667">  1  5  2 -1</clus>
</clustering>
</event>
<event>
 9    1  0.2333971E-005  0.9214798E+02  0.7546771E-02  0.1302195E+00
         -2   -1    0    0    0  501 -0.00000000000E+00  0.00000000000E+00  0.35773041772E+03  0.35773041772E+03  0.00000000000E+00 0.  1.
          1   -1    0    0  502    0  0.00000000000E+00 -0.00000000000E+00 -0.16426615080E+03  0.16426615080E+03  0.00000000000E+00 0. -1.
         23    2    1    2    0    0  0.32394591539E+02 -0.30652343983E+02  0.29311911730E+03  0.30948087461E+03  0.88716509562E+02 0.  0.
        -24    2    1    2    0    0 -0.24573662995E+02 -0.26642220149E+01 -0.13746172467E+03  0.16152039769E+03  0.81130451312E+02 0.  0.
         13    1    4    4    0    0 -0.18782079807E+02  0.32781648295E+02 -0.11000391872E+03  0.11631107050E+03  0.00000000000E+00 0. -1.
        -14    1    4    4    0    0 -0.57915831875E+01 -0.35445870310E+02 -0.27457805950E+02  0.45209327195E+02  0.00000000000E+00 0.  1.
        -11    1    3    3    0    0  0.54455358509E+02  0.68180191680E+01  0.14220549184E+03  0.15242792843E+03  0.00000000000E+00 0.  1.
         11    1    3    3    0    0 -0.22060766970E+02 -0.37470363151E+02  0.15091362547E+03  0.15705294619E+03  0.00000000000E+00 0. -1.
         21    1    1    2  502  501 -0.78209285442E+01  0.33316565998E+02  0.37806874285E+02  0.50995296218E+02  0.00000000000E+00 0. -1.
<scales pt_clust_5="13000.00000" pt_clust_6="13000.00000" pt_clust_7="13000.00000" pt_clust_8="13000.00000" pt_clust_9="34.22222"></scales>
<clustering>
<clus scale="   34.222">  1  9  2 -1</clus>
<clus scale="   81.130">  5  6 -1 -1</clus>
<clus scale="   84.869">  2  5  1 -1</clus>
<clus scale="   88.717">  7  8 -1 -1</clus>
<clus scale="   84.869">  2  5  1 -1</clus>
</clustering>
</event>
<event>
 9    1  0.2333971E-005  0.1556451E+03  0.7546771E-02  0.1195612E+00
         -2   -1    0    0    0  501 -0.00000000000E+00  0.00000000000E+00  0.34709381428E+03  0.34709381428E+03  0.00000000000E+00 0.  1.
          1   -1    0    0  502    0  0.00000000000E+00 -0.00000000000E+00 -0.32445834574E+03  0.32445834574E+03  0.00000000000E+00 0. -1.
         23    2    1    2    0    0 -0.12209156191E+03 -0.97464259628E+02  0.25772053334E+03  0.31522187369E+03  0.92408467968E+02 0.  0.
        -24    2    1    2    0    0  0.90321881620E+02  0.83830332076E+02 -0.26968118457E+03  0.30742130893E+03  0.81205621725E+02 0.  0.
         13    1    4    4    0    0  0.73130128743E+02  0.98995727074E+02 -0.24183295879E+03  0.27135097138E+03  0.00000000000E+00 0. -1.
        -14    1    4    4    0    0  0.17191752876E+02 -0.15165394999E+02 -0.27848225778E+02  0.36070337556E+02  0.00000000000E+00 0.  1.
        -11    1    3    3    0    0 -0.97470197977E+02 -0.97466889615E+02  0.25573840591E+03  0.29052085351E+03  0.00000000000E+00 0.  1.
         11    1    3    3    0    0 -0.24621363932E+02  0.26299870487E-02  0.19821274286E+01  0.24701020180E+02  0.00000000000E+00 0. -1.
         21    1    1    2  502  501  0.31769680290E+02  0.13633927552E+02  0.34596119774E+02  0.48908977393E+02  0.00000000000E+00 0. -1.
<scales pt_clust_5="13000.00000" pt_clust_6="13000.00000" pt_clust_7="13000.00000" pt_clust_8="13000.00000" pt_clust_9="34.57162"></scales>
<clustering>
<clus scale="   34.572">  1  9  2 -1</clus>
<clus scale="   81.206">  5  6 -1 -1</clus>
<clus scale="   92.408">  7  8 -1 -1</clus>
<clus scale="  149.266">  2  5  1 -1</clus>
<clus scale="  149.266">  2  5  1 -1</clus>
</clustering>
</event>
<event>
 9    1  0.2333971E-005  0.1518675E+03  0.7546771E-02  0.1199710E+00
          1   -1    0    0  502    0  0.00000000000E+00  0.00000000000E+00  0.32501838536E+03  0.32501838536E+03  0.00000000000E+00 0. -1.
         -2   -1    0    0    0  501 -0.00000000000E+00 -0.00000000000E+00 -0.20149541026E+03  0.20149541026E+03  0.00000000000E+00 0.  1.
        -24    2    1    2    0    0  0.89983913001E+01 -0.13509283102E+03 -0.11318819301E+03  0.19518120647E+03  0.83385204214E+02 0.  0.
         23    2    1    2    0    0 -0.60378988858E+02  0.10444005156E+03  0.22351520449E+03  0.27006520671E+03  0.91775936799E+02 0.  0.
         11    1    3    3    0    0 -0.11003740984E+02 -0.70179894140E+02 -0.10135679128E+02  0.71756754724E+02  0.00000000000E+00 0. -1.
        -12    1    3    3    0    0  0.20002132284E+02 -0.64912936884E+02 -0.10305251389E+03  0.12342445175E+03  0.00000000000E+00 0.  1.
        -11    1    4    4    0    0 -0.39070102216E+02  0.60023808513E+01  0.11688734387E+03  0.12339024524E+03  0.00000000000E+00 0. -1.
         11    1    4    4    0    0 -0.21308886642E+02  0.98437670704E+02  0.10662786062E+03  0.14667496147E+03  0.00000000000E+00 0.  1.
         21    1    1    2  502  501  0.51380597558E+02  0.30652779469E+02  0.13195963621E+02  0.61267382435E+02  0.00000000000E+00 0. -1.
<scales pt_clust_5="13000.00000" pt_clust_6="13000.00000" pt_clust_7="13000.00000" pt_clust_8="13000.00000" pt_clust_9="59.82941"></scales>
<clustering>
<clus scale="   59.829">  2  9  1 -1</clus>
<clus scale="   83.385">  5  6 -1 -1</clus>
<clus scale="   91.776">  7  8 -1 -1</clus>
<clus scale="  146.949">  2  5  1 -1</clus>
<clus scale="  151.867">  1  5  2 -1</clus>
</clustering>
</event>
<event>
 9    1  0.2333971E-005  0.1697440E+03  0.7546771E-02  0.1203605E+00
         -4   -1    0    0    0  501 -0.00000000000E+00  0.00000000000E+00  0.65341280508E+03  0.65341280508E+03  0.00000000000E+00 0.  1.
          3   -1    0    0  502    0  0.00000000000E+00 -0.00000000000E+00 -0.13229337809E+03  0.13229337809E+03  0.00000000000E+00 0. -1.
         23    2    1    2    0    0 -0.29801590875E+02  0.20715667887E+02  0.23174391996E+03  0.25111972834E+03  0.89658238927E+02 0.  0.
        -24    2    1    2    0    0  0.10817371328E+03 -0.11210872753E+03 -0.43760367504E+02  0.18036280822E+03  0.79660867376E+02 0.  0.
         13    1    4    4    0    0  0.91262939979E+02 -0.10237039297E+03 -0.64786018687E+02  0.15167679383E+03  0.00000000000E+00 0. -1.
        -14    1    4    4    0    0  0.16910773303E+02 -0.97383345620E+01  0.21025651183E+02  0.28686014387E+02  0.00000000000E+00 0.  1.
        -11    1    3    3    0    0 -0.35506131775E+02 -0.26698784250E+02  0.15008227756E+03  0.15651901007E+03  0.00000000000E+00 0. -1.
         11    1    3    3    0    0  0.57045409007E+01  0.47414452136E+02  0.81661642396E+02  0.94600718270E+02  0.00000000000E+00 0.  1.
         21    1    1    2  502  501 -0.78372122407E+02  0.91393059647E+02  0.33313587453E+03  0.35422364661E+03  0.00000000000E+00 0.  1.
<scales pt_clust_5="13000.00000" pt_clust_6="13000.00000" pt_clust_7="13000.00000" pt_clust_8="13000.00000" pt_clust_9="149.89049"></scales>
<clustering>
<clus scale="   79.661">  5  6 -1 -1</clus>
<clus scale="   89.658">  7  8 -1 -1</clus>
<clus scale="   96.726">  1  7  2 -1</clus>
<clus scale="  149.890">  1  9  2 -1</clus>
<clus scale="  169.744">  2  5  1 -1</clus>
</clustering>
</event>
<event>
 9    1  0.2333971E-005  0.1705331E+03  0.7546771E-02  0.1192803E+00
          1   -1    0    0  502    0  0.00000000000E+00  0.00000000000E+00  0.32632295313E+03  0.32632295313E+03  0.00000000000E+00 0. -1.
         -2   -1    0    0    0  501 -0.00000000000E+00 -0.00000000000E+00 -0.20754633466E+03  0.20754633466E+03  0.00000000000E+00 0.  1.
         23    2    1    2    0    0  0.15766474317E+03  0.72380002185E+01 -0.21277852851E+02  0.18274121274E+03  0.89616091897E+02 0.  0.
        -24    2    1    2    0    0 -0.39825447365E+02  0.80403548225E+02  0.16265020976E+03  0.20254238245E+03  0.80731215310E+02 0.  0.
         11    1    4    4    0    0 -0.26828394996E+02  0.92693997799E+02  0.15604871383E+03  0.18347517841E+03  0.00000000000E+00 0. -1.
        -12    1    4    4    0    0 -0.12997052370E+02 -0.12290449574E+02  0.66014959338E+01  0.19067204032E+02  0.00000000000E+00 0.  1.
        -11    1    3    3    0    0  0.50560174759E+02  0.40373743017E+02  0.11974047716E+02  0.65800822302E+02  0.00000000000E+00 0. -1.
         11    1    3    3    0    0  0.10710456841E+03 -0.33135742799E+02 -0.33251900567E+02  0.11694039044E+03  0.00000000000E+00 0.  1.
         21    1    1    2  502  501 -0.11783929581E+03 -0.87641548443E+02 -0.22595738439E+02  0.14858569260E+03  0.00000000000E+00 0.  1.
<scales pt_clust_5="13000.00000" pt_clust_6="13000.00000" pt_clust_7="13000.00000" pt_clust_8="13000.00000" pt_clust_9="145.08792"></scales>
<clustering>
<clus scale="   80.731">  5  6 -1 -1</clus>
<clus scale="   89.616">  7  8 -1 -1</clus>
<clus scale="  120.699">  1  5  2 -1</clus>
<clus scale="  145.088">  2  9  1 -1</clus>
<clus scale="  120.699">  1  5  2 -1</clus>
</clustering>
</event>
<event>
 9    1  0.2333971E-005  0.9993150E+02  0.7546771E-02  0.1287941E+00
          1   -1    0    0  502    0  0.00000000000E+00  0.00000000000E+00  0.15625695070E+03  0.15625695070E+03  0.00000000000E+00 0. -1.
         -2   -1    0    0    0  501 -0.00000000000E+00 -0.00000000000E+00 -0.96280532332E+02  0.96280532332E+02  0.00000000000E+00 0.  1.
        -24    2    1    2    0    0 -0.38576528244E+02 -0.35004088849E+02 -0.10828773769E+02  0.97977441240E+02  0.82273214858E+02 0.  0.
         23    2    1    2    0    0  0.13434276445E+02  0.84103287219E+01  0.65991816820E+02  0.11764758475E+03  0.96097975508E+02 0.  0.
         11    1    3    3    0    0  0.12462423210E+02 -0.43164797582E+02 -0.11143667775E+02  0.46289232809E+02  0.00000000000E+00 0. -1.
        -12    1    3    3    0    0 -0.51038951454E+02  0.81607087329E+01  0.31489400578E+00  0.51688208431E+02  0.00000000000E+00 0.  1.
        -11    1    4    4    0    0  0.42008409039E+02  0.37064322617E+02  0.46126478900E+02  0.72568054244E+02  0.00000000000E+00 0. -1.
         11    1    4    4    0    0 -0.28574132594E+02 -0.28653993895E+02  0.19865337920E+02  0.45079530503E+02  0.00000000000E+00 0.  1.
         21    1    1    2  502  501  0.25142251799E+02  0.26593760128E+02  0.48133753194E+01  0.36912457047E+02  0.00000000000E+00 0. -1.
<scales pt_clust_5="13000.00000" pt_clust_6="13000.00000" pt_clust_7="13000.00000" pt_clust_8="13000.00000" pt_clust_9="36.59728"></scales>
<clustering>
<clus scale="   36.597">  2  9  1 -1</clus>
<clus scale="   82.273">  5  6 -1 -1</clus>
<clus scale="   86.720">  2  5  1 -1</clus>
<clus scale="   96.098">  7  8 -1 -1</clus>
<clus scale="   99.932">  1  5  2 -1</clus>
</clustering>
</event>
<event>
 9    1  0.2333971E-005  0.9232750E+02  0.7546771E-02  0.1303613E+00
          3   -1    0    0  502    0  0.00000000000E+00  0.00000000000E+00  0.22611219690E+03  0.22611219690E+03  0.00000000000E+00 0. -1.
         -4   -1    0    0    0  501 -0.00000000000E+00 -0.00000000000E+00 -0.13477585330E+03  0.13477585330E+03  0.00000000000E+00 0.  1.
         23    2    1    2    0    0 -0.24368999912E+02 -0.21510415571E+02  0.10160914086E+02  0.97811974608E+02  0.91691832062E+02 0.  0.
        -24    2    1    2    0    0 -0.13524877538E+02  0.57834784524E+01  0.15663866701E+03  0.17718089113E+03  0.81492485823E+02 0.  0.
         13    1    4    4    0    0  0.14075088042E+02 -0.32426323145E+02  0.59458742078E+02  0.69173091196E+02  0.00000000000E+00 0. -1.
        -14    1    4    4    0    0 -0.27599965580E+02  0.38209801597E+02  0.97179924927E+02  0.10800779994E+03  0.00000000000E+00 0.  1.
        -13    1    3    3    0    0 -0.52026963819E+02  0.11752869496E+02 -0.15946537074E+00  0.53338169587E+02  0.00000000000E+00 0.  1.
         13    1    3    3    0    0  0.27657963907E+02 -0.33263285068E+02  0.10320379457E+02  0.44473805022E+02  0.00000000000E+00 0. -1.
         21    1    1    2  502  501  0.37893877450E+02  0.15726937119E+02 -0.75463237495E+02  0.85895184455E+02  0.00000000000E+00 0.  1.
<scales pt_clust_5="13000.00000" pt_clust_6="13000.00000" pt_clust_7="13000.00000" pt_clust_8="13000.00000" pt_clust_9="41.02783"></scales>
<clustering>
<clus scale="   41.028">  2  9  1 -1</clus>
<clus scale="   81.492">  5  6 -1 -1</clus>
<clus scale="   82.207">  1  5  2 -1</clus>
<clus scale="   91.692">  7  8 -1 -1</clus>
<clus scale="   82.207">  1  5  2 -1</clus>
</clustering>
</event>
<event>
 9    1  0.2333971E-005  0.9974579E+02  0.7546771E-02  0.1287298E+00
          1   -1    0    0  502    0  0.00000000000E+00  0.00000000000E+00  0.51014885733E+03  0.51014885733E+03  0.00000000000E+00 0. -1.
         -2   -1    0    0    0  501 -0.00000000000E+00 -0.00000000000E+00 -0.60941540319E+02  0.60941540319E+02  0.00000000000E+00 0.  1.
        -24    2    1    2    0    0 -0.51386410030E+02  0.12346856448E+02  0.24410420769E+03  0.26170958626E+03  0.78179507097E+02 0.  0.
         23    2    1    2    0    0  0.25240963859E+02 -0.15805694318E+02  0.24416592727E+03  0.26224853305E+03  0.90941557162E+02 0.  0.
         11    1    3    3    0    0 -0.18251449734E+02 -0.30404976564E+02  0.13964263240E+03  0.14407512902E+03  0.00000000000E+00 0. -1.
        -12    1    3    3    0    0 -0.33134960296E+02  0.42751833012E+02  0.10446157528E+03  0.11763445724E+03  0.00000000000E+00 0.  1.
        -11    1    4    4    0    0 -0.18986097430E+02  0.27747856159E+02  0.85814115962E+02  0.92165491999E+02  0.00000000000E+00 0.  1.
         11    1    4    4    0    0  0.44227061289E+02 -0.43553550477E+02  0.15835181131E+03  0.17008304105E+03  0.00000000000E+00 0. -1.
         21    1    1    2  502  501  0.26145446171E+02  0.34588378705E+01 -0.39062817948E+02  0.47132278334E+02  0.00000000000E+00 0.  1.
<scales pt_clust_5="13000.00000" pt_clust_6="13000.00000" pt_clust_7="13000.00000" pt_clust_8="13000.00000" pt_clust_9="26.37324"></scales>
<clustering>
<clus scale="   26.373">  2  9  1 -1</clus>
<clus scale="   78.180">  5  6 -1 -1</clus>
<clus scale="   88.266">  2  5  1 -1</clus>
<clus scale="   90.942">  7  8 -1 -1</clus>
<clus scale="   99.746">  1  5  2 -1</clus>
</clustering>
</event>
<event>
 9    1  0.2333971E-005  0.1015858E+03  0.7546771E-02  0.1282497E+00
         -2   -1    0    0    0  501 -0.00000000000E+00  0.00000000000E+00  0.10031151567E+03  0.10031151567E+03  0.00000000000E+00 0.  1.
          1   -1    0    0  502    0  0.00000000000E+00 -0.00000000000E+00 -0.41979444476E+03  0.41979444476E+03  0.00000000000E+00 0. -1.
         23    2    1    2    0    0 -0.20535404322E+02  0.40251504311E+02  0.61499554234E+02  0.11933512762E+03  0.91743071038E+02 0.  0.
        -24    2    1    2    0    0 -0.20546161418E+01 -0.28139743055E+02 -0.35159398374E+03  0.36177483694E+03  0.80415400635E+02 0.  0.
         11    1    4    4    0    0  0.32191564349E+02 -0.37130261688E+02 -0.18152120357E+03  0.18805557821E+03  0.00000000000E+00 0. -1.
        -12    1    4    4    0    0 -0.34246180491E+02  0.89905186326E+01 -0.17007278016E+03  0.17371925874E+03  0.00000000000E+00 0.  1.
        -13    1    3    3    0    0 -0.49003430790E+02  0.40677931618E+02  0.16006942392E+02  0.65667743639E+02  0.00000000000E+00 0. -1.
         13    1    3    3    0    0  0.28468026468E+02 -0.42642730704E+00  0.45492611842E+02  0.53667383982E+02  0.00000000000E+00 0.  1.
         21    1    1    2  502  501  0.22590020464E+02 -0.12111761256E+02 -0.29388499584E+02  0.38995995860E+02  0.00000000000E+00 0. -1.
<scales pt_clust_5="13000.00000" pt_clust_6="13000.00000" pt_clust_7="13000.00000" pt_clust_8="13000.00000" pt_clust_9="25.63209"></scales>
<clustering>
<clus scale="   25.632">  2  9  1 -1</clus>
<clus scale="   80.415">  5  6 -1 -1</clus>
<clus scale="   91.485">  2  5  1 -1</clus>
<clus scale="   91.743">  7  8 -1 -1</clus>
<clus scale="   25.632">  2  5  1 -1</clus>
</clustering>
</event>
<event>
 9    1  0.2333971E-005  0.9982286E+02  0.7546771E-02  0.1284338E+00
         -2   -1    0    0    0  501 -0.00000000000E+00  0.00000000000E+00  0.48871936001E+03  0.48871936001E+03  0.00000000000E+00 0.  1.
          1   -1    0    0  502    0  0.00000000000E+00 -0.00000000000E+00 -0.27467599095E+02  0.27467599095E+02  0.00000000000E+00 0. -1.
         23    2    1    2    0    0  0.21977585498E+02 -0.39796059770E+02  0.27712993235E+03  0.29416926839E+03  0.87566080297E+02 0.  0.
        -24    2    1    2    0    0 -0.44175866249E+02  0.26041266150E+02  0.12144675373E+03  0.15411980400E+03  0.79836992002E+02 0.  0.
         11    1    4    4    0    0  0.59012872091E+00  0.35896138715E+02  0.16323866855E+02  0.39437921543E+02  0.00000000000E+00 0. -1.
        -12    1    4    4    0    0 -0.44765994970E+02 -0.98548725650E+01  0.10512288687E+03  0.11468188246E+03  0.00000000000E+00 0.  1.
        -13    1    3    3    0    0  0.53871148130E+02 -0.26515068698E+02  0.13248938198E+03  0.14545991134E+03  0.00000000000E+00 0.  1.
         13    1    3    3    0    0 -0.31893562632E+02 -0.13280991072E+02  0.14464055037E+03  0.14870935705E+03  0.00000000000E+00 0. -1.
         21    1    1    2  502  501  0.22198280750E+02  0.13754793620E+02  0.62675074832E+02  0.67897886720E+02  0.00000000000E+00 0.  1.
<scales pt_clust_5="13000.00000" pt_clust_6="13000.00000" pt_clust_7="13000.00000" pt_clust_8="13000.00000" pt_clust_9="26.11433"></scales>
<clustering>
<clus scale="   26.114">  1  9  2 -1</clus>
<clus scale="   79.837">  5  6 -1 -1</clus>
<clus scale="   87.566">  7  8 -1 -1</clus>
<clus scale="   93.117">  2  5  1 -1</clus>
<clus scale="   93.117">  2  5  1 -1</clus>
</clustering>
</event>
<event>
 9    1  0.2333971E-005  0.8935636E+02  0.7546771E-02  0.1310110E+00
         -2   -1    0    0    0  501 -0.00000000000E+00  0.00000000000E+00  0.27402800403E+03  0.27402800403E+03  0.00000000000E+00 0.  1.
          1   -1    0    0  502    0  0.00000000000E+00 -0.00000000000E+00 -0.13592655391E+03  0.13592655391E+03  0.00000000000E+00 0. -1.
        -24    2    1    2    0    0  0.27975245322E+02 -0.34771515963E+02  0.11732983799E+03  0.14878487718E+03  0.79868492669E+02 0.  0.
         23    2    1    2    0    0 -0.80635371869E+01 -0.25545795139E+01 -0.99548722841E+02  0.13362872054E+03  0.88741986829E+02 0.  0.
         11    1    3    3    0    0 -0.26619458185E+01 -0.43598831275E+02  0.10650461259E+03  0.11511375481E+03  0.00000000000E+00 0. -1.
        -12    1    3    3    0    0  0.30637191140E+02  0.88273153114E+01  0.10825225403E+02  0.33671122369E+02  0.00000000000E+00 0.  1.
        -11    1    4    4    0    0  0.33540127653E+02 -0.25007696253E+02 -0.48509587664E+02  0.64058606996E+02  0.00000000000E+00 0.  1.
         11    1    4    4    0    0 -0.41603664840E+02  0.22453116739E+02 -0.51039135177E+02  0.69570113548E+02  0.00000000000E+00 0. -1.
         21    1    1    2  502  501 -0.19911708135E+02  0.37326095477E+02  0.12032033497E+03  0.12754096021E+03  0.00000000000E+00 0.  1.
<scales pt_clust_5="13000.00000" pt_clust_6="13000.00000" pt_clust_7="13000.00000" pt_clust_8="13000.00000" pt_clust_9="42.30501"></scales>
<clustering>
<clus scale="   42.305">  1  9  2 -1</clus>
<clus scale="   79.868">  5  6 -1 -1</clus>
<clus scale="   80.551">  1  5  2 -1</clus>
<clus scale="   88.742">  7  8 -1 -1</clus>
<clus scale="   89.356">  2  5  1 -1</clus>
</clustering>
</event>
<event>
 9    1  0.2333971E-005  0.1715563E+03  0.7546771E-02  0.1179585E+00
          1   -1    0    0  502    0  0.00000000000E+00  0.00000000000E+00  0.11598728017E+04  0.11598728017E+04  0.00000000000E+00 0. -1.
         -2   -1    0    0    0  501 -0.00000000000E+00 -0.00000000000E+00 -0.36702448614E+03  0.36702448614E+03  0.00000000000E+00 0.  1.
         23    2    1    2    0    0  0.12572192899E+03  0.14361940009E+03 -0.26495828031E+03  0.33949749159E+03  0.92860761260E+02 0.  0.
        -24    2    1    2    0    0 -0.13459357741E+03 -0.50574226115E+02  0.10797904579E+04  0.10913820857E+04  0.67039097239E+02 0.  0.
         13    1    4    4    0    0 -0.73098301427E+02 -0.48746025270E+01  0.35027124657E+03  0.35785062470E+03  0.00000000000E+00 0. -1.
        -14    1    4    4    0    0 -0.61495275987E+02 -0.45699623588E+02  0.72951921134E+03  0.73353146100E+03  0.00000000000E+00 0.  1.
        -13    1    3    3    0    0  0.53142063619E+02  0.43810546224E+02 -0.17113352306E+03  0.18447256057E+03  0.00000000000E+00 0.  1.
         13    1    3    3    0    0  0.72579865366E+02  0.99808853862E+02 -0.93824757244E+02  0.15502493102E+03  0.00000000000E+00 0. -1.
         21    1    1    2  502  501  0.88716484291E+01 -0.93045173971E+02 -0.21983862057E+02  0.96017710534E+02  0.00000000000E+00 0.  1.
<scales pt_clust_5="13000.00000" pt_clust_6="13000.00000" pt_clust_7="13000.00000" pt_clust_8="13000.00000" pt_clust_9="93.46716"></scales>
<clustering>
<clus scale="   67.039">  5  6 -1 -1</clus>
<clus scale="   92.861">  7  8 -1 -1</clus>
<clus scale="   93.467">  2  9  1 -1</clus>
<clus scale="  159.068">  1  5  2 -1</clus>
<clus scale="  159.068">  1  5  2 -1</clus>
</clustering>
</event>
<event>
 9    1  0.2333971E-005  0.1275881E+03  0.7546771E-02  0.1234178E+00
          1   -1    0    0  502    0  0.00000000000E+00  0.00000000000E+00  0.42851731265E+03  0.42851731265E+03  0.00000000000E+00 0. -1.
         -2   -1    0    0    0  501 -0.00000000000E+00 -0.00000000000E+00 -0.20174946756E+03  0.20174946756E+03  0.00000000000E+00 0.  1.
         23    2    1    2    0    0 -0.54953247971E+02  0.12874757897E+03 -0.97351085409E+02  0.19214838271E+03  0.88588761103E+02 0.  0.
        -24    2    1    2    0    0  0.77418379096E+02 -0.46160836237E+02  0.33168896839E+03  0.35219658616E+03  0.76814291148E+02 0.  0.
         13    1    4    4    0    0  0.52379913882E+02 -0.53843005177E+02  0.30750897137E+03  0.31655093122E+03  0.00000000000E+00 0. -1.
        -14    1    4    4    0    0  0.25038465214E+02  0.76821689400E+01  0.24179997026E+02  0.35645654940E+02  0.00000000000E+00 0.  1.
        -11    1    3    3    0    0 -0.98090672586E+01  0.29940695781E+02  0.15838927672E+02  0.35263787291E+02  0.00000000000E+00 0. -1.
         11    1    3    3    0    0 -0.45144180712E+02  0.98806883188E+02 -0.11319001308E+03  0.15688459542E+03  0.00000000000E+00 0.  1.
         21    1    1    2  502  501 -0.22465131125E+02 -0.82586742731E+02 -0.75700378963E+01  0.85921811347E+02  0.00000000000E+00 0. -1.
<scales pt_clust_5="13000.00000" pt_clust_6="13000.00000" pt_clust_7="13000.00000" pt_clust_8="13000.00000" pt_clust_9="85.58769"></scales>
<clustering>
<clus scale="   76.814">  5  6 -1 -1</clus>
<clus scale="   85.588">  2  9  1 -1</clus>
<clus scale="   88.589">  7  8 -1 -1</clus>
<clus scale="  119.713">  1  5  2 -1</clus>
<clus scale="  119.713">  1  5  2 -1</clus>
</clustering>
</event>
<event>
 9    1  0.2333971E-005  0.1485942E+03  0.7546771E-02  0.1204631E+00
         -2   -1    0    0    0  501 -0.00000000000E+00  0.00000000000E+00  0.74938606490E+02  0.74938606490E+02  0.00000000000E+00 0.  1.
          1   -1    0    0  502    0  0.00000000000E+00 -0.00000000000E+00 -0.68782670234E+03  0.68782670234E+03  0.00000000000E+00 0. -1.
        -24    2    1    2    0    0 -0.19389385753E+01  0.91732987725E+02 -0.49631833681E+02  0.13159755566E+03  0.80224043910E+02 0.  0.
         23    2    1    2    0    0 -0.10100112723E+03 -0.88226221107E+02 -0.44705189049E+03  0.47588603964E+03  0.92881839686E+02 0.  0.
         13    1    3    3    0    0 -0.26141944395E+02  0.89594611209E+02 -0.52579114089E+02  0.10712216789E+03  0.00000000000E+00 0. -1.
        -14    1    3    3    0    0  0.24203005819E+02  0.21383765165E+01  0.29472804081E+01  0.24475387773E+02  0.00000000000E+00 0.  1.
        -13    1    4    4    0    0 -0.63118723418E+02 -0.32334023411E+02 -0.10163660314E+03  0.12393329421E+03  0.00000000000E+00 0.  1.
         13    1    4    4    0    0 -0.37882403808E+02 -0.55892197696E+02 -0.34541528735E+03  0.35195274543E+03  0.00000000000E+00 0. -1.
         21    1    1    2  502  501  0.10294006580E+03 -0.35067666188E+01 -0.11620437168E+03  0.15528171353E+03  0.00000000000E+00 0.  1.
<scales pt_clust_5="13000.00000" pt_clust_6="13000.00000" pt_clust_7="13000.00000" pt_clust_8="13000.00000" pt_clust_9="102.99978"></scales>
<clustering>
<clus scale="   80.224">  5  6 -1 -1</clus>
<clus scale="   92.882">  7  8 -1 -1</clus>
<clus scale="  103.000">  1  9  2 -1</clus>
<clus scale="  141.029">  1  5  2 -1</clus>
<clus scale="  148.594">  2  5  1 -1</clus>
</clustering>
</event>
<event>
 9    1  0.2333971E-005  0.2956965E+03  0.7546771E-02  0.1087861E+00
          1   -1    0    0  502    0  0.00000000000E+00  0.00000000000E+00  0.75923371918E+03  0.75923371918E+03  0.00000000000E+00 0. -1.
         -2   -1    0    0    0  501 -0.00000000000E+00 -0.00000000000E+00 -0.14841513617E+03  0.14841513617E+03  0.00000000000E+00 0.  1.
         23    2    1    2    0    0  0.20619121660E+03  0.15557597460E+03  0.16425844680E+03  0.31983156713E+03  0.92696776170E+02 0.  0.
        -24    2    1    2    0    0 -0.23997085345E+03 -0.17020654440E+03  0.45706103186E+03  0.54953692448E+03  0.80806969129E+02 0.  0.
         11    1    4    4    0    0 -0.10074392654E+03 -0.12019445515E+03  0.22237945299E+03  0.27211884700E+03  0.00000000000E+00 0. -1.
        -12    1    4    4    0    0 -0.13922692691E+03 -0.50012089248E+02  0.23468157887E+03  0.27741807747E+03  0.00000000000E+00 0.  1.
        -11    1    3    3    0    0  0.21070616715E+02  0.64981761901E+02  0.42450241901E+02  0.80427752088E+02  0.00000000000E+00 0.  1.
         11    1    3    3    0    0  0.18512059988E+03  0.90594212697E+02  0.12180820490E+03  0.23940381504E+03  0.00000000000E+00 0. -1.
         21    1    1    2  502  501  0.33779636853E+02  0.14630569804E+02 -0.10500895644E+02  0.38280363739E+02  0.00000000000E+00 0.  1.
<scales pt_clust_5="13000.00000" pt_clust_6="13000.00000" pt_clust_7="13000.00000" pt_clust_8="13000.00000" pt_clust_9="36.81192"></scales>
<clustering>
<clus scale="   36.812">  2  9  1 -1</clus>
<clus scale="   80.807">  5  6 -1 -1</clus>
<clus scale="   92.697">  7  8 -1 -1</clus>
<clus scale="  292.187">  1  5  2 -1</clus>
<clus scale="  292.187">  1  5  2 -1</clus>
</clustering>
</event>
<event>
 9    1  0.2333971E-005  0.1000864E+03  0.7546771E-02  0.1286817E+00
         -4   -1    0    0    0  501 -0.00000000000E+00  0.00000000000E+00  0.29572322243E+02  0.29572322243E+02  0.00000000000E+00 0.  1.
          3   -1    0    0  502    0  0.00000000000E+00 -0.00000000000E+00 -0.58201894895E+03  0.58201894895E+03  0.00000000000E+00 0. -1.
        -24    2    1    2    0    0  0.84538175024E+01  0.45604611342E+02 -0.95395962192E+02  0.13100935312E+03  0.76888317685E+02 0.  0.
         23    2    1    2    0    0  0.19763668794E+02 -0.39750024292E+02 -0.42796334189E+03  0.43963591631E+03  0.90313065941E+02 0.  0.
         13    1    3    3    0    0  0.93489047324E+01 -0.20364044481E+02 -0.35038286725E+02  0.41590598264E+02  0.00000000000E+00 0. -1.
        -14    1    3    3    0    0 -0.89508723008E+00  0.65968655823E+02 -0.60357675467E+02  0.89418754856E+02  0.00000000000E+00 0.  1.
        -11    1    4    4    0    0  0.13332583352E+02 -0.68572765460E+02 -0.33025071612E+03  0.33755816897E+03  0.00000000000E+00 0. -1.
         11    1    4    4    0    0  0.64310854417E+01  0.28822741169E+02 -0.97712625771E+02  0.10207774735E+03  0.00000000000E+00 0.  1.
         21    1    1    2  502  501 -0.28217486296E+02 -0.58545870502E+01 -0.29087322630E+02  0.40946001761E+02  0.00000000000E+00 0.  1.
<scales pt_clust_5="13000.00000" pt_clust_6="13000.00000" pt_clust_7="13000.00000" pt_clust_8="13000.00000" pt_clust_9="28.81844"></scales>
<clustering>
<clus scale="   28.818">  1  9  2 -1</clus>
<clus scale="   76.888">  5  6 -1 -1</clus>
<clus scale="   88.163">  1  5  2 -1</clus>
<clus scale="   90.313">  7  8 -1 -1</clus>
<clus scale="  100.086">  2  5  1 -1</clus>
</clustering>
</event>
<event>
 9    1  0.2333971E-005  0.1222841E+03  0.7546771E-02  0.1241223E+00
         -2   -1    0    0    0  501 -0.00000000000E+00  0.00000000000E+00  0.16211104936E+03  0.16211104936E+03  0.00000000000E+00 0.  1.
          1   -1    0    0  502    0  0.00000000000E+00 -0.00000000000E+00 -0.12102587132E+03  0.12102587132E+03  0.00000000000E+00 0. -1.
         23    2    1    2    0    0 -0.56964049301E+02  0.40855191257E+02  0.51041295062E+02  0.12534288134E+03  0.90507317585E+02 0.  0.
        -24    2    1    2    0    0  0.79529736975E+02 -0.40161189676E+02 -0.31428129120E+02  0.12663735141E+03  0.84329065296E+02 0.  0.
         13    1    4    4    0    0  0.50308670307E+02 -0.62395276748E+01 -0.56023065702E+02  0.75554469784E+02  0.00000000000E+00 0. -1.
        -14    1    4    4    0    0  0.29221066668E+02 -0.33921662001E+02  0.24594936582E+02  0.51082881630E+02  0.00000000000E+00 0.  1.
        -13    1    3    3    0    0  0.16201212772E+02  0.21528130085E+02 -0.93552459289E+01  0.28521225546E+02  0.00000000000E+00 0. -1.
         13    1    3    3    0    0 -0.73165262074E+02  0.19327061172E+02  0.60396540990E+02  0.96821655798E+02  0.00000000000E+00 0.  1.
         21    1    1    2  502  501 -0.22565687674E+02 -0.69400158097E+00  0.21472012106E+02  0.31156687921E+02  0.00000000000E+00 0. -1.
<scales pt_clust_5="13000.00000" pt_clust_6="13000.00000" pt_clust_7="13000.00000" pt_clust_8="13000.00000" pt_clust_9="22.57636"></scales>
<clustering>
<clus scale="   22.576">  1  9  2 -1</clus>
<clus scale="   84.329">  5  6 -1 -1</clus>
<clus scale="   90.507">  7  8 -1 -1</clus>
<clus scale="  117.785">  2  5  1 -1</clus>
<clus scale="  117.785">  2  5  1 -1</clus>
</clustering>
</event>
<event>
 9    1  0.5853406E-005  0.8528208E+02  0.7546771E-02  0.1315742E+00
          1   -1    0    0  502    0  0.00000000000E+00  0.00000000000E+00  0.51536399999E+03  0.51536399999E+03  0.00000000000E+00 0. -1.
         -2   -1    0    0    0  501 -0.00000000000E+00 -0.00000000000E+00 -0.19688502839E+03  0.19688502839E+03  0.00000000000E+00 0.  1.
         23    2    1    2    0    0  0.13913495026E+02  0.99980590562E+01 -0.15695768747E+03  0.17888727372E+03  0.84091584099E+02 0.  0.
        -24    2    1    2    0    0  0.91421953588E+01 -0.11272115105E+02  0.49564904580E+03  0.50267415691E+03  0.82478428157E+02 0.  0.
         11    1    4    4    0    0  0.20003258025E+02 -0.35351782102E+02  0.13299978437E+03  0.13906409124E+03  0.00000000000E+00 0. -1.
        -12    1    4    4    0    0 -0.10861062666E+02  0.24079666997E+02  0.36264926143E+03  0.36361006567E+03  0.00000000000E+00 0.  1.
        -11    1    3    3    0    0  0.26115949741E+02  0.41766729178E+02 -0.70786010508E+02  0.86238980634E+02  0.00000000000E+00 0.  1.
         11    1    3    3    0    0 -0.12202454715E+02 -0.31768670122E+02 -0.86171676959E+02  0.92648293089E+02  0.00000000000E+00 0. -1.
         21    1    1    2  502  501 -0.23055690385E+02  0.12740560484E+01 -0.20212386732E+02  0.30687597745E+02  0.00000000000E+00 0.  1.
<scales pt_clust_5="13000.00000" pt_clust_6="13000.00000" pt_clust_7="13000.00000" pt_clust_8="13000.00000" pt_clust_9="23.09087"></scales>
<clustering>
<clus scale="   23.091">  2  9  1 -1</clus>
<clus scale="   82.478">  5  6 -1 -1</clus>
<clus scale="   83.692">  1  5  2 -1</clus>
<clus scale="   84.092">  7  8 -1 -1</clus>
<clus scale="   83.692">  1  5  2 -1</clus>
</clustering>
</event>
<event>
 9    1  0.2333971E-005  0.1441709E+03  0.7546771E-02  0.1214365E+00
         -2   -1    0    0    0  501 -0.00000000000E+00  0.00000000000E+00  0.12984010445E+03  0.12984010445E+03  0.00000000000E+00 0.  1.
          1   -1    0    0  502    0  0.00000000000E+00 -0.00000000000E+00 -0.81670001156E+03  0.81670001156E+03  0.00000000000E+00 0. -1.
         23    2    1    2    0    0 -0.71577491024E+01  0.89639869877E+02 -0.22184324820E+02  0.13193050721E+03  0.93951981458E+02 0.  0.
        -24    2    1    2    0    0  0.86913022119E+02  0.24357208756E+02 -0.66373566060E+03  0.67547973795E+03  0.87067227990E+02 0.  0.
         13    1    4    4    0    0  0.28855647110E+02 -0.32809927173E+02 -0.21221597314E+03  0.21666739244E+03  0.00000000000E+00 0. -1.
        -14    1    4    4    0    0  0.58057375009E+02  0.57167135929E+02 -0.45151968746E+03  0.45881234551E+03  0.00000000000E+00 0.  1.
        -11    1    3    3    0    0 -0.26925255676E+02  0.71211890874E+02 -0.51610960917E+02  0.91977138909E+02  0.00000000000E+00 0.  1.
         11    1    3    3    0    0  0.19767506574E+02  0.18427979004E+02  0.29426636097E+02  0.39953368297E+02  0.00000000000E+00 0. -1.
         21    1    1    2  502  501 -0.79755273016E+02 -0.11399707863E+03 -0.93992168735E+00  0.13912987085E+03  0.00000000000E+00 0. -1.
<scales pt_clust_5="13000.00000" pt_clust_6="13000.00000" pt_clust_7="13000.00000" pt_clust_8="13000.00000" pt_clust_9="109.35385"></scales>
<clustering>
<clus scale="   87.067">  5  6 -1 -1</clus>
<clus scale="   93.952">  7  8 -1 -1</clus>
<clus scale="  125.411">  2  5  1 -1</clus>
<clus scale="  109.354">  2  9  1 -1</clus>
<clus scale="  125.411">  2  5  1 -1</clus>
</clustering>
</event>
<event>
 9    1  0.2333971E-005  0.9796915E+02  0.7546771E-02  0.1290613E+00
         -2   -1    0    0    0  501 -0.00000000000E+00  0.00000000000E+00  0.12445489712E+03  0.12445489712E+03  0.00000000000E+00 0.  1.
          1   -1    0    0  502    0  0.00000000000E+00 -0.00000000000E+00 -0.23962729081E+03  0.23962729081E+03  0.00000000000E+00 0. -1.
         23    2    1    2    0    0  0.23996323417E+02 -0.98096749200E+00  0.39351536761E+02  0.10277403814E+03  0.91854088837E+02 0.  0.
        -24    2    1    2    0    0 -0.27665631262E+02  0.23082245836E+02 -0.19554651597E+03  0.21456648906E+03  0.80635978898E+02 0.  0.
         13    1    4    4    0    0  0.24621581025E+02 -0.76691269641E+01 -0.80170878441E+02  0.84216432544E+02  0.00000000000E+00 0. -1.
        -14    1    4    4    0    0 -0.52287212287E+02  0.30751372800E+02 -0.11537563753E+03  0.13035005652E+03  0.00000000000E+00 0.  1.
        -13    1    3    3    0    0  0.30971431081E+02  0.27151645292E+02 -0.12781495796E+02  0.43125491534E+02  0.00000000000E+00 0. -1.
         13    1    3    3    0    0 -0.69751076641E+01 -0.28132612784E+02  0.52133032557E+02  0.59648546609E+02  0.00000000000E+00 0.  1.
         21    1    1    2  502  501  0.36693078449E+01 -0.22101278344E+02  0.41022585526E+02  0.46741660730E+02  0.00000000000E+00 0. -1.
<scales pt_clust_5="13000.00000" pt_clust_6="13000.00000" pt_clust_7="13000.00000" pt_clust_8="13000.00000" pt_clust_9="22.40380"></scales>
<clustering>
<clus scale="   22.404">  1  9  2 -1</clus>
<clus scale="   80.636">  5  6 -1 -1</clus>
<clus scale="   87.538">  2  5  1 -1</clus>
<clus scale="   91.854">  7  8 -1 -1</clus>
<clus scale="   87.538">  2  5  1 -1</clus>
</clustering>
</event>
<event>
 9    1  0.2333971E-005  0.9559400E+02  0.7546771E-02  0.1293537E+00
          1   -1    0    0  502    0  0.00000000000E+00  0.00000000000E+00  0.19714580895E+03  0.19714580895E+03  0.00000000000E+00 0. -1.
         -2   -1    0    0    0  501 -0.00000000000E+00 -0.00000000000E+00 -0.14721832150E+03  0.14721832150E+03  0.00000000000E+00 0.  1.
        -24    2    1    2    0    0  0.31600272759E+02 -0.52998272716E+02 -0.61118083237E+02  0.11624020085E+03  0.77259109787E+02 0.  0.
         23    2    1    2    0    0 -0.15204416062E+02  0.39327541912E+02  0.15370851075E+03  0.18041817049E+03  0.84537448191E+02 0.  0.
         13    1    3    3    0    0  0.40046882432E+02 -0.95401176981E+01 -0.49213344897E+00  0.41170484981E+02  0.00000000000E+00 0. -1.
        -14    1    3    3    0    0 -0.84466096732E+01 -0.43458155018E+02 -0.60625949788E+02  0.75069715866E+02  0.00000000000E+00 0.  1.
        -13    1    4    4    0    0  0.27297964579E+02 -0.70957683280E+01  0.27535346771E+02  0.39417307367E+02  0.00000000000E+00 0.  1.
         13    1    4    4    0    0 -0.42502380641E+02  0.46423310240E+02  0.12617316398E+03  0.14100086313E+03  0.00000000000E+00 0. -1.
         21    1    1    2  502  501 -0.16395856696E+02  0.13670730804E+02 -0.42662940067E+02  0.47705759114E+02  0.00000000000E+00 0. -1.
<scales pt_clust_5="13000.00000" pt_clust_6="13000.00000" pt_clust_7="13000.00000" pt_clust_8="13000.00000" pt_clust_9="21.34744"></scales>
<clustering>
<clus scale="   21.347">  2  9  1 -1</clus>
<clus scale="   77.259">  5  6 -1 -1</clus>
<clus scale="   84.537">  7  8 -1 -1</clus>
<clus scale="   89.222">  2  5  1 -1</clus>
<clus scale="   95.594">  1  5  2 -1</clus>
</clustering>
</event>
<event>
 9    1  0.2333971E-005  0.1269127E+03  0.7546771E-02  0.1233983E+00
         -2   -1    0    0    0  501 -0.00000000000E+00  0.00000000000E+00  0.49633290389E+02  0.49633290389E+02  0.00000000000E+00 0.  1.
          1   -1    0    0  502    0  0.00000000000E+00 -0.00000000000E+00 -0.45915674241E+03  0.45915674241E+03  0.00000000000E+00 0. -1.
         23    2    1    2    0    0  0.11531247237E+02  0.89115469764E+02 -0.13345443657E+03  0.18366420917E+03  0.88588478232E+02 0.  0.
        -24    2    1    2    0    0 -0.52032699665E+02 -0.79547288954E+02 -0.23689743171E+03  0.26797400209E+03  0.81575116490E+02 0.  0.
         11    1    4    4    0    0 -0.40417963578E+02 -0.48454002157E+02 -0.22340484011E+03  0.23214462020E+03  0.00000000000E+00 0. -1.
        -12    1    4    4    0    0 -0.11614736087E+02 -0.31093286797E+02 -0.13492591600E+02  0.35829381885E+02  0.00000000000E+00 0.  1.
        -13    1    3    3    0    0  0.15112043146E+02  0.26339163000E+02  0.57603600700E+01  0.30908042702E+02  0.00000000000E+00 0.  1.
         13    1    3    3    0    0 -0.35807959082E+01  0.62776306765E+02 -0.13921479664E+03  0.15275616647E+03  0.00000000000E+00 0. -1.
         21    1    1    2  502  501  0.40501452427E+02 -0.95681808099E+01 -0.39171583744E+02  0.57151821544E+02  0.00000000000E+00 0. -1.
<scales pt_clust_5="13000.00000" pt_clust_6="13000.00000" pt_clust_7="13000.00000" pt_clust_8="13000.00000" pt_clust_9="41.61632"></scales>
<clustering>
<clus scale="   41.616">  1  9  2 -1</clus>
<clus scale="   81.575">  5  6 -1 -1</clus>
<clus scale="   88.588">  7  8 -1 -1</clus>
<clus scale="  122.121">  2  5  1 -1</clus>
<clus scale="  122.121">  2  5  1 -1</clus>
</clustering>
</event>
<event>
 9    1  0.2333971E-005  0.1142952E+03  0.7546771E-02  0.1261407E+00
          3   -1    0    0  502    0  0.00000000000E+00  0.00000000000E+00  0.67023150532E+03  0.67023150532E+03  0.00000000000E+00 0. -1.
         -4   -1    0    0    0  501 -0.00000000000E+00 -0.00000000000E+00 -0.13251545949E+03  0.13251545949E+03  0.00000000000E+00 0.  1.
        -24    2    1    2    0    0 -0.21749970537E+02  0.31557909770E+02 -0.48456759556E+02  0.10149446019E+03  0.80523940636E+02 0.  0.
         23    2    1    2    0    0  0.45753492938E+02  0.33977264737E+02  0.61490372720E+03  0.62577738253E+03  0.10120722366E+03 0.  0.
         11    1    3    3    0    0  0.52909567370E-01  0.47418706923E+02 -0.16135531689E+01  0.47446181295E+02  0.00000000000E+00 0. -1.
        -12    1    3    3    0    0 -0.21802880105E+02 -0.15860797152E+02 -0.46843206387E+02  0.54048278898E+02  0.00000000000E+00 0.  1.
        -13    1    4    4    0    0  0.62374439501E+02  0.57918745954E+02  0.50241221707E+03  0.50957157269E+03  0.00000000000E+00 0. -1.
         13    1    4    4    0    0 -0.16620946563E+02 -0.23941481217E+02  0.11249151013E+03  0.11620580984E+03  0.00000000000E+00 0.  1.
         21    1    1    2  502  501 -0.24003522400E+02 -0.65535174507E+02 -0.28730921825E+02  0.75475122088E+02  0.00000000000E+00 0.  1.
<scales pt_clust_5="13000.00000" pt_clust_6="13000.00000" pt_clust_7="13000.00000" pt_clust_8="13000.00000" pt_clust_9="69.79275"></scales>
<clustering>
<clus scale="   69.793">  2  9  1 -1</clus>
<clus scale="   80.524">  5  6 -1 -1</clus>
<clus scale="   96.460">  2  5  1 -1</clus>
<clus scale="  101.207">  7  8 -1 -1</clus>
<clus scale="  114.295">  1  5  2 -1</clus>
</clustering>
</event>
<event>
 9    1  0.2333971E-005  0.1663824E+03  0.7546771E-02  0.1186248E+00
          1   -1    0    0  502    0  0.00000000000E+00  0.00000000000E+00  0.33595801707E+03  0.33595801707E+03  0.00000000000E+00 0. -1.
         -2   -1    0    0    0  501 -0.00000000000E+00 -0.00000000000E+00 -0.20863214548E+03  0.20863214548E+03  0.00000000000E+00 0.  1.
        -24    2    1    2    0    0  0.12499678592E+03  0.27419256086E+02 -0.45621653967E+02  0.15700618488E+03  0.78699394437E+02 0.  0.
         23    2    1    2    0    0  0.38812810825E+01 -0.13976452857E+03  0.12931300135E+03  0.21113288500E+03  0.91137560961E+02 0.  0.
         13    1    3    3    0    0  0.65971432527E+02  0.54129734926E+02 -0.22980068297E+02  0.88376137343E+02  0.00000000000E+00 0. -1.
        -14    1    3    3    0    0  0.59025353390E+02 -0.26710478840E+02 -0.22641585671E+02  0.68630047533E+02  0.00000000000E+00 0.  1.
        -13    1    4    4    0    0 -0.40781830085E+02 -0.57311448063E+02  0.36712624090E+02  0.79344669082E+02  0.00000000000E+00 0. -1.
         13    1    4    4    0    0  0.44663111167E+02 -0.82453080512E+02  0.92600377263E+02  0.13178821592E+03  0.00000000000E+00 0.  1.
         21    1    1    2  502  501 -0.12887806700E+03  0.11234527249E+03  0.43634524204E+02  0.17645109268E+03  0.00000000000E+00 0. -1.
<scales pt_clust_5="13000.00000" pt_clust_6="13000.00000" pt_clust_7="13000.00000" pt_clust_8="13000.00000" pt_clust_9="139.20141"></scales>
<clustering>
<clus scale="   78.699">  5  6 -1 -1</clus>
<clus scale="   91.138">  7  8 -1 -1</clus>
<clus scale="  150.232">  2  5  1 -1</clus>
<clus scale="  139.201">  2  9  1 -1</clus>
<clus scale="  166.382">  1  5  2 -1</clus>
</clustering>
</event>
<event>
 9    1  0.2333971E-005  0.1291179E+03  0.7546771E-02  0.1230985E+00
         -2   -1    0    0    0  501 -0.00000000000E+00  0.00000000000E+00  0.31568990793E+02  0.31568990793E+02  0.00000000000E+00 0.  1.
          1   -1    0    0  502    0  0.00000000000E+00 -0.00000000000E+00 -0.93000168214E+03  0.93000168214E+03  0.00000000000E+00 0. -1.
         23    2    1    2    0    0  0.77567749089E+02 -0.11183929933E+03 -0.38940714207E+03  0.42202778403E+03  0.89133291345E+02 0.  0.
        -24    2    1    2    0    0 -0.49675786248E+02  0.54537059298E+02 -0.38372225755E+03  0.39896400278E+03  0.80545204721E+02 0.  0.
         13    1    4    4    0    0 -0.26830815805E+02  0.57776130428E+02 -0.36101135178E+03  0.36658855689E+03  0.00000000000E+00 0. -1.
        -14    1    4    4    0    0 -0.22844970444E+02 -0.32390711301E+01 -0.22710905762E+02  0.32375445895E+02  0.00000000000E+00 0.  1.
        -13    1    3    3    0    0  0.46897556276E+02 -0.48639067705E+02 -0.30411575185E+03  0.31153094584E+03  0.00000000000E+00 0. -1.
         13    1    3    3    0    0  0.30670192812E+02 -0.63200231628E+02 -0.85291390217E+02  0.11049683819E+03  0.00000000000E+00 0.  1.
         21    1    1    2  502  501 -0.27891962840E+02  0.57302240034E+02 -0.12530329173E+03  0.14057888612E+03  0.00000000000E+00 0.  1.
<scales pt_clust_5="13000.00000" pt_clust_6="13000.00000" pt_clust_7="13000.00000" pt_clust_8="13000.00000" pt_clust_9="63.72996"></scales>
<clustering>
<clus scale="   63.730">  1  9  2 -1</clus>
<clus scale="   80.545">  5  6 -1 -1</clus>
<clus scale="   89.133">  7  8 -1 -1</clus>
<clus scale="  123.346">  2  5  1 -1</clus>
<clus scale="  123.346">  2  5  1 -1</clus>
</clustering>
</event>
<event>
 9    1  0.2333971E-005  0.1119671E+03  0.7546771E-02  0.1259920E+00
         -2   -1    0    0    0  501 -0.00000000000E+00  0.00000000000E+00  0.17191620776E+03  0.17191620776E+03  0.00000000000E+00 0.  1.
          1   -1    0    0  502    0  0.00000000000E+00 -0.00000000000E+00 -0.11598943596E+03  0.11598943596E+03  0.00000000000E+00 0. -1.
        -24    2    1    2    0    0 -0.77727822602E+02 -0.31307832103E+02  0.56462409624E+02  0.12913665102E+03  0.80414402805E+02 0.  0.
         23    2    1    2    0    0  0.61328664458E+02  0.12129478888E+02 -0.36897353763E+02  0.11450934962E+03  0.88558721164E+02 0.  0.
         13    1    3    3    0    0 -0.54390981357E+02  0.18509675267E+02  0.44910501432E+02  0.72924207711E+02  0.00000000000E+00 0. -1.
        -14    1    3    3    0    0 -0.23336841245E+02 -0.49817507369E+02  0.11551908192E+02  0.56212443308E+02  0.00000000000E+00 0.  1.
        -11    1    4    4    0    0  0.43444755782E+02  0.43160233007E+02  0.24683721062E+01  0.61289031474E+02  0.00000000000E+00 0.  1.
         11    1    4    4    0    0  0.17883908676E+02 -0.31030754119E+02 -0.39365725869E+02  0.53220318149E+02  0.00000000000E+00 0. -1.
         21    1    1    2  502  501  0.16399158144E+02  0.19178353215E+02  0.36361715932E+02  0.44259643078E+02  0.00000000000E+00 0.  1.
<scales pt_clust_5="13000.00000" pt_clust_6="13000.00000" pt_clust_7="13000.00000" pt_clust_8="13000.00000" pt_clust_9="25.23374"></scales>
<clustering>
<clus scale="   25.234">  1  9  2 -1</clus>
<clus scale="   80.414">  5  6 -1 -1</clus>
<clus scale="   88.559">  7  8 -1 -1</clus>
<clus scale="  105.643">  1  5  2 -1</clus>
<clus scale="  111.967">  2  5  1 -1</clus>
</clustering>
</event>
<event>
 9    1  0.2333971E-005  0.1189171E+03  0.7546771E-02  0.1248196E+00
         -2   -1    0    0    0  501 -0.00000000000E+00  0.00000000000E+00  0.72018222203E+03  0.72018222203E+03  0.00000000000E+00 0.  1.
          1   -1    0    0  502    0  0.00000000000E+00 -0.00000000000E+00 -0.22865862450E+02  0.22865862450E+02  0.00000000000E+00 0. -1.
        -24    2    1    2    0    0 -0.67896875689E+02 -0.32356056115E+02  0.38739446891E+03  0.40350632475E+03  0.84178260072E+02 0.  0.
         23    2    1    2    0    0  0.53043189745E+02  0.46890988694E+02  0.26972016490E+03  0.29428609705E+03  0.94037198810E+02 0.  0.
         11    1    3    3    0    0 -0.37362797951E+02 -0.52762741104E+02  0.32271654509E+03  0.32912893217E+03  0.00000000000E+00 0. -1.
        -12    1    3    3    0    0 -0.30534077738E+02  0.20406684989E+02  0.64677923828E+02  0.74377392575E+02  0.00000000000E+00 0.  1.
        -11    1    4    4    0    0  0.28629035942E+02  0.74798415601E+02  0.17081606275E+03  0.18865988437E+03  0.00000000000E+00 0. -1.
         11    1    4    4    0    0  0.24414153803E+02 -0.27907426907E+02  0.98904102154E+02  0.10562621268E+03  0.00000000000E+00 0.  1.
         21    1    1    2  502  501  0.14853685945E+02 -0.14534932578E+02  0.40201725765E+02  0.45255662692E+02  0.00000000000E+00 0. -1.
<scales pt_clust_5="13000.00000" pt_clust_6="13000.00000" pt_clust_7="13000.00000" pt_clust_8="13000.00000" pt_clust_9="20.78211"></scales>
<clustering>
<clus scale="   20.782">  2  9  1 -1</clus>
<clus scale="   84.178">  5  6 -1 -1</clus>
<clus scale="   94.037">  7  8 -1 -1</clus>
<clus scale="  111.285">  1  5  2 -1</clus>
<clus scale="   20.782">  2  5  1 -1</clus>
</clustering>
</event>
<event>
 9    1  0.2333971E-005  0.9440568E+02  0.7546771E-02  0.1299041E+00
          1   -1    0    0  502    0  0.00000000000E+00  0.00000000000E+00  0.32173390486E+03  0.32173390486E+03  0.00000000000E+00 0. -1.
         -2   -1    0    0    0  501 -0.00000000000E+00 -0.00000000000E+00 -0.73932437691E+02  0.73932437691E+02  0.00000000000E+00 0.  1.
        -24    2    1    2    0    0  0.20358339390E+02  0.47402886955E+02  0.61579751560E+02  0.11341736819E+03  0.80062087969E+02 0.  0.
         23    2    1    2    0    0 -0.25635219710E+02  0.16285292999E+02  0.19530766815E+03  0.21769989021E+03  0.91245721554E+02 0.  0.
         13    1    3    3    0    0  0.35814205710E+02 -0.26249424867E+01  0.46839763556E+02  0.59021276703E+02  0.00000000000E+00 0. -1.
        -14    1    3    3    0    0 -0.15455866320E+02  0.50027829442E+02  0.14739988004E+02  0.54396091484E+02  0.00000000000E+00 0.  1.
        -11    1    4    4    0    0  0.41693655246E+01  0.43898456571E+02  0.49294956494E+02  0.66139631341E+02  0.00000000000E+00 0.  1.
         11    1    4    4    0    0 -0.29804585235E+02 -0.27613163571E+02  0.14601271166E+03  0.15156025887E+03  0.00000000000E+00 0. -1.
         21    1    1    2  502  501  0.52768803207E+01 -0.63688179955E+02 -0.90859525371E+01  0.64549084156E+02  0.00000000000E+00 0. -1.
<scales pt_clust_5="13000.00000" pt_clust_6="13000.00000" pt_clust_7="13000.00000" pt_clust_8="13000.00000" pt_clust_9="63.90641"></scales>
<clustering>
<clus scale="   63.906">  2  9  1 -1</clus>
<clus scale="   80.062">  5  6 -1 -1</clus>
<clus scale="   83.646">  2  5  1 -1</clus>
<clus scale="   91.246">  7  8 -1 -1</clus>
<clus scale="   94.406">  1  5  2 -1</clus>
</clustering>
</event>
<event>
 9    1  0.2333971E-005  0.3200437E+03  0.7546771E-02  0.1105078E+00
         -2   -1    0    0    0  501 -0.00000000000E+00  0.00000000000E+00  0.18818463243E+03  0.18818463243E+03  0.00000000000E+00 0.  1.
          1   -1    0    0  502    0  0.00000000000E+00 -0.00000000000E+00 -0.14570910471E+04  0.14570910471E+04  0.00000000000E+00 0. -1.
         23    2    1    2    0    0 -0.61784201566E+02  0.96978384069E+02 -0.11033284423E+03  0.18378745172E+03  0.91555427771E+02 0.  0.
        -24    2    1    2    0    0 -0.20923081077E+03  0.20405007241E+03 -0.96686158248E+03  0.10133579400E+04  0.81602884045E+02 0.  0.
         13    1    4    4    0    0 -0.17213722314E+03  0.19422010111E+03 -0.76336018172E+03  0.80627007776E+03  0.00000000000E+00 0. -1.
        -14    1    4    4    0    0 -0.37093587629E+02  0.98299713090E+01 -0.20350140076E+03  0.20708786225E+03  0.00000000000E+00 0.  1.
        -13    1    3    3    0    0  0.98394394439E+01  0.63627251376E+02 -0.29717303028E+02  0.70910928534E+02  0.00000000000E+00 0.  1.
         13    1    3    3    0    0 -0.71623641010E+02  0.33351132693E+02 -0.80615541205E+02  0.11287652319E+03  0.00000000000E+00 0. -1.
         21    1    1    2  502  501  0.27101501234E+03 -0.30102845648E+03 -0.19171198798E+03  0.44813028782E+03  0.00000000000E+00 0.  1.
<scales pt_clust_5="13000.00000" pt_clust_6="13000.00000" pt_clust_7="13000.00000" pt_clust_8="13000.00000" pt_clust_9="309.46560"></scales>
<clustering>
<clus scale="   81.603">  5  6 -1 -1</clus>
<clus scale="   91.555">  7  8 -1 -1</clus>
<clus scale="  146.985">  1  7  2 -1</clus>
<clus scale="  309.466">  1  9  2 -1</clus>
<clus scale="  320.044">  2  5  1 -1</clus>
</clustering>
</event>
<event>
 9    1  0.2333971E-005  0.2162897E+03  0.7546771E-02  0.1136785E+00
          1   -1    0    0  502    0  0.00000000000E+00  0.00000000000E+00  0.79465600982E+03  0.79465600982E+03  0.00000000000E+00 0. -1.
         -2   -1    0    0    0  501 -0.00000000000E+00 -0.00000000000E+00 -0.10175813588E+03  0.10175813588E+03  0.00000000000E+00 0.  1.
        -24    2    1    2    0    0  0.17926062127E+03 -0.11900856726E+03  0.19210243764E+03  0.30058218623E+03  0.84551136674E+02 0.  0.
         23    2    1    2    0    0 -0.16294329709E+03  0.10197245356E+03  0.52277668554E+03  0.56358820726E+03  0.85949433210E+02 0.  0.
         11    1    3    3    0    0  0.14838330428E+03 -0.10099520653E+03  0.19461037150E+03  0.26474673449E+03  0.00000000000E+00 0. -1.
        -12    1    3    3    0    0  0.30877316990E+02 -0.18013360729E+02 -0.25079338510E+01  0.35835451741E+02  0.00000000000E+00 0.  1.
        -13    1    4    4    0    0 -0.52475071096E+02  0.60540790372E+02  0.12321752112E+03  0.14697407219E+03  0.00000000000E+00 0. -1.
         13    1    4    4    0    0 -0.11046822600E+03  0.41431663184E+02  0.39955916442E+03  0.41661413507E+03  0.00000000000E+00 0.  1.
         21    1    1    2  502  501 -0.16317324179E+02  0.17036113701E+02 -0.21981249238E+02  0.32243752208E+02  0.00000000000E+00 0.  1.
<scales pt_clust_5="13000.00000" pt_clust_6="13000.00000" pt_clust_7="13000.00000" pt_clust_8="13000.00000" pt_clust_9="23.58992"></scales>
<clustering>
<clus scale="   23.590">  2  9  1 -1</clus>
<clus scale="   84.551">  5  6 -1 -1</clus>
<clus scale="   85.949">  7  8 -1 -1</clus>
<clus scale="  215.738">  2  5  1 -1</clus>
<clus scale="  216.290">  1  5  2 -1</clus>
</clustering>
</event>
<event>
 9    1  0.2333971E-005  0.1155262E+03  0.7546771E-02  0.1256332E+00
          1   -1    0    0  502    0  0.00000000000E+00  0.00000000000E+00  0.20207830873E+03  0.20207830873E+03  0.00000000000E+00 0. -1.
         -2   -1    0    0    0  501 -0.00000000000E+00 -0.00000000000E+00 -0.12329616545E+03  0.12329616545E+03  0.00000000000E+00 0.  1.
        -24    2    1    2    0    0 -0.44084136530E+02 -0.20318228444E+02 -0.63991354960E+02  0.11344481130E+03  0.80116104507E+02 0.  0.
         23    2    1    2    0    0  0.55126821316E+02  0.41856681043E+02  0.14583732721E+03  0.18753226803E+03  0.95440438847E+02 0.  0.
         11    1    3    3    0    0  0.23561775188E+02 -0.23859327167E+01 -0.15484304628E+02  0.28295116447E+02  0.00000000000E+00 0. -1.
        -12    1    3    3    0    0 -0.67645911718E+02 -0.17932295727E+02 -0.48507050331E+02  0.85149694856E+02  0.00000000000E+00 0.  1.
        -11    1    4    4    0    0  0.49509896657E+02  0.70266498016E+02  0.12561983044E+03  0.15221350929E+03  0.00000000000E+00 0. -1.
         11    1    4    4    0    0  0.56169246584E+01 -0.28409816973E+02  0.20217496768E+02  0.35318758736E+02  0.00000000000E+00 0.  1.
         21    1    1    2  502  501 -0.11042684786E+02 -0.21538452599E+02 -0.30638289712E+01  0.24397394853E+02  0.00000000000E+00 0. -1.
<scales pt_clust_5="13000.00000" pt_clust_6="13000.00000" pt_clust_7="13000.00000" pt_clust_8="13000.00000" pt_clust_9="24.20425"></scales>
<clustering>
<clus scale="   24.204">  2  9  1 -1</clus>
<clus scale="   80.116">  5  6 -1 -1</clus>
<clus scale="   95.440">  7  8 -1 -1</clus>
<clus scale="  103.228">  2  5  1 -1</clus>
<clus scale="  115.526">  1  5  2 -1</clus>
</clustering>
</event>
<event>
 9    1  0.2333971E-005  0.1232795E+03  0.7546771E-02  0.1241752E+00
         -4   -1    0    0    0  501 -0.00000000000E+00  0.00000000000E+00  0.68022750333E+02  0.68022750333E+02  0.00000000000E+00 0.  1.
          3   -1    0    0  502    0  0.00000000000E+00 -0.00000000000E+00 -0.46843248184E+03  0.46843248184E+03  0.00000000000E+00 0. -1.
        -24    2    1    2    0    0  0.97616877222E+01 -0.71331607186E+02 -0.42556739845E+02  0.11602809188E+03  0.80423586518E+02 0.  0.
         23    2    1    2    0    0 -0.37020906388E+02  0.74987754070E+02 -0.36976858132E+03  0.39045359046E+03  0.93442451822E+02 0.  0.
         13    1    3    3    0    0  0.23019259786E+02 -0.26177332374E+01 -0.39728124677E+02  0.45989811250E+02  0.00000000000E+00 0. -1.
        -14    1    3    3    0    0 -0.13257572064E+02 -0.68713873948E+02 -0.28286151681E+01  0.70038280631E+02  0.00000000000E+00 0.  1.
        -11    1    4    4    0    0 -0.55601264787E+02  0.38479713541E+02 -0.12348185049E+03  0.14078336692E+03  0.00000000000E+00 0.  1.
         11    1    4    4    0    0  0.18580358400E+02  0.36508040529E+02 -0.24628673083E+03  0.24967022354E+03  0.00000000000E+00 0. -1.
         21    1    1    2  502  501  0.27259218666E+02 -0.36561468841E+01  0.11915589661E+02  0.29973549828E+02  0.00000000000E+00 0.  1.
<scales pt_clust_5="13000.00000" pt_clust_6="13000.00000" pt_clust_7="13000.00000" pt_clust_8="13000.00000" pt_clust_9="27.50332"></scales>
<clustering>
<clus scale="   27.503">  1  9  2 -1</clus>
<clus scale="   80.424">  5  6 -1 -1</clus>
<clus scale="   93.442">  7  8 -1 -1</clus>
<clus scale="  113.729">  1  5  2 -1</clus>
<clus scale="  123.280">  2  5  1 -1</clus>
</clustering>
</event>
<event>
 9    1  0.2333971E-005  0.1169916E+03  0.7546771E-02  0.1252822E+00
          1   -1    0    0  502    0  0.00000000000E+00  0.00000000000E+00  0.21674464440E+03  0.21674464440E+03  0.00000000000E+00 0. -1.
         -2   -1    0    0    0  501 -0.00000000000E+00 -0.00000000000E+00 -0.14239471496E+03  0.14239471496E+03  0.00000000000E+00 0.  1.
         23    2    1    2    0    0 -0.53789706950E+02  0.45202918160E+02 -0.89851899320E+02  0.14719646418E+03  0.93041919965E+02 0.  0.
        -24    2    1    2    0    0  0.42853303391E+02 -0.64388730450E+02  0.14572972721E+03  0.18315194432E+03  0.79530919108E+02 0.  0.
         11    1    4    4    0    0  0.37688316571E+02  0.78627699504E+01  0.49889750631E+02  0.63017613215E+02  0.00000000000E+00 0. -1.
        -12    1    4    4    0    0  0.51649868201E+01 -0.72251500400E+02  0.95839976578E+02  0.12013433110E+03  0.00000000000E+00 0.  1.
        -13    1    3    3    0    0 -0.74535768767E+02  0.48949255731E+02 -0.50308191913E+02  0.10238420110E+03  0.00000000000E+00 0.  1.
         13    1    3    3    0    0  0.20746061817E+02 -0.37463375716E+01 -0.39543707407E+02  0.44812263071E+02  0.00000000000E+00 0. -1.
         21    1    1    2  502  501  0.10936403559E+02  0.19185812290E+02  0.18472101546E+02  0.28790950862E+02  0.00000000000E+00 0. -1.
<scales pt_clust_5="13000.00000" pt_clust_6="13000.00000" pt_clust_7="13000.00000" pt_clust_8="13000.00000" pt_clust_9="22.08394"></scales>
<clustering>
<clus scale="   22.084">  1  9  2 -1</clus>
<clus scale="   79.531">  5  6 -1 -1</clus>
<clus scale="   93.042">  7  8 -1 -1</clus>
<clus scale="  106.562">  1  5  2 -1</clus>
<clus scale="   22.084">  1  5  2 -1</clus>
</clustering>
</event>
<event>
 9    1  0.2333971E-005  0.1277608E+03  0.7546771E-02  0.1233408E+00
          1   -1    0    0  502    0  0.00000000000E+00  0.00000000000E+00  0.34969200490E+03  0.34969200490E+03  0.00000000000E+00 0. -1.
         -2   -1    0    0    0  501 -0.00000000000E+00 -0.00000000000E+00 -0.75287499011E+02  0.75287499011E+02  0.00000000000E+00 0.  1.
        -24    2    1    2    0    0 -0.58510351870E+02 -0.19991543465E+02  0.51416327929E+02  0.12702992105E+03  0.98335339417E+02 0.  0.
         23    2    1    2    0    0  0.84964772609E+02  0.29470947839E+02  0.23524210030E+03  0.26729254294E+03  0.89548357912E+02 0.  0.
         11    1    3    3    0    0 -0.13749818879E+02 -0.34217227530E+02  0.67889196862E+02  0.77258133744E+02  0.00000000000E+00 0. -1.
        -12    1    3    3    0    0 -0.44760532991E+02  0.14225684065E+02 -0.16472868933E+02  0.49771787306E+02  0.00000000000E+00 0.  1.
        -11    1    4    4    0    0  0.48397762049E+02 -0.15697643331E+00  0.30490666175E+02  0.57201824593E+02  0.00000000000E+00 0.  1.
         11    1    4    4    0    0  0.36567010561E+02  0.29627924272E+02  0.20475143413E+03  0.21009071834E+03  0.00000000000E+00 0. -1.
         21    1    1    2  502  501 -0.26454420740E+02 -0.94794043738E+01 -0.12253922343E+02  0.30657039921E+02  0.00000000000E+00 0.  1.
<scales pt_clust_5="13000.00000" pt_clust_6="13000.00000" pt_clust_7="13000.00000" pt_clust_8="13000.00000" pt_clust_9="28.10152"></scales>
<clustering>
<clus scale="   28.102">  2  9  1 -1</clus>
<clus scale="   89.548">  7  8 -1 -1</clus>
<clus scale="   98.335">  5  6 -1 -1</clus>
<clus scale="  121.128">  1  7  2 -1</clus>
<clus scale="  121.128">  1  5  2 -1</clus>
</clustering>
</event>
<event>
 9    1  0.2333971E-005  0.1405934E+03  0.7546771E-02  0.1215916E+00
          1   -1    0    0  502    0  0.00000000000E+00  0.00000000000E+00  0.12555355353E+03  0.12555355353E+03  0.00000000000E+00 0. -1.
         -2   -1    0    0    0  501 -0.00000000000E+00 -0.00000000000E+00 -0.21631415427E+03  0.21631415427E+03  0.00000000000E+00 0.  1.
         23    2    1    2    0    0  0.96656906173E+02  0.26731542842E+02 -0.11062619679E+03  0.17716443519E+03  0.95351710969E+02 0.  0.
        -24    2    1    2    0    0 -0.11197382640E+03 -0.86557486437E+01  0.25362521784E+02  0.14038129543E+03  0.80315570176E+02 0.  0.
         13    1    4    4    0    0 -0.47466218433E+02 -0.41659788829E+02  0.24990987355E+02  0.67920021691E+02  0.00000000000E+00 0. -1.
        -14    1    4    4    0    0 -0.64507607971E+02  0.33004040185E+02  0.37153442837E+00  0.72461273743E+02  0.00000000000E+00 0.  1.
        -13    1    3    3    0    0  0.29357773066E+02  0.42692106479E+02 -0.91914947733E+02  0.10551233298E+03  0.00000000000E+00 0.  1.
         13    1    3    3    0    0  0.67299133107E+02 -0.15960563638E+02 -0.18711249058E+02  0.71652102201E+02  0.00000000000E+00 0. -1.
         21    1    1    2  502  501  0.15316920230E+02 -0.18075794198E+02 -0.54969257368E+01  0.24321977177E+02  0.00000000000E+00 0.  1.
<scales pt_clust_5="13000.00000" pt_clust_6="13000.00000" pt_clust_7="13000.00000" pt_clust_8="13000.00000" pt_clust_9="23.69267"></scales>
<clustering>
<clus scale="   23.693">  1  9  2 -1</clus>
<clus scale="   80.316">  5  6 -1 -1</clus>
<clus scale="   95.352">  7  8 -1 -1</clus>
<clus scale="  130.863">  1  5  2 -1</clus>
<clus scale="   23.693">  1  5  2 -1</clus>
</clustering>
</event>
<event>
 9    1  0.2333971E-005  0.1420428E+03  0.7546771E-02  0.1213698E+00
          1   -1    0    0  502    0  0.00000000000E+00  0.00000000000E+00  0.23973575290E+03  0.23973575290E+03  0.00000000000E+00 0. -1.
         -2   -1    0    0    0  501 -0.00000000000E+00 -0.00000000000E+00 -0.12796602188E+03  0.12796602188E+03  0.00000000000E+00 0.  1.
        -24    2    1    2    0    0  0.55905634293E+01 -0.10554244537E+03 -0.27284663851E+02  0.13555368242E+03  0.80373414525E+02 0.  0.
         23    2    1    2    0    0  0.16916842889E+02  0.10533012973E+03  0.15014650586E+03  0.20705499882E+03  0.94589552878E+02 0.  0.
         13    1    3    3    0    0  0.28476090989E+02 -0.40958721655E+01 -0.50962138989E+01  0.29217038229E+02  0.00000000000E+00 0. -1.
        -14    1    3    3    0    0 -0.22885527559E+02 -0.10144657321E+03 -0.22188449952E+02  0.10633664419E+03  0.00000000000E+00 0.  1.
        -11    1    4    4    0    0  0.23762382718E+02  0.79658067701E+02  0.37280199088E+02  0.91103632344E+02  0.00000000000E+00 0.  1.
         11    1    4    4    0    0 -0.68455398289E+01  0.25672062030E+02  0.11286630677E+03  0.11595136648E+03  0.00000000000E+00 0. -1.
         21    1    1    2  502  501 -0.22507406318E+02  0.21231564306E+00 -0.11092110986E+02  0.25093093537E+02  0.00000000000E+00 0.  1.
<scales pt_clust_5="13000.00000" pt_clust_6="13000.00000" pt_clust_7="13000.00000" pt_clust_8="13000.00000" pt_clust_9="22.50841"></scales>
<clustering>
<clus scale="   22.508">  2  9  1 -1</clus>
<clus scale="   80.373">  5  6 -1 -1</clus>
<clus scale="   94.590">  7  8 -1 -1</clus>
<clus scale="  132.999">  2  5  1 -1</clus>
<clus scale="  142.043">  1  5  2 -1</clus>
</clustering>
</event>
<event>
 9    1  0.2333971E-005  0.1125995E+03  0.7546771E-02  0.1271514E+00
          1   -1    0    0  502    0  0.00000000000E+00  0.00000000000E+00  0.10272954499E+03  0.10272954499E+03  0.00000000000E+00 0. -1.
         -2   -1    0    0    0  501 -0.00000000000E+00 -0.00000000000E+00 -0.25166790408E+03  0.25166790408E+03  0.00000000000E+00 0.  1.
         23    2    1    2    0    0 -0.10268927171E+01 -0.13450692965E+02 -0.18568033994E+03  0.21610221978E+03  0.10973151372E+03 0.  0.
        -24    2    1    2    0    0 -0.28188322391E+02 -0.27664858890E+01  0.54926601384E+02  0.10025306705E+03  0.78939919869E+02 0.  0.
         13    1    4    4    0    0  0.21679094985E+02  0.13273504873E+02  0.36992694540E+02  0.44884613625E+02  0.00000000000E+00 0. -1.
        -14    1    4    4    0    0 -0.49867417376E+02 -0.16039990762E+02  0.17933906844E+02  0.55368453420E+02  0.00000000000E+00 0.  1.
        -13    1    3    3    0    0 -0.20022449533E+02 -0.58332266711E+02 -0.10925420539E+03  0.12545928909E+03  0.00000000000E+00 0.  1.
         13    1    3    3    0    0  0.18995556816E+02  0.44881573746E+02 -0.76426134551E+02  0.90642930684E+02  0.00000000000E+00 0. -1.
         21    1    1    2  502  501  0.29215215108E+02  0.16217178854E+02 -0.18184620535E+02  0.38042162239E+02  0.00000000000E+00 0. -1.
<scales pt_clust_5="13000.00000" pt_clust_6="13000.00000" pt_clust_7="13000.00000" pt_clust_8="13000.00000" pt_clust_9="33.41445"></scales>
<clustering>
<clus scale="   33.414">  2  9  1 -1</clus>
<clus scale="   78.940">  5  6 -1 -1</clus>
<clus scale="   82.880">  1  5  2 -1</clus>
<clus scale="  109.732">  7  8 -1 -1</clus>
<clus scale="   82.880">  1  5  2 -1</clus>
</clustering>
</event>
<event>
 9    1  0.2333971E-005  0.9272183E+02  0.7546771E-02  0.1304775E+00
         -2   -1    0    0    0  501 -0.00000000000E+00  0.00000000000E+00  0.90108721150E+02  0.90108721150E+02  0.00000000000E+00 0.  1.
          1   -1    0    0  502    0  0.00000000000E+00 -0.00000000000E+00 -0.26184666395E+03  0.26184666395E+03  0.00000000000E+00 0. -1.
        -24    2    1    2    0    0  0.21059236929E+02 -0.89314838663E+01  0.39561225063E+02  0.90128214533E+02  0.77683599700E+02 0.  0.
         23    2    1    2    0    0  0.64844822929E+00 -0.20521181995E+02 -0.20416105467E+03  0.22454935167E+03  0.91209296122E+02 0.  0.
         11    1    3    3    0    0 -0.16901332039E+02 -0.28667069870E+02  0.32958963498E+02  0.46837476389E+02  0.00000000000E+00 0. -1.
        -12    1    3    3    0    0  0.37960568968E+02  0.19735586003E+02  0.66022615645E+01  0.43290738144E+02  0.00000000000E+00 0.  1.
        -13    1    4    4    0    0 -0.37879845623E+02 -0.29976211191E+02 -0.14877828807E+03  0.15642389505E+03  0.00000000000E+00 0. -1.
         13    1    4    4    0    0  0.38528293853E+02  0.94550291958E+01 -0.55382766599E+02  0.68125456626E+02  0.00000000000E+00 0.  1.
         21    1    1    2  502  501 -0.21707685158E+02  0.29452665861E+02 -0.71381131930E+01  0.37277818890E+02  0.00000000000E+00 0.  1.
<scales pt_clust_5="13000.00000" pt_clust_6="13000.00000" pt_clust_7="13000.00000" pt_clust_8="13000.00000" pt_clust_9="36.58802"></scales>
<clustering>
<clus scale="   36.588">  1  9  2 -1</clus>
<clus scale="   77.684">  5  6 -1 -1</clus>
<clus scale="   79.454">  1  5  2 -1</clus>
<clus scale="   91.209">  7  8 -1 -1</clus>
<clus scale="   92.722">  2  5  1 -1</clus>
</clustering>
</event>
<event>
 9    1  0.2333971E-005  0.1806938E+03  0.7546771E-02  0.1169186E+00
          1   -1    0    0  502    0  0.00000000000E+00  0.00000000000E+00  0.10356161866E+04  0.10356161866E+04  0.00000000000E+00 0. -1.
         -2   -1    0    0    0  501 -0.00000000000E+00 -0.00000000000E+00 -0.15042418433E+03  0.15042418433E+03  0.00000000000E+00 0.  1.
         23    2    1    2    0    0  0.13735577624E+03 -0.62784189605E+02  0.64091240058E+01  0.18013202660E+03  0.97969415665E+02 0.  0.
        -24    2    1    2    0    0 -0.14602427267E+03  0.42338784774E+02  0.93221120698E+03  0.94804865437E+03  0.81626317622E+02 0.  0.
         11    1    4    4    0    0 -0.15471273670E+03  0.30421008488E+02  0.84111955267E+03  0.85577074649E+03  0.00000000000E+00 0. -1.
        -12    1    4    4    0    0  0.86884640295E+01  0.11917776287E+02  0.91091654307E+02  0.92277907882E+02  0.00000000000E+00 0.  1.
        -11    1    3    3    0    0  0.28143633654E+02  0.26434959016E+02  0.62187618027E+01  0.39109387259E+02  0.00000000000E+00 0. -1.
         11    1    3    3    0    0  0.10921214259E+03 -0.89219148621E+02  0.19036220311E+00  0.14102263934E+03  0.00000000000E+00 0.  1.
         21    1    1    2  502  501  0.86684964330E+01  0.20445404830E+02 -0.53428328729E+02  0.57859689940E+02  0.00000000000E+00 0.  1.
<scales pt_clust_5="13000.00000" pt_clust_6="13000.00000" pt_clust_7="13000.00000" pt_clust_8="13000.00000" pt_clust_9="22.20715"></scales>
<clustering>
<clus scale="   22.207">  2  9  1 -1</clus>
<clus scale="   81.626">  5  6 -1 -1</clus>
<clus scale="   97.969">  7  8 -1 -1</clus>
<clus scale="  172.381">  1  5  2 -1</clus>
<clus scale="  172.381">  1  5  2 -1</clus>
</clustering>
</event>
<event>
 9    1  0.2333971E-005  0.1554369E+03  0.7546771E-02  0.1196930E+00
         -2   -1    0    0    0  501 -0.00000000000E+00  0.00000000000E+00  0.15860803476E+03  0.15860803476E+03  0.00000000000E+00 0.  1.
          1   -1    0    0  502    0  0.00000000000E+00 -0.00000000000E+00 -0.35886599261E+03  0.35886599261E+03  0.00000000000E+00 0. -1.
        -24    2    1    2    0    0  0.12678033807E+03  0.18905440378E+02 -0.39714259032E+02  0.15653619552E+03  0.80595833260E+02 0.  0.
         23    2    1    2    0    0 -0.11552212401E+03  0.42195248669E+02 -0.22316157709E+03  0.27272762685E+03  0.97228950470E+02 0.  0.
         13    1    3    3    0    0  0.97111245022E+02  0.36708631083E+02 -0.56371274730E+02  0.11813483026E+03  0.00000000000E+00 0. -1.
        -14    1    3    3    0    0  0.29669093050E+02 -0.17803190705E+02  0.16657015698E+02  0.38401365258E+02  0.00000000000E+00 0.  1.
        -11    1    4    4    0    0 -0.41854661329E+02  0.63544169295E+01 -0.16970593791E+03  0.17490653690E+03  0.00000000000E+00 0. -1.
         11    1    4    4    0    0 -0.73667462681E+02  0.35840831740E+02 -0.53455639184E+02  0.97821089946E+02  0.00000000000E+00 0.  1.
         21    1    1    2  502  501 -0.11258214063E+02 -0.61100689047E+02  0.62617878283E+02  0.88210205002E+02  0.00000000000E+00 0.  1.
<scales pt_clust_5="13000.00000" pt_clust_6="13000.00000" pt_clust_7="13000.00000" pt_clust_8="13000.00000" pt_clust_9="62.12923"></scales>
<clustering>
<clus scale="   62.129">  1  9  2 -1</clus>
<clus scale="   80.596">  5  6 -1 -1</clus>
<clus scale="   97.229">  7  8 -1 -1</clus>
<clus scale="  145.612">  1  5  2 -1</clus>
<clus scale="  155.437">  2  5  1 -1</clus>
</clustering>
</event>
<event>
 9    1  0.2333971E-005  0.3207673E+03  0.7546771E-02  0.1076144E+00
          1   -1    0    0  502    0  0.00000000000E+00  0.00000000000E+00  0.46552735521E+03  0.46552735521E+03  0.00000000000E+00 0. -1.
         -2   -1    0    0    0  501 -0.00000000000E+00 -0.00000000000E+00 -0.46719213177E+03  0.46719213177E+03  0.00000000000E+00 0.  1.
        -24    2    1    2    0    0  0.42235003121E+02  0.33107896185E+03 -0.23910394713E+03  0.41486806173E+03  0.59562879737E+02 0.  0.
         23    2    1    2    0    0 -0.61443163473E+02 -0.29629824625E+03  0.30526963457E+03  0.43924084422E+03  0.90416018335E+02 0.  0.
         13    1    3    3    0    0 -0.42463752706E+01  0.72234188173E+02 -0.78308191925E+02  0.10662074173E+03  0.00000000000E+00 0. -1.
        -14    1    3    3    0    0  0.46481378392E+02  0.25884477368E+03 -0.16079575521E+03  0.30824732001E+03  0.00000000000E+00 0.  1.
        -11    1    4    4    0    0 -0.77545513151E+02 -0.28391378892E+03  0.27506990164E+03  0.40284463127E+03  0.00000000000E+00 0.  1.
         11    1    4    4    0    0  0.16102349678E+02 -0.12384457329E+02  0.30199732928E+02  0.36396212955E+02  0.00000000000E+00 0. -1.
         21    1    1    2  502  501  0.19208160351E+02 -0.34780715602E+02 -0.67830464002E+02  0.78610581022E+02  0.00000000000E+00 0. -1.
<scales pt_clust_5="13000.00000" pt_clust_6="13000.00000" pt_clust_7="13000.00000" pt_clust_8="13000.00000" pt_clust_9="39.73225"></scales>
<clustering>
<clus scale="   39.732">  2  9  1 -1</clus>
<clus scale="   59.563">  5  6 -1 -1</clus>
<clus scale="   90.416">  7  8 -1 -1</clus>
<clus scale="  313.471">  2  5  1 -1</clus>
<clus scale="  320.767">  1  5  2 -1</clus>
</clustering>
</event>
<event>
 9    1  0.2333971E-005  0.1078385E+03  0.7546771E-02  0.1267152E+00
          1   -1    0    0  502    0  0.00000000000E+00  0.00000000000E+00  0.34672859114E+03  0.34672859114E+03  0.00000000000E+00 0. -1.
         -2   -1    0    0    0  501 -0.00000000000E+00 -0.00000000000E+00 -0.49475146941E+02  0.49475146941E+02  0.00000000000E+00 0.  1.
         23    2    1    2    0    0  0.51777295387E+02  0.37509125626E+02  0.54400989343E+02  0.12060622228E+03  0.86594286115E+02 0.  0.
        -24    2    1    2    0    0 -0.66193050129E+02 -0.17144306931E+02  0.19954601921E+03  0.22561764792E+03  0.80057867354E+02 0.  0.
         13    1    4    4    0    0 -0.61649635414E+02 -0.40577464916E+02  0.10660521937E+03  0.12966063783E+03  0.00000000000E+00 0. -1.
        -14    1    4    4    0    0 -0.45434147147E+01  0.23433157986E+02  0.92940799842E+02  0.95957010091E+02  0.00000000000E+00 0.  1.
        -13    1    3    3    0    0  0.71686087436E+02  0.45582359719E+02  0.35789004974E+02  0.92181882854E+02  0.00000000000E+00 0.  1.
         13    1    3    3    0    0 -0.19908792049E+02 -0.80732340932E+01  0.18611984368E+02  0.28424339424E+02  0.00000000000E+00 0. -1.
         21    1    1    2  502  501  0.14415754742E+02 -0.20364818695E+02  0.43306435650E+02  0.49979867886E+02  0.00000000000E+00 0. -1.
<scales pt_clust_5="13000.00000" pt_clust_6="13000.00000" pt_clust_7="13000.00000" pt_clust_8="13000.00000" pt_clust_9="24.95075"></scales>
<clustering>
<clus scale="   24.951">  1  9  2 -1</clus>
<clus scale="   80.058">  5  6 -1 -1</clus>
<clus scale="   86.594">  7  8 -1 -1</clus>
<clus scale="  102.664">  1  5  2 -1</clus>
<clus scale="   24.951">  1  5  2 -1</clus>
</clustering>
</event>
<event>
 9    1  0.2333971E-005  0.9323661E+02  0.7546771E-02  0.1301327E+00
          1   -1    0    0  502    0  0.00000000000E+00  0.00000000000E+00  0.11589784429E+03  0.11589784429E+03  0.00000000000E+00 0. -1.
         -2   -1    0    0    0  501 -0.00000000000E+00 -0.00000000000E+00 -0.42253083261E+03  0.42253083261E+03  0.00000000000E+00 0.  1.
        -24    2    1    2    0    0  0.56265490182E+01  0.10797422581E+02 -0.32391289237E+03  0.33435496508E+03  0.82008770511E+02 0.  0.
         23    2    1    2    0    0  0.15448969129E+02 -0.89918645297E+00  0.88779926498E+02  0.12887792900E+03  0.92131243616E+02 0.  0.
         13    1    3    3    0    0  0.37475641885E+02 -0.94861383225E+01 -0.98734225019E+02  0.10603234292E+03  0.00000000000E+00 0. -1.
        -14    1    3    3    0    0 -0.31849092867E+02  0.20283560903E+02 -0.22517866735E+03  0.22832262216E+03  0.00000000000E+00 0.  1.
        -13    1    4    4    0    0 -0.24363338962E+02 -0.23296516040E+02  0.73243383301E+02  0.80628116327E+02  0.00000000000E+00 0.  1.
         13    1    4    4    0    0  0.39812308091E+02  0.22397329587E+02  0.15536543197E+02  0.48249812670E+02  0.00000000000E+00 0. -1.
         21    1    1    2  502  501 -0.21075518147E+02 -0.98982361278E+01 -0.71500022451E+02  0.75195782822E+02  0.00000000000E+00 0.  1.
<scales pt_clust_5="13000.00000" pt_clust_6="13000.00000" pt_clust_7="13000.00000" pt_clust_8="13000.00000" pt_clust_9="23.28417"></scales>
<clustering>
<clus scale="   23.284">  2  9  1 -1</clus>
<clus scale="   82.009">  5  6 -1 -1</clus>
<clus scale="   83.249">  2  5  1 -1</clus>
<clus scale="   92.131">  7  8 -1 -1</clus>
<clus scale="   93.237">  1  5  2 -1</clus>
</clustering>
</event>
<event>
 9    1  0.2333971E-005  0.9854386E+02  0.7546771E-02  0.1288408E+00
          3   -1    0    0  502    0  0.00000000000E+00  0.00000000000E+00  0.31414358473E+03  0.31414358473E+03  0.00000000000E+00 0. -1.
         -4   -1    0    0    0  501 -0.00000000000E+00 -0.00000000000E+00 -0.19501447778E+03  0.19501447778E+03  0.00000000000E+00 0.  1.
        -24    2    1    2    0    0 -0.24354398527E+02 -0.16743925507E+02 -0.13812803024E+03  0.16264894111E+03  0.80633922991E+02 0.  0.
         23    2    1    2    0    0  0.23769365974E+01  0.40243354982E+02  0.28644254406E+03  0.30306927803E+03  0.90423883979E+02 0.  0.
         13    1    3    3    0    0  0.14814125586E+02  0.16191011263E+02 -0.89444858802E+01  0.23698333069E+02  0.00000000000E+00 0. -1.
        -14    1    3    3    0    0 -0.39168524113E+02 -0.32934936770E+02 -0.12918354436E+03  0.13895060804E+03  0.00000000000E+00 0.  1.
        -11    1    4    4    0    0  0.24570687150E+02  0.58522089107E+02  0.24162133633E+03  0.24981878182E+03  0.00000000000E+00 0. -1.
         11    1    4    4    0    0 -0.22193750552E+02 -0.18278734125E+02  0.44821207729E+02  0.53250496214E+02  0.00000000000E+00 0.  1.
         21    1    1    2  502  501  0.21977461930E+02 -0.23499429475E+02 -0.29185406854E+02  0.43439843367E+02  0.00000000000E+00 0.  1.
<scales pt_clust_5="13000.00000" pt_clust_6="13000.00000" pt_clust_7="13000.00000" pt_clust_8="13000.00000" pt_clust_9="32.17502"></scales>
<clustering>
<clus scale="   32.175">  2  9  1 -1</clus>
<clus scale="   80.634">  5  6 -1 -1</clus>
<clus scale="   89.645">  2  5  1 -1</clus>
<clus scale="   90.424">  7  8 -1 -1</clus>
<clus scale="   98.544">  1  5  2 -1</clus>
</clustering>
</event>
<event>
 9    1  0.2333971E-005  0.2916227E+03  0.7546771E-02  0.1123339E+00
          1   -1    0    0  502    0  0.00000000000E+00  0.00000000000E+00  0.37753134270E+03  0.37753134270E+03  0.00000000000E+00 0. -1.
         -2   -1    0    0    0  501 -0.00000000000E+00 -0.00000000000E+00 -0.35849791972E+03  0.35849791972E+03  0.00000000000E+00 0.  1.
         23    2    1    2    0    0 -0.78616555611E+02  0.17770956765E+02 -0.85774720645E+02  0.14950594061E+03  0.92186516667E+02 0.  0.
        -24    2    1    2    0    0 -0.11385608891E+03 -0.24223695003E+03  0.31333808704E+02  0.28184450910E+03  0.82538298998E+02 0.  0.
         13    1    4    4    0    0 -0.16886440330E+02 -0.82301380141E+02  0.43124327229E+02  0.94437157089E+02  0.00000000000E+00 0. -1.
        -14    1    4    4    0    0 -0.96969648584E+02 -0.15993556989E+03 -0.11790518524E+02  0.18740735201E+03  0.00000000000E+00 0.  1.
        -13    1    3    3    0    0 -0.73047495026E+02  0.46104539752E+02 -0.84136095434E+02  0.12058377864E+03  0.00000000000E+00 0.  1.
         13    1    3    3    0    0 -0.55690605850E+01 -0.28333582986E+02 -0.16386252115E+01  0.28922161973E+02  0.00000000000E+00 0. -1.
         21    1    1    2  502  501  0.19247264453E+03  0.22446599326E+03  0.73474334926E+02  0.30467881271E+03  0.00000000000E+00 0.  1.
<scales pt_clust_5="13000.00000" pt_clust_6="13000.00000" pt_clust_7="13000.00000" pt_clust_8="13000.00000" pt_clust_9="279.69847"></scales>
<clustering>
<clus scale="   82.538">  5  6 -1 -1</clus>
<clus scale="   92.187">  7  8 -1 -1</clus>
<clus scale="  122.453">  2  7  1 -1</clus>
<clus scale="  279.698">  1  9  2 -1</clus>
<clus scale="  279.698">  1  5  2 -1</clus>
</clustering>
</event>
<event>
 9    1  0.2333971E-005  0.9310616E+02  0.7546771E-02  0.1304538E+00
         -2   -1    0    0    0  501 -0.00000000000E+00  0.00000000000E+00  0.13009696193E+03  0.13009696193E+03  0.00000000000E+00 0.  1.
          1   -1    0    0  502    0  0.00000000000E+00 -0.00000000000E+00 -0.28563319371E+03  0.28563319371E+03  0.00000000000E+00 0. -1.
        -24    2    1    2    0    0  0.31038499954E+02  0.30845285442E+02  0.90048511205E+02  0.12696619161E+03  0.78082388076E+02 0.  0.
         23    2    1    2    0    0 -0.59976982914E+01 -0.53168363094E+01 -0.23307000894E+03  0.25087779200E+03  0.92486735915E+02 0.  0.
         11    1    3    3    0    0  0.92925485578E+01  0.34212386344E+02  0.12416440050E+01  0.35473659494E+02  0.00000000000E+00 0. -1.
        -12    1    3    3    0    0  0.21745951396E+02 -0.33671009026E+01  0.88806867200E+02  0.91492532113E+02  0.00000000000E+00 0.  1.
        -13    1    4    4    0    0 -0.15644395247E+02 -0.44048915488E+02 -0.16939571744E+03  0.17572695623E+03  0.00000000000E+00 0. -1.
         13    1    4    4    0    0  0.96466969551E+01  0.38732079178E+02 -0.63674291492E+02  0.75150835768E+02  0.00000000000E+00 0.  1.
         21    1    1    2  502  501 -0.25040801663E+02 -0.25528449132E+02 -0.12514734046E+02  0.37886172032E+02  0.00000000000E+00 0. -1.
<scales pt_clust_5="13000.00000" pt_clust_6="13000.00000" pt_clust_7="13000.00000" pt_clust_8="13000.00000" pt_clust_9="35.75952"></scales>
<clustering>
<clus scale="   35.760">  1  9  2 -1</clus>
<clus scale="   78.082">  5  6 -1 -1</clus>
<clus scale="   78.815">  1  5  2 -1</clus>
<clus scale="   92.487">  7  8 -1 -1</clus>
<clus scale="   93.106">  2  5  1 -1</clus>
</clustering>
</event>
<event>
 9    1  0.2333971E-005  0.1085720E+03  0.7546771E-02  0.1267842E+00
         -2   -1    0    0    0  501 -0.00000000000E+00  0.00000000000E+00  0.16640891784E+03  0.16640891784E+03  0.00000000000E+00 0.  1.
          1   -1    0    0  502    0  0.00000000000E+00 -0.00000000000E+00 -0.19564269279E+03  0.19564269279E+03  0.00000000000E+00 0. -1.
         23    2    1    2    0    0 -0.60145232201E+02  0.76779072670E+01 -0.21849785283E+02  0.11328669055E+03  0.93166849915E+02 0.  0.
        -24    2    1    2    0    0  0.53219940876E+02  0.13568869974E+02 -0.10760595611E+03  0.14608177754E+03  0.82124098767E+02 0.  0.
         13    1    4    4    0    0  0.37469096706E+02  0.44974713042E+02 -0.88445479988E+02  0.10606253321E+03  0.00000000000E+00 0. -1.
        -14    1    4    4    0    0  0.15750844170E+02 -0.31405843068E+02 -0.19160476122E+02  0.40019244322E+02  0.00000000000E+00 0.  1.
        -13    1    3    3    0    0 -0.36839920112E+02 -0.25620532341E+02  0.24916757076E+02  0.51326758854E+02  0.00000000000E+00 0.  1.
         13    1    3    3    0    0 -0.23305312089E+02  0.33298439608E+02 -0.46766542359E+02  0.61959931699E+02  0.00000000000E+00 0. -1.
         21    1    1    2  502  501  0.69252913256E+01 -0.21246777241E+02  0.10022196644E+03  0.10268314254E+03  0.00000000000E+00 0.  1.
<scales pt_clust_5="13000.00000" pt_clust_6="13000.00000" pt_clust_7="13000.00000" pt_clust_8="13000.00000" pt_clust_9="22.34693"></scales>
<clustering>
<clus scale="   22.347">  1  9  2 -1</clus>
<clus scale="   82.124">  5  6 -1 -1</clus>
<clus scale="   93.167">  7  8 -1 -1</clus>
<clus scale="   99.258">  2  5  1 -1</clus>
<clus scale="   99.258">  2  5  1 -1</clus>
</clustering>
</event>
<event>
 9    1  0.2333971E-005  0.9450586E+02  0.7546771E-02  0.1297607E+00
          1   -1    0    0  502    0  0.00000000000E+00  0.00000000000E+00  0.25920695284E+03  0.25920695284E+03  0.00000000000E+00 0. -1.
         -2   -1    0    0    0  501 -0.00000000000E+00 -0.00000000000E+00 -0.20386974636E+03  0.20386974636E+03  0.00000000000E+00 0.  1.
        -24    2    1    2    0    0  0.12499919505E+02 -0.11767141803E+02 -0.13726685637E+03  0.16161621959E+03  0.83563741908E+02 0.  0.
         23    2    1    2    0    0  0.15253257454E+02 -0.14303796634E+02  0.22953853505E+03  0.24841250228E+03  0.92647567455E+02 0.  0.
         11    1    3    3    0    0  0.22326960255E+02 -0.45068723391E+02 -0.87685547915E+02  0.10108629133E+03  0.00000000000E+00 0. -1.
        -12    1    3    3    0    0 -0.98270407502E+01  0.33301581588E+02 -0.49581308457E+02  0.60529928254E+02  0.00000000000E+00 0.  1.
        -11    1    4    4    0    0 -0.26134190655E+02 -0.28753637633E+02  0.17054033322E+03  0.17491075683E+03  0.00000000000E+00 0. -1.
         11    1    4    4    0    0  0.41387448109E+02  0.14449840999E+02  0.58998201830E+02  0.73501745456E+02  0.00000000000E+00 0.  1.
         21    1    1    2  502  501 -0.27753176959E+02  0.26070938436E+02 -0.36934472201E+02  0.53047977332E+02  0.00000000000E+00 0.  1.
<scales pt_clust_5="13000.00000" pt_clust_6="13000.00000" pt_clust_7="13000.00000" pt_clust_8="13000.00000" pt_clust_9="38.07798"></scales>
<clustering>
<clus scale="   38.078">  2  9  1 -1</clus>
<clus scale="   83.564">  5  6 -1 -1</clus>
<clus scale="   85.619">  2  5  1 -1</clus>
<clus scale="   92.648">  7  8 -1 -1</clus>
<clus scale="   94.506">  1  5  2 -1</clus>
</clustering>
</event>
<event>
 9    1  0.2333971E-005  0.1294238E+03  0.7546771E-02  0.1229504E+00
         -2   -1    0    0    0  501 -0.00000000000E+00  0.00000000000E+00  0.15540688409E+03  0.15540688409E+03  0.00000000000E+00 0.  1.
          1   -1    0    0  502    0  0.00000000000E+00 -0.00000000000E+00 -0.21890499998E+03  0.21890499998E+03  0.00000000000E+00 0. -1.
        -24    2    1    2    0    0 -0.55746837964E+02 -0.21653773041E+01  0.39136412228E+02  0.11050767389E+03  0.86993611405E+02 0.  0.
         23    2    1    2    0    0  0.10415226242E+03 -0.17495993234E+02 -0.14136015311E+03  0.19877092147E+03  0.91506189885E+02 0.  0.
         13    1    3    3    0    0 -0.52154973338E+02 -0.38809105567E+02  0.15755269234E+02  0.66891826312E+02  0.00000000000E+00 0. -1.
        -14    1    3    3    0    0 -0.35918646268E+01  0.36643728263E+02  0.23381142994E+02  0.43615847581E+02  0.00000000000E+00 0.  1.
        -11    1    4    4    0    0  0.68234500981E+02 -0.24998589709E+02 -0.25138990282E+02  0.76895028733E+02  0.00000000000E+00 0.  1.
         11    1    4    4    0    0  0.35917761440E+02  0.75025964747E+01 -0.11622116283E+03  0.12187589273E+03  0.00000000000E+00 0. -1.
         21    1    1    2  502  501 -0.48405424456E+02  0.19661370538E+02  0.38725624991E+02  0.65033288700E+02  0.00000000000E+00 0.  1.
<scales pt_clust_5="13000.00000" pt_clust_6="13000.00000" pt_clust_7="13000.00000" pt_clust_8="13000.00000" pt_clust_9="52.24610"></scales>
<clustering>
<clus scale="   52.246">  1  9  2 -1</clus>
<clus scale="   86.994">  5  6 -1 -1</clus>
<clus scale="   91.506">  7  8 -1 -1</clus>
<clus scale="  126.274">  1  5  2 -1</clus>
<clus scale="  129.424">  2  5  1 -1</clus>
</clustering>
</event>
<event>
 9    1  0.2333971E-005  0.1017704E+03  0.7546771E-02  0.1278844E+00
         -2   -1    0    0    0  501 -0.00000000000E+00  0.00000000000E+00  0.29353114294E+02  0.29353114294E+02  0.00000000000E+00 0.  1.
          1   -1    0    0  502    0  0.00000000000E+00 -0.00000000000E+00 -0.52328715012E+03  0.52328715012E+03  0.00000000000E+00 0. -1.
         23    2    1    2    0    0  0.53003789840E+02  0.14536998384E+02 -0.20366419525E+03  0.22858286168E+03  0.88035755058E+02 0.  0.
        -24    2    1    2    0    0 -0.33243773589E+02 -0.40665006965E+02 -0.26511592623E+03  0.28275545991E+03  0.83098763469E+02 0.  0.
         13    1    4    4    0    0 -0.49383824924E+02 -0.49528109231E+02 -0.24779175577E+03  0.25747339668E+03  0.00000000000E+00 0. -1.
        -14    1    4    4    0    0  0.16140051335E+02  0.88631022667E+01 -0.17324170462E+02  0.25282063228E+02  0.00000000000E+00 0.  1.
        -11    1    3    3    0    0  0.15338257937E+02  0.32678104783E+02 -0.22230316410E+02  0.42394665424E+02  0.00000000000E+00 0.  1.
         11    1    3    3    0    0  0.37665531903E+02 -0.18141106399E+02 -0.18143387884E+03  0.18618819626E+03  0.00000000000E+00 0. -1.
         21    1    1    2  502  501 -0.19760016251E+02  0.26128008580E+02 -0.25153914346E+02  0.41301942830E+02  0.00000000000E+00 0.  1.
<scales pt_clust_5="13000.00000" pt_clust_6="13000.00000" pt_clust_7="13000.00000" pt_clust_8="13000.00000" pt_clust_9="32.75868"></scales>
<clustering>
<clus scale="   32.759">  1  9  2 -1</clus>
<clus scale="   83.099">  5  6 -1 -1</clus>
<clus scale="   88.036">  7  8 -1 -1</clus>
<clus scale="   97.531">  2  5  1 -1</clus>
<clus scale="   97.531">  2  5  1 -1</clus>
</clustering>
</event>
<event>
 9    1  0.2333971E-005  0.2679589E+03  0.7546771E-02  0.1102830E+00
         -4   -1    0    0    0  501 -0.00000000000E+00  0.00000000000E+00  0.94616220241E+02  0.94616220241E+02  0.00000000000E+00 0.  1.
          3   -1    0    0  502    0  0.00000000000E+00 -0.00000000000E+00 -0.11318147473E+04  0.11318147473E+04  0.00000000000E+00 0. -1.
        -24    2    1    2    0    0 -0.26832140723E+02  0.23907808773E+03 -0.20803290982E+03  0.32867051233E+03  0.82875317798E+02 0.  0.
         23    2    1    2    0    0  0.53439673021E+02 -0.25095405897E+03 -0.82448183853E+03  0.86824880917E+03  0.90840267531E+02 0.  0.
         13    1    3    3    0    0  0.28436215945E+02  0.50641616762E+02 -0.47493688616E+02  0.75025610187E+02  0.00000000000E+00 0. -1.
        -14    1    3    3    0    0 -0.55268356668E+02  0.18843647097E+03 -0.16053922121E+03  0.25364490215E+03  0.00000000000E+00 0.  1.
        -13    1    4    4    0    0  0.37166877420E+02 -0.15016224841E+03 -0.34617005111E+03  0.37916194681E+03  0.00000000000E+00 0.  1.
         13    1    4    4    0    0  0.16272795602E+02 -0.10079181055E+03 -0.47831178742E+03  0.48908686236E+03  0.00000000000E+00 0. -1.
         21    1    1    2  502  501 -0.26607532298E+02  0.11875971234E+02 -0.46837786931E+01  0.29511646016E+02  0.00000000000E+00 0.  1.
<scales pt_clust_5="13000.00000" pt_clust_6="13000.00000" pt_clust_7="13000.00000" pt_clust_8="13000.00000" pt_clust_9="29.13760"></scales>
<clustering>
<clus scale="   29.138">  1  9  2 -1</clus>
<clus scale="   82.875">  5  6 -1 -1</clus>
<clus scale="   90.840">  7  8 -1 -1</clus>
<clus scale="  265.365">  1  5  2 -1</clus>
<clus scale="  267.959">  2  5  1 -1</clus>
</clustering>
</event>
<event>
 9    1  0.2333971E-005  0.1590741E+03  0.7546771E-02  0.1191757E+00
         -2   -1    0    0    0  501 -0.00000000000E+00  0.00000000000E+00  0.49975990959E+03  0.49975990959E+03  0.00000000000E+00 0.  1.
          1   -1    0    0  502    0  0.00000000000E+00 -0.00000000000E+00 -0.10080044703E+03  0.10080044703E+03  0.00000000000E+00 0. -1.
        -24    2    1    2    0    0  0.68552114947E+02  0.10516620415E+03  0.33226561133E+03  0.36406940721E+03  0.79917293727E+02 0.  0.
         23    2    1    2    0    0 -0.48305259174E+02 -0.12159397986E+03 -0.49560081667E+01  0.16024457680E+03  0.92386516193E+02 0.  0.
         11    1    3    3    0    0 -0.40271530128E+01  0.52058299497E+02  0.73791963210E+02  0.90396561562E+02  0.00000000000E+00 0. -1.
        -12    1    3    3    0    0  0.72579267960E+02  0.53107904658E+02  0.25847364812E+03  0.27367284565E+03  0.00000000000E+00 0.  1.
        -13    1    4    4    0    0  0.23772086248E+02 -0.21155731251E+02  0.14723497462E+02  0.35063633966E+02  0.00000000000E+00 0.  1.
         13    1    4    4    0    0 -0.72077345422E+02 -0.10043824861E+03 -0.19679505629E+02  0.12518094283E+03  0.00000000000E+00 0. -1.
         21    1    1    2  502  501 -0.20246855773E+02  0.16427775704E+02  0.71649859400E+02  0.76246372604E+02  0.00000000000E+00 0.  1.
<scales pt_clust_5="13000.00000" pt_clust_6="13000.00000" pt_clust_7="13000.00000" pt_clust_8="13000.00000" pt_clust_9="26.07311"></scales>
<clustering>
<clus scale="   26.073">  1  9  2 -1</clus>
<clus scale="   79.917">  5  6 -1 -1</clus>
<clus scale="   92.387">  7  8 -1 -1</clus>
<clus scale="  152.171">  1  5  2 -1</clus>
<clus scale="  159.074">  2  5  1 -1</clus>
</clustering>
</event>
<event>
 9    1  0.2333971E-005  0.1054261E+03  0.7546771E-02  0.1276080E+00
         -2   -1    0    0    0  501 -0.00000000000E+00  0.00000000000E+00  0.16307206637E+03  0.16307206637E+03  0.00000000000E+00 0.  1.
          1   -1    0    0  502    0  0.00000000000E+00 -0.00000000000E+00 -0.31646050749E+03  0.31646050749E+03  0.00000000000E+00 0. -1.
        -24    2    1    2    0    0 -0.58636425833E+02  0.62997237555E+01  0.41207675906E+02  0.10753252099E+03  0.79920295070E+02 0.  0.
         23    2    1    2    0    0  0.35800362986E+02 -0.28853915878E+02 -0.27015568827E+03  0.28990604483E+03  0.94589663690E+02 0.  0.
         11    1    3    3    0    0 -0.62331051714E+02  0.72797848034E+01 -0.33186647925E+01  0.62842412514E+02  0.00000000000E+00 0. -1.
        -12    1    3    3    0    0  0.36946258810E+01 -0.98006104788E+00  0.44526340699E+02  0.44690108481E+02  0.00000000000E+00 0.  1.
        -13    1    4    4    0    0  0.16413219353E+02 -0.62912605398E+02 -0.14895577901E+03  0.16252757855E+03  0.00000000000E+00 0. -1.
         13    1    4    4    0    0  0.19387143633E+02  0.34058689520E+02 -0.12119990925E+03  0.12737846628E+03  0.00000000000E+00 0.  1.
         21    1    1    2  502  501  0.22836062847E+02  0.22554192123E+02  0.75559571244E+02  0.82094008035E+02  0.00000000000E+00 0.  1.
<scales pt_clust_5="13000.00000" pt_clust_6="13000.00000" pt_clust_7="13000.00000" pt_clust_8="13000.00000" pt_clust_9="32.09638"></scales>
<clustering>
<clus scale="   32.096">  1  9  2 -1</clus>
<clus scale="   79.920">  5  6 -1 -1</clus>
<clus scale="   92.492">  1  5  2 -1</clus>
<clus scale="   94.590">  7  8 -1 -1</clus>
<clus scale="  105.426">  2  5  1 -1</clus>
</clustering>
</event>
<event>
 9    1  0.2333971E-005  0.9384356E+02  0.7546771E-02  0.1300291E+00
          1   -1    0    0  502    0  0.00000000000E+00  0.00000000000E+00  0.32801136976E+03  0.32801136976E+03  0.00000000000E+00 0. -1.
         -2   -1    0    0    0  501 -0.00000000000E+00 -0.00000000000E+00 -0.74243333060E+02  0.74243333060E+02  0.00000000000E+00 0.  1.
         23    2    1    2    0    0 -0.13963212975E+02  0.21429134640E+01 -0.73754647285E+01  0.92500469749E+02  0.91117375012E+02 0.  0.
        -24    2    1    2    0    0 -0.27342262862E+02  0.29088780272E+01  0.25371277039E+03  0.26748274510E+03  0.80129820653E+02 0.  0.
         11    1    4    4    0    0 -0.52483504246E+02  0.17724219438E+02  0.17332651325E+03  0.18196358528E+03  0.00000000000E+00 0. -1.
        -12    1    4    4    0    0  0.25141241384E+02 -0.14815341411E+02  0.80386257133E+02  0.85519159814E+02  0.00000000000E+00 0.  1.
        -11    1    3    3    0    0  0.19809025669E+02 -0.31405962878E+02 -0.21422282841E+02  0.42867775827E+02  0.00000000000E+00 0.  1.
         11    1    3    3    0    0 -0.33772238644E+02  0.33548876342E+02  0.14046818112E+02  0.49632693922E+02  0.00000000000E+00 0. -1.
         21    1    1    2  502  501  0.41305475837E+02 -0.50517914912E+01  0.74307310366E+01  0.42271487969E+02  0.00000000000E+00 0. -1.
<scales pt_clust_5="13000.00000" pt_clust_6="13000.00000" pt_clust_7="13000.00000" pt_clust_8="13000.00000" pt_clust_9="41.61325"></scales>
<clustering>
<clus scale="   41.613">  2  9  1 -1</clus>
<clus scale="   80.130">  5  6 -1 -1</clus>
<clus scale="   83.217">  1  5  2 -1</clus>
<clus scale="   91.117">  7  8 -1 -1</clus>
<clus scale="   83.217">  1  5  2 -1</clus>
</clustering>
</event>
<event>
 9    1  0.2333971E-005  0.3691218E+03  0.7546771E-02  0.1055307E+00
          1   -1    0    0  502    0  0.00000000000E+00  0.00000000000E+00  0.18469606876E+04  0.18469606876E+04  0.00000000000E+00 0. -1.
         -2   -1    0    0    0  501 -0.00000000000E+00 -0.00000000000E+00 -0.22311827120E+03  0.22311827120E+03  0.00000000000E+00 0.  1.
         23    2    1    2    0    0  0.37619004053E+03  0.28271734110E+02 -0.20830096345E+01  0.38816360202E+03  0.91369609087E+02 0.  0.
        -24    2    1    2    0    0 -0.35334391675E+03 -0.40145017186E+02  0.16119963027E+04  0.16526418073E+04  0.78926025112E+02 0.  0.
         11    1    4    4    0    0 -0.17180917730E+03  0.20074774496E+02  0.75495937717E+03  0.77452246653E+03  0.00000000000E+00 0. -1.
        -12    1    4    4    0    0 -0.18153473944E+03 -0.60219791682E+02  0.85703692550E+03  0.87811934075E+03  0.00000000000E+00 0.  1.
        -11    1    3    3    0    0  0.57215592350E+02 -0.27440024202E+02  0.94498087700E+01  0.64155107529E+02  0.00000000000E+00 0. -1.
         11    1    3    3    0    0  0.31897444818E+03  0.55711758313E+02 -0.11532818405E+02  0.32400849450E+03  0.00000000000E+00 0.  1.
         21    1    1    2  502  501 -0.22846123782E+02  0.11873283075E+02  0.13929123363E+02  0.29273549503E+02  0.00000000000E+00 0. -1.
<scales pt_clust_5="13000.00000" pt_clust_6="13000.00000" pt_clust_7="13000.00000" pt_clust_8="13000.00000" pt_clust_9="25.74724"></scales>
<clustering>
<clus scale="   25.747">  2  9  1 -1</clus>
<clus scale="   78.926">  5  6 -1 -1</clus>
<clus scale="   91.370">  7  8 -1 -1</clus>
<clus scale="  366.240">  1  5  2 -1</clus>
<clus scale="  366.240">  1  5  2 -1</clus>
</clustering>
</event>
<event>
 9    1  0.2333971E-005  0.1127986E+03  0.7546771E-02  0.1262124E+00
          1   -1    0    0  502    0  0.00000000000E+00  0.00000000000E+00  0.63794791084E+02  0.63794791084E+02  0.00000000000E+00 0. -1.
         -2   -1    0    0    0  501 -0.00000000000E+00 -0.00000000000E+00 -0.50263149347E+03  0.50263149347E+03  0.00000000000E+00 0.  1.
        -24    2    1    2    0    0  0.68478847509E+02 -0.58766620545E+01 -0.30553457991E+03  0.32331203457E+03  0.80345531687E+02 0.  0.
         23    2    1    2    0    0 -0.49179281947E+02  0.28175938111E+02 -0.59667171769E+01  0.11240833434E+03  0.96889352630E+02 0.  0.
         13    1    3    3    0    0  0.35658471248E+02  0.16239946691E+02 -0.44489397791E+02  0.59283800115E+02  0.00000000000E+00 0. -1.
        -14    1    3    3    0    0  0.32820376261E+02 -0.22116608746E+02 -0.26104518212E+03  0.26402823445E+03  0.00000000000E+00 0.  1.
        -11    1    4    4    0    0  0.27419300688E+02  0.19927567193E+02 -0.97618773297E+01  0.35273506112E+02  0.00000000000E+00 0.  1.
         11    1    4    4    0    0 -0.76598582635E+02  0.82483709175E+01  0.37951601528E+01  0.77134828223E+02  0.00000000000E+00 0. -1.
         21    1    1    2  502  501 -0.19299565562E+02 -0.22299276056E+02 -0.12733540530E+03  0.13070591565E+03  0.00000000000E+00 0.  1.
<scales pt_clust_5="13000.00000" pt_clust_6="13000.00000" pt_clust_7="13000.00000" pt_clust_8="13000.00000" pt_clust_9="29.49120"></scales>
<clustering>
<clus scale="   29.491">  2  9  1 -1</clus>
<clus scale="   80.346">  5  6 -1 -1</clus>
<clus scale="   96.889">  7  8 -1 -1</clus>
<clus scale="   98.951">  2  5  1 -1</clus>
<clus scale="  112.799">  1  5  2 -1</clus>
</clustering>
</event>
<event>
 9    1  0.2333971E-005  0.1041265E+03  0.7546771E-02  0.1276026E+00
         -2   -1    0    0    0  501 -0.00000000000E+00  0.00000000000E+00  0.91682368469E+01  0.91682368469E+01  0.00000000000E+00 0.  1.
          1   -1    0    0  502    0  0.00000000000E+00 -0.00000000000E+00 -0.15599747331E+04  0.15599747331E+04  0.00000000000E+00 0. -1.
         23    2    1    2    0    0  0.22897474101E+02 -0.42818773024E+02 -0.54475217838E+03  0.55428735582E+03  0.90121003837E+02 0.  0.
        -24    2    1    2    0    0  0.20721610481E+01  0.61859474269E+02 -0.79432342362E+03  0.80080888426E+03  0.80711085929E+02 0.  0.
         11    1    4    4    0    0 -0.26062558090E+02  0.20156652683E+02 -0.11503747922E+03  0.11966273107E+03  0.00000000000E+00 0. -1.
        -12    1    4    4    0    0  0.28134719139E+02  0.41702821587E+02 -0.67928594439E+03  0.68114615319E+03  0.00000000000E+00 0.  1.
        -11    1    3    3    0    0  0.57855306482E+02 -0.26972259038E+02 -0.35471950415E+03  0.36041734957E+03  0.00000000000E+00 0.  1.
         11    1    3    3    0    0 -0.34957832380E+02 -0.15846513986E+02 -0.19003267423E+03  0.19387000625E+03  0.00000000000E+00 0. -1.
         21    1    1    2  502  501 -0.24969635150E+02 -0.19040701245E+02 -0.21173089424E+03  0.21404672985E+03  0.00000000000E+00 0. -1.
<scales pt_clust_5="13000.00000" pt_clust_6="13000.00000" pt_clust_7="13000.00000" pt_clust_8="13000.00000" pt_clust_9="31.40113"></scales>
<clustering>
<clus scale="   31.401">  2  9  1 -1</clus>
<clus scale="   80.711">  5  6 -1 -1</clus>
<clus scale="   90.121">  7  8 -1 -1</clus>
<clus scale="   96.098">  2  5  1 -1</clus>
<clus scale="   31.401">  2  5  1 -1</clus>
</clustering>
</event>
<event>
 9    1  0.2333971E-005  0.2422472E+03  0.7546771E-02  0.1118861E+00
         -2   -1    0    0    0  501 -0.00000000000E+00  0.00000000000E+00  0.31552809149E+03  0.31552809149E+03  0.00000000000E+00 0.  1.
          1   -1    0    0  502    0  0.00000000000E+00 -0.00000000000E+00 -0.28906883369E+03  0.28906883369E+03  0.00000000000E+00 0. -1.
         23    2    1    2    0    0  0.14571272229E+03  0.16140595709E+03  0.72941330848E+02  0.24669344357E+03  0.90846777228E+02 0.  0.
        -24    2    1    2    0    0 -0.17516008981E+03 -0.14679367472E+03 -0.12488958419E+03  0.27288346014E+03  0.81477202814E+02 0.  0.
         13    1    4    4    0    0 -0.82550939663E+02 -0.10591816839E+03 -0.10318732327E+03  0.16935447947E+03  0.00000000000E+00 0. -1.
        -14    1    4    4    0    0 -0.92609150146E+02 -0.40875506330E+02 -0.21702260920E+02  0.10352898066E+03  0.00000000000E+00 0.  1.
        -11    1    3    3    0    0 -0.54615195152E+00  0.33170369037E+02  0.35536217333E+02  0.48614755027E+02  0.00000000000E+00 0.  1.
         11    1    3    3    0    0  0.14625887424E+03  0.12823558805E+03  0.37405113516E+02  0.19807868854E+03  0.00000000000E+00 0. -1.
         21    1    1    2  502  501  0.29447367522E+02 -0.14612282369E+02  0.78407511136E+02  0.85020021480E+02  0.00000000000E+00 0.  1.
<scales pt_clust_5="13000.00000" pt_clust_6="13000.00000" pt_clust_7="13000.00000" pt_clust_8="13000.00000" pt_clust_9="32.87349"></scales>
<clustering>
<clus scale="   32.873">  1  9  2 -1</clus>
<clus scale="   81.477">  5  6 -1 -1</clus>
<clus scale="   90.847">  7  8 -1 -1</clus>
<clus scale="  238.891">  2  5  1 -1</clus>
<clus scale="  238.891">  2  5  1 -1</clus>
</clustering>
</event>
<event>
 9    1  0.2333971E-005  0.1094004E+03  0.7546771E-02  0.1267853E+00
          1   -1    0    0  502    0  0.00000000000E+00  0.00000000000E+00  0.24126837279E+03  0.24126837279E+03  0.00000000000E+00 0. -1.
         -2   -1    0    0    0  501 -0.00000000000E+00 -0.00000000000E+00 -0.15758374327E+03  0.15758374327E+03  0.00000000000E+00 0.  1.
        -24    2    1    2    0    0 -0.29757799231E+02 -0.22363515193E+02 -0.11320557384E+03  0.14287614770E+03  0.78819021853E+02 0.  0.
         23    2    1    2    0    0  0.53944733900E+02  0.23319249133E+02  0.20286734925E+03  0.23104310834E+03  0.93658607858E+02 0.  0.
         11    1    3    3    0    0  0.21021701037E+02 -0.28984137684E+02 -0.42455363208E+02  0.55537825101E+02  0.00000000000E+00 0. -1.
        -12    1    3    3    0    0 -0.50779500269E+02  0.66206224911E+01 -0.70750210629E+02  0.87338322596E+02  0.00000000000E+00 0.  1.
        -13    1    4    4    0    0  0.19177312212E+02 -0.33343979159E+02  0.11223337774E+03  0.11864198805E+03  0.00000000000E+00 0.  1.
         13    1    4    4    0    0  0.34767421688E+02  0.56663228292E+02  0.90633971505E+02  0.11240112029E+03  0.00000000000E+00 0. -1.
         21    1    1    2  502  501 -0.24186934669E+02 -0.95573393983E+00 -0.59771458895E+01  0.24932860025E+02  0.00000000000E+00 0. -1.
<scales pt_clust_5="13000.00000" pt_clust_6="13000.00000" pt_clust_7="13000.00000" pt_clust_8="13000.00000" pt_clust_9="24.20581"></scales>
<clustering>
<clus scale="   24.206">  2  9  1 -1</clus>
<clus scale="   78.819">  5  6 -1 -1</clus>
<clus scale="   93.659">  7  8 -1 -1</clus>
<clus scale="   97.000">  2  5  1 -1</clus>
<clus scale="  109.400">  1  5  2 -1</clus>
</clustering>
</event>
<event>
 9    1  0.2333971E-005  0.1553554E+03  0.7546771E-02  0.1195421E+00
          1   -1    0    0  502    0  0.00000000000E+00  0.00000000000E+00  0.35164333734E+03  0.35164333734E+03  0.00000000000E+00 0. -1.
         -2   -1    0    0    0  501 -0.00000000000E+00 -0.00000000000E+00 -0.13832856042E+03  0.13832856042E+03  0.00000000000E+00 0.  1.
        -24    2    1    2    0    0  0.10657623644E+03 -0.16259133358E+02  0.28434767255E+02  0.13858652398E+03  0.82309386149E+02 0.  0.
         23    2    1    2    0    0 -0.13096984716E+03  0.31721894797E+02  0.23965983208E+03  0.28945820544E+03  0.90497724331E+02 0.  0.
         13    1    3    3    0    0  0.46180836340E+02 -0.46034150925E+02 -0.71953987263E+00  0.65209895216E+02  0.00000000000E+00 0. -1.
        -14    1    3    3    0    0  0.60395400099E+02  0.29775017567E+02  0.29154307128E+02  0.73376628761E+02  0.00000000000E+00 0.  1.
        -11    1    4    4    0    0 -0.48020679812E+02 -0.19200838986E+02  0.33897411997E+02  0.61836012545E+02  0.00000000000E+00 0.  1.
         11    1    4    4    0    0 -0.82949167344E+02  0.50922733783E+02  0.20576242008E+03  0.22762219289E+03  0.00000000000E+00 0. -1.
         21    1    1    2  502  501  0.24393610717E+02 -0.15462761439E+02 -0.54779822420E+02  0.61927168347E+02  0.00000000000E+00 0. -1.
<scales pt_clust_5="13000.00000" pt_clust_6="13000.00000" pt_clust_7="13000.00000" pt_clust_8="13000.00000" pt_clust_9="28.88157"></scales>
<clustering>
<clus scale="   28.882">  2  9  1 -1</clus>
<clus scale="   82.309">  5  6 -1 -1</clus>
<clus scale="   90.498">  7  8 -1 -1</clus>
<clus scale="  150.733">  2  5  1 -1</clus>
<clus scale="  155.355">  1  5  2 -1</clus>
</clustering>
</event>
<event>
 9    1  0.2333971E-005  0.9817356E+02  0.7546771E-02  0.1289014E+00
         -2   -1    0    0    0  501 -0.00000000000E+00  0.00000000000E+00  0.37039294281E+03  0.37039294281E+03  0.00000000000E+00 0.  1.
          1   -1    0    0  502    0  0.00000000000E+00 -0.00000000000E+00 -0.66758648206E+02  0.66758648206E+02  0.00000000000E+00 0. -1.
         23    2    1    2    0    0 -0.25035758629E+01  0.22413270163E+02  0.25180576823E+03  0.26846676314E+03  0.90330700364E+02 0.  0.
        -24    2    1    2    0    0  0.15947597634E+02 -0.37524762734E+02 -0.21034034329E+02  0.93067027842E+02  0.80972880538E+02 0.  0.
         13    1    4    4    0    0 -0.29722453721E+02 -0.23000292682E+02 -0.24748618823E+02  0.44999242797E+02  0.00000000000E+00 0. -1.
        -14    1    4    4    0    0  0.45670051355E+02 -0.14524470052E+02  0.37145844943E+01  0.48067785044E+02  0.00000000000E+00 0.  1.
        -11    1    3    3    0    0 -0.28469450631E+02  0.42813542165E+02  0.93019372965E+02  0.10628317251E+03  0.00000000000E+00 0. -1.
         11    1    3    3    0    0  0.25965874768E+02 -0.20400272001E+02  0.15878639526E+03  0.16218359063E+03  0.00000000000E+00 0.  1.
         21    1    1    2  502  501 -0.13444021771E+02  0.15111492571E+02  0.72862560706E+02  0.75617800032E+02  0.00000000000E+00 0. -1.
<scales pt_clust_5="13000.00000" pt_clust_6="13000.00000" pt_clust_7="13000.00000" pt_clust_8="13000.00000" pt_clust_9="20.22619"></scales>
<clustering>
<clus scale="   20.226">  1  9  2 -1</clus>
<clus scale="   80.973">  5  6 -1 -1</clus>
<clus scale="   89.638">  2  5  1 -1</clus>
<clus scale="   90.331">  7  8 -1 -1</clus>
<clus scale="   89.638">  2  5  1 -1</clus>
</clustering>
</event>
<event>
 9    1  0.2333971E-005  0.1182539E+03  0.7546771E-02  0.1249271E+00
          1   -1    0    0  502    0  0.00000000000E+00  0.00000000000E+00  0.43784733548E+03  0.43784733548E+03  0.00000000000E+00 0. -1.
         -2   -1    0    0    0  501 -0.00000000000E+00 -0.00000000000E+00 -0.62336041256E+02  0.62336041256E+02  0.00000000000E+00 0.  1.
        -24    2    1    2    0    0  0.16915309461E+02 -0.93821527425E+02  0.41042746253E+02  0.13155909230E+03  0.80837374058E+02 0.  0.
         23    2    1    2    0    0 -0.12304932796E+02  0.70275906873E+02  0.32091288721E+03  0.34106693044E+03  0.90837522034E+02 0.  0.
         11    1    3    3    0    0  0.37307920139E+02 -0.10328441219E+02  0.83340162404E+01  0.39598149323E+02  0.00000000000E+00 0. -1.
        -12    1    3    3    0    0 -0.20392610678E+02 -0.83493086207E+02  0.32708730013E+02  0.91960942979E+02  0.00000000000E+00 0.  1.
        -13    1    4    4    0    0 -0.44911709273E+02  0.69216150857E+02  0.21720779609E+03  0.23235138014E+03  0.00000000000E+00 0. -1.
         13    1    4    4    0    0  0.32606776477E+02  0.10597560161E+01  0.10370509111E+03  0.10871555030E+03  0.00000000000E+00 0.  1.
         21    1    1    2  502  501 -0.46103766650E+01  0.23545620552E+02  0.13555660765E+02  0.27557353991E+02  0.00000000000E+00 0. -1.
<scales pt_clust_5="13000.00000" pt_clust_6="13000.00000" pt_clust_7="13000.00000" pt_clust_8="13000.00000" pt_clust_9="23.99275"></scales>
<clustering>
<clus scale="   23.993">  2  9  1 -1</clus>
<clus scale="   80.837">  5  6 -1 -1</clus>
<clus scale="   90.838">  7  8 -1 -1</clus>
<clus scale="  110.757">  2  5  1 -1</clus>
<clus scale="  118.254">  1  5  2 -1</clus>
</clustering>
</event>
<event>
 9    1  0.2333971E-005  0.9454549E+02  0.7546771E-02  0.1302356E+00
          1   -1    0    0  502    0  0.00000000000E+00  0.00000000000E+00  0.26334202851E+03  0.26334202851E+03  0.00000000000E+00 0. -1.
         -2   -1    0    0    0  501 -0.00000000000E+00 -0.00000000000E+00 -0.12730345248E+03  0.12730345248E+03  0.00000000000E+00 0.  1.
        -24    2    1    2    0    0  0.97391990843E+01 -0.93227151151E+01 -0.70966130089E+02  0.10391325371E+03  0.74699448872E+02 0.  0.
         23    2    1    2    0    0  0.12332812700E+02  0.22583597523E+02  0.23206966742E+03  0.25079788449E+03  0.91548518206E+02 0.  0.
         11    1    3    3    0    0  0.17538788441E+02 -0.10330261353E+02  0.99215106378E+01  0.22644199543E+02  0.00000000000E+00 0. -1.
        -12    1    3    3    0    0 -0.77995893567E+01  0.10075462377E+01 -0.80887640727E+02  0.81269054172E+02  0.00000000000E+00 0.  1.
        -11    1    4    4    0    0 -0.32528321156E+01 -0.26550026443E+02  0.15983304486E+03  0.16205581461E+03  0.00000000000E+00 0.  1.
         11    1    4    4    0    0  0.15585644816E+02  0.49133623966E+02  0.72236622558E+02  0.88742069882E+02  0.00000000000E+00 0. -1.
         21    1    1    2  502  501 -0.22072011784E+02 -0.13260882408E+02 -0.25064961293E+02  0.35934342780E+02  0.00000000000E+00 0.  1.
<scales pt_clust_5="13000.00000" pt_clust_6="13000.00000" pt_clust_7="13000.00000" pt_clust_8="13000.00000" pt_clust_9="25.74927"></scales>
<clustering>
<clus scale="   25.749">  2  9  1 -1</clus>
<clus scale="   74.699">  5  6 -1 -1</clus>
<clus scale="   78.344">  2  5  1 -1</clus>
<clus scale="   91.549">  7  8 -1 -1</clus>
<clus scale="   94.545">  1  5  2 -1</clus>
</clustering>
</event>
<event>
 9    1  0.2333971E-005  0.9039623E+02  0.7546771E-02  0.1311224E+00
         -2   -1    0    0    0  501 -0.00000000000E+00  0.00000000000E+00  0.35041734376E+02  0.35041734376E+02  0.00000000000E+00 0.  1.
          1   -1    0    0  502    0  0.00000000000E+00 -0.00000000000E+00 -0.37700211337E+03  0.37700211337E+03  0.00000000000E+00 0. -1.
        -24    2    1    2    0    0 -0.87850043852E+01  0.45132158369E+01 -0.37649495258E+02  0.83542592620E+02  0.73921139529E+02 0.  0.
         23    2    1    2    0    0 -0.20792199670E+01 -0.23088272826E+02 -0.28595740206E+03  0.30021849708E+03  0.88442742488E+02 0.  0.
         13    1    3    3    0    0 -0.12629433294E+01 -0.34166535472E+02 -0.10780076211E+02  0.35849089460E+02  0.00000000000E+00 0. -1.
        -14    1    3    3    0    0 -0.75220610558E+01  0.38679751308E+02 -0.26869419047E+02  0.47693503161E+02  0.00000000000E+00 0.  1.
        -11    1    4    4    0    0 -0.16033356915E+02  0.27606131701E+02 -0.57295343309E+02  0.65589049439E+02  0.00000000000E+00 0.  1.
         11    1    4    4    0    0  0.13954136948E+02 -0.50694404527E+02 -0.22866205875E+03  0.23462944764E+03  0.00000000000E+00 0. -1.
         21    1    1    2  502  501  0.10864224352E+02  0.18575056989E+02 -0.18353481673E+02  0.28282758042E+02  0.00000000000E+00 0.  1.
<scales pt_clust_5="13000.00000" pt_clust_6="13000.00000" pt_clust_7="13000.00000" pt_clust_8="13000.00000" pt_clust_9="21.51892"></scales>
<clustering>
<clus scale="   21.519">  1  9  2 -1</clus>
<clus scale="   73.921">  5  6 -1 -1</clus>
<clus scale="   76.248">  1  5  2 -1</clus>
<clus scale="   88.443">  7  8 -1 -1</clus>
<clus scale="   90.396">  2  5  1 -1</clus>
</clustering>
</event>
<event>
 9    1  0.2333971E-005  0.9535597E+02  0.7546771E-02  0.1296271E+00
         -2   -1    0    0    0  501 -0.00000000000E+00  0.00000000000E+00  0.26487910697E+03  0.26487910697E+03  0.00000000000E+00 0.  1.
          1   -1    0    0  502    0  0.00000000000E+00 -0.00000000000E+00 -0.49178536414E+02  0.49178536414E+02  0.00000000000E+00 0. -1.
        -24    2    1    2    0    0 -0.13532178879E+02  0.31627134999E+02  0.14904979353E+03  0.17303132647E+03  0.80873997393E+02 0.  0.
         23    2    1    2    0    0 -0.67203271289E+01 -0.25864932354E+02  0.31774107041E+02  0.10028629865E+03  0.91288500353E+02 0.  0.
         11    1    3    3    0    0  0.19079653636E+02  0.46169083567E+02  0.10538162717E+03  0.11662291716E+03  0.00000000000E+00 0. -1.
        -12    1    3    3    0    0 -0.32611832515E+02 -0.14541948568E+02  0.43668166360E+02  0.56408409315E+02  0.00000000000E+00 0.  1.
        -11    1    4    4    0    0 -0.26337852789E+02  0.51263898214E+00  0.54356971512E+02  0.60403854515E+02  0.00000000000E+00 0.  1.
         11    1    4    4    0    0  0.19617525660E+02 -0.26377571336E+02 -0.22582864471E+02  0.39882444137E+02  0.00000000000E+00 0. -1.
         21    1    1    2  502  501  0.20252506007E+02 -0.57622026446E+01  0.34876669983E+02  0.40740018262E+02  0.00000000000E+00 0. -1.
<scales pt_clust_5="13000.00000" pt_clust_6="13000.00000" pt_clust_7="13000.00000" pt_clust_8="13000.00000" pt_clust_9="21.05628"></scales>
<clustering>
<clus scale="   21.056">  1  9  2 -1</clus>
<clus scale="   80.874">  5  6 -1 -1</clus>
<clus scale="   85.439">  1  5  2 -1</clus>
<clus scale="   91.289">  7  8 -1 -1</clus>
<clus scale="   95.356">  2  5  1 -1</clus>
</clustering>
</event>
<event>
 9    1  0.2333971E-005  0.1083714E+03  0.7546771E-02  0.1268440E+00
         -2   -1    0    0    0  501 -0.00000000000E+00  0.00000000000E+00  0.14947162779E+03  0.14947162779E+03  0.00000000000E+00 0.  1.
          1   -1    0    0  502    0  0.00000000000E+00 -0.00000000000E+00 -0.36688062343E+03  0.36688062343E+03  0.00000000000E+00 0. -1.
         23    2    1    2    0    0  0.37868722673E+02 -0.32885672194E+02 -0.42866414866E+02  0.11085941644E+03  0.89088568834E+02 0.  0.
        -24    2    1    2    0    0 -0.35734987934E+02  0.54415620960E+02 -0.28012593718E+03  0.29771557990E+03  0.76980365450E+02 0.  0.
         11    1    4    4    0    0  0.28684056149E+01  0.54503329527E+02 -0.10447058642E+03  0.11786833378E+03  0.00000000000E+00 0. -1.
        -12    1    4    4    0    0 -0.38603393549E+02 -0.87708567289E-01 -0.17565535076E+03  0.17984724612E+03  0.00000000000E+00 0.  1.
        -13    1    3    3    0    0 -0.12562014397E+02 -0.35904152188E+02  0.83224921245E+01  0.38938107622E+02  0.00000000000E+00 0.  1.
         13    1    3    3    0    0  0.50430737070E+02  0.30184799933E+01 -0.51188906991E+02  0.71921308816E+02  0.00000000000E+00 0. -1.
         21    1    1    2  502  501 -0.21337347390E+01 -0.21529948766E+02  0.10558335641E+03  0.10777725488E+03  0.00000000000E+00 0.  1.
<scales pt_clust_5="13000.00000" pt_clust_6="13000.00000" pt_clust_7="13000.00000" pt_clust_8="13000.00000" pt_clust_9="21.63542"></scales>
<clustering>
<clus scale="   21.635">  1  9  2 -1</clus>
<clus scale="   76.980">  5  6 -1 -1</clus>
<clus scale="   89.089">  7  8 -1 -1</clus>
<clus scale="   98.659">  2  5  1 -1</clus>
<clus scale="   98.659">  2  5  1 -1</clus>
</clustering>
</event>
<event>
 9    1  0.2333971E-005  0.1186030E+03  0.7546771E-02  0.1248479E+00
         -2   -1    0    0    0  501 -0.00000000000E+00  0.00000000000E+00  0.25966233316E+03  0.25966233316E+03  0.00000000000E+00 0.  1.
          1   -1    0    0  502    0  0.00000000000E+00 -0.00000000000E+00 -0.23755212591E+03  0.23755212591E+03  0.00000000000E+00 0. -1.
         23    2    1    2    0    0 -0.92226584582E+02 -0.34924626852E+02  0.18280112348E+03  0.22670581740E+03  0.90850450911E+02 0.  0.
        -24    2    1    2    0    0  0.64354475075E+02  0.38031987836E+02 -0.19624308811E+03  0.22522655795E+03  0.81410823694E+02 0.  0.
         11    1    4    4    0    0  0.58367549766E+02  0.61504702177E+02 -0.16666947020E+03  0.18699815922E+03  0.00000000000E+00 0. -1.
        -12    1    4    4    0    0  0.59869253089E+01 -0.23472714340E+02 -0.29573617914E+02  0.38228398733E+02  0.00000000000E+00 0.  1.
        -11    1    3    3    0    0 -0.76431275668E+02 -0.64857299630E+02  0.13619743971E+03  0.16910928951E+03  0.00000000000E+00 0.  1.
         11    1    3    3    0    0 -0.15795308914E+02  0.29932672778E+02  0.46603683773E+02  0.57596527886E+02  0.00000000000E+00 0. -1.
         21    1    1    2  502  501  0.27872109507E+02 -0.31073609846E+01  0.35552171876E+02  0.45282083717E+02  0.00000000000E+00 0.  1.
<scales pt_clust_5="13000.00000" pt_clust_6="13000.00000" pt_clust_7="13000.00000" pt_clust_8="13000.00000" pt_clust_9="28.04479"></scales>
<clustering>
<clus scale="   28.045">  1  9  2 -1</clus>
<clus scale="   81.411">  5  6 -1 -1</clus>
<clus scale="   90.850">  7  8 -1 -1</clus>
<clus scale="  111.537">  2  5  1 -1</clus>
<clus scale="  111.537">  2  5  1 -1</clus>
</clustering>
</event>
<event>
 9    1  0.2333971E-005  0.9556929E+02  0.7546771E-02  0.1295102E+00
         -2   -1    0    0    0  501 -0.00000000000E+00  0.00000000000E+00  0.19422109122E+03  0.19422109122E+03  0.00000000000E+00 0.  1.
          1   -1    0    0  502    0  0.00000000000E+00 -0.00000000000E+00 -0.26508111286E+03  0.26508111286E+03  0.00000000000E+00 0. -1.
        -24    2    1    2    0    0 -0.16670789024E+02  0.27809228281E+02  0.16364187476E+03  0.18545148983E+03  0.81008169473E+02 0.  0.
         23    2    1    2    0    0  0.17836743956E+02  0.89462908086E+01 -0.21043337547E+03  0.22990049998E+03  0.90409340364E+02 0.  0.
         13    1    3    3    0    0  0.30748459992E+02  0.10244595977E+02  0.93679059057E+02  0.99127118612E+02  0.00000000000E+00 0. -1.
        -14    1    3    3    0    0 -0.47419249016E+02  0.17564632304E+02  0.69962815700E+02  0.86324371216E+02  0.00000000000E+00 0.  1.
        -13    1    4    4    0    0  0.48702933156E+02 -0.17607661795E+02 -0.12255149973E+03  0.13304463739E+03  0.00000000000E+00 0.  1.
         13    1    4    4    0    0 -0.30866189201E+02  0.26553952604E+02 -0.87881875744E+02  0.96855862594E+02  0.00000000000E+00 0. -1.
         21    1    1    2  502  501 -0.11659549316E+01 -0.36755519089E+02 -0.24068520929E+02  0.43950214267E+02  0.00000000000E+00 0.  1.
<scales pt_clust_5="13000.00000" pt_clust_6="13000.00000" pt_clust_7="13000.00000" pt_clust_8="13000.00000" pt_clust_9="36.77401"></scales>
<clustering>
<clus scale="   36.774">  2  9  1 -1</clus>
<clus scale="   81.008">  5  6 -1 -1</clus>
<clus scale="   86.729">  1  5  2 -1</clus>
<clus scale="   90.409">  7  8 -1 -1</clus>
<clus scale="   36.774">  2  5  1 -1</clus>
</clustering>
</event>
<event>
 9    1  0.2333971E-005  0.9863917E+02  0.7546771E-02  0.1284259E+00
          1   -1    0    0  502    0  0.00000000000E+00  0.00000000000E+00  0.15526544862E+03  0.15526544862E+03  0.00000000000E+00 0. -1.
         -2   -1    0    0    0  501 -0.00000000000E+00 -0.00000000000E+00 -0.16432005233E+03  0.16432005233E+03  0.00000000000E+00 0.  1.
        -24    2    1    2    0    0 -0.22333362341E+02 -0.38580568340E+02 -0.10769130022E+03  0.14578747607E+03  0.87574726427E+02 0.  0.
         23    2    1    2    0    0 -0.14810196044E+02  0.28528859262E+02  0.95884879825E+02  0.13522013899E+03  0.89762676503E+02 0.  0.
         11    1    3    3    0    0  0.33488323596E+02 -0.13945727412E+02 -0.50341911892E+02  0.62050457075E+02  0.00000000000E+00 0. -1.
        -12    1    3    3    0    0 -0.55821685937E+02 -0.24634840927E+02 -0.57349388327E+02  0.83737018994E+02  0.00000000000E+00 0.  1.
        -11    1    4    4    0    0 -0.12039113079E+02 -0.32064143417E+02  0.40947930713E+02  0.53383354770E+02  0.00000000000E+00 0.  1.
         11    1    4    4    0    0 -0.27710829658E+01  0.60593002679E+02  0.54936949112E+02  0.81836784224E+02  0.00000000000E+00 0. -1.
         21    1    1    2  502  501  0.37143558386E+02  0.10051709078E+02  0.27518166866E+01  0.38577885894E+02  0.00000000000E+00 0. -1.
<scales pt_clust_5="13000.00000" pt_clust_6="13000.00000" pt_clust_7="13000.00000" pt_clust_8="13000.00000" pt_clust_9="38.47962"></scales>
<clustering>
<clus scale="   38.480">  1  9  2 -1</clus>
<clus scale="   87.575">  5  6 -1 -1</clus>
<clus scale="   89.763">  7  8 -1 -1</clus>
<clus scale="   96.652">  2  5  1 -1</clus>
<clus scale="   38.480">  1  5  2 -1</clus>
</clustering>
</event>
<event>
 9    1  0.2333971E-005  0.9935070E+02  0.7546771E-02  0.1290855E+00
          3   -1    0    0  502    0  0.00000000000E+00  0.00000000000E+00  0.32078681715E+02  0.32078681715E+02  0.00000000000E+00 0. -1.
         -4   -1    0    0    0  501 -0.00000000000E+00 -0.00000000000E+00 -0.55249720067E+03  0.55249720067E+03  0.00000000000E+00 0.  1.
        -24    2    1    2    0    0 -0.12758028750E+02 -0.18145110713E+02 -0.35044966526E+03  0.35990432079E+03  0.78893218385E+02 0.  0.
         23    2    1    2    0    0  0.39992400511E+02  0.37205754144E+02 -0.10688093427E+03  0.15336164145E+03  0.95459932519E+02 0.  0.
         13    1    3    3    0    0  0.11640587855E+02  0.27268572241E+02 -0.10541366677E+03  0.10950397006E+03  0.00000000000E+00 0. -1.
        -14    1    3    3    0    0 -0.24398616604E+02 -0.45413682954E+02 -0.24503599849E+03  0.25040035073E+03  0.00000000000E+00 0.  1.
        -11    1    4    4    0    0 -0.16628186409E+02 -0.20976197968E+02 -0.40232182781E+02  0.48323141410E+02  0.00000000000E+00 0.  1.
         11    1    4    4    0    0  0.56620586921E+02  0.58181952112E+02 -0.66648751491E+02  0.10503850004E+03  0.00000000000E+00 0. -1.
         21    1    1    2  502  501 -0.27234371761E+02 -0.19060643431E+02 -0.63087919425E+02  0.71309920142E+02  0.00000000000E+00 0. -1.
<scales pt_clust_5="13000.00000" pt_clust_6="13000.00000" pt_clust_7="13000.00000" pt_clust_8="13000.00000" pt_clust_9="33.24183"></scales>
<clustering>
<clus scale="   33.242">  1  9  2 -1</clus>
<clus scale="   78.893">  5  6 -1 -1</clus>
<clus scale="   83.559">  2  5  1 -1</clus>
<clus scale="   95.460">  7  8 -1 -1</clus>
<clus scale="   33.242">  1  5  2 -1</clus>
</clustering>
</event>
<event>
 9    1  0.2333971E-005  0.9705439E+02  0.7546771E-02  0.1292649E+00
          1   -1    0    0  502    0  0.00000000000E+00  0.00000000000E+00  0.33902718353E+03  0.33902718353E+03  0.00000000000E+00 0. -1.
         -2   -1    0    0    0  501 -0.00000000000E+00 -0.00000000000E+00 -0.22757620495E+03  0.22757620495E+03  0.00000000000E+00 0.  1.
        -24    2    1    2    0    0  0.40877300524E+01 -0.49883051960E+02 -0.17700732837E+03  0.20119919207E+03  0.81513754575E+02 0.  0.
         23    2    1    2    0    0 -0.11194629240E+02  0.26498106795E+02  0.31486550740E+03  0.32942220213E+03  0.92472861516E+02 0.  0.
         13    1    3    3    0    0 -0.83869336932E+01 -0.24612773160E+02 -0.44803142441E+01  0.26385649037E+02  0.00000000000E+00 0. -1.
        -14    1    3    3    0    0  0.12474663746E+02 -0.25270278800E+02 -0.17252701412E+03  0.17481354304E+03  0.00000000000E+00 0.  1.
        -11    1    4    4    0    0 -0.15487051047E+02  0.60420414911E+02  0.21502813288E+03  0.22389187841E+03  0.00000000000E+00 0. -1.
         11    1    4    4    0    0  0.42924218069E+01 -0.33922308116E+02  0.99837374516E+02  0.10553032371E+03  0.00000000000E+00 0.  1.
         21    1    1    2  502  501  0.71068991878E+01  0.23384945165E+02 -0.26407200452E+02  0.35981994277E+02  0.00000000000E+00 0.  1.
<scales pt_clust_5="13000.00000" pt_clust_6="13000.00000" pt_clust_7="13000.00000" pt_clust_8="13000.00000" pt_clust_9="24.44102"></scales>
<clustering>
<clus scale="   24.441">  2  9  1 -1</clus>
<clus scale="   81.514">  5  6 -1 -1</clus>
<clus scale="   86.677">  2  5  1 -1</clus>
<clus scale="   92.473">  7  8 -1 -1</clus>
<clus scale="   97.054">  1  5  2 -1</clus>
</clustering>
</event>
<event>
 9    1  0.2333971E-005  0.1185683E+03  0.7546771E-02  0.1248617E+00
         -2   -1    0    0    0  501 -0.00000000000E+00  0.00000000000E+00  0.20839662306E+03  0.20839662306E+03  0.00000000000E+00 0.  1.
          1   -1    0    0  502    0  0.00000000000E+00 -0.00000000000E+00 -0.24328652386E+03  0.24328652386E+03  0.00000000000E+00 0. -1.
        -24    2    1    2    0    0 -0.64874030119E+02  0.54243311991E+02  0.36802044124E+02  0.12303488683E+03  0.81438419963E+02 0.  0.
         23    2    1    2    0    0  0.75210144138E+00 -0.79699507538E+02 -0.16991552293E+03  0.20861696874E+03  0.91088844290E+02 0.  0.
         11    1    3    3    0    0 -0.34334888086E+02 -0.16289143403E+02  0.43519315513E+00  0.38005396009E+02  0.00000000000E+00 0. -1.
        -12    1    3    3    0    0 -0.30539142033E+02  0.70532455394E+02  0.36366850969E+02  0.85029490822E+02  0.00000000000E+00 0.  1.
        -11    1    4    4    0    0  0.39212906438E+02 -0.11420963311E+02 -0.76187981898E+02  0.86444774393E+02  0.00000000000E+00 0.  1.
         11    1    4    4    0    0 -0.38460804996E+02 -0.68278544227E+02 -0.93727541031E+02  0.12217219434E+03  0.00000000000E+00 0. -1.
         21    1    1    2  502  501  0.64121928678E+02  0.25456195547E+02  0.98223577998E+02  0.12003129135E+03  0.00000000000E+00 0.  1.
<scales pt_clust_5="13000.00000" pt_clust_6="13000.00000" pt_clust_7="13000.00000" pt_clust_8="13000.00000" pt_clust_9="68.99014"></scales>
<clustering>
<clus scale="   68.990">  1  9  2 -1</clus>
<clus scale="   81.438">  5  6 -1 -1</clus>
<clus scale="   91.089">  7  8 -1 -1</clus>
<clus scale="  111.326">  1  5  2 -1</clus>
<clus scale="  118.568">  2  5  1 -1</clus>
</clustering>
</event>
<event>
 9    1  0.2333971E-005  0.1130280E+03  0.7546771E-02  0.1258956E+00
          1   -1    0    0  502    0  0.00000000000E+00  0.00000000000E+00  0.38449945101E+03  0.38449945101E+03  0.00000000000E+00 0. -1.
         -2   -1    0    0    0  501 -0.00000000000E+00 -0.00000000000E+00 -0.51391845622E+02  0.51391845622E+02  0.00000000000E+00 0.  1.
        -24    2    1    2    0    0 -0.75996265728E+02  0.25991563287E+02  0.10060318835E+03  0.15281383751E+03  0.82341202700E+02 0.  0.
         23    2    1    2    0    0  0.48755915403E+02 -0.31162354201E+02  0.23070523132E+03  0.25529237618E+03  0.92741910558E+02 0.  0.
         13    1    3    3    0    0 -0.62388042635E+02 -0.43284236732E+01  0.10189401464E+03  0.11955498038E+03  0.00000000000E+00 0. -1.
        -14    1    3    3    0    0 -0.13608223093E+02  0.30319986961E+02 -0.12908262875E+01  0.33258857129E+02  0.00000000000E+00 0.  1.
        -11    1    4    4    0    0  0.67248371151E+02 -0.42190565880E+02  0.21333713155E+03  0.22762934559E+03  0.00000000000E+00 0. -1.
         11    1    4    4    0    0 -0.18492455748E+02  0.11028211679E+02  0.17368099761E+02  0.27663030596E+02  0.00000000000E+00 0.  1.
         21    1    1    2  502  501  0.27240350325E+02  0.51707909135E+01  0.17991857199E+01  0.27785082936E+02  0.00000000000E+00 0.  1.
<scales pt_clust_5="13000.00000" pt_clust_6="13000.00000" pt_clust_7="13000.00000" pt_clust_8="13000.00000" pt_clust_9="27.72677"></scales>
<clustering>
<clus scale="   27.727">  2  9  1 -1</clus>
<clus scale="   82.341">  5  6 -1 -1</clus>
<clus scale="   92.742">  7  8 -1 -1</clus>
<clus scale="  104.663">  2  5  1 -1</clus>
<clus scale="  113.028">  1  5  2 -1</clus>
</clustering>
</event>
<event>
 9    1  0.2333971E-005  0.1453937E+03  0.7546771E-02  0.1208822E+00
         -2   -1    0    0    0  501 -0.00000000000E+00  0.00000000000E+00  0.37198060519E+03  0.37198060519E+03  0.00000000000E+00 0.  1.
          1   -1    0    0  502    0  0.00000000000E+00 -0.00000000000E+00 -0.10686552884E+03  0.10686552884E+03  0.00000000000E+00 0. -1.
        -24    2    1    2    0    0 -0.13646763919E+02  0.12004783323E+03  0.23454170507E+03  0.27582182715E+03  0.80437258075E+02 0.  0.
         23    2    1    2    0    0  0.38699519414E+02 -0.10303112729E+03 -0.18485304887E+02  0.14537049048E+03  0.93154747655E+02 0.  0.
         11    1    3    3    0    0 -0.98025247833E+01  0.38872174241E+02  0.16905463516E+02  0.43507816758E+02  0.00000000000E+00 0. -1.
        -12    1    3    3    0    0 -0.38442391359E+01  0.81175658991E+02  0.21763624155E+03  0.23231401039E+03  0.00000000000E+00 0.  1.
        -13    1    4    4    0    0  0.51502807096E+02 -0.73197612458E+02 -0.47943023305E+02  0.10153306403E+03  0.00000000000E+00 0. -1.
         13    1    4    4    0    0 -0.12803287682E+02 -0.29833514835E+02  0.29457718418E+02  0.43837426444E+02  0.00000000000E+00 0.  1.
         21    1    1    2  502  501 -0.25052755494E+02 -0.17016705939E+02  0.49058676161E+02  0.57653816401E+02  0.00000000000E+00 0. -1.
<scales pt_clust_5="13000.00000" pt_clust_6="13000.00000" pt_clust_7="13000.00000" pt_clust_8="13000.00000" pt_clust_9="30.28546"></scales>
<clustering>
<clus scale="   30.285">  1  9  2 -1</clus>
<clus scale="   80.437">  5  6 -1 -1</clus>
<clus scale="   93.155">  7  8 -1 -1</clus>
<clus scale="  137.592">  1  5  2 -1</clus>
<clus scale="  145.394">  2  5  1 -1</clus>
</clustering>
</event>
<event>
 9    1  0.2333971E-005  0.1099290E+03  0.7546771E-02  0.1264318E+00
          1   -1    0    0  502    0  0.00000000000E+00  0.00000000000E+00  0.62507669424E+02  0.62507669424E+02  0.00000000000E+00 0. -1.
         -2   -1    0    0    0  501 -0.00000000000E+00 -0.00000000000E+00 -0.27156536855E+03  0.27156536855E+03  0.00000000000E+00 0.  1.
        -24    2    1    2    0    0  0.64626818511E+02 -0.35013926385E+02 -0.93265617063E+02  0.14282270847E+03  0.79355214180E+02 0.  0.
         23    2    1    2    0    0 -0.44888032953E+02  0.39150889238E+02 -0.42264827631E+02  0.11500735434E+03  0.88840577819E+02 0.  0.
         13    1    3    3    0    0  0.44012197436E+02 -0.82692787237E+01 -0.12422213911E+01  0.44799526870E+02  0.00000000000E+00 0. -1.
        -14    1    3    3    0    0  0.20614621075E+02 -0.26744647661E+02 -0.92023395672E+02  0.98023181603E+02  0.00000000000E+00 0.  1.
        -13    1    4    4    0    0  0.95053322939E+01  0.47445814272E+02 -0.52038321193E+01  0.48667612461E+02  0.00000000000E+00 0. -1.
         13    1    4    4    0    0 -0.54393365247E+02 -0.82949250347E+01 -0.37060995512E+02  0.66339741879E+02  0.00000000000E+00 0.  1.
         21    1    1    2  502  501 -0.19738785558E+02 -0.41369628526E+01 -0.73527254431E+02  0.76242975159E+02  0.00000000000E+00 0.  1.
<scales pt_clust_5="13000.00000" pt_clust_6="13000.00000" pt_clust_7="13000.00000" pt_clust_8="13000.00000" pt_clust_9="20.16765"></scales>
<clustering>
<clus scale="   20.168">  2  9  1 -1</clus>
<clus scale="   79.355">  5  6 -1 -1</clus>
<clus scale="   88.841">  7  8 -1 -1</clus>
<clus scale="  102.416">  2  5  1 -1</clus>
<clus scale="  109.929">  1  5  2 -1</clus>
</clustering>
</event>
<event>
 9    1  0.2333971E-005  0.9040048E+02  0.7546771E-02  0.1302535E+00
         -2   -1    0    0    0  501 -0.00000000000E+00  0.00000000000E+00  0.16162587303E+03  0.16162587303E+03  0.00000000000E+00 0.  1.
          1   -1    0    0  502    0  0.00000000000E+00 -0.00000000000E+00 -0.23118948202E+03  0.23118948202E+03  0.00000000000E+00 0. -1.
        -24    2    1    2    0    0  0.44832511939E+02 -0.29294152367E+02 -0.62229849976E+02  0.11462493596E+03  0.79988875634E+02 0.  0.
         23    2    1    2    0    0 -0.40525052059E+02 -0.12369702107E+02 -0.12476355983E+03  0.15351408174E+03  0.78773968136E+02 0.  0.
         13    1    3    3    0    0  0.43070851115E+02 -0.34152145345E+02 -0.79469493280E+02  0.96627468194E+02  0.00000000000E+00 0. -1.
        -14    1    3    3    0    0  0.17616608247E+01  0.48579929777E+01  0.17239643304E+02  0.17997467763E+02  0.00000000000E+00 0.  1.
        -13    1    4    4    0    0 -0.56433634533E+02  0.13013367401E+02 -0.95160397486E+02  0.11139840253E+03  0.00000000000E+00 0.  1.
         13    1    4    4    0    0  0.15908582473E+02 -0.25383069508E+02 -0.29603162340E+02  0.42115679200E+02  0.00000000000E+00 0. -1.
         21    1    1    2  502  501 -0.43074598801E+01  0.41663854474E+02  0.11742980080E+03  0.12467633736E+03  0.00000000000E+00 0.  1.
<scales pt_clust_5="13000.00000" pt_clust_6="13000.00000" pt_clust_7="13000.00000" pt_clust_8="13000.00000" pt_clust_9="41.88593"></scales>
<clustering>
<clus scale="   41.886">  1  9  2 -1</clus>
<clus scale="   78.774">  7  8 -1 -1</clus>
<clus scale="   79.989">  5  6 -1 -1</clus>
<clus scale="   89.327">  2  7  1 -1</clus>
<clus scale="   89.327">  2  5  1 -1</clus>
</clustering>
</event>
<event>
 9    1  0.2333971E-005  0.3543833E+03  0.7546771E-02  0.1060830E+00
          3   -1    0    0  502    0  0.00000000000E+00  0.00000000000E+00  0.71660453524E+03  0.71660453524E+03  0.00000000000E+00 0. -1.
         -4   -1    0    0    0  501 -0.00000000000E+00 -0.00000000000E+00 -0.18174120768E+03  0.18174120768E+03  0.00000000000E+00 0.  1.
        -24    2    1    2    0    0 -0.28556964397E+02  0.17321218577E+03  0.76281896025E+02  0.20965754517E+03  0.85553474924E+02 0.  0.
         23    2    1    2    0    0  0.16866742837E+02  0.12574314846E+03  0.19633855763E+02  0.15747644391E+03  0.91200415005E+02 0.  0.
         13    1    3    3    0    0  0.26836291485E+02  0.55422471454E+02  0.63711804948E+01  0.61906613731E+02  0.00000000000E+00 0. -1.
        -14    1    3    3    0    0 -0.55393255881E+02  0.11778971431E+03  0.69910715530E+02  0.14775093144E+03  0.00000000000E+00 0.  1.
        -11    1    4    4    0    0  0.24975356689E+02  0.78548003136E+02  0.53997635387E+02  0.98535789771E+02  0.00000000000E+00 0.  1.
         11    1    4    4    0    0 -0.81086138521E+01  0.47195145323E+02 -0.34363779624E+02  0.58940654142E+02  0.00000000000E+00 0. -1.
         21    1    1    2  502  501  0.11690221560E+02 -0.29895533423E+03  0.43894757578E+03  0.53121175384E+03  0.00000000000E+00 0. -1.
<scales pt_clust_5="13000.00000" pt_clust_6="13000.00000" pt_clust_7="13000.00000" pt_clust_8="13000.00000" pt_clust_9="299.18381"></scales>
<clustering>
<clus scale="   85.553">  5  6 -1 -1</clus>
<clus scale="   91.200">  7  8 -1 -1</clus>
<clus scale="  107.567">  5  7 -1 -1</clus>
<clus scale="  299.184">  1  9  2 -1</clus>
<clus scale="  299.184">  1  5  2 -1</clus>
</clustering>
</event>
<event>
 9    1  0.2333971E-005  0.1106937E+03  0.7546771E-02  0.1262415E+00
          1   -1    0    0  502    0  0.00000000000E+00  0.00000000000E+00  0.97960171827E+02  0.97960171827E+02  0.00000000000E+00 0. -1.
         -2   -1    0    0    0  501 -0.00000000000E+00 -0.00000000000E+00 -0.44577695965E+03  0.44577695965E+03  0.00000000000E+00 0.  1.
         23    2    1    2    0    0  0.64086926888E+02 -0.10525857815E+03 -0.11486764411E+03  0.19245385216E+03  0.93045188346E+02 0.  0.
        -24    2    1    2    0    0 -0.42207045587E+02  0.16549894479E+02  0.48354422730E+01  0.96549164810E+02  0.85105969351E+02 0.  0.
         13    1    4    4    0    0 -0.36476237548E+02 -0.31225728597E+02  0.61795978829E+01  0.48412286272E+02  0.00000000000E+00 0. -1.
        -14    1    4    4    0    0 -0.57308080389E+01  0.47775623077E+02 -0.13441556099E+01  0.48136878539E+02  0.00000000000E+00 0.  1.
        -13    1    3    3    0    0  0.58334024240E+02 -0.28968995847E+02 -0.15329355466E+02  0.66910763285E+02  0.00000000000E+00 0.  1.
         13    1    3    3    0    0  0.57529026481E+01 -0.76289582300E+02 -0.99538288649E+02  0.12554308887E+03  0.00000000000E+00 0. -1.
         21    1    1    2  502  501 -0.21879881301E+02  0.88708683668E+02 -0.23778458598E+03  0.25473411451E+03  0.00000000000E+00 0.  1.
<scales pt_clust_5="13000.00000" pt_clust_6="13000.00000" pt_clust_7="13000.00000" pt_clust_8="13000.00000" pt_clust_9="91.36717"></scales>
<clustering>
<clus scale="   85.106">  5  6 -1 -1</clus>
<clus scale="   91.367">  2  9  1 -1</clus>
<clus scale="   93.045">  7  8 -1 -1</clus>
<clus scale="  104.109">  1  5  2 -1</clus>
<clus scale="  104.109">  1  5  2 -1</clus>
</clustering>
</event>
<event>
 9    1  0.2333971E-005  0.9330594E+02  0.7546771E-02  0.1301595E+00
          1   -1    0    0  502    0  0.00000000000E+00  0.00000000000E+00  0.30629286306E+03  0.30629286306E+03  0.00000000000E+00 0. -1.
         -2   -1    0    0    0  501 -0.00000000000E+00 -0.00000000000E+00 -0.67189386554E+02  0.67189386554E+02  0.00000000000E+00 0.  1.
         23    2    1    2    0    0  0.63784682495E+01 -0.66137173812E+01  0.46716697158E+01  0.92043376395E+02  0.91464378451E+02 0.  0.
        -24    2    1    2    0    0 -0.59648271593E+02 -0.74207044246E+01  0.15653706596E+03  0.18603327803E+03  0.80570120755E+02 0.  0.
         11    1    4    4    0    0 -0.76782887490E+02  0.78391752771E+01  0.11340132337E+03  0.13717479588E+03  0.00000000000E+00 0. -1.
        -12    1    4    4    0    0  0.17134615897E+02 -0.15259879702E+02  0.43135742581E+02  0.48858482155E+02  0.00000000000E+00 0.  1.
        -11    1    3    3    0    0 -0.33922422488E+02 -0.11830261987E+02 -0.23200562015E+02  0.42766247485E+02  0.00000000000E+00 0.  1.
         11    1    3    3    0    0  0.40300890738E+02  0.52165446056E+01  0.27872231731E+02  0.49277128910E+02  0.00000000000E+00 0. -1.
         21    1    1    2  502  501  0.53269803343E+02  0.14034421806E+02  0.77894740839E+02  0.95405595192E+02  0.00000000000E+00 0. -1.
<scales pt_clust_5="13000.00000" pt_clust_6="13000.00000" pt_clust_7="13000.00000" pt_clust_8="13000.00000" pt_clust_9="55.08754"></scales>
<clustering>
<clus scale="   55.088">  1  9  2 -1</clus>
<clus scale="   80.570">  5  6 -1 -1</clus>
<clus scale="   82.655">  1  5  2 -1</clus>
<clus scale="   91.464">  7  8 -1 -1</clus>
<clus scale="   55.088">  1  5  2 -1</clus>
</clustering>
</event>
<event>
 9    1  0.2333971E-005  0.1413598E+03  0.7546771E-02  0.1213902E+00
         -2   -1    0    0    0  501 -0.00000000000E+00  0.00000000000E+00  0.23900799182E+03  0.23900799182E+03  0.00000000000E+00 0.  1.
          1   -1    0    0  502    0  0.00000000000E+00 -0.00000000000E+00 -0.11094161867E+03  0.11094161867E+03  0.00000000000E+00 0. -1.
         23    2    1    2    0    0  0.21709299582E+02  0.10158226597E+03  0.78069628339E+02  0.15981091726E+03  0.93029091999E+02 0.  0.
        -24    2    1    2    0    0 -0.63892578697E+02 -0.94852353213E+02  0.37465876718E+02  0.14562191641E+03  0.81992805165E+02 0.  0.
         13    1    4    4    0    0 -0.29736728672E+02 -0.15305085376E+02 -0.22502679394E+02  0.40309915038E+02  0.00000000000E+00 0. -1.
        -14    1    4    4    0    0 -0.34155850025E+02 -0.79547267838E+02  0.59968556112E+02  0.10531200137E+03  0.00000000000E+00 0.  1.
        -11    1    3    3    0    0 -0.26162669626E+02  0.39391361246E+02 -0.24747152923E+01  0.47352812361E+02  0.00000000000E+00 0. -1.
         11    1    3    3    0    0  0.47871969208E+02  0.62190904726E+02  0.80544343631E+02  0.11245810490E+03  0.00000000000E+00 0.  1.
         21    1    1    2  502  501  0.42183279114E+02 -0.67299127578E+01  0.12530868096E+02  0.44516776813E+02  0.00000000000E+00 0.  1.
<scales pt_clust_5="13000.00000" pt_clust_6="13000.00000" pt_clust_7="13000.00000" pt_clust_8="13000.00000" pt_clust_9="42.71675"></scales>
<clustering>
<clus scale="   42.717">  2  9  1 -1</clus>
<clus scale="   81.993">  5  6 -1 -1</clus>
<clus scale="   93.029">  7  8 -1 -1</clus>
<clus scale="  134.354">  2  5  1 -1</clus>
<clus scale="   42.717">  2  5  1 -1</clus>
</clustering>
</event>
<event>
 9    1  0.2333971E-005  0.2608863E+03  0.7546771E-02  0.1107750E+00
          1   -1    0    0  502    0  0.00000000000E+00  0.00000000000E+00  0.37153965432E+03  0.37153965432E+03  0.00000000000E+00 0. -1.
         -2   -1    0    0    0  501 -0.00000000000E+00 -0.00000000000E+00 -0.49717685256E+03  0.49717685256E+03  0.00000000000E+00 0.  1.
        -24    2    1    2    0    0 -0.11833173523E+03  0.97423806220E+02 -0.14004078772E+03  0.22311296644E+03  0.81695630145E+02 0.  0.
         23    2    1    2    0    0  0.21061510384E+03 -0.17162726484E+03  0.24917204082E+03  0.38266134311E+03  0.10260778515E+03 0.  0.
         11    1    3    3    0    0 -0.23189562843E+02  0.70009318297E+02 -0.48507048385E+02  0.88272273202E+02  0.00000000000E+00 0. -1.
        -12    1    3    3    0    0 -0.95142172386E+02  0.27414487923E+02 -0.91533739338E+02  0.13484069323E+03  0.00000000000E+00 0.  1.
        -11    1    4    4    0    0 -0.12455943071E+01 -0.25540665168E+02  0.16898879686E+01  0.25626798547E+02  0.00000000000E+00 0.  1.
         11    1    4    4    0    0  0.21186069815E+03 -0.14608659968E+03  0.24748215286E+03  0.35703454456E+03  0.00000000000E+00 0. -1.
         21    1    1    2  502  501 -0.92283368615E+02  0.74203458625E+02 -0.23476845134E+03  0.26294219733E+03  0.00000000000E+00 0.  1.
<scales pt_clust_5="13000.00000" pt_clust_6="13000.00000" pt_clust_7="13000.00000" pt_clust_8="13000.00000" pt_clust_9="118.41610"></scales>
<clustering>
<clus scale="   81.696">  5  6 -1 -1</clus>
<clus scale="  102.608">  7  8 -1 -1</clus>
<clus scale="  118.416">  2  9  1 -1</clus>
<clus scale="  253.392">  2  5  1 -1</clus>
<clus scale="  260.886">  1  5  2 -1</clus>
</clustering>
</event>
<event>
 9    1  0.2333971E-005  0.1181029E+03  0.7546771E-02  0.1248508E+00
          1   -1    0    0  502    0  0.00000000000E+00  0.00000000000E+00  0.22945551228E+03  0.22945551228E+03  0.00000000000E+00 0. -1.
         -2   -1    0    0    0  501 -0.00000000000E+00 -0.00000000000E+00 -0.26002148430E+03  0.26002148430E+03  0.00000000000E+00 0.  1.
        -24    2    1    2    0    0 -0.33968562669E+01  0.70879157279E+02 -0.18391974414E+03  0.21344534259E+03  0.81835496085E+02 0.  0.
         23    2    1    2    0    0 -0.26262351393E+02 -0.74252505477E+02  0.19287478879E+03  0.22650429958E+03  0.88884013769E+02 0.  0.
         13    1    3    3    0    0  0.24846841402E+02 -0.66986848685E+01 -0.41846599704E+02  0.49126121497E+02  0.00000000000E+00 0. -1.
        -14    1    3    3    0    0 -0.28243697668E+02  0.77577842147E+02 -0.14207314444E+03  0.16431922109E+03  0.00000000000E+00 0.  1.
        -11    1    4    4    0    0 -0.15402235912E+02 -0.48236098410E+02  0.19171410799E+03  0.19828829836E+03  0.00000000000E+00 0. -1.
         11    1    4    4    0    0 -0.10860115481E+02 -0.26016407068E+02  0.11606808008E+01  0.28216001221E+02  0.00000000000E+00 0.  1.
         21    1    1    2  502  501  0.29659207660E+02  0.33733481986E+01 -0.39521016673E+02  0.49527354421E+02  0.00000000000E+00 0.  1.
<scales pt_clust_5="13000.00000" pt_clust_6="13000.00000" pt_clust_7="13000.00000" pt_clust_8="13000.00000" pt_clust_9="29.85043"></scales>
<clustering>
<clus scale="   29.850">  2  9  1 -1</clus>
<clus scale="   81.835">  5  6 -1 -1</clus>
<clus scale="   88.884">  7  8 -1 -1</clus>
<clus scale="  112.894">  2  5  1 -1</clus>
<clus scale="  118.103">  1  5  2 -1</clus>
</clustering>
</event>
<event>
 9    1  0.2333971E-005  0.2074846E+03  0.7546771E-02  0.1144617E+00
          1   -1    0    0  502    0  0.00000000000E+00  0.00000000000E+00  0.10770932574E+04  0.10770932574E+04  0.00000000000E+00 0. -1.
         -2   -1    0    0    0  501 -0.00000000000E+00 -0.00000000000E+00 -0.99570561244E+02  0.99570561244E+02  0.00000000000E+00 0.  1.
        -24    2    1    2    0    0 -0.18024165042E+03  0.77936842582E+02  0.11007717299E+03  0.23893616508E+03  0.80076856796E+02 0.  0.
         23    2    1    2    0    0  0.16213244013E+03 -0.87053712846E+02  0.88638956174E+03  0.90997990731E+03  0.92258872104E+02 0.  0.
         11    1    3    3    0    0 -0.37771591328E+02  0.37043016083E+02  0.65414684705E+02  0.84130607552E+02  0.00000000000E+00 0. -1.
        -12    1    3    3    0    0 -0.14247005909E+03  0.40893826500E+02  0.44662488282E+02  0.15480555753E+03  0.00000000000E+00 0.  1.
        -11    1    4    4    0    0  0.12357181207E+03 -0.26443083939E+02  0.67473025002E+03  0.68646204536E+03  0.00000000000E+00 0.  1.
         11    1    4    4    0    0  0.38560628063E+02 -0.60610628907E+02  0.21165931172E+03  0.22351786195E+03  0.00000000000E+00 0. -1.
         21    1    1    2  502  501  0.18109210287E+02  0.91168702633E+01 -0.18944038617E+02  0.27747746210E+02  0.00000000000E+00 0. -1.
<scales pt_clust_5="13000.00000" pt_clust_6="13000.00000" pt_clust_7="13000.00000" pt_clust_8="13000.00000" pt_clust_9="20.27463"></scales>
<clustering>
<clus scale="   20.275">  2  9  1 -1</clus>
<clus scale="   80.077">  5  6 -1 -1</clus>
<clus scale="   92.259">  7  8 -1 -1</clus>
<clus scale="  202.362">  2  5  1 -1</clus>
<clus scale="  207.485">  1  5  2 -1</clus>
</clustering>
</event>
<event>
 9    1  0.2333971E-005  0.1044192E+03  0.7546771E-02  0.1277351E+00
         -2   -1    0    0    0  501 -0.00000000000E+00  0.00000000000E+00  0.38303159793E+03  0.38303159793E+03  0.00000000000E+00 0.  1.
          1   -1    0    0  502    0  0.00000000000E+00 -0.00000000000E+00 -0.15797271806E+03  0.15797271806E+03  0.00000000000E+00 0. -1.
        -24    2    1    2    0    0 -0.29538485334E+02 -0.25492177367E+01  0.25971552626E+03  0.27367159664E+03  0.81024487678E+02 0.  0.
         23    2    1    2    0    0  0.32102031314E+02 -0.34814260374E+02 -0.12860866105E+03  0.16619132167E+03  0.94004226294E+02 0.  0.
         11    1    3    3    0    0  0.19367595463E+02  0.21203537842E+02  0.57469831498E+02  0.64245430214E+02  0.00000000000E+00 0. -1.
        -12    1    3    3    0    0 -0.48906080797E+02 -0.23752755579E+02  0.20224569476E+03  0.20942616643E+03  0.00000000000E+00 0.  1.
        -13    1    4    4    0    0 -0.20473203681E+02 -0.42227726042E+02 -0.34891436414E+02  0.58478587967E+02  0.00000000000E+00 0.  1.
         13    1    4    4    0    0  0.52575234995E+02  0.74134656684E+01 -0.93717224636E+02  0.10771273370E+03  0.00000000000E+00 0. -1.
         21    1    1    2  502  501 -0.25635459804E+01  0.37363478111E+02  0.93952014662E+02  0.10114139767E+03  0.00000000000E+00 0.  1.
<scales pt_clust_5="13000.00000" pt_clust_6="13000.00000" pt_clust_7="13000.00000" pt_clust_8="13000.00000" pt_clust_9="37.45132"></scales>
<clustering>
<clus scale="   37.451">  1  9  2 -1</clus>
<clus scale="   81.024">  5  6 -1 -1</clus>
<clus scale="   92.906">  1  5  2 -1</clus>
<clus scale="   94.004">  7  8 -1 -1</clus>
<clus scale="  104.419">  2  5  1 -1</clus>
</clustering>
</event>
<event>
 9    1  0.2333971E-005  0.1534308E+03  0.7546771E-02  0.1200101E+00
         -2   -1    0    0    0  501 -0.00000000000E+00  0.00000000000E+00  0.45222483934E+02  0.45222483934E+02  0.00000000000E+00 0.  1.
          1   -1    0    0  502    0  0.00000000000E+00 -0.00000000000E+00 -0.85364511560E+03  0.85364511560E+03  0.00000000000E+00 0. -1.
         23    2    1    2    0    0  0.64556374250E+02  0.13654116907E+03 -0.28775066771E+03  0.34074187547E+03  0.10243809164E+03 0.  0.
        -24    2    1    2    0    0 -0.19822854168E+02 -0.99923686801E+02 -0.43748265537E+03  0.45682227452E+03  0.83173481473E+02 0.  0.
         11    1    4    4    0    0  0.28563133333E+02 -0.44592209697E+02 -0.24781428594E+03  0.25340923043E+03  0.00000000000E+00 0. -1.
        -12    1    4    4    0    0 -0.48385987501E+02 -0.55331477104E+02 -0.18966836942E+03  0.20341304409E+03  0.00000000000E+00 0.  1.
        -11    1    3    3    0    0  0.78455790213E+02  0.58720494022E+02 -0.19945329219E+03  0.22222741325E+03  0.00000000000E+00 0. -1.
         11    1    3    3    0    0 -0.13899415963E+02  0.77820675051E+02 -0.88297375528E+02  0.11851446222E+03  0.00000000000E+00 0.  1.
         21    1    1    2  502  501 -0.44733520082E+02 -0.36617482272E+02 -0.83189308582E+02  0.10130344954E+03  0.00000000000E+00 0.  1.
<scales pt_clust_5="13000.00000" pt_clust_6="13000.00000" pt_clust_7="13000.00000" pt_clust_8="13000.00000" pt_clust_9="57.80941"></scales>
<clustering>
<clus scale="   57.809">  1  9  2 -1</clus>
<clus scale="   83.173">  5  6 -1 -1</clus>
<clus scale="  102.438">  7  8 -1 -1</clus>
<clus scale="  141.299">  2  5  1 -1</clus>
<clus scale="  141.299">  2  5  1 -1</clus>
</clustering>
</event>
<event>
 9    1  0.2333971E-005  0.9646338E+02  0.7546771E-02  0.1295404E+00
          1   -1    0    0  502    0  0.00000000000E+00  0.00000000000E+00  0.40750947905E+02  0.40750947905E+02  0.00000000000E+00 0. -1.
         -2   -1    0    0    0  501 -0.00000000000E+00 -0.00000000000E+00 -0.95133612985E+03  0.95133612985E+03  0.00000000000E+00 0.  1.
         23    2    1    2    0    0 -0.64062077903E+02  0.95703357792E+01 -0.46822760596E+03  0.48162631591E+03  0.92364906991E+02 0.  0.
        -24    2    1    2    0    0  0.10644494023E+02 -0.24181584938E+02 -0.21723353599E+02  0.86196603668E+02  0.79119505113E+02 0.  0.
         13    1    4    4    0    0  0.42097734515E+02 -0.23035555826E+02 -0.25759525258E+02  0.54464752133E+02  0.00000000000E+00 0. -1.
        -14    1    4    4    0    0 -0.31453240492E+02 -0.11460291125E+01  0.40361716589E+01  0.31731851535E+02  0.00000000000E+00 0.  1.
        -13    1    3    3    0    0 -0.86700503186E+02  0.17307460028E+02 -0.34920240742E+03  0.36022055296E+03  0.00000000000E+00 0.  1.
         13    1    3    3    0    0  0.22638425283E+02 -0.77371242492E+01 -0.11902519854E+03  0.12140576295E+03  0.00000000000E+00 0. -1.
         21    1    1    2  502  501  0.53417583880E+02  0.14611249159E+02 -0.42063422239E+03  0.42426415818E+03  0.00000000000E+00 0.  1.
<scales pt_clust_5="13000.00000" pt_clust_6="13000.00000" pt_clust_7="13000.00000" pt_clust_8="13000.00000" pt_clust_9="55.37984"></scales>
<clustering>
<clus scale="   55.380">  2  9  1 -1</clus>
<clus scale="   79.120">  5  6 -1 -1</clus>
<clus scale="   83.868">  1  5  2 -1</clus>
<clus scale="   92.365">  7  8 -1 -1</clus>
<clus scale="   83.868">  1  5  2 -1</clus>
</clustering>
</event>
<event>
 9    1  0.2333971E-005  0.1035980E+03  0.7546771E-02  0.1277353E+00
          1   -1    0    0  502    0  0.00000000000E+00  0.00000000000E+00  0.16491355588E+03  0.16491355588E+03  0.00000000000E+00 0. -1.
         -2   -1    0    0    0  501 -0.00000000000E+00 -0.00000000000E+00 -0.43680667068E+03  0.43680667068E+03  0.00000000000E+00 0.  1.
        -24    2    1    2    0    0  0.28258062829E+02 -0.16368411745E+00 -0.27538003009E+03  0.28891411850E+03  0.82696202980E+02 0.  0.
         23    2    1    2    0    0 -0.43756381766E+02  0.20508609725E+02  0.13966318794E+03  0.17424893170E+03  0.92312838309E+02 0.  0.
         11    1    3    3    0    0  0.11841903533E+02  0.38839324331E+02 -0.89531513402E+02  0.98308777257E+02  0.00000000000E+00 0. -1.
        -12    1    3    3    0    0  0.16416159296E+02 -0.39003008448E+02 -0.18584851669E+03  0.19060534124E+03  0.00000000000E+00 0.  1.
        -11    1    4    4    0    0  0.54944886082E+01 -0.27963705693E+02  0.16248781953E+02  0.32805200138E+02  0.00000000000E+00 0.  1.
         11    1    4    4    0    0 -0.49250870374E+02  0.48472315418E+02  0.12341440598E+03  0.14144373156E+03  0.00000000000E+00 0. -1.
         21    1    1    2  502  501  0.15498318937E+02 -0.20344925608E+02 -0.13617627265E+03  0.13855717635E+03  0.00000000000E+00 0.  1.
<scales pt_clust_5="13000.00000" pt_clust_6="13000.00000" pt_clust_7="13000.00000" pt_clust_8="13000.00000" pt_clust_9="25.57565"></scales>
<clustering>
<clus scale="   25.576">  2  9  1 -1</clus>
<clus scale="   82.696">  5  6 -1 -1</clus>
<clus scale="   92.313">  7  8 -1 -1</clus>
<clus scale="   95.129">  2  5  1 -1</clus>
<clus scale="  103.598">  1  5  2 -1</clus>
</clustering>
</event>
<event>
 9    1  0.2333971E-005  0.1085948E+03  0.7546771E-02  0.1267038E+00
         -2   -1    0    0    0  501 -0.00000000000E+00  0.00000000000E+00  0.17634172756E+03  0.17634172756E+03  0.00000000000E+00 0.  1.
          1   -1    0    0  502    0  0.00000000000E+00 -0.00000000000E+00 -0.15020254555E+03  0.15020254555E+03  0.00000000000E+00 0. -1.
        -24    2    1    2    0    0 -0.33834956114E+02  0.38624947291E+02  0.90398098354E+02  0.13177792644E+03  0.80974779423E+02 0.  0.
         23    2    1    2    0    0  0.14950545510E+02 -0.76575503304E+02 -0.95698498475E+02  0.14199028211E+03  0.70112132235E+02 0.  0.
         11    1    3    3    0    0  0.34815591351E+01 -0.23106056441E+02  0.17237381087E+02  0.29036845645E+02  0.00000000000E+00 0. -1.
        -12    1    3    3    0    0 -0.37316515249E+02  0.61731003732E+02  0.73160717267E+02  0.10274108080E+03  0.00000000000E+00 0.  1.
        -11    1    4    4    0    0  0.19941467674E+02  0.54359722269E+01 -0.31700679944E+02  0.37843692155E+02  0.00000000000E+00 0.  1.
         11    1    4    4    0    0 -0.49909221638E+01 -0.82011475531E+02 -0.63997818531E+02  0.10414658996E+03  0.00000000000E+00 0. -1.
         21    1    1    2  502  501  0.18884410603E+02  0.37950556013E+02  0.31439582138E+02  0.52776064561E+02  0.00000000000E+00 0.  1.
<scales pt_clust_5="13000.00000" pt_clust_6="13000.00000" pt_clust_7="13000.00000" pt_clust_8="13000.00000" pt_clust_9="42.38945"></scales>
<clustering>
<clus scale="   42.389">  1  9  2 -1</clus>
<clus scale="   70.112">  7  8 -1 -1</clus>
<clus scale="   80.975">  5  6 -1 -1</clus>
<clus scale="  100.755">  2  7  1 -1</clus>
<clus scale="  100.755">  2  5  1 -1</clus>
</clustering>
</event>
<event>
 9    1  0.2333971E-005  0.1114414E+03  0.7546771E-02  0.1269553E+00
         -2   -1    0    0    0  501 -0.00000000000E+00  0.00000000000E+00  0.39799637923E+03  0.39799637923E+03  0.00000000000E+00 0.  1.
          1   -1    0    0  502    0  0.00000000000E+00 -0.00000000000E+00 -0.88383477946E+02  0.88383477946E+02  0.00000000000E+00 0. -1.
        -24    2    1    2    0    0 -0.29249066579E+02  0.60819274197E+02  0.19133619742E+03  0.21805780815E+03  0.79907291541E+02 0.  0.
         23    2    1    2    0    0  0.17788726358E+02 -0.27803335794E+02 -0.31896224900E+02  0.11413612191E+03  0.10449986075E+03 0.  0.
         13    1    3    3    0    0 -0.30286490297E+02 -0.82202175320E+01  0.34176281943E+02  0.46398940917E+02  0.00000000000E+00 0. -1.
        -14    1    3    3    0    0  0.10374237178E+01  0.69039491729E+02  0.15715991548E+03  0.17165886723E+03  0.00000000000E+00 0.  1.
        -13    1    4    4    0    0  0.53071321854E+01 -0.64395122350E+02 -0.38054200516E+02  0.74986796247E+02  0.00000000000E+00 0. -1.
         13    1    4    4    0    0  0.12481594172E+02  0.36591786557E+02  0.61579756151E+01  0.39149325667E+02  0.00000000000E+00 0.  1.
         21    1    1    2  502  501  0.11460340221E+02 -0.33015938403E+02  0.15017292876E+03  0.15418592712E+03  0.00000000000E+00 0. -1.
<scales pt_clust_5="13000.00000" pt_clust_6="13000.00000" pt_clust_7="13000.00000" pt_clust_8="13000.00000" pt_clust_9="34.94841"></scales>
<clustering>
<clus scale="   34.948">  1  9  2 -1</clus>
<clus scale="   79.907">  5  6 -1 -1</clus>
<clus scale="   88.793">  1  5  2 -1</clus>
<clus scale="  104.500">  7  8 -1 -1</clus>
<clus scale="  111.441">  2  5  1 -1</clus>
</clustering>
</event>
<event>
 9    1  0.2333971E-005  0.1319033E+03  0.7546771E-02  0.1227845E+00
          1   -1    0    0  502    0  0.00000000000E+00  0.00000000000E+00  0.26385706593E+03  0.26385706593E+03  0.00000000000E+00 0. -1.
         -2   -1    0    0    0  501 -0.00000000000E+00 -0.00000000000E+00 -0.14760312800E+03  0.14760312800E+03  0.00000000000E+00 0.  1.
        -24    2    1    2    0    0  0.11351197686E+02  0.85799711750E+02 -0.50993765918E+01  0.11835579191E+03  0.80570773930E+02 0.  0.
         23    2    1    2    0    0 -0.92373268239E+02 -0.56521975642E+02  0.14530014954E+03  0.20368844899E+03  0.93001593417E+02 0.  0.
         11    1    3    3    0    0 -0.18037576605E+02  0.82712029361E+02  0.98711079457E+01  0.85229529759E+02  0.00000000000E+00 0. -1.
        -12    1    3    3    0    0  0.29388774290E+02  0.30876823890E+01 -0.14970484538E+02  0.33126262151E+02  0.00000000000E+00 0.  1.
        -11    1    4    4    0    0 -0.52423952067E+02 -0.33942087839E+01  0.10761532972E+02  0.53624639817E+02  0.00000000000E+00 0.  1.
         11    1    4    4    0    0 -0.39949316171E+02 -0.53127766858E+02  0.13453861657E+03  0.15006380917E+03  0.00000000000E+00 0. -1.
         21    1    1    2  502  501  0.81022070553E+02 -0.29277736108E+02 -0.23946835026E+02  0.89415953029E+02  0.00000000000E+00 0.  1.
<scales pt_clust_5="13000.00000" pt_clust_6="13000.00000" pt_clust_7="13000.00000" pt_clust_8="13000.00000" pt_clust_9="86.14965"></scales>
<clustering>
<clus scale="   80.571">  5  6 -1 -1</clus>
<clus scale="   86.150">  2  9  1 -1</clus>
<clus scale="   93.002">  7  8 -1 -1</clus>
<clus scale="  123.454">  2  5  1 -1</clus>
<clus scale="  131.903">  1  5  2 -1</clus>
</clustering>
</event>
<event>
 9    1  0.2333971E-005  0.1047904E+03  0.7546771E-02  0.1280668E+00
         -4   -1    0    0    0  501 -0.00000000000E+00  0.00000000000E+00  0.13945470075E+03  0.13945470075E+03  0.00000000000E+00 0.  1.
          3   -1    0    0  502    0  0.00000000000E+00 -0.00000000000E+00 -0.92927901808E+02  0.92927901808E+02  0.00000000000E+00 0. -1.
        -24    2    1    2    0    0  0.44720979833E+01 -0.41928503953E+02  0.46178928747E+02  0.10191469386E+03  0.80474295655E+02 0.  0.
         23    2    1    2    0    0 -0.15217871953E+02  0.21113468804E+02 -0.11841969309E+02  0.10406091088E+03  0.10005537839E+03 0.  0.
         13    1    3    3    0    0  0.31447429214E+02  0.94127138758E+01  0.17948131414E+02  0.37412236073E+02  0.00000000000E+00 0. -1.
        -14    1    3    3    0    0 -0.26975331231E+02 -0.51341217828E+02  0.28230797333E+02  0.64502457792E+02  0.00000000000E+00 0.  1.
        -13    1    4    4    0    0  0.23435152343E+02  0.25099424645E+02 -0.42446806228E+02  0.54597791547E+02  0.00000000000E+00 0. -1.
         13    1    4    4    0    0 -0.38653024295E+02 -0.39859558408E+01  0.30604836918E+02  0.49463119331E+02  0.00000000000E+00 0.  1.
         21    1    1    2  502  501  0.10745773969E+02  0.20815035148E+02  0.12189839502E+02  0.26406997813E+02  0.00000000000E+00 0.  1.
<scales pt_clust_5="13000.00000" pt_clust_6="13000.00000" pt_clust_7="13000.00000" pt_clust_8="13000.00000" pt_clust_9="23.42514"></scales>
<clustering>
<clus scale="   23.425">  1  9  2 -1</clus>
<clus scale="   80.474">  5  6 -1 -1</clus>
<clus scale="   86.291">  1  5  2 -1</clus>
<clus scale="  100.055">  7  8 -1 -1</clus>
<clus scale="  104.790">  2  5  1 -1</clus>
</clustering>
</event>
<event>
 9    1  0.2333971E-005  0.1031335E+03  0.7546771E-02  0.1282095E+00
         -2   -1    0    0    0  501 -0.00000000000E+00  0.00000000000E+00  0.50595546246E+03  0.50595546246E+03  0.00000000000E+00 0.  1.
          1   -1    0    0  502    0  0.00000000000E+00 -0.00000000000E+00 -0.62339257526E+02  0.62339257526E+02  0.00000000000E+00 0. -1.
         23    2    1    2    0    0 -0.10151025716E+02  0.74505887715E+01  0.22108130570E+03  0.24172385793E+03  0.96927422162E+02 0.  0.
        -24    2    1    2    0    0 -0.18702733652E+02 -0.36533745423E+02 -0.93843764549E+01  0.91060947473E+02  0.80743562174E+02 0.  0.
         11    1    4    4    0    0 -0.39072015208E+02 -0.13370838850E+02 -0.32470413010E+02  0.52533126930E+02  0.00000000000E+00 0. -1.
        -12    1    4    4    0    0  0.20369281556E+02 -0.23162906573E+02  0.23086036555E+02  0.38527820544E+02  0.00000000000E+00 0.  1.
        -13    1    3    3    0    0  0.26098423111E+02 -0.33074076487E+02  0.77838450629E+02  0.88509019996E+02  0.00000000000E+00 0. -1.
         13    1    3    3    0    0 -0.36249448827E+02  0.40524665258E+02  0.14324285507E+03  0.15321483794E+03  0.00000000000E+00 0.  1.
         21    1    1    2  502  501  0.28853759368E+02  0.29083156651E+02  0.23191927569E+03  0.23550991459E+03  0.00000000000E+00 0.  1.
<scales pt_clust_5="13000.00000" pt_clust_6="13000.00000" pt_clust_7="13000.00000" pt_clust_8="13000.00000" pt_clust_9="40.96791"></scales>
<clustering>
<clus scale="   40.968">  1  9  2 -1</clus>
<clus scale="   80.744">  5  6 -1 -1</clus>
<clus scale="   88.097">  2  5  1 -1</clus>
<clus scale="   96.927">  7  8 -1 -1</clus>
<clus scale="   88.097">  2  5  1 -1</clus>
</clustering>
</event>
<event>
 9    1  0.2333971E-005  0.1194765E+03  0.7546771E-02  0.1247959E+00
          1   -1    0    0  502    0  0.00000000000E+00  0.00000000000E+00  0.52085567080E+03  0.52085567080E+03  0.00000000000E+00 0. -1.
         -2   -1    0    0    0  501 -0.00000000000E+00 -0.00000000000E+00 -0.45956771795E+02  0.45956771795E+02  0.00000000000E+00 0.  1.
        -24    2    1    2    0    0  0.81133124707E+01 -0.82268932531E+02  0.73664930580E+02  0.13686206227E+03  0.80440655103E+02 0.  0.
         23    2    1    2    0    0 -0.29430207018E+02  0.47905904504E+02  0.33739100441E+03  0.35437821783E+03  0.92682892970E+02 0.  0.
         11    1    3    3    0    0  0.13461904473E+02 -0.77251105113E+02  0.89752009255E+02  0.11918212651E+03  0.00000000000E+00 0. -1.
        -12    1    3    3    0    0 -0.53485920024E+01 -0.50178274174E+01 -0.16087078676E+02  0.17679935767E+02  0.00000000000E+00 0.  1.
        -13    1    4    4    0    0  0.33003178188E+02  0.83257714318E+01  0.91990909029E+02  0.98085960180E+02  0.00000000000E+00 0.  1.
         13    1    4    4    0    0 -0.62433385205E+02  0.39580133072E+02  0.24540009538E+03  0.25629225765E+03  0.00000000000E+00 0. -1.
         21    1    1    2  502  501  0.21316894547E+02  0.34363028027E+02  0.63842964022E+02  0.75572162490E+02  0.00000000000E+00 0.  1.
<scales pt_clust_5="13000.00000" pt_clust_6="13000.00000" pt_clust_7="13000.00000" pt_clust_8="13000.00000" pt_clust_9="40.43795"></scales>
<clustering>
<clus scale="   40.438">  1  9  2 -1</clus>
<clus scale="   80.441">  5  6 -1 -1</clus>
<clus scale="   92.683">  7  8 -1 -1</clus>
<clus scale="  110.251">  2  5  1 -1</clus>
<clus scale="   40.438">  1  5  2 -1</clus>
</clustering>
</event>
<event>
 9    1  0.2333971E-005  0.2582879E+03  0.7546771E-02  0.1108251E+00
         -2   -1    0    0    0  501 -0.00000000000E+00  0.00000000000E+00  0.53426402532E+03  0.53426402532E+03  0.00000000000E+00 0.  1.
          1   -1    0    0  502    0  0.00000000000E+00 -0.00000000000E+00 -0.19562470122E+03  0.19562470122E+03  0.00000000000E+00 0. -1.
         23    2    1    2    0    0  0.12483280353E+02  0.25538669809E+03  0.12496837450E+03  0.29631759345E+03  0.82515596812E+02 0.  0.
        -24    2    1    2    0    0  0.75192723881E+02 -0.23134065831E+03  0.73863285379E+02  0.26680340023E+03  0.80968040230E+02 0.  0.
         11    1    4    4    0    0  0.88599829291E+01 -0.93283082008E+02 -0.63245771677E+01  0.93916095334E+02  0.00000000000E+00 0. -1.
        -12    1    4    4    0    0  0.66332740952E+02 -0.13805757630E+03  0.80187862546E+02  0.17288730490E+03  0.00000000000E+00 0.  1.
        -11    1    3    3    0    0 -0.17193116446E+02  0.86930436397E+02  0.80170890343E+02  0.11949843381E+03  0.00000000000E+00 0.  1.
         11    1    3    3    0    0  0.29676396799E+02  0.16845626169E+03  0.44797484157E+02  0.17681915964E+03  0.00000000000E+00 0. -1.
         21    1    1    2  502  501 -0.87676004234E+02 -0.24046039779E+02  0.13980766422E+03  0.16676773286E+03  0.00000000000E+00 0.  1.
<scales pt_clust_5="13000.00000" pt_clust_6="13000.00000" pt_clust_7="13000.00000" pt_clust_8="13000.00000" pt_clust_9="90.91366"></scales>
<clustering>
<clus scale="   80.968">  5  6 -1 -1</clus>
<clus scale="   82.516">  7  8 -1 -1</clus>
<clus scale="   90.914">  1  9  2 -1</clus>
<clus scale="  257.798">  2  5  1 -1</clus>
<clus scale="  257.798">  2  5  1 -1</clus>
</clustering>
</event>
<event>
 9    1  0.2333971E-005  0.1362342E+03  0.7546771E-02  0.1219096E+00
          1   -1    0    0  502    0  0.00000000000E+00  0.00000000000E+00  0.48769160819E+03  0.48769160819E+03  0.00000000000E+00 0. -1.
         -2   -1    0    0    0  501 -0.00000000000E+00 -0.00000000000E+00 -0.56169347316E+02  0.56169347316E+02  0.00000000000E+00 0.  1.
        -24    2    1    2    0    0 -0.85999041848E+02 -0.38377363865E+02  0.93597401409E+02  0.15509775871E+03  0.80163482644E+02 0.  0.
         23    2    1    2    0    0  0.10144265200E+03  0.52929273886E+02  0.33922262635E+03  0.36750414276E+03  0.83037250910E+02 0.  0.
         13    1    3    3    0    0 -0.99009231077E+02 -0.37198633155E+02  0.94727567209E+02  0.14198548565E+03  0.00000000000E+00 0. -1.
        -14    1    3    3    0    0  0.13010189230E+02 -0.11787307091E+01 -0.11301657997E+01  0.13112273053E+02  0.00000000000E+00 0.  1.
        -11    1    4    4    0    0  0.18662514317E+02  0.50029483504E+02  0.18364556968E+03  0.19125097104E+03  0.00000000000E+00 0.  1.
         11    1    4    4    0    0  0.82780137685E+02  0.28997903817E+01  0.15557705666E+03  0.17625317171E+03  0.00000000000E+00 0. -1.
         21    1    1    2  502  501 -0.15443610154E+02 -0.14551910021E+02 -0.12977668817E+01  0.21259054042E+02  0.00000000000E+00 0. -1.
<scales pt_clust_5="13000.00000" pt_clust_6="13000.00000" pt_clust_7="13000.00000" pt_clust_8="13000.00000" pt_clust_9="21.21941"></scales>
<clustering>
<clus scale="   21.219">  2  9  1 -1</clus>
<clus scale="   80.163">  5  6 -1 -1</clus>
<clus scale="   83.037">  7  8 -1 -1</clus>
<clus scale="  134.502">  2  5  1 -1</clus>
<clus scale="  136.234">  1  5  2 -1</clus>
</clustering>
</event>
<event>
 9    1  0.2333971E-005  0.1070035E+03  0.7546771E-02  0.1271448E+00
          1   -1    0    0  502    0  0.00000000000E+00  0.00000000000E+00  0.53650527502E+03  0.53650527502E+03  0.00000000000E+00 0. -1.
         -2   -1    0    0    0  501 -0.00000000000E+00 -0.00000000000E+00 -0.34055063065E+02  0.34055063065E+02  0.00000000000E+00 0.  1.
        -24    2    1    2    0    0  0.53853026546E+02 -0.17512879059E+02  0.94749751500E+02  0.13723626884E+03  0.81544029052E+02 0.  0.
         23    2    1    2    0    0 -0.51050592164E+02 -0.12188253361E+02  0.37009161898E+03  0.38531952923E+03  0.93534040241E+02 0.  0.
         13    1    3    3    0    0  0.62903038906E+02  0.58831438394E+01  0.92545959684E+02  0.11205426515E+03  0.00000000000E+00 0. -1.
        -14    1    3    3    0    0 -0.90500123606E+01 -0.23396022899E+02  0.22037918156E+01  0.25182003685E+02  0.00000000000E+00 0.  1.
        -11    1    4    4    0    0 -0.77890290066E+02 -0.36112142106E+01  0.29448430807E+03  0.30463247669E+03  0.00000000000E+00 0.  1.
         11    1    4    4    0    0  0.26839697902E+02 -0.85770391508E+01  0.75607310920E+02  0.80687052546E+02  0.00000000000E+00 0. -1.
         21    1    1    2  502  501 -0.28024343821E+01  0.29701132421E+02  0.37608841473E+02  0.48004540019E+02  0.00000000000E+00 0. -1.
<scales pt_clust_5="13000.00000" pt_clust_6="13000.00000" pt_clust_7="13000.00000" pt_clust_8="13000.00000" pt_clust_9="29.83305"></scales>
<clustering>
<clus scale="   29.833">  2  9  1 -1</clus>
<clus scale="   81.544">  5  6 -1 -1</clus>
<clus scale="   93.534">  7  8 -1 -1</clus>
<clus scale="   96.698">  2  5  1 -1</clus>
<clus scale="  107.004">  1  5  2 -1</clus>
</clustering>
</event>
<event>
 9    1  0.2333971E-005  0.3380559E+03  0.7546771E-02  0.1068403E+00
          1   -1    0    0  502    0  0.00000000000E+00  0.00000000000E+00  0.11149151085E+04  0.11149151085E+04  0.00000000000E+00 0. -1.
         -2   -1    0    0    0  501 -0.00000000000E+00 -0.00000000000E+00 -0.12455882492E+03  0.12455882492E+03  0.00000000000E+00 0.  1.
        -24    2    1    2    0    0 -0.16507268958E+03  0.29475557270E+03  0.32870563182E+03  0.47531348667E+03  0.61201942240E+02 0.  0.
         23    2    1    2    0    0  0.18985802749E+03 -0.25625767374E+03  0.61431723527E+03  0.69830565562E+03  0.92363722165E+02 0.  0.
         11    1    3    3    0    0 -0.10017423181E+03  0.21814267115E+03  0.20257367706E+03  0.31409743127E+03  0.00000000000E+00 0. -1.
        -12    1    3    3    0    0 -0.64898457768E+02  0.76612901549E+02  0.12613195476E+03  0.16121605539E+03  0.00000000000E+00 0.  1.
        -11    1    4    4    0    0  0.10481895588E+03 -0.20552266912E+03  0.46579037103E+03  0.51979539318E+03  0.00000000000E+00 0.  1.
         11    1    4    4    0    0  0.85039071610E+02 -0.50735004620E+02  0.14852686424E+03  0.17851026244E+03  0.00000000000E+00 0. -1.
         21    1    1    2  502  501 -0.24785337910E+02 -0.38497898958E+02  0.47333416517E+02  0.65854791160E+02  0.00000000000E+00 0.  1.
<scales pt_clust_5="13000.00000" pt_clust_6="13000.00000" pt_clust_7="13000.00000" pt_clust_8="13000.00000" pt_clust_9="45.78647"></scales>
<clustering>
<clus scale="   45.786">  2  9  1 -1</clus>
<clus scale="   61.202">  5  6 -1 -1</clus>
<clus scale="   92.364">  7  8 -1 -1</clus>
<clus scale="  330.902">  2  5  1 -1</clus>
<clus scale="  338.056">  1  5  2 -1</clus>
</clustering>
</event>
<event>
 9    1  0.2333971E-005  0.9925838E+02  0.7546771E-02  0.1287774E+00
         -2   -1    0    0    0  501 -0.00000000000E+00  0.00000000000E+00  0.60850779130E+03  0.60850779130E+03  0.00000000000E+00 0.  1.
          1   -1    0    0  502    0  0.00000000000E+00 -0.00000000000E+00 -0.12668646927E+03  0.12668646927E+03  0.00000000000E+00 0. -1.
        -24    2    1    2    0    0  0.41001867853E+02  0.65822966510E+02  0.47623579479E+03  0.48928543650E+03  0.81153496836E+02 0.  0.
         23    2    1    2    0    0  0.25235719590E+02 -0.26528344317E+02 -0.82254192960E+02  0.12908715755E+03  0.92504850624E+02 0.  0.
         11    1    3    3    0    0 -0.18657054133E+02  0.14559627880E+02  0.44095616370E+02  0.50044898001E+02  0.00000000000E+00 0. -1.
        -12    1    3    3    0    0  0.59658921985E+02  0.51263338630E+02  0.43214017842E+03  0.43924053850E+03  0.00000000000E+00 0.  1.
        -13    1    4    4    0    0  0.33170387974E+02  0.23608831978E+02 -0.12061674178E+02  0.42463343835E+02  0.00000000000E+00 0.  1.
         13    1    4    4    0    0 -0.79346683845E+01 -0.50137176295E+02 -0.70192518782E+02  0.86623813712E+02  0.00000000000E+00 0. -1.
         21    1    1    2  502  501 -0.66237587442E+02 -0.39294622193E+02  0.87839720200E+02  0.11682166652E+03  0.00000000000E+00 0. -1.
<scales pt_clust_5="13000.00000" pt_clust_6="13000.00000" pt_clust_7="13000.00000" pt_clust_8="13000.00000" pt_clust_9="77.01614"></scales>
<clustering>
<clus scale="   77.016">  1  9  2 -1</clus>
<clus scale="   81.153">  5  6 -1 -1</clus>
<clus scale="   88.775">  1  5  2 -1</clus>
<clus scale="   92.505">  7  8 -1 -1</clus>
<clus scale="   99.258">  2  5  1 -1</clus>
</clustering>
</event>
<event>
 9    1  0.2333971E-005  0.9915949E+02  0.7546771E-02  0.1283794E+00
         -4   -1    0    0    0  501 -0.00000000000E+00  0.00000000000E+00  0.45374465733E+02  0.45374465733E+02  0.00000000000E+00 0.  1.
          3   -1    0    0  502    0  0.00000000000E+00 -0.00000000000E+00 -0.47005593126E+03  0.47005593126E+03  0.00000000000E+00 0. -1.
        -24    2    1    2    0    0 -0.11318150017E+02 -0.31310495451E+02 -0.78409371506E+02  0.12101055162E+03  0.85948103050E+02 0.  0.
         23    2    1    2    0    0  0.33521134919E+02  0.32556917055E+02 -0.35608100272E+03  0.37011468552E+03  0.89485085945E+02 0.  0.
         13    1    3    3    0    0 -0.20451825699E+02 -0.51780696968E+02 -0.21211440633E+02  0.59577201736E+02  0.00000000000E+00 0. -1.
        -14    1    3    3    0    0  0.91336756820E+01  0.20470201517E+02 -0.57197930873E+02  0.61433349883E+02  0.00000000000E+00 0.  1.
        -13    1    4    4    0    0  0.61122482531E+02  0.75444456611E+01 -0.25664689882E+03  0.26393277024E+03  0.00000000000E+00 0.  1.
         13    1    4    4    0    0 -0.27601347611E+02  0.25012471394E+02 -0.99434103895E+02  0.10618191528E+03  0.00000000000E+00 0. -1.
         21    1    1    2  502  501 -0.22202984902E+02 -0.12464216039E+01  0.98089087025E+01  0.24305159850E+02  0.00000000000E+00 0. -1.
<scales pt_clust_5="13000.00000" pt_clust_6="13000.00000" pt_clust_7="13000.00000" pt_clust_8="13000.00000" pt_clust_9="22.23794"></scales>
<clustering>
<clus scale="   22.238">  1  9  2 -1</clus>
<clus scale="   85.948">  5  6 -1 -1</clus>
<clus scale="   89.485">  7  8 -1 -1</clus>
<clus scale="   95.980">  1  5  2 -1</clus>
<clus scale="   99.159">  2  5  1 -1</clus>
</clustering>
</event>
<event>
 9    1  0.2333971E-005  0.9956470E+02  0.7546771E-02  0.1289969E+00
          1   -1    0    0  502    0  0.00000000000E+00  0.00000000000E+00  0.25342114804E+03  0.25342114804E+03  0.00000000000E+00 0. -1.
         -2   -1    0    0    0  501 -0.00000000000E+00 -0.00000000000E+00 -0.76992446821E+02  0.76992446821E+02  0.00000000000E+00 0.  1.
        -24    2    1    2    0    0  0.15890213893E+02  0.21673019482E+02  0.11943572771E+01  0.84787081334E+02  0.80406492281E+02 0.  0.
         23    2    1    2    0    0 -0.28447959507E+02  0.10938861830E+02  0.18377113100E+03  0.20965279381E+03  0.96195219552E+02 0.  0.
         13    1    3    3    0    0  0.45849083176E+02  0.14446517811E+02  0.15910282595E+02  0.50635732414E+02  0.00000000000E+00 0. -1.
        -14    1    3    3    0    0 -0.29958869283E+02  0.72265016716E+01 -0.14715925318E+02  0.34151348920E+02  0.00000000000E+00 0.  1.
        -13    1    4    4    0    0 -0.42528605744E+02 -0.31724316497E+02  0.74105195962E+02  0.91141069954E+02  0.00000000000E+00 0.  1.
         13    1    4    4    0    0  0.14080646237E+02  0.42663178327E+02  0.10966593504E+03  0.11851172385E+03  0.00000000000E+00 0. -1.
         21    1    1    2  502  501  0.12557745614E+02 -0.32611881313E+02 -0.85367870511E+01  0.35973719725E+02  0.00000000000E+00 0.  1.
<scales pt_clust_5="13000.00000" pt_clust_6="13000.00000" pt_clust_7="13000.00000" pt_clust_8="13000.00000" pt_clust_9="34.94613"></scales>
<clustering>
<clus scale="   34.946">  2  9  1 -1</clus>
<clus scale="   80.406">  5  6 -1 -1</clus>
<clus scale="   84.409">  2  5  1 -1</clus>
<clus scale="   96.195">  7  8 -1 -1</clus>
<clus scale="   99.565">  1  5  2 -1</clus>
</clustering>
</event>
<event>
 9    1  0.2333971E-005  0.1584980E+03  0.7546771E-02  0.1192354E+00
          1   -1    0    0  502    0  0.00000000000E+00  0.00000000000E+00  0.26011087472E+03  0.26011087472E+03  0.00000000000E+00 0. -1.
         -2   -1    0    0    0  501 -0.00000000000E+00 -0.00000000000E+00 -0.27735382224E+03  0.27735382224E+03  0.00000000000E+00 0.  1.
        -24    2    1    2    0    0  0.14080618675E+03 -0.72468729409E+02 -0.18260997556E+03  0.25309018981E+03  0.75034272387E+02 0.  0.
         23    2    1    2    0    0 -0.10594124507E+03  0.73111364063E+02  0.18696006182E+03  0.24335943376E+03  0.87754944722E+02 0.  0.
         11    1    3    3    0    0  0.32165314826E+00 -0.21902329131E+02 -0.79328893206E+01  0.23296914283E+02  0.00000000000E+00 0. -1.
        -12    1    3    3    0    0  0.14048453360E+03 -0.50566400278E+02 -0.17467708624E+03  0.22979327553E+03  0.00000000000E+00 0.  1.
        -11    1    4    4    0    0 -0.13778052544E+02  0.59122217667E+02  0.92549069937E+02  0.11068243628E+03  0.00000000000E+00 0. -1.
         11    1    4    4    0    0 -0.92163192527E+02  0.13989146396E+02  0.94410991880E+02  0.13267699748E+03  0.00000000000E+00 0.  1.
         21    1    1    2  502  501 -0.34864941681E+02 -0.64263465360E+00 -0.21593033766E+02  0.41015073387E+02  0.00000000000E+00 0. -1.
<scales pt_clust_5="13000.00000" pt_clust_6="13000.00000" pt_clust_7="13000.00000" pt_clust_8="13000.00000" pt_clust_9="34.87086"></scales>
<clustering>
<clus scale="   34.871">  2  9  1 -1</clus>
<clus scale="   75.034">  5  6 -1 -1</clus>
<clus scale="   87.755">  7  8 -1 -1</clus>
<clus scale="  151.825">  2  5  1 -1</clus>
<clus scale="  158.498">  1  5  2 -1</clus>
</clustering>
</event>
<event>
 9    1  0.2333971E-005  0.1829993E+03  0.7546771E-02  0.1166208E+00
          1   -1    0    0  502    0  0.00000000000E+00  0.00000000000E+00  0.16117312028E+03  0.16117312028E+03  0.00000000000E+00 0. -1.
         -2   -1    0    0    0  501 -0.00000000000E+00 -0.00000000000E+00 -0.43370891475E+03  0.43370891475E+03  0.00000000000E+00 0.  1.
         23    2    1    2    0    0  0.14748657466E+03  0.31156976622E+01 -0.70325898446E+02  0.18665123507E+03  0.90171804273E+02 0.  0.
        -24    2    1    2    0    0 -0.16611235975E+03  0.23103131200E+02  0.17529480117E+02  0.18615031841E+03  0.78851681255E+02 0.  0.
         13    1    4    4    0    0 -0.13684001228E+03  0.44159440469E+02  0.31982470090E+02  0.14730282935E+03  0.00000000000E+00 0. -1.
        -14    1    4    4    0    0 -0.29272347476E+02 -0.21056309268E+02 -0.14452989973E+02  0.38847489055E+02  0.00000000000E+00 0.  1.
        -11    1    3    3    0    0  0.87010456056E+02  0.24596670319E+02  0.13653284953E+01  0.90430524580E+02  0.00000000000E+00 0. -1.
         11    1    3    3    0    0  0.60476118602E+02 -0.21480972657E+02 -0.71691226941E+02  0.96220710493E+02  0.00000000000E+00 0.  1.
         21    1    1    2  502  501  0.18625785095E+02 -0.26218828863E+02 -0.21973937614E+03  0.22208048155E+03  0.00000000000E+00 0.  1.
<scales pt_clust_5="13000.00000" pt_clust_6="13000.00000" pt_clust_7="13000.00000" pt_clust_8="13000.00000" pt_clust_9="32.16126"></scales>
<clustering>
<clus scale="   32.161">  2  9  1 -1</clus>
<clus scale="   78.852">  5  6 -1 -1</clus>
<clus scale="   90.172">  7  8 -1 -1</clus>
<clus scale="  177.695">  1  5  2 -1</clus>
<clus scale="  177.695">  1  5  2 -1</clus>
</clustering>
</event>
<event>
 9    1  0.2333971E-005  0.1431378E+03  0.7546771E-02  0.1210696E+00
         -2   -1    0    0    0  501 -0.00000000000E+00  0.00000000000E+00  0.61044323288E+02  0.61044323288E+02  0.00000000000E+00 0.  1.
          1   -1    0    0  502    0  0.00000000000E+00 -0.00000000000E+00 -0.94277370713E+03  0.94277370713E+03  0.00000000000E+00 0. -1.
         23    2    1    2    0    0 -0.55965865594E+02  0.11001379238E+01 -0.65601349421E+02  0.12380592731E+03  0.88831200460E+02 0.  0.
        -24    2    1    2    0    0  0.12530598143E+03  0.12458916599E+02 -0.79093113387E+03  0.80500021458E+03  0.81218676262E+02 0.  0.
         11    1    4    4    0    0  0.88512520319E+02  0.46247218508E+02 -0.53394712742E+03  0.54320604410E+03  0.00000000000E+00 0. -1.
        -12    1    4    4    0    0  0.36793461111E+02 -0.33788301909E+02 -0.25698400645E+03  0.26179417048E+03  0.00000000000E+00 0.  1.
        -11    1    3    3    0    0  0.21474194309E+02  0.12976621634E+02 -0.72461869279E+01  0.26115913832E+02  0.00000000000E+00 0. -1.
         11    1    3    3    0    0 -0.77440059903E+02 -0.11876483710E+02 -0.58355162493E+02  0.97690013475E+02  0.00000000000E+00 0.  1.
         21    1    1    2  502  501 -0.69340115836E+02 -0.13559054523E+02 -0.25196900560E+02  0.75011888535E+02  0.00000000000E+00 0.  1.
<scales pt_clust_5="13000.00000" pt_clust_6="13000.00000" pt_clust_7="13000.00000" pt_clust_8="13000.00000" pt_clust_9="70.65338"></scales>
<clustering>
<clus scale="   70.653">  1  9  2 -1</clus>
<clus scale="   81.219">  5  6 -1 -1</clus>
<clus scale="   88.831">  7  8 -1 -1</clus>
<clus scale="  138.542">  2  5  1 -1</clus>
<clus scale="  138.542">  2  5  1 -1</clus>
</clustering>
</event>
<event>
 9    1  0.2333971E-005  0.1254561E+03  0.7546771E-02  0.1235582E+00
          1   -1    0    0  502    0  0.00000000000E+00  0.00000000000E+00  0.71156117516E+03  0.71156117516E+03  0.00000000000E+00 0. -1.
         -2   -1    0    0    0  501 -0.00000000000E+00 -0.00000000000E+00 -0.53196496156E+02  0.53196496156E+02  0.00000000000E+00 0.  1.
         23    2    1    2    0    0 -0.82750370887E+02  0.23463912808E+02  0.57687811965E+02  0.13816675059E+03  0.91454842591E+02 0.  0.
        -24    2    1    2    0    0  0.67069775337E+02 -0.55253065566E+02  0.55653058679E+03  0.56997532773E+03  0.87145419710E+02 0.  0.
         13    1    4    4    0    0  0.69750154103E+02 -0.61773198846E+02  0.31869815292E+03  0.33203843869E+03  0.00000000000E+00 0. -1.
        -14    1    4    4    0    0 -0.26803787658E+01  0.65201332799E+01  0.23783243387E+03  0.23793688904E+03  0.00000000000E+00 0.  1.
        -13    1    3    3    0    0 -0.49087832509E+02 -0.14013867741E+02 -0.11746324521E+02  0.52383011838E+02  0.00000000000E+00 0.  1.
         13    1    3    3    0    0 -0.33662538379E+02  0.37477780549E+02  0.69434136486E+02  0.85783738753E+02  0.00000000000E+00 0. -1.
         21    1    1    2  502  501  0.15680595550E+02  0.31789152758E+02  0.44146280253E+02  0.56615592994E+02  0.00000000000E+00 0.  1.
<scales pt_clust_5="13000.00000" pt_clust_6="13000.00000" pt_clust_7="13000.00000" pt_clust_8="13000.00000" pt_clust_9="35.44617"></scales>
<clustering>
<clus scale="   35.446">  2  9  1 -1</clus>
<clus scale="   87.145">  5  6 -1 -1</clus>
<clus scale="   91.455">  7  8 -1 -1</clus>
<clus scale="  122.350">  1  5  2 -1</clus>
<clus scale="  122.350">  1  5  2 -1</clus>
</clustering>
</event>
<event>
 9    1  0.2333971E-005  0.9842721E+02  0.7546771E-02  0.1286868E+00
         -2   -1    0    0    0  501 -0.00000000000E+00  0.00000000000E+00  0.62887398151E+02  0.62887398151E+02  0.00000000000E+00 0.  1.
          1   -1    0    0  502    0  0.00000000000E+00 -0.00000000000E+00 -0.44983399713E+03  0.44983399713E+03  0.00000000000E+00 0. -1.
         23    2    1    2    0    0  0.18344190598E+02  0.87715596904E+01 -0.72686415467E+02  0.11798672126E+03  0.90686833725E+02 0.  0.
        -24    2    1    2    0    0  0.57613732782E+02 -0.61747240923E+02 -0.73903070833E+02  0.13715445246E+03  0.78851861006E+02 0.  0.
         11    1    4    4    0    0  0.93091168011E+01 -0.40622306616E+02  0.52975734699E+01  0.42010662160E+02  0.00000000000E+00 0. -1.
        -12    1    4    4    0    0  0.48304615981E+02 -0.21124934307E+02 -0.79200644303E+02  0.95143790299E+02  0.00000000000E+00 0.  1.
        -11    1    3    3    0    0 -0.14624498483E+02 -0.24135598640E+02  0.37564543841E+01  0.28469528046E+02  0.00000000000E+00 0.  1.
         11    1    3    3    0    0  0.32968689082E+02  0.32907158331E+02 -0.76442869851E+02  0.89517193210E+02  0.00000000000E+00 0. -1.
         21    1    1    2  502  501 -0.75957923381E+02  0.52975681232E+02 -0.24035711268E+03  0.25758022157E+03  0.00000000000E+00 0. -1.
<scales pt_clust_5="13000.00000" pt_clust_6="13000.00000" pt_clust_7="13000.00000" pt_clust_8="13000.00000" pt_clust_9="92.60685"></scales>
<clustering>
<clus scale="   78.852">  5  6 -1 -1</clus>
<clus scale="   90.687">  7  8 -1 -1</clus>
<clus scale="   92.607">  2  9  1 -1</clus>
<clus scale="   92.607">  2  5  1 -1</clus>
<clus scale="   92.607">  2  5  1 -1</clus>
</clustering>
</event>
<event>
 9    1  0.2333971E-005  0.2423342E+03  0.7546771E-02  0.1119806E+00
          1   -1    0    0  502    0  0.00000000000E+00  0.00000000000E+00  0.12106369013E+04  0.12106369013E+04  0.00000000000E+00 0. -1.
         -2   -1    0    0    0  501 -0.00000000000E+00 -0.00000000000E+00 -0.11783113087E+03  0.11783113087E+03  0.00000000000E+00 0.  1.
        -24    2    1    2    0    0  0.24585729198E+03 -0.49915312298E+02  0.15914152426E+03  0.30762114741E+03  0.79795984631E+02 0.  0.
         23    2    1    2    0    0 -0.21308716193E+03  0.67195912213E+01  0.93698507365E+03  0.96652580564E+03  0.10382587944E+03 0.  0.
         13    1    3    3    0    0  0.10691881863E+03 -0.58012208316E+02  0.95170088516E+02  0.15444868351E+03  0.00000000000E+00 0. -1.
        -14    1    3    3    0    0  0.13893847336E+03  0.80968960180E+01  0.63971435746E+02  0.15317246390E+03  0.00000000000E+00 0.  1.
        -13    1    4    4    0    0 -0.11802775567E+03 -0.45516864023E+02  0.43884129097E+03  0.45670998969E+03  0.00000000000E+00 0.  1.
         13    1    4    4    0    0 -0.95059406261E+02  0.52236455244E+02  0.49814378268E+03  0.50981581596E+03  0.00000000000E+00 0. -1.
         21    1    1    2  502  501 -0.32770130058E+02  0.43195721077E+02 -0.33208274672E+01  0.54321079135E+02  0.00000000000E+00 0.  1.
<scales pt_clust_5="13000.00000" pt_clust_6="13000.00000" pt_clust_7="13000.00000" pt_clust_8="13000.00000" pt_clust_9="54.21948"></scales>
<clustering>
<clus scale="   54.219">  2  9  1 -1</clus>
<clus scale="   79.796">  5  6 -1 -1</clus>
<clus scale="  103.826">  7  8 -1 -1</clus>
<clus scale="  233.052">  2  5  1 -1</clus>
<clus scale="  242.334">  1  5  2 -1</clus>
</clustering>
</event>
<event>
 9    1  0.2333971E-005  0.1033748E+03  0.7546771E-02  0.1279012E+00
         -2   -1    0    0    0  501 -0.00000000000E+00  0.00000000000E+00  0.15005918996E+03  0.15005918996E+03  0.00000000000E+00 0.  1.
          1   -1    0    0  502    0  0.00000000000E+00 -0.00000000000E+00 -0.26333549293E+03  0.26333549293E+03  0.00000000000E+00 0. -1.
        -24    2    1    2    0    0  0.29281184839E+02  0.14681114188E+01  0.10005569755E+03  0.13055097756E+03  0.78567626873E+02 0.  0.
         23    2    1    2    0    0 -0.38589689763E+02 -0.34810888463E+02 -0.22347409540E+03  0.24677084664E+03  0.90852723265E+02 0.  0.
         13    1    3    3    0    0 -0.10094775226E+02 -0.31137023623E+02  0.38438000499E+02  0.50486618121E+02  0.00000000000E+00 0. -1.
        -14    1    3    3    0    0  0.39375960066E+02  0.32605135042E+02  0.61617697051E+02  0.80064359437E+02  0.00000000000E+00 0.  1.
        -13    1    4    4    0    0  0.27850547457E+02  0.22893744387E+01 -0.48678988899E+02  0.56129655167E+02  0.00000000000E+00 0.  1.
         13    1    4    4    0    0 -0.66440237219E+02 -0.37100262901E+02 -0.17479510651E+03  0.19064119148E+03  0.00000000000E+00 0. -1.
         21    1    1    2  502  501  0.93085049234E+01  0.33342777044E+02  0.10142094884E+02  0.36072858683E+02  0.00000000000E+00 0.  1.
<scales pt_clust_5="13000.00000" pt_clust_6="13000.00000" pt_clust_7="13000.00000" pt_clust_8="13000.00000" pt_clust_9="34.61776"></scales>
<clustering>
<clus scale="   34.618">  1  9  2 -1</clus>
<clus scale="   78.568">  5  6 -1 -1</clus>
<clus scale="   90.853">  7  8 -1 -1</clus>
<clus scale="   92.763">  1  5  2 -1</clus>
<clus scale="  103.375">  2  5  1 -1</clus>
</clustering>
</event>
<event>
 9    1  0.2333971E-005  0.1013357E+03  0.7546771E-02  0.1281678E+00
         -2   -1    0    0    0  501 -0.00000000000E+00  0.00000000000E+00  0.30838157907E+02  0.30838157907E+02  0.00000000000E+00 0.  1.
          1   -1    0    0  502    0  0.00000000000E+00 -0.00000000000E+00 -0.11245104174E+04  0.11245104174E+04  0.00000000000E+00 0. -1.
         23    2    1    2    0    0 -0.99033966640E+01  0.13954071381E+02 -0.90545009151E+02  0.12980155379E+03  0.91418003209E+02 0.  0.
        -24    2    1    2    0    0  0.26326144074E+02 -0.38717938603E+02 -0.98732134410E+03  0.99189018825E+03  0.82768136416E+02 0.  0.
         11    1    4    4    0    0 -0.23448543180E+02 -0.30631196432E+01 -0.11409136453E+03  0.11651633508E+03  0.00000000000E+00 0. -1.
        -12    1    4    4    0    0  0.49774687254E+02 -0.35654818960E+02 -0.87322997957E+03  0.87537385317E+03  0.00000000000E+00 0.  1.
        -13    1    3    3    0    0  0.71751240084E+01  0.47633421988E+02 -0.25284976401E+02  0.54403633394E+02  0.00000000000E+00 0.  1.
         13    1    3    3    0    0 -0.17078520672E+02 -0.33679350607E+02 -0.65260032749E+02  0.75397920396E+02  0.00000000000E+00 0. -1.
         21    1    1    2  502  501 -0.16422747410E+02  0.24763867222E+02 -0.15805906219E+02  0.33656833239E+02  0.00000000000E+00 0. -1.
<scales pt_clust_5="13000.00000" pt_clust_6="13000.00000" pt_clust_7="13000.00000" pt_clust_8="13000.00000" pt_clust_9="29.71457"></scales>
<clustering>
<clus scale="   29.715">  1  9  2 -1</clus>
<clus scale="   82.768">  5  6 -1 -1</clus>
<clus scale="   91.418">  7  8 -1 -1</clus>
<clus scale="   93.607">  2  5  1 -1</clus>
<clus scale="   93.607">  2  5  1 -1</clus>
</clustering>
</event>
<event>
 9    1  0.2333971E-005  0.9412391E+02  0.7546771E-02  0.1297937E+00
         -4   -1    0    0    0  501 -0.00000000000E+00  0.00000000000E+00  0.18645506053E+03  0.18645506053E+03  0.00000000000E+00 0.  1.
          3   -1    0    0  502    0  0.00000000000E+00 -0.00000000000E+00 -0.61547332513E+02  0.61547332513E+02  0.00000000000E+00 0. -1.
         23    2    1    2    0    0  0.67614840442E+01  0.23134794674E+02  0.61470671619E+02  0.11090916080E+03  0.89113759263E+02 0.  0.
        -24    2    1    2    0    0 -0.29837724359E+02 -0.21734943029E+02  0.24826665570E+02  0.92090624185E+02  0.80632637289E+02 0.  0.
         13    1    4    4    0    0 -0.32144142713E+02 -0.27019050204E+02 -0.20269395120E+02  0.46627495785E+02  0.00000000000E+00 0. -1.
        -14    1    4    4    0    0  0.23064183539E+01  0.52841071749E+01  0.45096060689E+02  0.45463128400E+02  0.00000000000E+00 0.  1.
        -13    1    3    3    0    0 -0.29247559254E+02  0.42252364817E+02  0.31033511316E+02  0.60031332482E+02  0.00000000000E+00 0. -1.
         13    1    3    3    0    0  0.36009043299E+02 -0.19117570143E+02  0.30437160303E+02  0.50877828322E+02  0.00000000000E+00 0.  1.
         21    1    1    2  502  501  0.23076240314E+02 -0.13998516455E+01  0.38610390823E+02  0.45002608049E+02  0.00000000000E+00 0.  1.
<scales pt_clust_5="13000.00000" pt_clust_6="13000.00000" pt_clust_7="13000.00000" pt_clust_8="13000.00000" pt_clust_9="23.11866"></scales>
<clustering>
<clus scale="   23.119">  1  9  2 -1</clus>
<clus scale="   80.633">  5  6 -1 -1</clus>
<clus scale="   86.138">  2  5  1 -1</clus>
<clus scale="   89.114">  7  8 -1 -1</clus>
<clus scale="   86.138">  2  5  1 -1</clus>
</clustering>
</event>
<event>
 9    1  0.2333971E-005  0.1275977E+03  0.7546771E-02  0.1235172E+00
         -2   -1    0    0    0  501 -0.00000000000E+00  0.00000000000E+00  0.37341973316E+03  0.37341973316E+03  0.00000000000E+00 0.  1.
          1   -1    0    0  502    0  0.00000000000E+00 -0.00000000000E+00 -0.52784534350E+02  0.52784534350E+02  0.00000000000E+00 0. -1.
        -24    2    1    2    0    0 -0.28252706207E+02  0.87606458834E+02  0.18665835835E+03  0.22322138291E+03  0.80705241521E+02 0.  0.
         23    2    1    2    0    0  0.44890264595E+02 -0.62409760166E+02  0.10624594881E+03  0.16198673448E+03  0.95086205571E+02 0.  0.
         13    1    3    3    0    0 -0.42451467219E+02  0.77088352191E+02  0.93498731374E+02  0.12840075499E+03  0.00000000000E+00 0. -1.
        -14    1    3    3    0    0  0.14198761012E+02  0.10518106643E+02  0.93159626972E+02  0.94820627920E+02  0.00000000000E+00 0.  1.
        -11    1    4    4    0    0  0.41164935832E+02 -0.84625961176E+01  0.98843574772E+02  0.10740679564E+03  0.00000000000E+00 0.  1.
         11    1    4    4    0    0  0.37253287629E+01 -0.53947164048E+02  0.74023740429E+01  0.54579938848E+02  0.00000000000E+00 0. -1.
         21    1    1    2  502  501 -0.16637558388E+02 -0.25196698668E+02  0.27730891652E+02  0.40996150121E+02  0.00000000000E+00 0. -1.
<scales pt_clust_5="13000.00000" pt_clust_6="13000.00000" pt_clust_7="13000.00000" pt_clust_8="13000.00000" pt_clust_9="30.19407"></scales>
<clustering>
<clus scale="   30.194">  2  9  1 -1</clus>
<clus scale="   80.705">  5  6 -1 -1</clus>
<clus scale="   95.086">  7  8 -1 -1</clus>
<clus scale="  117.274">  1  5  2 -1</clus>
<clus scale="   30.194">  2  5  1 -1</clus>
</clustering>
</event>
<event>
 9    1  0.2333971E-005  0.1491646E+03  0.7546771E-02  0.1215310E+00
         -2   -1    0    0    0  501 -0.00000000000E+00  0.00000000000E+00  0.64803269693E+03  0.64803269693E+03  0.00000000000E+00 0.  1.
          1   -1    0    0  502    0  0.00000000000E+00 -0.00000000000E+00 -0.38198295809E+03  0.38198295809E+03  0.00000000000E+00 0. -1.
        -24    2    1    2    0    0  0.11048028452E+03 -0.35129479599E+02 -0.26581033700E+03  0.30547974481E+03  0.96035231186E+02 0.  0.
         23    2    1    2    0    0  0.36815464795E+01  0.32546564719E+02 -0.56955802649E+02  0.12474950334E+03  0.10604547359E+03 0.  0.
         13    1    3    3    0    0  0.32098669324E+02 -0.60142766685E+02 -0.11511515420E+03  0.13378705350E+03  0.00000000000E+00 0. -1.
        -14    1    3    3    0    0  0.78381615193E+02  0.25013287085E+02 -0.15069518279E+03  0.17169269131E+03  0.00000000000E+00 0.  1.
        -11    1    4    4    0    0  0.43576344346E+02  0.45148332865E+02 -0.13027599645E+02  0.64085787032E+02  0.00000000000E+00 0. -1.
         11    1    4    4    0    0 -0.39894797867E+02 -0.12601768145E+02 -0.43928203004E+02  0.60663716309E+02  0.00000000000E+00 0.  1.
         21    1    1    2  502  501 -0.11416183100E+03  0.25829148801E+01  0.58881587849E+03  0.59978640687E+03  0.00000000000E+00 0.  1.
<scales pt_clust_5="13000.00000" pt_clust_6="13000.00000" pt_clust_7="13000.00000" pt_clust_8="13000.00000" pt_clust_9="114.13722"></scales>
<clustering>
<clus scale="   96.035">  5  6 -1 -1</clus>
<clus scale="  106.045">  7  8 -1 -1</clus>
<clus scale="  110.989">  2  7  1 -1</clus>
<clus scale="  114.137">  1  9  2 -1</clus>
<clus scale="  110.989">  2  5  1 -1</clus>
</clustering>
</event>
<event>
 9    1  0.2333971E-005  0.1365575E+03  0.7546771E-02  0.1221362E+00
          1   -1    0    0  502    0  0.00000000000E+00  0.00000000000E+00  0.50136179315E+03  0.50136179315E+03  0.00000000000E+00 0. -1.
         -2   -1    0    0    0  501 -0.00000000000E+00 -0.00000000000E+00 -0.98324319971E+02  0.98324319971E+02  0.00000000000E+00 0.  1.
         23    2    1    2    0    0  0.22020952546E+02  0.84288463244E+02  0.40617864113E+02  0.13414151736E+03  0.93566385028E+02 0.  0.
        -24    2    1    2    0    0 -0.97004813097E+01 -0.10190871825E+03  0.40097071165E+03  0.42140328961E+03  0.79521913337E+02 0.  0.
         13    1    4    4    0    0 -0.30155436068E+02 -0.10169675929E+03  0.29536064981E+03  0.31383035964E+03  0.00000000000E+00 0. -1.
        -14    1    4    4    0    0  0.20454954759E+02 -0.21195895648E+00  0.10561006184E+03  0.10757292997E+03  0.00000000000E+00 0.  1.
        -13    1    3    3    0    0  0.57123142158E+02  0.66644995434E+02  0.34815864500E+02  0.94428561396E+02  0.00000000000E+00 0.  1.
         13    1    3    3    0    0 -0.35102189611E+02  0.17643467810E+02  0.58019996134E+01  0.39712955964E+02  0.00000000000E+00 0. -1.
         21    1    1    2  502  501 -0.12320471237E+02  0.17620255007E+02 -0.38551102586E+02  0.44141306149E+02  0.00000000000E+00 0. -1.
<scales pt_clust_5="13000.00000" pt_clust_6="13000.00000" pt_clust_7="13000.00000" pt_clust_8="13000.00000" pt_clust_9="21.50040"></scales>
<clustering>
<clus scale="   21.500">  2  9  1 -1</clus>
<clus scale="   79.522">  5  6 -1 -1</clus>
<clus scale="   93.566">  7  8 -1 -1</clus>
<clus scale="  127.346">  1  5  2 -1</clus>
<clus scale="  127.346">  1  5  2 -1</clus>
</clustering>
</event>
<event>
 9    1  0.2333971E-005  0.9609868E+02  0.7546771E-02  0.1307996E+00
         -2   -1    0    0    0  501 -0.00000000000E+00  0.00000000000E+00  0.88005378676E+02  0.88005378676E+02  0.00000000000E+00 0.  1.
          1   -1    0    0  502    0  0.00000000000E+00 -0.00000000000E+00 -0.20560584366E+03  0.20560584366E+03  0.00000000000E+00 0. -1.
         23    2    1    2    0    0 -0.13366602764E+02 -0.14881529000E+02 -0.98559248524E+01  0.94513624310E+02  0.91845304456E+02 0.  0.
        -24    2    1    2    0    0  0.29399906306E+02 -0.13590714790E+02 -0.13814037090E+03  0.15446978141E+03  0.61066269548E+02 0.  0.
         13    1    4    4    0    0  0.10457358312E+02  0.17589378057E+02 -0.13294823739E+02  0.24402764219E+02  0.00000000000E+00 0. -1.
        -14    1    4    4    0    0  0.18942547994E+02 -0.31180092847E+02 -0.12484554716E+03  0.13006701719E+03  0.00000000000E+00 0.  1.
        -11    1    3    3    0    0 -0.45806721667E+02  0.50607925696E+01 -0.26270062825E+02  0.53046993997E+02  0.00000000000E+00 0. -1.
         11    1    3    3    0    0  0.32440118904E+02 -0.19942321569E+02  0.16414137972E+02  0.41466630312E+02  0.00000000000E+00 0.  1.
         21    1    1    2  502  501 -0.16033303542E+02  0.28472243789E+02  0.30395830763E+02  0.44627816624E+02  0.00000000000E+00 0.  1.
<scales pt_clust_5="13000.00000" pt_clust_6="13000.00000" pt_clust_7="13000.00000" pt_clust_8="13000.00000" pt_clust_9="32.67622"></scales>
<clustering>
<clus scale="   32.676">  1  9  2 -1</clus>
<clus scale="   61.066">  5  6 -1 -1</clus>
<clus scale="   67.294">  2  5  1 -1</clus>
<clus scale="   91.845">  7  8 -1 -1</clus>
<clus scale="   67.294">  2  5  1 -1</clus>
</clustering>
</event>
<event>
 9    1  0.2333971E-005  0.1461951E+03  0.7546771E-02  0.1207705E+00
         -4   -1    0    0    0  501 -0.00000000000E+00  0.00000000000E+00  0.19147597110E+03  0.19147597110E+03  0.00000000000E+00 0.  1.
          3   -1    0    0  502    0  0.00000000000E+00 -0.00000000000E+00 -0.15375987072E+03  0.15375987072E+03  0.00000000000E+00 0. -1.
        -24    2    1    2    0    0  0.39465973499E+02 -0.11647938945E+03  0.78492624854E+02  0.16702344889E+03  0.81306390219E+02 0.  0.
         23    2    1    2    0    0 -0.47397209371E+02  0.97311874168E+02 -0.54708258395E+02  0.15322456880E+03  0.93641222963E+02 0.  0.
         11    1    3    3    0    0  0.27688267903E+02 -0.42841110880E+02 -0.92811653311E+01  0.51847285279E+02  0.00000000000E+00 0. -1.
        -12    1    3    3    0    0  0.11777705596E+02 -0.73638278575E+02  0.87773790185E+02  0.11517616361E+03  0.00000000000E+00 0.  1.
        -11    1    4    4    0    0 -0.61282796296E+02  0.29826210363E+02 -0.51434324815E+01  0.68349388030E+02  0.00000000000E+00 0.  1.
         11    1    4    4    0    0  0.13885586924E+02  0.67485663805E+02 -0.49564825913E+02  0.84875180773E+02  0.00000000000E+00 0. -1.
         21    1    1    2  502  501  0.79312358722E+01  0.19167515287E+02  0.13931733916E+02  0.24987824128E+02  0.00000000000E+00 0. -1.
<scales pt_clust_5="13000.00000" pt_clust_6="13000.00000" pt_clust_7="13000.00000" pt_clust_8="13000.00000" pt_clust_9="20.74363"></scales>
<clustering>
<clus scale="   20.744">  1  9  2 -1</clus>
<clus scale="   81.306">  5  6 -1 -1</clus>
<clus scale="   93.641">  7  8 -1 -1</clus>
<clus scale="  138.618">  1  5  2 -1</clus>
<clus scale="  146.195">  2  5  1 -1</clus>
</clustering>
</event>
<event>
 9    1  0.2333971E-005  0.1402411E+03  0.7546771E-02  0.1215570E+00
         -2   -1    0    0    0  501 -0.00000000000E+00  0.00000000000E+00  0.69939414803E+03  0.69939414803E+03  0.00000000000E+00 0.  1.
          1   -1    0    0  502    0  0.00000000000E+00 -0.00000000000E+00 -0.43489477368E+02  0.43489477368E+02  0.00000000000E+00 0. -1.
         23    2    1    2    0    0 -0.39837840302E+01  0.91577012798E+02  0.48940444601E+03  0.50633219737E+03  0.91942169360E+02 0.  0.
        -24    2    1    2    0    0 -0.43523462228E+01 -0.10984006873E+03  0.10500590399E+03  0.17186308478E+03  0.80167926373E+02 0.  0.
         13    1    4    4    0    0 -0.93345343379E+01 -0.11863940659E+03  0.76144107192E+02  0.14128116431E+03  0.00000000000E+00 0. -1.
        -14    1    4    4    0    0  0.49821881151E+01  0.87993378579E+01  0.28861796802E+02  0.30581920472E+02  0.00000000000E+00 0.  1.
        -11    1    3    3    0    0  0.22466975918E+02  0.99664381708E+02  0.38679775952E+03  0.40006282101E+03  0.00000000000E+00 0.  1.
         11    1    3    3    0    0 -0.26450759948E+02 -0.80873689096E+01  0.10260668650E+03  0.10626937636E+03  0.00000000000E+00 0. -1.
         21    1    1    2  502  501  0.83361302530E+01  0.18263055935E+02  0.61494320661E+02  0.64688343256E+02  0.00000000000E+00 0.  1.
<scales pt_clust_5="13000.00000" pt_clust_6="13000.00000" pt_clust_7="13000.00000" pt_clust_8="13000.00000" pt_clust_9="20.07561"></scales>
<clustering>
<clus scale="   20.076">  1  9  2 -1</clus>
<clus scale="   80.168">  5  6 -1 -1</clus>
<clus scale="   91.942">  7  8 -1 -1</clus>
<clus scale="  132.820">  2  5  1 -1</clus>
<clus scale="  132.820">  2  5  1 -1</clus>
</clustering>
</event>
<event>
 9    1  0.2333971E-005  0.1442335E+03  0.7546771E-02  0.1210071E+00
          1   -1    0    0  502    0  0.00000000000E+00  0.00000000000E+00  0.66140292741E+02  0.66140292741E+02  0.00000000000E+00 0. -1.
         -2   -1    0    0    0  501 -0.00000000000E+00 -0.00000000000E+00 -0.56438068485E+03  0.56438068485E+03  0.00000000000E+00 0.  1.
        -24    2    1    2    0    0 -0.95944196337E+02  0.33833717681E+02 -0.34593662558E+03  0.36970183468E+03  0.81592207866E+02 0.  0.
         23    2    1    2    0    0  0.13398994352E+03 -0.49344411496E+02 -0.11706980296E+03  0.20669435478E+03  0.92892634922E+02 0.  0.
         11    1    3    3    0    0 -0.88042491896E+02 -0.64235052490E+01 -0.25753784380E+03  0.27224709877E+03  0.00000000000E+00 0. -1.
        -12    1    3    3    0    0 -0.79017044412E+01  0.40257222930E+02 -0.88398781773E+02  0.97454735903E+02  0.00000000000E+00 0.  1.
        -13    1    4    4    0    0  0.10377752774E+03 -0.73405256438E+02 -0.10851969826E+03  0.16713656645E+03  0.00000000000E+00 0. -1.
         13    1    4    4    0    0  0.30212415783E+02  0.24060844943E+02 -0.85501046987E+01  0.39557788325E+02  0.00000000000E+00 0.  1.
         21    1    1    2  502  501 -0.38045747184E+02  0.15510693815E+02 -0.35233963576E+02  0.54124788135E+02  0.00000000000E+00 0. -1.
<scales pt_clust_5="13000.00000" pt_clust_6="13000.00000" pt_clust_7="13000.00000" pt_clust_8="13000.00000" pt_clust_9="41.08601"></scales>
<clustering>
<clus scale="   41.086">  1  9  2 -1</clus>
<clus scale="   81.592">  5  6 -1 -1</clus>
<clus scale="   92.893">  7  8 -1 -1</clus>
<clus scale="  137.228">  2  5  1 -1</clus>
<clus scale="   41.086">  1  5  2 -1</clus>
</clustering>
</event>
<event>
 9    1  0.2333971E-005  0.9425660E+02  0.7546771E-02  0.1298869E+00
         -2   -1    0    0    0  501 -0.00000000000E+00  0.00000000000E+00  0.28784193876E+03  0.28784193876E+03  0.00000000000E+00 0.  1.
          1   -1    0    0  502    0  0.00000000000E+00 -0.00000000000E+00 -0.39234373160E+02  0.39234373160E+02  0.00000000000E+00 0. -1.
        -24    2    1    2    0    0 -0.33625370821E+02 -0.87243116605E+01  0.15155412308E+03  0.17516361447E+03  0.80665112883E+02 0.  0.
         23    2    1    2    0    0  0.19560415492E+02 -0.60317410282E+01  0.64172781210E+02  0.11322546509E+03  0.91010265037E+02 0.  0.
         11    1    3    3    0    0 -0.56101980318E+02  0.10986894764E+02  0.11006227777E+03  0.12402358260E+03  0.00000000000E+00 0. -1.
        -12    1    3    3    0    0  0.22476609498E+02 -0.19711206425E+02  0.41491845309E+02  0.51140031877E+02  0.00000000000E+00 0.  1.
        -11    1    4    4    0    0  0.54960727806E+02 -0.87543988741E+01  0.50591060680E+02  0.75211545133E+02  0.00000000000E+00 0.  1.
         11    1    4    4    0    0 -0.35400312315E+02  0.27226578458E+01  0.13581720530E+02  0.38013919954E+02  0.00000000000E+00 0. -1.
         21    1    1    2  502  501  0.14064955329E+02  0.14756052689E+02  0.32880661309E+02  0.38687232358E+02  0.00000000000E+00 0.  1.
<scales pt_clust_5="13000.00000" pt_clust_6="13000.00000" pt_clust_7="13000.00000" pt_clust_8="13000.00000" pt_clust_9="20.38539"></scales>
<clustering>
<clus scale="   20.385">  1  9  2 -1</clus>
<clus scale="   80.665">  5  6 -1 -1</clus>
<clus scale="   84.311">  1  5  2 -1</clus>
<clus scale="   91.010">  7  8 -1 -1</clus>
<clus scale="   94.257">  2  5  1 -1</clus>
</clustering>
</event>
<event>
 9    1  0.2333971E-005  0.9215282E+02  0.7546771E-02  0.1304960E+00
         -2   -1    0    0    0  501 -0.00000000000E+00  0.00000000000E+00  0.10041933907E+03  0.10041933907E+03  0.00000000000E+00 0.  1.
          1   -1    0    0  502    0  0.00000000000E+00 -0.00000000000E+00 -0.14169118877E+03  0.14169118877E+03  0.00000000000E+00 0. -1.
        -24    2    1    2    0    0 -0.21624954687E+02  0.11804390570E+02  0.21126594684E+02  0.86375451196E+02  0.80046257029E+02 0.  0.
         23    2    1    2    0    0  0.47833343281E+01 -0.23023342170E+00 -0.85140500820E+02  0.12516053787E+03  0.91615075538E+02 0.  0.
         13    1    3    3    0    0  0.30215897933E+02  0.78246336976E+01  0.12728632149E+02  0.33708210525E+02  0.00000000000E+00 0. -1.
        -14    1    3    3    0    0 -0.51840852620E+02  0.39797568722E+01  0.83979625349E+01  0.52667240671E+02  0.00000000000E+00 0.  1.
        -13    1    4    4    0    0 -0.31545087827E+02 -0.29585412583E+02 -0.53275635154E+02  0.68619840460E+02  0.00000000000E+00 0.  1.
         13    1    4    4    0    0  0.36328422155E+02  0.29355179162E+02 -0.31864865666E+02  0.56540697412E+02  0.00000000000E+00 0. -1.
         21    1    1    2  502  501  0.16841620359E+02 -0.11574157148E+02  0.22742056432E+02  0.30574538766E+02  0.00000000000E+00 0. -1.
<scales pt_clust_5="13000.00000" pt_clust_6="13000.00000" pt_clust_7="13000.00000" pt_clust_8="13000.00000" pt_clust_9="20.43530"></scales>
<clustering>
<clus scale="   20.435">  1  9  2 -1</clus>
<clus scale="   80.046">  5  6 -1 -1</clus>
<clus scale="   80.661">  1  5  2 -1</clus>
<clus scale="   91.615">  7  8 -1 -1</clus>
<clus scale="   92.153">  2  5  1 -1</clus>
</clustering>
</event>
<event>
 9    1  0.2333971E-005  0.1202187E+03  0.7546771E-02  0.1248103E+00
         -2   -1    0    0    0  501 -0.00000000000E+00  0.00000000000E+00  0.65512070709E+02  0.65512070709E+02  0.00000000000E+00 0.  1.
          1   -1    0    0  502    0  0.00000000000E+00 -0.00000000000E+00 -0.78285234718E+03  0.78285234718E+03  0.00000000000E+00 0. -1.
        -24    2    1    2    0    0  0.20724471048E+02 -0.23025814674E+02  0.43041496227E+01  0.10850506284E+03  0.10389962038E+03 0.  0.
         23    2    1    2    0    0  0.52688431336E+01  0.11521995991E+02 -0.67587497138E+03  0.68598140769E+03  0.11663188958E+03 0.  0.
         13    1    3    3    0    0  0.57442999693E+02 -0.37874122482E+02  0.33427781774E+01  0.68886294235E+02  0.00000000000E+00 0. -1.
        -14    1    3    3    0    0 -0.36718528644E+02  0.14848307808E+02  0.96137144531E+00  0.39618768603E+02  0.00000000000E+00 0.  1.
        -13    1    4    4    0    0  0.15373731211E+02 -0.51365319033E+02 -0.30508531889E+03  0.30976087457E+03  0.00000000000E+00 0. -1.
         13    1    4    4    0    0 -0.10104888077E+02  0.62887315023E+02 -0.37078965248E+03  0.37622053312E+03  0.00000000000E+00 0.  1.
         21    1    1    2  502  501 -0.25993314182E+02  0.11503818683E+02 -0.45769454718E+02  0.53877947359E+02  0.00000000000E+00 0. -1.
<scales pt_clust_5="13000.00000" pt_clust_6="13000.00000" pt_clust_7="13000.00000" pt_clust_8="13000.00000" pt_clust_9="28.42517"></scales>
<clustering>
<clus scale="   28.425">  2  9  1 -1</clus>
<clus scale="  103.900">  5  6 -1 -1</clus>
<clus scale="  107.910">  1  5  2 -1</clus>
<clus scale="  116.632">  7  8 -1 -1</clus>
<clus scale="   28.425">  2  5  1 -1</clus>
</clustering>
</event>
<event>
 9    1  0.2333971E-005  0.1189445E+03  0.7546771E-02  0.1248201E+00
         -4   -1    0    0    0  501 -0.00000000000E+00  0.00000000000E+00  0.62417941279E+03  0.62417941279E+03  0.00000000000E+00 0.  1.
          3   -1    0    0  502    0  0.00000000000E+00 -0.00000000000E+00 -0.62799217590E+02  0.62799217590E+02  0.00000000000E+00 0. -1.
        -24    2    1    2    0    0 -0.41124020071E+02 -0.43479826555E+01  0.22295960573E+03  0.24059913290E+03  0.80416832704E+02 0.  0.
         23    2    1    2    0    0  0.65157486940E+02  0.65545318919E+02  0.32666331216E+02  0.13363617152E+03  0.90828686037E+02 0.  0.
         11    1    3    3    0    0  0.10627615208E+02  0.20969781836E+02  0.12298874242E+03  0.12521544920E+03  0.00000000000E+00 0. -1.
        -12    1    3    3    0    0 -0.51751635279E+02 -0.25317764492E+02  0.99970863314E+02  0.11538368370E+03  0.00000000000E+00 0.  1.
        -13    1    4    4    0    0  0.26727924643E+02  0.35818441930E+02 -0.30381126803E+02  0.54040314616E+02  0.00000000000E+00 0. -1.
         13    1    4    4    0    0  0.38429562297E+02  0.29726876989E+02  0.63047458019E+02  0.79595856905E+02  0.00000000000E+00 0.  1.
         21    1    1    2  502  501 -0.24033466869E+02 -0.61197336263E+02  0.30575425825E+03  0.31274332596E+03  0.00000000000E+00 0.  1.
<scales pt_clust_5="13000.00000" pt_clust_6="13000.00000" pt_clust_7="13000.00000" pt_clust_8="13000.00000" pt_clust_9="65.74741"></scales>
<clustering>
<clus scale="   65.747">  1  9  2 -1</clus>
<clus scale="   80.417">  5  6 -1 -1</clus>
<clus scale="   90.829">  7  8 -1 -1</clus>
<clus scale="  111.197">  1  5  2 -1</clus>
<clus scale="  118.945">  2  5  1 -1</clus>
</clustering>
</event>
<event>
 9    1  0.2333971E-005  0.9768873E+02  0.7546771E-02  0.1292522E+00
         -2   -1    0    0    0  501 -0.00000000000E+00  0.00000000000E+00  0.40363104393E+03  0.40363104393E+03  0.00000000000E+00 0.  1.
          1   -1    0    0  502    0  0.00000000000E+00 -0.00000000000E+00 -0.90780842071E+02  0.90780842071E+02  0.00000000000E+00 0. -1.
         23    2    1    2    0    0 -0.21973642150E+02 -0.21571376184E+01  0.34791772049E+03  0.36131513835E+03  0.94944166637E+02 0.  0.
        -24    2    1    2    0    0  0.30860065926E+02  0.23262791881E+02 -0.52072309025E+02  0.10457342271E+03  0.82040076885E+02 0.  0.
         13    1    4    4    0    0  0.31929268056E+02  0.21342506616E+02 -0.73555410015E+02  0.82978184420E+02  0.00000000000E+00 0. -1.
        -14    1    4    4    0    0 -0.10692021293E+01  0.19202852647E+01  0.21483100990E+02  0.21595238291E+02  0.00000000000E+00 0.  1.
        -13    1    3    3    0    0 -0.28789073629E+02 -0.44116299795E+02  0.23039560866E+03  0.23634126842E+03  0.00000000000E+00 0.  1.
         13    1    3    3    0    0  0.68154314793E+01  0.41959162177E+02  0.11752211183E+03  0.12497386994E+03  0.00000000000E+00 0. -1.
         21    1    1    2  502  501 -0.88864237763E+01 -0.21105654262E+02  0.17004790396E+02  0.28523324942E+02  0.00000000000E+00 0.  1.
<scales pt_clust_5="13000.00000" pt_clust_6="13000.00000" pt_clust_7="13000.00000" pt_clust_8="13000.00000" pt_clust_9="22.90016"></scales>
<clustering>
<clus scale="   22.900">  2  9  1 -1</clus>
<clus scale="   82.040">  5  6 -1 -1</clus>
<clus scale="   85.201">  2  5  1 -1</clus>
<clus scale="   94.944">  7  8 -1 -1</clus>
<clus scale="   22.900">  2  5  1 -1</clus>
</clustering>
</event>
<event>
 9    1  0.2333971E-005  0.1421308E+03  0.7546771E-02  0.1211839E+00
         -2   -1    0    0    0  501 -0.00000000000E+00  0.00000000000E+00  0.39182979864E+03  0.39182979864E+03  0.00000000000E+00 0.  1.
          1   -1    0    0  502    0  0.00000000000E+00 -0.00000000000E+00 -0.99462908001E+02  0.99462908001E+02  0.00000000000E+00 0. -1.
        -24    2    1    2    0    0 -0.97479787143E+02  0.82491978857E+02  0.15412446024E+03  0.21548782940E+03  0.79833701511E+02 0.  0.
         23    2    1    2    0    0  0.71216707509E+02 -0.80273278187E+02  0.29162440343E+01  0.13793592243E+03  0.86615215750E+02 0.  0.
         11    1    3    3    0    0 -0.85242537858E+02  0.20853782251E+02  0.89090820465E+02  0.12505336775E+03  0.00000000000E+00 0. -1.
        -12    1    3    3    0    0 -0.12237249285E+02  0.61638196606E+02  0.65033639779E+02  0.90434461649E+02  0.00000000000E+00 0.  1.
        -11    1    4    4    0    0  0.37488700613E+02 -0.14800663737E+02  0.38856792871E+02  0.55984932552E+02  0.00000000000E+00 0.  1.
         11    1    4    4    0    0  0.33728006896E+02 -0.65472614450E+02 -0.35940548836E+02  0.81950989883E+02  0.00000000000E+00 0. -1.
         21    1    1    2  502  501  0.26263079634E+02 -0.22187006702E+01  0.13532618636E+03  0.13786895481E+03  0.00000000000E+00 0.  1.
<scales pt_clust_5="13000.00000" pt_clust_6="13000.00000" pt_clust_7="13000.00000" pt_clust_8="13000.00000" pt_clust_9="26.35663"></scales>
<clustering>
<clus scale="   26.357">  1  9  2 -1</clus>
<clus scale="   79.834">  5  6 -1 -1</clus>
<clus scale="   86.615">  7  8 -1 -1</clus>
<clus scale="  138.103">  1  5  2 -1</clus>
<clus scale="  142.131">  2  5  1 -1</clus>
</clustering>
</event>
<event>
 9    1  0.2333971E-005  0.1118426E+03  0.7546771E-02  0.1260682E+00
         -2   -1    0    0    0  501 -0.00000000000E+00  0.00000000000E+00  0.50669260903E+02  0.50669260903E+02  0.00000000000E+00 0.  1.
          1   -1    0    0  502    0  0.00000000000E+00 -0.00000000000E+00 -0.67363222578E+03  0.67363222578E+03  0.00000000000E+00 0. -1.
         23    2    1    2    0    0  0.15020507122E+02  0.48091698415E+01 -0.24325191109E+02  0.95873966956E+02  0.91385769508E+02 0.  0.
        -24    2    1    2    0    0 -0.56728620457E+02 -0.45089888146E+02 -0.51586785532E+03  0.52736831735E+03  0.82136858957E+02 0.  0.
         11    1    4    4    0    0  0.33593557085E+01 -0.48507568292E+02 -0.20076690866E+03  0.20657110414E+03  0.00000000000E+00 0. -1.
        -12    1    4    4    0    0 -0.60087976166E+02  0.34176801460E+01 -0.31510094666E+03  0.32079721321E+03  0.00000000000E+00 0.  1.
        -13    1    3    3    0    0 -0.33430338867E+01  0.29444580044E+02  0.24321062639E+02  0.38336317734E+02  0.00000000000E+00 0.  1.
         13    1    3    3    0    0  0.18363541008E+02 -0.24635410202E+02 -0.48646253748E+02  0.57537649222E+02  0.00000000000E+00 0. -1.
         21    1    1    2  502  501  0.41708113336E+02  0.40280718305E+02 -0.82769918442E+02  0.10105920237E+03  0.00000000000E+00 0.  1.
<scales pt_clust_5="13000.00000" pt_clust_6="13000.00000" pt_clust_7="13000.00000" pt_clust_8="13000.00000" pt_clust_9="57.98364"></scales>
<clustering>
<clus scale="   57.984">  1  9  2 -1</clus>
<clus scale="   82.137">  5  6 -1 -1</clus>
<clus scale="   91.386">  7  8 -1 -1</clus>
<clus scale="  104.422">  2  5  1 -1</clus>
<clus scale="  104.422">  2  5  1 -1</clus>
</clustering>
</event>
<event>
 9    1  0.2333971E-005  0.1125948E+03  0.7546771E-02  0.1259884E+00
          1   -1    0    0  502    0  0.00000000000E+00  0.00000000000E+00  0.12619974848E+03  0.12619974848E+03  0.00000000000E+00 0. -1.
         -2   -1    0    0    0  501 -0.00000000000E+00 -0.00000000000E+00 -0.15502803981E+03  0.15502803981E+03  0.00000000000E+00 0.  1.
        -24    2    1    2    0    0 -0.40912385532E+02  0.34295811844E+02 -0.74026496061E+02  0.12078599079E+03  0.79115785100E+02 0.  0.
         23    2    1    2    0    0  0.62740207766E+02 -0.36552340737E+02  0.63349165099E+02  0.13196368120E+03  0.90160352443E+02 0.  0.
         11    1    3    3    0    0 -0.47269785994E+02  0.55294550824E+02 -0.62987015854E+02  0.96225174382E+02  0.00000000000E+00 0. -1.
        -12    1    3    3    0    0  0.63574004613E+01 -0.20998738980E+02 -0.11039480207E+02  0.24560816407E+02  0.00000000000E+00 0.  1.
        -11    1    4    4    0    0 -0.22307078380E+02 -0.16989233440E+02  0.20558010034E+02  0.34768830513E+02  0.00000000000E+00 0.  1.
         11    1    4    4    0    0  0.85047286145E+02 -0.19563107297E+02  0.42791155065E+02  0.97194850685E+02  0.00000000000E+00 0. -1.
         21    1    1    2  502  501 -0.21827822234E+02  0.22565288927E+01 -0.18150960361E+02  0.28478116302E+02  0.00000000000E+00 0.  1.
<scales pt_clust_5="13000.00000" pt_clust_6="13000.00000" pt_clust_7="13000.00000" pt_clust_8="13000.00000" pt_clust_9="21.94415"></scales>
<clustering>
<clus scale="   21.944">  2  9  1 -1</clus>
<clus scale="   79.116">  5  6 -1 -1</clus>
<clus scale="   90.160">  7  8 -1 -1</clus>
<clus scale="  103.962">  2  5  1 -1</clus>
<clus scale="  112.595">  1  5  2 -1</clus>
</clustering>
</event>
<event>
 9    1  0.2333971E-005  0.1332176E+03  0.7546771E-02  0.1225472E+00
          1   -1    0    0  502    0  0.00000000000E+00  0.00000000000E+00  0.11136492277E+03  0.11136492277E+03  0.00000000000E+00 0. -1.
         -2   -1    0    0    0  501 -0.00000000000E+00 -0.00000000000E+00 -0.38375590069E+03  0.38375590069E+03  0.00000000000E+00 0.  1.
         23    2    1    2    0    0  0.34534485117E+02  0.87187835422E+02 -0.29246051132E+03  0.32041225543E+03  0.91304509406E+02 0.  0.
        -24    2    1    2    0    0 -0.35807163410E+02 -0.11238771588E+03  0.32902835169E+02  0.14640048933E+03  0.80233129579E+02 0.  0.
         13    1    4    4    0    0 -0.45329090327E+02 -0.20403193526E+02  0.58726617200E+01  0.50055018645E+02  0.00000000000E+00 0. -1.
        -14    1    4    4    0    0  0.95219269166E+01 -0.91984522357E+02  0.27030173449E+02  0.96345470688E+02  0.00000000000E+00 0.  1.
        -11    1    3    3    0    0  0.55822477761E+02  0.54020456769E+02 -0.25293698723E+03  0.26459682213E+03  0.00000000000E+00 0.  1.
         11    1    3    3    0    0 -0.21287992643E+02  0.33167378653E+02 -0.39523524092E+02  0.55815433297E+02  0.00000000000E+00 0. -1.
         21    1    1    2  502  501  0.12726782927E+01  0.25199880461E+02 -0.12833301767E+02  0.28308078697E+02  0.00000000000E+00 0.  1.
<scales pt_clust_5="13000.00000" pt_clust_6="13000.00000" pt_clust_7="13000.00000" pt_clust_8="13000.00000" pt_clust_9="25.23200"></scales>
<clustering>
<clus scale="   25.232">  1  9  2 -1</clus>
<clus scale="   80.233">  5  6 -1 -1</clus>
<clus scale="   91.305">  7  8 -1 -1</clus>
<clus scale="  125.888">  1  5  2 -1</clus>
<clus scale="   25.232">  1  5  2 -1</clus>
</clustering>
</event>
<event>
 9    1  0.2333971E-005  0.9399466E+02  0.7546771E-02  0.1300619E+00
          1   -1    0    0  502    0  0.00000000000E+00  0.00000000000E+00  0.84052857921E+02  0.84052857921E+02  0.00000000000E+00 0. -1.
         -2   -1    0    0    0  501 -0.00000000000E+00 -0.00000000000E+00 -0.44763241409E+03  0.44763241409E+03  0.00000000000E+00 0.  1.
        -24    2    1    2    0    0  0.23406040747E+02 -0.27323490644E+02 -0.23200732315E+03  0.24771432062E+03  0.78997283264E+02 0.  0.
         23    2    1    2    0    0  0.52304297523E+01  0.22520569650E+02  0.45577511356E+02  0.10445731005E+03  0.91101518259E+02 0.  0.
         11    1    3    3    0    0  0.44271122819E+02 -0.42340212458E+01 -0.71386093932E+02  0.84106085739E+02  0.00000000000E+00 0. -1.
        -12    1    3    3    0    0 -0.20865082072E+02 -0.23089469399E+02 -0.16062122921E+03  0.16360823488E+03  0.00000000000E+00 0.  1.
        -13    1    4    4    0    0  0.24952853989E+02 -0.28798470981E+02  0.25854102330E+02  0.46048142855E+02  0.00000000000E+00 0.  1.
         13    1    4    4    0    0 -0.19722424237E+02  0.51319040631E+02  0.19723409025E+02  0.58409167197E+02  0.00000000000E+00 0. -1.
         21    1    1    2  502  501 -0.28636470499E+02  0.48029209941E+01 -0.17714974438E+03  0.17951364134E+03  0.00000000000E+00 0.  1.
<scales pt_clust_5="13000.00000" pt_clust_6="13000.00000" pt_clust_7="13000.00000" pt_clust_8="13000.00000" pt_clust_9="29.03645"></scales>
<clustering>
<clus scale="   29.036">  2  9  1 -1</clus>
<clus scale="   78.997">  5  6 -1 -1</clus>
<clus scale="   82.317">  2  5  1 -1</clus>
<clus scale="   91.102">  7  8 -1 -1</clus>
<clus scale="   93.995">  1  5  2 -1</clus>
</clustering>
</event>
<event>
 9    1  0.2333971E-005  0.1010763E+03  0.7546771E-02  0.1280848E+00
          3   -1    0    0  502    0  0.00000000000E+00  0.00000000000E+00  0.49839414690E+03  0.49839414690E+03  0.00000000000E+00 0. -1.
         -4   -1    0    0    0  501 -0.00000000000E+00 -0.00000000000E+00 -0.10057819939E+03  0.10057819939E+03  0.00000000000E+00 0.  1.
         23    2    1    2    0    0  0.28227008779E+01  0.23815147553E+02 -0.25255987673E+02  0.97820608332E+02  0.91410489594E+02 0.  0.
        -24    2    1    2    0    0 -0.11484002798E+01  0.33879417362E+02  0.43085013463E+03  0.44291114653E+03  0.96898459536E+02 0.  0.
         11    1    4    4    0    0 -0.41043901831E+02  0.44885432396E+02  0.27635410718E+03  0.28296801316E+03  0.00000000000E+00 0. -1.
        -12    1    4    4    0    0  0.39895501552E+02 -0.11006015035E+02  0.15449602745E+03  0.15994313336E+03  0.00000000000E+00 0.  1.
        -11    1    3    3    0    0  0.38210332918E+02  0.28940593470E+02 -0.36598487988E+02  0.60307850360E+02  0.00000000000E+00 0.  1.
         11    1    3    3    0    0 -0.35387632040E+02 -0.51254459177E+01  0.11342500315E+02  0.37512757972E+02  0.00000000000E+00 0. -1.
         21    1    1    2  502  501 -0.16743005981E+01 -0.57694564914E+02 -0.77781994582E+01  0.58240591429E+02  0.00000000000E+00 0.  1.
<scales pt_clust_5="13000.00000" pt_clust_6="13000.00000" pt_clust_7="13000.00000" pt_clust_8="13000.00000" pt_clust_9="57.71885"></scales>
<clustering>
<clus scale="   57.719">  2  9  1 -1</clus>
<clus scale="   91.410">  7  8 -1 -1</clus>
<clus scale="   95.828">  2  7  1 -1</clus>
<clus scale="   96.898">  5  6 -1 -1</clus>
<clus scale="  101.076">  1  5  2 -1</clus>
</clustering>
</event>
<event>
 9    1  0.2333971E-005  0.1393204E+03  0.7546771E-02  0.1217092E+00
         -2   -1    0    0    0  501 -0.00000000000E+00  0.00000000000E+00  0.34897803287E+03  0.34897803287E+03  0.00000000000E+00 0.  1.
          1   -1    0    0  502    0  0.00000000000E+00 -0.00000000000E+00 -0.36519033167E+03  0.36519033167E+03  0.00000000000E+00 0. -1.
        -24    2    1    2    0    0 -0.84591890317E+02 -0.20819506511E+02  0.25925299973E+03  0.28390240422E+03  0.76152593497E+02 0.  0.
         23    2    1    2    0    0  0.10785831115E+03  0.38218443922E+01 -0.33553788550E+03  0.36364042046E+03  0.89446414172E+02 0.  0.
         11    1    3    3    0    0 -0.41632449466E+02 -0.42852415483E+02  0.91007689681E+02  0.10886684501E+03  0.00000000000E+00 0. -1.
        -12    1    3    3    0    0 -0.42959440851E+02  0.22032908972E+02  0.16824531005E+03  0.17503555921E+03  0.00000000000E+00 0.  1.
        -11    1    4    4    0    0  0.10309961264E+03  0.26202038716E+02 -0.31642414498E+03  0.33382677616E+03  0.00000000000E+00 0. -1.
         11    1    4    4    0    0  0.47586985120E+01 -0.22380194324E+02 -0.19113740522E+02  0.29813644296E+02  0.00000000000E+00 0.  1.
         21    1    1    2  502  501 -0.23266420836E+02  0.16997662119E+02  0.60072586965E+02  0.66625539853E+02  0.00000000000E+00 0. -1.
<scales pt_clust_5="13000.00000" pt_clust_6="13000.00000" pt_clust_7="13000.00000" pt_clust_8="13000.00000" pt_clust_9="28.81400"></scales>
<clustering>
<clus scale="   28.814">  1  9  2 -1</clus>
<clus scale="   76.153">  5  6 -1 -1</clus>
<clus scale="   89.446">  7  8 -1 -1</clus>
<clus scale="  131.182">  1  5  2 -1</clus>
<clus scale="  139.320">  2  5  1 -1</clus>
</clustering>
</event>
<event>
 9    1  0.2333971E-005  0.1057992E+03  0.7546771E-02  0.1273765E+00
          1   -1    0    0  502    0  0.00000000000E+00  0.00000000000E+00  0.30448706421E+03  0.30448706421E+03  0.00000000000E+00 0. -1.
         -2   -1    0    0    0  501 -0.00000000000E+00 -0.00000000000E+00 -0.89634588114E+02  0.89634588114E+02  0.00000000000E+00 0.  1.
        -24    2    1    2    0    0 -0.67756518888E+02  0.43181931259E+02  0.56834088276E+02  0.12804588396E+03  0.81914649304E+02 0.  0.
         23    2    1    2    0    0  0.36070590865E+02 -0.13958117402E+02  0.18803518011E+03  0.21354923077E+03  0.93542121194E+02 0.  0.
         13    1    3    3    0    0 -0.75323891414E+02  0.59295791437E+02  0.53980779058E+02  0.11001638063E+03  0.00000000000E+00 0. -1.
        -14    1    3    3    0    0  0.75673725264E+01 -0.16113860178E+02  0.28533092180E+01  0.18029503329E+02  0.00000000000E+00 0.  1.
        -11    1    4    4    0    0 -0.14676135279E+02 -0.29335457391E+02  0.13355571731E+03  0.13752486188E+03  0.00000000000E+00 0.  1.
         11    1    4    4    0    0  0.50746726143E+02  0.15377339989E+02  0.54479462799E+02  0.76024368897E+02  0.00000000000E+00 0. -1.
         21    1    1    2  502  501  0.31685928023E+02 -0.29223813857E+02 -0.30016792294E+02  0.52526537585E+02  0.00000000000E+00 0.  1.
<scales pt_clust_5="13000.00000" pt_clust_6="13000.00000" pt_clust_7="13000.00000" pt_clust_8="13000.00000" pt_clust_9="43.10486"></scales>
<clustering>
<clus scale="   43.105">  2  9  1 -1</clus>
<clus scale="   81.915">  5  6 -1 -1</clus>
<clus scale="   93.542">  7  8 -1 -1</clus>
<clus scale="   95.673">  2  5  1 -1</clus>
<clus scale="  105.799">  1  5  2 -1</clus>
</clustering>
</event>
<event>
 9    1  0.2333971E-005  0.2108748E+03  0.7546771E-02  0.1141720E+00
         -2   -1    0    0    0  501 -0.00000000000E+00  0.00000000000E+00  0.35539356869E+03  0.35539356869E+03  0.00000000000E+00 0.  1.
          1   -1    0    0  502    0  0.00000000000E+00 -0.00000000000E+00 -0.14815504284E+03  0.14815504284E+03  0.00000000000E+00 0. -1.
        -24    2    1    2    0    0 -0.67122224214E+02 -0.16720303147E+03  0.16395710304E+03  0.25634461260E+03  0.79802143165E+02 0.  0.
         23    2    1    2    0    0  0.60420005465E+02  0.18720614024E+03  0.22492109222E+02  0.21758576712E+03  0.90227241312E+02 0.  0.
         11    1    3    3    0    0 -0.44387764060E+02 -0.82294301822E+02  0.34081321963E+02  0.99519657442E+02  0.00000000000E+00 0. -1.
        -12    1    3    3    0    0 -0.22734460154E+02 -0.84908729650E+02  0.12987578108E+03  0.15682495515E+03  0.00000000000E+00 0.  1.
        -11    1    4    4    0    0 -0.16059799559E+02  0.60435564721E+02  0.29968566616E+02  0.69343273862E+02  0.00000000000E+00 0.  1.
         11    1    4    4    0    0  0.76479805024E+02  0.12677057552E+03 -0.74764573936E+01  0.14824249326E+03  0.00000000000E+00 0. -1.
         21    1    1    2  502  501  0.67022187486E+01 -0.20003108765E+02  0.20789313585E+02  0.29618231813E+02  0.00000000000E+00 0. -1.
<scales pt_clust_5="13000.00000" pt_clust_6="13000.00000" pt_clust_7="13000.00000" pt_clust_8="13000.00000" pt_clust_9="21.09607"></scales>
<clustering>
<clus scale="   21.096">  1  9  2 -1</clus>
<clus scale="   79.802">  5  6 -1 -1</clus>
<clus scale="   90.227">  7  8 -1 -1</clus>
<clus scale="  206.629">  1  5  2 -1</clus>
<clus scale="  210.875">  2  5  1 -1</clus>
</clustering>
</event>
<event>
 9    1  0.2333971E-005  0.1128587E+03  0.7546771E-02  0.1261280E+00
          1   -1    0    0  502    0  0.00000000000E+00  0.00000000000E+00  0.50225987907E+03  0.50225987907E+03  0.00000000000E+00 0. -1.
         -2   -1    0    0    0  501 -0.00000000000E+00 -0.00000000000E+00 -0.51984314095E+02  0.51984314095E+02  0.00000000000E+00 0.  1.
         23    2    1    2    0    0  0.36455571281E+02 -0.47621216501E+02  0.67386197447E+02  0.12843711519E+03  0.91424307562E+02 0.  0.
        -24    2    1    2    0    0 -0.18739854330E+02  0.65647522342E+02  0.38702342440E+03  0.40019683090E+03  0.75561849459E+02 0.  0.
         11    1    4    4    0    0 -0.47490155971E+02  0.50383347322E+02  0.26884277713E+03  0.27761526510E+03  0.00000000000E+00 0. -1.
        -12    1    4    4    0    0  0.28750301641E+02  0.15264175020E+02  0.11818064728E+03  0.12258156580E+03  0.00000000000E+00 0.  1.
        -13    1    3    3    0    0 -0.24382733080E+02 -0.41131832082E+02  0.24559500301E+02  0.53754202979E+02  0.00000000000E+00 0.  1.
         13    1    3    3    0    0  0.60838304361E+02 -0.64893844185E+01  0.42826697146E+02  0.74682912210E+02  0.00000000000E+00 0. -1.
         21    1    1    2  502  501 -0.17715716950E+02 -0.18026305841E+02 -0.41340568721E+01  0.25610247081E+02  0.00000000000E+00 0. -1.
<scales pt_clust_5="13000.00000" pt_clust_6="13000.00000" pt_clust_7="13000.00000" pt_clust_8="13000.00000" pt_clust_9="25.27438"></scales>
<clustering>
<clus scale="   25.274">  2  9  1 -1</clus>
<clus scale="   75.562">  5  6 -1 -1</clus>
<clus scale="   91.424">  7  8 -1 -1</clus>
<clus scale="  100.440">  1  5  2 -1</clus>
<clus scale="  100.440">  1  5  2 -1</clus>
</clustering>
</event>
<event>
 9    1  0.2333971E-005  0.2116832E+03  0.7546771E-02  0.1141146E+00
          1   -1    0    0  502    0  0.00000000000E+00  0.00000000000E+00  0.17155964202E+03  0.17155964202E+03  0.00000000000E+00 0. -1.
         -2   -1    0    0    0  501 -0.00000000000E+00 -0.00000000000E+00 -0.82912802207E+03  0.82912802207E+03  0.00000000000E+00 0.  1.
         23    2    1    2    0    0  0.17556186455E+03 -0.11570396904E+03 -0.63319762323E+03  0.67309868733E+03  0.88956371822E+02 0.  0.
        -24    2    1    2    0    0 -0.17055573862E+03  0.84345288626E+02  0.78506130129E+02  0.21992244527E+03  0.77455030662E+02 0.  0.
         11    1    4    4    0    0 -0.90343546440E+02  0.42236032118E+02  0.82221875992E+02  0.12925275890E+03  0.00000000000E+00 0. -1.
        -12    1    4    4    0    0 -0.80212192184E+02  0.42109256509E+02 -0.37157458627E+01  0.90669686367E+02  0.00000000000E+00 0.  1.
        -13    1    3    3    0    0  0.74649958158E+02 -0.46127653879E+02 -0.14273634297E+03  0.16755309699E+03  0.00000000000E+00 0. -1.
         13    1    3    3    0    0  0.10091190639E+03 -0.69576315160E+02 -0.49046128026E+03  0.50554559034E+03  0.00000000000E+00 0.  1.
         21    1    1    2  502  501 -0.50061259212E+01  0.31358680412E+02 -0.10287688695E+03  0.10766653149E+03  0.00000000000E+00 0.  1.
<scales pt_clust_5="13000.00000" pt_clust_6="13000.00000" pt_clust_7="13000.00000" pt_clust_8="13000.00000" pt_clust_9="31.75576"></scales>
<clustering>
<clus scale="   31.756">  2  9  1 -1</clus>
<clus scale="   77.455">  5  6 -1 -1</clus>
<clus scale="   88.956">  7  8 -1 -1</clus>
<clus scale="  207.113">  1  5  2 -1</clus>
<clus scale="  207.113">  1  5  2 -1</clus>
</clustering>
</event>
<event>
 9    1  0.2333971E-005  0.1282339E+03  0.7546771E-02  0.1231759E+00
         -2   -1    0    0    0  501 -0.00000000000E+00  0.00000000000E+00  0.11251057334E+03  0.11251057334E+03  0.00000000000E+00 0.  1.
          1   -1    0    0  502    0  0.00000000000E+00 -0.00000000000E+00 -0.35313557452E+03  0.35313557452E+03  0.00000000000E+00 0. -1.
        -24    2    1    2    0    0 -0.28073991227E+02  0.74103012708E+02  0.35679369380E+02  0.12150104475E+03  0.84912195830E+02 0.  0.
         23    2    1    2    0    0  0.11682075049E+02 -0.91807427944E+02 -0.28903498078E+03  0.31686489653E+03  0.91088242021E+02 0.  0.
         11    1    3    3    0    0  0.35908761398E+00  0.27213083341E+02 -0.26919738106E+02  0.38279931407E+02  0.00000000000E+00 0. -1.
        -12    1    3    3    0    0 -0.28433078841E+02  0.46889929367E+02  0.62599107486E+02  0.83221113345E+02  0.00000000000E+00 0.  1.
        -13    1    4    4    0    0 -0.13830432278E+02 -0.95416435900E+02 -0.26351742765E+03  0.28060116139E+03  0.00000000000E+00 0. -1.
         13    1    4    4    0    0  0.25512507327E+02  0.36090079556E+01 -0.25517553123E+02  0.36263735135E+02  0.00000000000E+00 0.  1.
         21    1    1    2  502  501  0.16391916178E+02  0.17704415236E+02  0.12730610208E+02  0.27280206582E+02  0.00000000000E+00 0.  1.
<scales pt_clust_5="13000.00000" pt_clust_6="13000.00000" pt_clust_7="13000.00000" pt_clust_8="13000.00000" pt_clust_9="24.12760"></scales>
<clustering>
<clus scale="   24.128">  1  9  2 -1</clus>
<clus scale="   84.912">  5  6 -1 -1</clus>
<clus scale="   91.088">  7  8 -1 -1</clus>
<clus scale="  123.923">  1  5  2 -1</clus>
<clus scale="  128.234">  2  5  1 -1</clus>
</clustering>
</event>
<event>
 9    1  0.2333971E-005  0.9294721E+02  0.7546771E-02  0.1300918E+00
         -2   -1    0    0    0  501 -0.00000000000E+00  0.00000000000E+00  0.66005024168E+02  0.66005024168E+02  0.00000000000E+00 0.  1.
          1   -1    0    0  502    0  0.00000000000E+00 -0.00000000000E+00 -0.29878316307E+03  0.29878316307E+03  0.00000000000E+00 0. -1.
        -24    2    1    2    0    0  0.18086250114E+02  0.13501560481E+02  0.13947175753E+02  0.86229100636E+02  0.82045898779E+02 0.  0.
         23    2    1    2    0    0  0.85362875893E+01 -0.25079608694E+02 -0.21877979632E+03  0.23826314749E+03  0.90569714555E+02 0.  0.
         11    1    3    3    0    0  0.28481129986E+02  0.19451530866E+01 -0.28916592765E+02  0.40634070962E+02  0.00000000000E+00 0. -1.
        -12    1    3    3    0    0 -0.10394879872E+02  0.11556407394E+02  0.42863768518E+02  0.45595029674E+02  0.00000000000E+00 0.  1.
        -13    1    4    4    0    0 -0.23412608534E+02  0.25344536711E+02 -0.73399302764E+02  0.81104583260E+02  0.00000000000E+00 0. -1.
         13    1    4    4    0    0  0.31948896124E+02 -0.50424145406E+02 -0.14538049356E+03  0.15715856423E+03  0.00000000000E+00 0.  1.
         21    1    1    2  502  501 -0.26622537703E+02  0.11578048214E+02 -0.27945518335E+02  0.40295939116E+02  0.00000000000E+00 0. -1.
<scales pt_clust_5="13000.00000" pt_clust_6="13000.00000" pt_clust_7="13000.00000" pt_clust_8="13000.00000" pt_clust_9="29.03120"></scales>
<clustering>
<clus scale="   29.031">  2  9  1 -1</clus>
<clus scale="   82.046">  5  6 -1 -1</clus>
<clus scale="   84.663">  1  5  2 -1</clus>
<clus scale="   90.570">  7  8 -1 -1</clus>
<clus scale="   29.031">  2  5  1 -1</clus>
</clustering>
</event>
<event>
 9    1  0.2333971E-005  0.1515006E+03  0.7546771E-02  0.1200624E+00
          1   -1    0    0  502    0  0.00000000000E+00  0.00000000000E+00  0.10994238243E+03  0.10994238243E+03  0.00000000000E+00 0. -1.
         -2   -1    0    0    0  501 -0.00000000000E+00 -0.00000000000E+00 -0.28310781203E+03  0.28310781203E+03  0.00000000000E+00 0.  1.
        -24    2    1    2    0    0  0.67859065522E+01  0.97018151080E+02 -0.90506085533E+02  0.15524121388E+03  0.80311349147E+02 0.  0.
         23    2    1    2    0    0 -0.32924332610E+02 -0.13859207763E+03 -0.42783802523E+02  0.17455024601E+03  0.91354030907E+02 0.  0.
         13    1    3    3    0    0 -0.59812668975E+01  0.44154082307E+02  0.55063504515E+01  0.44896307570E+02  0.00000000000E+00 0. -1.
        -14    1    3    3    0    0  0.12767173450E+02  0.52864068773E+02 -0.96012435984E+02  0.11034490631E+03  0.00000000000E+00 0.  1.
        -11    1    4    4    0    0 -0.75342028684E+01 -0.12105914339E+03  0.62199238938E+00  0.12129495985E+03  0.00000000000E+00 0. -1.
         11    1    4    4    0    0 -0.25390129741E+02 -0.17532934240E+02 -0.43405794912E+02  0.53255286154E+02  0.00000000000E+00 0.  1.
         21    1    1    2  502  501  0.26138426058E+02  0.41573926549E+02 -0.39875541547E+02  0.63258734568E+02  0.00000000000E+00 0.  1.
<scales pt_clust_5="13000.00000" pt_clust_6="13000.00000" pt_clust_7="13000.00000" pt_clust_8="13000.00000" pt_clust_9="49.10813"></scales>
<clustering>
<clus scale="   49.108">  2  9  1 -1</clus>
<clus scale="   80.311">  5  6 -1 -1</clus>
<clus scale="   91.354">  7  8 -1 -1</clus>
<clus scale="  145.110">  2  5  1 -1</clus>
<clus scale="  151.501">  1  5  2 -1</clus>
</clustering>
</event>
<event>
 9    1  0.2333971E-005  0.2406268E+03  0.7546771E-02  0.1120535E+00
         -2   -1    0    0    0  501 -0.00000000000E+00  0.00000000000E+00  0.46594575479E+03  0.46594575479E+03  0.00000000000E+00 0.  1.
          1   -1    0    0  502    0  0.00000000000E+00 -0.00000000000E+00 -0.89539062922E+03  0.89539062922E+03  0.00000000000E+00 0. -1.
         23    2    1    2    0    0  0.15423167924E+03 -0.90849044041E+02  0.30492568881E+03  0.36693605939E+03  0.98088920397E+02 0.  0.
        -24    2    1    2    0    0 -0.17295921180E+03  0.13881103325E+03 -0.84239032117E+03  0.87473687577E+03  0.79748082893E+02 0.  0.
         11    1    4    4    0    0 -0.17841973867E+03  0.12687979381E+03 -0.74616089406E+03  0.77761697837E+03  0.00000000000E+00 0. -1.
        -12    1    4    4    0    0  0.54605268719E+01  0.11931239446E+02 -0.96229427106E+02  0.97119897393E+02  0.00000000000E+00 0.  1.
        -11    1    3    3    0    0  0.15637626716E+03 -0.60405057918E+02  0.21930071655E+03  0.27603462144E+03  0.00000000000E+00 0.  1.
         11    1    3    3    0    0 -0.21445879209E+01 -0.30443986123E+02  0.85624972258E+02  0.90901437957E+02  0.00000000000E+00 0. -1.
         21    1    1    2  502  501  0.18727532564E+02 -0.47961989213E+02  0.10801975794E+03  0.11966344885E+03  0.00000000000E+00 0.  1.
<scales pt_clust_5="13000.00000" pt_clust_6="13000.00000" pt_clust_7="13000.00000" pt_clust_8="13000.00000" pt_clust_9="51.48857"></scales>
<clustering>
<clus scale="   51.489">  1  9  2 -1</clus>
<clus scale="   79.748">  5  6 -1 -1</clus>
<clus scale="   98.089">  7  8 -1 -1</clus>
<clus scale="  233.751">  2  5  1 -1</clus>
<clus scale="  233.751">  2  5  1 -1</clus>
</clustering>
</event>
<event>
 9    1  0.2333971E-005  0.1355086E+03  0.7546771E-02  0.1221329E+00
         -2   -1    0    0    0  501 -0.00000000000E+00  0.00000000000E+00  0.33517799125E+03  0.33517799125E+03  0.00000000000E+00 0.  1.
          1   -1    0    0  502    0  0.00000000000E+00 -0.00000000000E+00 -0.28621629034E+03  0.28621629034E+03  0.00000000000E+00 0. -1.
         23    2    1    2    0    0  0.10891497801E+02 -0.10911713958E+03  0.28632731485E+03  0.31921772342E+03  0.88833827095E+02 0.  0.
        -24    2    1    2    0    0 -0.49397522790E+02  0.30762033455E+02 -0.13072693095E+03  0.16435767221E+03  0.80854783288E+02 0.  0.
         11    1    4    4    0    0 -0.59003857376E+02  0.36165124294E+02 -0.56564474827E+02  0.89380709401E+02  0.00000000000E+00 0. -1.
        -12    1    4    4    0    0  0.96063345869E+01 -0.54030908394E+01 -0.74162456121E+02  0.74976962814E+02  0.00000000000E+00 0.  1.
        -11    1    3    3    0    0 -0.28718330724E+02 -0.32119763593E+02  0.16252874589E+03  0.16814284098E+03  0.00000000000E+00 0.  1.
         11    1    3    3    0    0  0.39609828525E+02 -0.76997375987E+02  0.12379856897E+03  0.15107488243E+03  0.00000000000E+00 0. -1.
         21    1    1    2  502  501  0.38506024989E+02  0.78355106125E+02 -0.10663868299E+03  0.13781888596E+03  0.00000000000E+00 0. -1.
<scales pt_clust_5="13000.00000" pt_clust_6="13000.00000" pt_clust_7="13000.00000" pt_clust_8="13000.00000" pt_clust_9="87.30542"></scales>
<clustering>
<clus scale="   80.855">  5  6 -1 -1</clus>
<clus scale="   87.305">  2  9  1 -1</clus>
<clus scale="   88.834">  7  8 -1 -1</clus>
<clus scale="  130.417">  2  5  1 -1</clus>
<clus scale="   87.305">  2  5  1 -1</clus>
</clustering>
</event>
<event>
 9    1  0.2333971E-005  0.1139587E+03  0.7546771E-02  0.1257049E+00
          1   -1    0    0  502    0  0.00000000000E+00  0.00000000000E+00  0.64258595529E+03  0.64258595529E+03  0.00000000000E+00 0. -1.
         -2   -1    0    0    0  501 -0.00000000000E+00 -0.00000000000E+00 -0.44793003152E+02  0.44793003152E+02  0.00000000000E+00 0.  1.
         23    2    1    2    0    0 -0.67377275074E+02 -0.44089649388E+02  0.13718689530E+03  0.18296938349E+03  0.90409936819E+02 0.  0.
        -24    2    1    2    0    0 -0.11132922344E+02  0.78405389039E+02  0.32516380205E+03  0.34414097082E+03  0.80188294922E+02 0.  0.
         11    1    4    4    0    0  0.33131509980E+02  0.29844021572E+02  0.98058577748E+02  0.10772115506E+03  0.00000000000E+00 0. -1.
        -12    1    4    4    0    0 -0.44264432324E+02  0.48561367466E+02  0.22710522430E+03  0.23641981576E+03  0.00000000000E+00 0.  1.
        -13    1    3    3    0    0 -0.70262696106E+02 -0.12644734731E+02  0.42336120262E+02  0.83000499151E+02  0.00000000000E+00 0.  1.
         13    1    3    3    0    0  0.28854210313E+01 -0.31444914657E+02  0.94850775033E+02  0.99968884342E+02  0.00000000000E+00 0. -1.
         21    1    1    2  502  501  0.78510197418E+02 -0.34315739651E+02  0.13544225480E+03  0.16026860413E+03  0.00000000000E+00 0. -1.
<scales pt_clust_5="13000.00000" pt_clust_6="13000.00000" pt_clust_7="13000.00000" pt_clust_8="13000.00000" pt_clust_9="85.68209"></scales>
<clustering>
<clus scale="   80.188">  5  6 -1 -1</clus>
<clus scale="   85.682">  2  9  1 -1</clus>
<clus scale="   90.410">  7  8 -1 -1</clus>
<clus scale="  106.032">  1  5  2 -1</clus>
<clus scale="  106.032">  1  5  2 -1</clus>
</clustering>
</event>
<event>
 9    1  0.2333971E-005  0.2343273E+03  0.7546771E-02  0.1124090E+00
          1   -1    0    0  502    0  0.00000000000E+00  0.00000000000E+00  0.83776458974E+03  0.83776458974E+03  0.00000000000E+00 0. -1.
         -2   -1    0    0    0  501 -0.00000000000E+00 -0.00000000000E+00 -0.28808932939E+03  0.28808932939E+03  0.00000000000E+00 0.  1.
        -24    2    1    2    0    0 -0.10005716137E+03 -0.28839026934E+03 -0.11743395925E+03  0.33728291128E+03  0.82393230682E+02 0.  0.
         23    2    1    2    0    0  0.46050384450E+02  0.20396132899E+03  0.64769613768E+03  0.68648356654E+03  0.89602113456E+02 0.  0.
         11    1    3    3    0    0 -0.15637964152E+02 -0.19274127607E+02  0.11270084816E+02  0.27258993555E+02  0.00000000000E+00 0. -1.
        -12    1    3    3    0    0 -0.84419197219E+02 -0.26911614174E+03 -0.12870404407E+03  0.31002391772E+03  0.00000000000E+00 0.  1.
        -13    1    4    4    0    0  0.29070316104E+02  0.15798585532E+03  0.58638844493E+03  0.60799343920E+03  0.00000000000E+00 0. -1.
         13    1    4    4    0    0  0.16980068346E+02  0.45975473672E+02  0.61307692749E+02  0.78490127345E+02  0.00000000000E+00 0.  1.
         21    1    1    2  502  501  0.54006776921E+02  0.84428940349E+02  0.19413081925E+02  0.10208744130E+03  0.00000000000E+00 0. -1.
<scales pt_clust_5="13000.00000" pt_clust_6="13000.00000" pt_clust_7="13000.00000" pt_clust_8="13000.00000" pt_clust_9="100.22464"></scales>
<clustering>
<clus scale="   82.393">  5  6 -1 -1</clus>
<clus scale="   89.602">  7  8 -1 -1</clus>
<clus scale="  100.225">  2  9  1 -1</clus>
<clus scale="  231.667">  2  5  1 -1</clus>
<clus scale="  234.327">  1  5  2 -1</clus>
</clustering>
</event>
<event>
 9    1  0.2333971E-005  0.1491991E+03  0.7546771E-02  0.1204048E+00
          3   -1    0    0  502    0  0.00000000000E+00  0.00000000000E+00  0.46777587379E+03  0.46777587379E+03  0.00000000000E+00 0. -1.
         -4   -1    0    0    0  501 -0.00000000000E+00 -0.00000000000E+00 -0.80552977694E+02  0.80552977694E+02  0.00000000000E+00 0.  1.
        -24    2    1    2    0    0  0.13948099975E+03  0.47071095355E+02  0.90715419127E+02  0.19696188172E+03  0.94308314988E+02 0.  0.
         23    2    1    2    0    0 -0.75515850849E+02 -0.27315743680E+01  0.17679828922E+03  0.20858103549E+03  0.80859805013E+02 0.  0.
         13    1    3    3    0    0  0.34995239128E+02  0.48602007819E+02  0.66889255404E+02  0.89783040794E+02  0.00000000000E+00 0. -1.
        -14    1    3    3    0    0  0.10448576062E+03 -0.15309124643E+01  0.23826163723E+02  0.10717884093E+03  0.00000000000E+00 0.  1.
        -11    1    4    4    0    0 -0.16824509806E+01 -0.30408263708E+02  0.35522706884E+02  0.46790552972E+02  0.00000000000E+00 0.  1.
         11    1    4    4    0    0 -0.73833399868E+02  0.27676689340E+02  0.14127558234E+03  0.16179048252E+03  0.00000000000E+00 0. -1.
         21    1    1    2  502  501 -0.63965148897E+02 -0.44339520987E+02  0.11970918775E+03  0.14278593427E+03  0.00000000000E+00 0.  1.
<scales pt_clust_5="13000.00000" pt_clust_6="13000.00000" pt_clust_7="13000.00000" pt_clust_8="13000.00000" pt_clust_9="77.83016"></scales>
<clustering>
<clus scale="   77.830">  1  9  2 -1</clus>
<clus scale="   80.860">  7  8 -1 -1</clus>
<clus scale="   94.308">  5  6 -1 -1</clus>
<clus scale="  141.084">  1  7  2 -1</clus>
<clus scale="   77.830">  1  5  2 -1</clus>
</clustering>
</event>
<event>
 9    1  0.2333971E-005  0.1078686E+03  0.7546771E-02  0.1270909E+00
         -2   -1    0    0    0  501 -0.00000000000E+00  0.00000000000E+00  0.24158350522E+03  0.24158350522E+03  0.00000000000E+00 0.  1.
          1   -1    0    0  502    0  0.00000000000E+00 -0.00000000000E+00 -0.12435444271E+03  0.12435444271E+03  0.00000000000E+00 0. -1.
        -24    2    1    2    0    0  0.64340281454E+02  0.41641875514E+02  0.15464488444E+03  0.18886523668E+03  0.76689762867E+02 0.  0.
         23    2    1    2    0    0 -0.54143467641E+02 -0.59912928276E+01 -0.70072712615E+02  0.12766206900E+03  0.91760602276E+02 0.  0.
         13    1    3    3    0    0  0.99724118785E+01  0.50810046544E+02  0.59286267574E+02  0.78714492638E+02  0.00000000000E+00 0. -1.
        -14    1    3    3    0    0  0.54367869576E+02 -0.91681710297E+01  0.95358616862E+02  0.11015074404E+03  0.00000000000E+00 0.  1.
        -11    1    4    4    0    0 -0.53350625842E+01  0.37115434226E+02 -0.43234053207E+02  0.57229378009E+02  0.00000000000E+00 0. -1.
         11    1    4    4    0    0 -0.48808405057E+02 -0.43106727053E+02 -0.26838659408E+02  0.70432690991E+02  0.00000000000E+00 0.  1.
         21    1    1    2  502  501 -0.10196813813E+02 -0.35650582687E+02  0.32656890693E+02  0.49410642250E+02  0.00000000000E+00 0.  1.
<scales pt_clust_5="13000.00000" pt_clust_6="13000.00000" pt_clust_7="13000.00000" pt_clust_8="13000.00000" pt_clust_9="37.08017"></scales>
<clustering>
<clus scale="   37.080">  1  9  2 -1</clus>
<clus scale="   76.690">  5  6 -1 -1</clus>
<clus scale="   91.761">  7  8 -1 -1</clus>
<clus scale="   95.378">  1  5  2 -1</clus>
<clus scale="  107.869">  2  5  1 -1</clus>
</clustering>
</event>
<event>
 9    1  0.2333971E-005  0.1030692E+03  0.7546771E-02  0.1278524E+00
          1   -1    0    0  502    0  0.00000000000E+00  0.00000000000E+00  0.38435411114E+03  0.38435411114E+03  0.00000000000E+00 0. -1.
         -2   -1    0    0    0  501 -0.00000000000E+00 -0.00000000000E+00 -0.41337858622E+02  0.41337858622E+02  0.00000000000E+00 0.  1.
         23    2    1    2    0    0  0.40753542483E+02  0.48044915731E+02  0.82488123661E+02  0.13822100309E+03  0.91277543777E+02 0.  0.
        -24    2    1    2    0    0 -0.20890518749E+02 -0.38152855135E+02  0.24037152072E+03  0.25749295096E+03  0.81437692063E+02 0.  0.
         13    1    4    4    0    0  0.25928262467E+02 -0.37384692908E+02  0.11708866896E+03  0.12561706276E+03  0.00000000000E+00 0. -1.
        -14    1    4    4    0    0 -0.46818781216E+02 -0.76816222712E+00  0.12328285176E+03  0.13187588819E+03  0.00000000000E+00 0.  1.
        -13    1    3    3    0    0  0.46649405201E+01  0.23268783549E+02  0.90638458102E+02  0.93693799395E+02  0.00000000000E+00 0. -1.
         13    1    3    3    0    0  0.36088601963E+02  0.24776132182E+02 -0.81503344407E+01  0.44527203697E+02  0.00000000000E+00 0.  1.
         21    1    1    2  502  501 -0.19863023734E+02 -0.98920605956E+01  0.20156608131E+02  0.29978015712E+02  0.00000000000E+00 0.  1.
<scales pt_clust_5="13000.00000" pt_clust_6="13000.00000" pt_clust_7="13000.00000" pt_clust_8="13000.00000" pt_clust_9="22.18992"></scales>
<clustering>
<clus scale="   22.190">  2  9  1 -1</clus>
<clus scale="   81.438">  5  6 -1 -1</clus>
<clus scale="   91.278">  7  8 -1 -1</clus>
<clus scale="   94.466">  1  5  2 -1</clus>
<clus scale="   94.466">  1  5  2 -1</clus>
</clustering>
</event>
<event>
 9    1  0.2333971E-005  0.3125445E+03  0.7546771E-02  0.1079551E+00
          1   -1    0    0  502    0  0.00000000000E+00  0.00000000000E+00  0.54633280375E+03  0.54633280375E+03  0.00000000000E+00 0. -1.
         -2   -1    0    0    0  501 -0.00000000000E+00 -0.00000000000E+00 -0.37998314929E+03  0.37998314929E+03  0.00000000000E+00 0.  1.
        -24    2    1    2    0    0 -0.53529318736E+02 -0.27183113274E+03 -0.19828999332E+03  0.34993286353E+03  0.79853208053E+02 0.  0.
         23    2    1    2    0    0  0.55719713592E+02  0.29757153418E+03  0.41370882071E+03  0.52092905604E+03  0.92512640538E+02 0.  0.
         11    1    3    3    0    0 -0.59006984223E+01 -0.39570342705E+02  0.12777712731E+01  0.40028277043E+02  0.00000000000E+00 0. -1.
        -12    1    3    3    0    0 -0.47628620313E+02 -0.23226079004E+03 -0.19956776459E+03  0.30990458649E+03  0.00000000000E+00 0.  1.
        -13    1    4    4    0    0  0.17428669849E+02  0.19603750001E+03  0.32855654925E+03  0.38299329759E+03  0.00000000000E+00 0. -1.
         13    1    4    4    0    0  0.38291043743E+02  0.10153403416E+03  0.85152271460E+02  0.13793575845E+03  0.00000000000E+00 0.  1.
         21    1    1    2  502  501 -0.21903948560E+01 -0.25740401438E+02 -0.49069172933E+02  0.55454033470E+02  0.00000000000E+00 0.  1.
<scales pt_clust_5="13000.00000" pt_clust_6="13000.00000" pt_clust_7="13000.00000" pt_clust_8="13000.00000" pt_clust_9="25.83343"></scales>
<clustering>
<clus scale="   25.833">  2  9  1 -1</clus>
<clus scale="   79.853">  5  6 -1 -1</clus>
<clus scale="   92.513">  7  8 -1 -1</clus>
<clus scale="  309.034">  2  5  1 -1</clus>
<clus scale="  312.544">  1  5  2 -1</clus>
</clustering>
</event>
<event>
 9    1  0.2333971E-005  0.1069537E+03  0.7546771E-02  0.1271688E+00
         -2   -1    0    0    0  501 -0.00000000000E+00  0.00000000000E+00  0.55016091953E+02  0.55016091953E+02  0.00000000000E+00 0.  1.
          1   -1    0    0  502    0  0.00000000000E+00 -0.00000000000E+00 -0.32337684649E+03  0.32337684649E+03  0.00000000000E+00 0. -1.
        -24    2    1    2    0    0  0.33346257441E+02  0.41884249878E+02 -0.26918963001E+02  0.10088573457E+03  0.81160566758E+02 0.  0.
         23    2    1    2    0    0 -0.62387655656E+01 -0.52833480143E+02 -0.19202153576E+03  0.22008714257E+03  0.93465401677E+02 0.  0.
         11    1    3    3    0    0  0.27887299363E+01  0.39126284764E+02 -0.49232402966E+02  0.62948174524E+02  0.00000000000E+00 0. -1.
        -12    1    3    3    0    0  0.30557527505E+02  0.27579651139E+01  0.22313439965E+02  0.37937560041E+02  0.00000000000E+00 0.  1.
        -13    1    4    4    0    0 -0.26742061321E+02  0.27951447757E+01 -0.10055591242E+02  0.28706542690E+02  0.00000000000E+00 0. -1.
         13    1    4    4    0    0  0.20503295755E+02 -0.55628624918E+02 -0.18196594452E+03  0.19138059988E+03  0.00000000000E+00 0.  1.
         21    1    1    2  502  501 -0.27107491876E+02  0.10949230264E+02 -0.49420255775E+02  0.57420061303E+02  0.00000000000E+00 0. -1.
<scales pt_clust_5="13000.00000" pt_clust_6="13000.00000" pt_clust_7="13000.00000" pt_clust_8="13000.00000" pt_clust_9="29.23528"></scales>
<clustering>
<clus scale="   29.235">  2  9  1 -1</clus>
<clus scale="   81.161">  5  6 -1 -1</clus>
<clus scale="   93.465">  7  8 -1 -1</clus>
<clus scale="   96.387">  1  5  2 -1</clus>
<clus scale="   29.235">  2  5  1 -1</clus>
</clustering>
</event>
<event>
 9    1  0.2333971E-005  0.1184303E+03  0.7546771E-02  0.1249061E+00
         -4   -1    0    0    0  501 -0.00000000000E+00  0.00000000000E+00  0.18055679368E+03  0.18055679368E+03  0.00000000000E+00 0.  1.
          3   -1    0    0  502    0  0.00000000000E+00 -0.00000000000E+00 -0.16378732597E+03  0.16378732597E+03  0.00000000000E+00 0. -1.
        -24    2    1    2    0    0 -0.53414524373E+02 -0.25833548276E+01  0.88151990102E+02  0.13136316296E+03  0.81398538610E+02 0.  0.
         23    2    1    2    0    0  0.76321432149E+02 -0.28861368270E+02 -0.10506931900E+03  0.16151934672E+03  0.91602390720E+02 0.  0.
         11    1    3    3    0    0  0.89453586778E+01  0.19146415900E+02 -0.10720624425E+00  0.21133295457E+02  0.00000000000E+00 0. -1.
        -12    1    3    3    0    0 -0.62359883051E+02 -0.21729770728E+02  0.88259196347E+02  0.11022986750E+03  0.00000000000E+00 0.  1.
        -13    1    4    4    0    0  0.81055995323E+02  0.11299342116E+02 -0.76306864589E+02  0.11189498243E+03  0.00000000000E+00 0.  1.
         13    1    4    4    0    0 -0.47345631742E+01 -0.40160710386E+02 -0.28762454414E+02  0.49624364289E+02  0.00000000000E+00 0. -1.
         21    1    1    2  502  501 -0.22906907776E+02  0.31444723098E+02  0.33686796611E+02  0.51461609967E+02  0.00000000000E+00 0.  1.
<scales pt_clust_5="13000.00000" pt_clust_6="13000.00000" pt_clust_7="13000.00000" pt_clust_8="13000.00000" pt_clust_9="38.90369"></scales>
<clustering>
<clus scale="   38.904">  1  9  2 -1</clus>
<clus scale="   81.399">  5  6 -1 -1</clus>
<clus scale="   91.602">  7  8 -1 -1</clus>
<clus scale="  110.727">  1  5  2 -1</clus>
<clus scale="  118.430">  2  5  1 -1</clus>
</clustering>
</event>
<event>
 9    1  0.2333971E-005  0.9175845E+02  0.7546771E-02  0.1302041E+00
          1   -1    0    0  502    0  0.00000000000E+00  0.00000000000E+00  0.22570596234E+03  0.22570596234E+03  0.00000000000E+00 0. -1.
         -2   -1    0    0    0  501 -0.00000000000E+00 -0.00000000000E+00 -0.68158088442E+02  0.68158088442E+02  0.00000000000E+00 0.  1.
        -24    2    1    2    0    0 -0.88369509323E+01  0.48427702898E+00 -0.14928214777E+02  0.84228947320E+02  0.82421706754E+02 0.  0.
         23    2    1    2    0    0  0.29337978344E+02 -0.27518817482E+00  0.16157777275E+03  0.18641637970E+03  0.88220730401E+02 0.  0.
         13    1    3    3    0    0  0.13120020910E+02 -0.29698093873E+02  0.15590317133E+02  0.36016242401E+02  0.00000000000E+00 0. -1.
        -14    1    3    3    0    0 -0.21956971842E+02  0.30182370902E+02 -0.30518531911E+02  0.48212704920E+02  0.00000000000E+00 0.  1.
        -13    1    4    4    0    0 -0.15763466532E+02  0.15731129308E+02  0.51858885945E+01  0.22865886096E+02  0.00000000000E+00 0.  1.
         13    1    4    4    0    0  0.45101444876E+02 -0.16006317483E+02  0.15639188415E+03  0.16355049360E+03  0.00000000000E+00 0. -1.
         21    1    1    2  502  501 -0.20501027412E+02 -0.20908885416E+00  0.10898315927E+02  0.23218723762E+02  0.00000000000E+00 0.  1.
<scales pt_clust_5="13000.00000" pt_clust_6="13000.00000" pt_clust_7="13000.00000" pt_clust_8="13000.00000" pt_clust_9="20.50209"></scales>
<clustering>
<clus scale="   20.502">  2  9  1 -1</clus>
<clus scale="   82.422">  5  6 -1 -1</clus>
<clus scale="   86.198">  2  5  1 -1</clus>
<clus scale="   88.221">  7  8 -1 -1</clus>
<clus scale="   91.758">  1  5  2 -1</clus>
</clustering>
</event>
<event>
 9    1  0.2333971E-005  0.2393934E+03  0.7546771E-02  0.1154746E+00
         -2   -1    0    0    0  501 -0.00000000000E+00  0.00000000000E+00  0.14512778611E+03  0.14512778611E+03  0.00000000000E+00 0.  1.
          1   -1    0    0  502    0  0.00000000000E+00 -0.00000000000E+00 -0.90107675537E+03  0.90107675537E+03  0.00000000000E+00 0. -1.
         23    2    1    2    0    0 -0.48782267490E+02  0.44111131741E+01  0.15694942786E+02  0.10480775441E+03  0.91319037523E+02 0.  0.
        -24    2    1    2    0    0 -0.18527908155E+03  0.38536906907E+02 -0.98128940077E+02  0.22707776519E+03  0.78240598838E+02 0.  0.
         11    1    4    4    0    0 -0.12271130828E+02  0.17015402781E+02  0.85872923543E+01  0.22668175347E+02  0.00000000000E+00 0. -1.
        -12    1    4    4    0    0 -0.17300795073E+03  0.21521504126E+02 -0.10671623243E+03  0.20440958984E+03  0.00000000000E+00 0.  1.
        -13    1    3    3    0    0 -0.35839204992E+01  0.29822675983E+02 -0.24851362319E+02  0.38984954766E+02  0.00000000000E+00 0.  1.
         13    1    3    3    0    0 -0.45198346991E+02 -0.25411562809E+02  0.40546305105E+02  0.65822799643E+02  0.00000000000E+00 0. -1.
         21    1    1    2  502  501  0.23406134904E+03 -0.42948020081E+02 -0.67351497198E+03  0.71431902188E+03  0.00000000000E+00 0. -1.
<scales pt_clust_5="13000.00000" pt_clust_6="13000.00000" pt_clust_7="13000.00000" pt_clust_8="13000.00000" pt_clust_9="226.24679"></scales>
<clustering>
<clus scale="   78.241">  5  6 -1 -1</clus>
<clus scale="   91.319">  7  8 -1 -1</clus>
<clus scale="  103.626">  1  7  2 -1</clus>
<clus scale="  226.247">  2  9  1 -1</clus>
<clus scale="  226.247">  2  5  1 -1</clus>
</clustering>
</event>
<event>
 9    1  0.2333971E-005  0.1414753E+03  0.7546771E-02  0.1213016E+00
          1   -1    0    0  502    0  0.00000000000E+00  0.00000000000E+00  0.23862581585E+03  0.23862581585E+03  0.00000000000E+00 0. -1.
         -2   -1    0    0    0  501 -0.00000000000E+00 -0.00000000000E+00 -0.17893115258E+03  0.17893115258E+03  0.00000000000E+00 0.  1.
         23    2    1    2    0    0 -0.35170341167E+02 -0.94041433024E+02 -0.80700438812E+02  0.15603215406E+03  0.88049578375E+02 0.  0.
        -24    2    1    2    0    0  0.61357468545E+02  0.95221031203E+02  0.17170560388E+03  0.22068972389E+03  0.79933447929E+02 0.  0.
         13    1    4    4    0    0  0.24690046094E+02 -0.10265651330E+02  0.38287595038E+02  0.46700341617E+02  0.00000000000E+00 0. -1.
        -14    1    4    4    0    0  0.36667422451E+02  0.10548668253E+03  0.13341800884E+03  0.17398938228E+03  0.00000000000E+00 0.  1.
        -11    1    3    3    0    0  0.62435805907E+01 -0.39614785214E+02 -0.77860615297E+02  0.87581898361E+02  0.00000000000E+00 0.  1.
         11    1    3    3    0    0 -0.41413921758E+02 -0.54426647810E+02 -0.28398235151E+01  0.68450255695E+02  0.00000000000E+00 0. -1.
         21    1    1    2  502  501 -0.26187127378E+02 -0.11795981788E+01 -0.31310501800E+02  0.40835090488E+02  0.00000000000E+00 0.  1.
<scales pt_clust_5="13000.00000" pt_clust_6="13000.00000" pt_clust_7="13000.00000" pt_clust_8="13000.00000" pt_clust_9="26.21368"></scales>
<clustering>
<clus scale="   26.214">  2  9  1 -1</clus>
<clus scale="   79.933">  5  6 -1 -1</clus>
<clus scale="   88.050">  7  8 -1 -1</clus>
<clus scale="  136.572">  1  5  2 -1</clus>
<clus scale="  136.572">  1  5  2 -1</clus>
</clustering>
</event>
<event>
 9    1  0.2333971E-005  0.9158351E+02  0.7546771E-02  0.1304764E+00
         -2   -1    0    0    0  501 -0.00000000000E+00  0.00000000000E+00  0.43887976783E+02  0.43887976783E+02  0.00000000000E+00 0.  1.
          1   -1    0    0  502    0  0.00000000000E+00 -0.00000000000E+00 -0.46787604804E+03  0.46787604804E+03  0.00000000000E+00 0. -1.
        -24    2    1    2    0    0 -0.73539996730E+01  0.10620886943E+01 -0.20140036361E+02  0.84617978029E+02  0.81849690271E+02 0.  0.
         23    2    1    2    0    0 -0.11430097355E+02  0.59690291133E+01 -0.39440387197E+03  0.40497689859E+03  0.91025258756E+02 0.  0.
         13    1    3    3    0    0  0.22396779701E+02  0.30320045624E+02  0.12748439193E+01  0.37716655932E+02  0.00000000000E+00 0. -1.
        -14    1    3    3    0    0 -0.29750779374E+02 -0.29257956930E+02 -0.21414880280E+02  0.46901322098E+02  0.00000000000E+00 0.  1.
        -11    1    4    4    0    0 -0.23874955855E+02 -0.38727207706E+02 -0.20142459866E+03  0.20649861762E+03  0.00000000000E+00 0.  1.
         11    1    4    4    0    0  0.12444858499E+02  0.44696236820E+02 -0.19297927331E+03  0.19847828097E+03  0.00000000000E+00 0. -1.
         21    1    1    2  502  501  0.18784097028E+02 -0.70311178076E+01 -0.94441629273E+01  0.22169148206E+02  0.00000000000E+00 0.  1.
<scales pt_clust_5="13000.00000" pt_clust_6="13000.00000" pt_clust_7="13000.00000" pt_clust_8="13000.00000" pt_clust_9="20.05689"></scales>
<clustering>
<clus scale="   20.057">  1  9  2 -1</clus>
<clus scale="   81.850">  5  6 -1 -1</clus>
<clus scale="   82.470">  1  5  2 -1</clus>
<clus scale="   91.025">  7  8 -1 -1</clus>
<clus scale="   91.584">  2  5  1 -1</clus>
</clustering>
</event>
<event>
 9    1  0.2333971E-005  0.1598116E+03  0.7546771E-02  0.1190935E+00
         -2   -1    0    0    0  501 -0.00000000000E+00  0.00000000000E+00  0.40113849067E+03  0.40113849067E+03  0.00000000000E+00 0.  1.
          1   -1    0    0  502    0  0.00000000000E+00 -0.00000000000E+00 -0.36903971833E+03  0.36903971833E+03  0.00000000000E+00 0. -1.
         23    2    1    2    0    0  0.88693583286E+02 -0.89301657737E+02  0.34056009217E+03  0.37441306550E+03  0.91447413587E+02 0.  0.
        -24    2    1    2    0    0 -0.73562886885E+02  0.10888764663E+03 -0.32946405326E+03  0.36330495639E+03  0.78586964788E+02 0.  0.
         13    1    4    4    0    0 -0.62259749828E+02  0.27304360574E+02 -0.18377226990E+03  0.19594400154E+03  0.00000000000E+00 0. -1.
        -14    1    4    4    0    0 -0.11303137057E+02  0.81583286061E+02 -0.14569178336E+03  0.16736095486E+03  0.00000000000E+00 0.  1.
        -11    1    3    3    0    0  0.77820019239E+02 -0.10830548081E+03  0.28370069843E+03  0.31348384146E+03  0.00000000000E+00 0.  1.
         11    1    3    3    0    0  0.10873564047E+02  0.19003823069E+02  0.56859393740E+02  0.60929224046E+02  0.00000000000E+00 0. -1.
         21    1    1    2  502  501 -0.15130696401E+02 -0.19585988898E+02  0.21002733438E+02  0.32460187100E+02  0.00000000000E+00 0. -1.
<scales pt_clust_5="13000.00000" pt_clust_6="13000.00000" pt_clust_7="13000.00000" pt_clust_8="13000.00000" pt_clust_9="24.74973"></scales>
<clustering>
<clus scale="   24.750">  1  9  2 -1</clus>
<clus scale="   78.587">  5  6 -1 -1</clus>
<clus scale="   91.447">  7  8 -1 -1</clus>
<clus scale="  152.817">  2  5  1 -1</clus>
<clus scale="  152.817">  2  5  1 -1</clus>
</clustering>
</event>
<event>
 9    1  0.2333971E-005  0.1300636E+03  0.7546771E-02  0.1229988E+00
         -2   -1    0    0    0  501 -0.00000000000E+00  0.00000000000E+00  0.95250923509E+02  0.95250923509E+02  0.00000000000E+00 0.  1.
          1   -1    0    0  502    0  0.00000000000E+00 -0.00000000000E+00 -0.45337131979E+03  0.45337131979E+03  0.00000000000E+00 0. -1.
        -24    2    1    2    0    0  0.46192007921E+02  0.69583220017E+02 -0.97790276924E+02  0.15172141674E+03  0.80504185820E+02 0.  0.
         23    2    1    2    0    0 -0.75452982808E+02 -0.64712755594E+02 -0.31062207237E+03  0.33851241492E+03  0.90684562418E+02 0.  0.
         11    1    3    3    0    0  0.24725042435E+01  0.22278785779E+02 -0.82536747879E+02  0.85526442247E+02  0.00000000000E+00 0. -1.
        -12    1    3    3    0    0  0.43719503677E+02  0.47304434238E+02 -0.15253529045E+02  0.66194974497E+02  0.00000000000E+00 0.  1.
        -13    1    4    4    0    0 -0.48449915292E+02  0.22608025078E+01 -0.20435191943E+03  0.21002907536E+03  0.00000000000E+00 0. -1.
         13    1    4    4    0    0 -0.27003067515E+02 -0.66973558102E+02 -0.10627015294E+03  0.12848333957E+03  0.00000000000E+00 0.  1.
         21    1    1    2  502  501  0.29260974887E+02 -0.48704644227E+01  0.50291953014E+02  0.58388411633E+02  0.00000000000E+00 0.  1.
<scales pt_clust_5="13000.00000" pt_clust_6="13000.00000" pt_clust_7="13000.00000" pt_clust_8="13000.00000" pt_clust_9="29.66355"></scales>
<clustering>
<clus scale="   29.664">  1  9  2 -1</clus>
<clus scale="   80.504">  5  6 -1 -1</clus>
<clus scale="   90.685">  7  8 -1 -1</clus>
<clus scale="  123.182">  1  5  2 -1</clus>
<clus scale="  130.064">  2  5  1 -1</clus>
</clustering>
</event>
<event>
 9    1  0.2333971E-005  0.1273943E+03  0.7546771E-02  0.1234631E+00
         -2   -1    0    0    0  501 -0.00000000000E+00  0.00000000000E+00  0.13514062033E+03  0.13514062033E+03  0.00000000000E+00 0.  1.
          1   -1    0    0  502    0  0.00000000000E+00 -0.00000000000E+00 -0.44560920260E+03  0.44560920260E+03  0.00000000000E+00 0. -1.
         23    2    1    2    0    0 -0.23780627717E+02  0.66586424536E+02 -0.98879200997E+02  0.15231697148E+03  0.91782859099E+02 0.  0.
        -24    2    1    2    0    0  0.18858751493E+02 -0.94941475158E+02 -0.30545850588E+03  0.33025115094E+03  0.79946154830E+02 0.  0.
         11    1    4    4    0    0  0.24228324196E+02 -0.56939834425E+02 -0.27318591710E+03  0.28010658996E+03  0.00000000000E+00 0. -1.
        -12    1    4    4    0    0 -0.53695727029E+01 -0.38001640733E+02 -0.32272588774E+02  0.50144560977E+02  0.00000000000E+00 0.  1.
        -13    1    3    3    0    0 -0.43219947046E+02  0.24584898572E+02 -0.93270330632E+02  0.10569643152E+03  0.00000000000E+00 0. -1.
         13    1    3    3    0    0  0.19439319329E+02  0.42001525964E+02 -0.56088703651E+01  0.46620539959E+02  0.00000000000E+00 0.  1.
         21    1    1    2  502  501  0.49218762237E+01  0.28355050622E+02  0.93869124601E+02  0.98181700509E+02  0.00000000000E+00 0.  1.
<scales pt_clust_5="13000.00000" pt_clust_6="13000.00000" pt_clust_7="13000.00000" pt_clust_8="13000.00000" pt_clust_9="28.77905"></scales>
<clustering>
<clus scale="   28.779">  1  9  2 -1</clus>
<clus scale="   79.946">  5  6 -1 -1</clus>
<clus scale="   91.783">  7  8 -1 -1</clus>
<clus scale="  119.150">  2  5  1 -1</clus>
<clus scale="  119.150">  2  5  1 -1</clus>
</clustering>
</event>
<event>
 9    1  0.2333971E-005  0.1748324E+03  0.7546771E-02  0.1195675E+00
         -2   -1    0    0    0  501 -0.00000000000E+00  0.00000000000E+00  0.38012299383E+03  0.38012299383E+03  0.00000000000E+00 0.  1.
          1   -1    0    0  502    0  0.00000000000E+00 -0.00000000000E+00 -0.38797257542E+03  0.38797257542E+03  0.00000000000E+00 0. -1.
         23    2    1    2    0    0  0.30624970276E+02 -0.10232767682E+03 -0.30773757447E+02  0.14691432479E+03  0.96062232087E+02 0.  0.
        -24    2    1    2    0    0  0.77266290172E+02 -0.11758494888E+02 -0.26948363460E+03  0.28927989425E+03  0.70378164958E+02 0.  0.
         11    1    4    4    0    0  0.73894261857E+02 -0.34925854264E+02 -0.20658756373E+03  0.22216795161E+03  0.00000000000E+00 0. -1.
        -12    1    4    4    0    0  0.33720283152E+01  0.23167359376E+02 -0.62896070862E+02  0.67111942643E+02  0.00000000000E+00 0.  1.
        -13    1    3    3    0    0  0.52537917906E+02 -0.55560154931E+02  0.14974906490E+02  0.77919262434E+02  0.00000000000E+00 0. -1.
         13    1    3    3    0    0 -0.21912947631E+02 -0.46767521885E+02 -0.45748663937E+02  0.68995062353E+02  0.00000000000E+00 0.  1.
         21    1    1    2  502  501 -0.10789126045E+03  0.11408617170E+03  0.29240781046E+03  0.33190135021E+03  0.00000000000E+00 0.  1.
<scales pt_clust_5="13000.00000" pt_clust_6="13000.00000" pt_clust_7="13000.00000" pt_clust_8="13000.00000" pt_clust_9="146.07677"></scales>
<clustering>
<clus scale="   70.378">  5  6 -1 -1</clus>
<clus scale="   96.062">  7  8 -1 -1</clus>
<clus scale="  105.173">  2  5  1 -1</clus>
<clus scale="  146.077">  1  9  2 -1</clus>
<clus scale="  105.173">  2  5  1 -1</clus>
</clustering>
</event>
<event>
 9    1  0.2333971E-005  0.1322150E+03  0.7546771E-02  0.1227136E+00
         -4   -1    0    0    0  501 -0.00000000000E+00  0.00000000000E+00  0.40813622277E+02  0.40813622277E+02  0.00000000000E+00 0.  1.
          3   -1    0    0  502    0  0.00000000000E+00 -0.00000000000E+00 -0.88477499691E+03  0.88477499691E+03  0.00000000000E+00 0. -1.
         23    2    1    2    0    0 -0.79410153601E+02  0.75467590355E+02 -0.32418381053E+03  0.35423868552E+03  0.91589156674E+02 0.  0.
        -24    2    1    2    0    0  0.59262064782E+02 -0.66647798841E+02 -0.53259885816E+03  0.54589173683E+03  0.79889443695E+02 0.  0.
         13    1    4    4    0    0  0.21888503040E+02  0.42277938075E+01 -0.32477655020E+02  0.39392624709E+02  0.00000000000E+00 0. -1.
        -14    1    4    4    0    0  0.37373561742E+02 -0.70875592649E+02 -0.50012120313E+03  0.50649911212E+03  0.00000000000E+00 0.  1.
        -11    1    3    3    0    0  0.97941258713E+01  0.48397829601E+02 -0.12115773712E+03  0.13083375740E+03  0.00000000000E+00 0. -1.
         11    1    3    3    0    0 -0.89204279473E+02  0.27069760754E+02 -0.20302607341E+03  0.22340492812E+03  0.00000000000E+00 0.  1.
         21    1    1    2  502  501  0.20148088819E+02 -0.88197915134E+01  0.12821294050E+02  0.25458196844E+02  0.00000000000E+00 0.  1.
<scales pt_clust_5="13000.00000" pt_clust_6="13000.00000" pt_clust_7="13000.00000" pt_clust_8="13000.00000" pt_clust_9="21.99396"></scales>
<clustering>
<clus scale="   21.994">  1  9  2 -1</clus>
<clus scale="   79.889">  5  6 -1 -1</clus>
<clus scale="   91.589">  7  8 -1 -1</clus>
<clus scale="  124.397">  2  5  1 -1</clus>
<clus scale="  124.397">  2  5  1 -1</clus>
</clustering>
</event>
<event>
 9    1  0.2333971E-005  0.2278782E+03  0.7546771E-02  0.1128693E+00
         -2   -1    0    0    0  501 -0.00000000000E+00  0.00000000000E+00  0.11607195061E+03  0.11607195061E+03  0.00000000000E+00 0.  1.
          1   -1    0    0  502    0  0.00000000000E+00 -0.00000000000E+00 -0.68068690302E+03  0.68068690302E+03  0.00000000000E+00 0. -1.
        -24    2    1    2    0    0  0.18151868922E+03 -0.91495364419E+02 -0.14844461571E+03  0.26471208705E+03  0.81952723264E+02 0.  0.
         23    2    1    2    0    0 -0.19733336001E+03  0.78939559386E+02 -0.44236941609E+03  0.49896892183E+03  0.90040966523E+02 0.  0.
         13    1    3    3    0    0  0.18697510850E+03 -0.77350619955E+02 -0.12864838507E+03  0.23977743135E+03  0.00000000000E+00 0. -1.
        -14    1    3    3    0    0 -0.54564192751E+01 -0.14144744464E+02 -0.19796230638E+02  0.24934655697E+02  0.00000000000E+00 0.  1.
        -13    1    4    4    0    0 -0.53320129319E+02 -0.40027575254E+01 -0.18527949477E+03  0.19284073594E+03  0.00000000000E+00 0. -1.
         13    1    4    4    0    0 -0.14401323069E+03  0.82942316912E+02 -0.25708992133E+03  0.30612818589E+03  0.00000000000E+00 0.  1.
         21    1    1    2  502  501  0.15814670785E+02  0.12555805033E+02  0.26199079395E+02  0.33077844748E+02  0.00000000000E+00 0.  1.
<scales pt_clust_5="13000.00000" pt_clust_6="13000.00000" pt_clust_7="13000.00000" pt_clust_8="13000.00000" pt_clust_9="20.19287"></scales>
<clustering>
<clus scale="   20.193">  1  9  2 -1</clus>
<clus scale="   81.953">  5  6 -1 -1</clus>
<clus scale="   90.041">  7  8 -1 -1</clus>
<clus scale="  224.805">  1  5  2 -1</clus>
<clus scale="  227.878">  2  5  1 -1</clus>
</clustering>
</event>
<event>
 9    1  0.2333971E-005  0.1064815E+03  0.7546771E-02  0.1271240E+00
         -2   -1    0    0    0  501 -0.00000000000E+00  0.00000000000E+00  0.32588947640E+03  0.32588947640E+03  0.00000000000E+00 0.  1.
          1   -1    0    0  502    0  0.00000000000E+00 -0.00000000000E+00 -0.14856074170E+03  0.14856074170E+03  0.00000000000E+00 0. -1.
         23    2    1    2    0    0 -0.14109987200E+02 -0.54464164555E+02  0.25471913597E+03  0.27636348767E+03  0.91266106143E+02 0.  0.
        -24    2    1    2    0    0  0.33820321198E+02  0.43437435117E+02 -0.11667057933E+03  0.15277648416E+03  0.81841341233E+02 0.  0.
         13    1    4    4    0    0  0.22440927104E+02 -0.17779930782E+02 -0.67882100650E+02  0.73672930827E+02  0.00000000000E+00 0. -1.
        -14    1    4    4    0    0  0.11379394093E+02  0.61217365900E+02 -0.48788478680E+02  0.79103553331E+02  0.00000000000E+00 0.  1.
        -11    1    3    3    0    0 -0.41940365768E+02 -0.38994483064E+02  0.22711213976E+03  0.23422102386E+03  0.00000000000E+00 0.  1.
         11    1    3    3    0    0  0.27830378568E+02 -0.15469681491E+02  0.27606996204E+02  0.42142463811E+02  0.00000000000E+00 0. -1.
         21    1    1    2  502  501 -0.19710333998E+02  0.11026729438E+02  0.39280178066E+02  0.45310246273E+02  0.00000000000E+00 0.  1.
<scales pt_clust_5="13000.00000" pt_clust_6="13000.00000" pt_clust_7="13000.00000" pt_clust_8="13000.00000" pt_clust_9="22.58508"></scales>
<clustering>
<clus scale="   22.585">  1  9  2 -1</clus>
<clus scale="   81.841">  5  6 -1 -1</clus>
<clus scale="   91.266">  7  8 -1 -1</clus>
<clus scale="   98.523">  2  5  1 -1</clus>
<clus scale="   98.523">  2  5  1 -1</clus>
</clustering>
</event>
<event>
 9    1  0.2333971E-005  0.9576081E+02  0.7546771E-02  0.1294082E+00
          1   -1    0    0  502    0  0.00000000000E+00  0.00000000000E+00  0.13560707858E+03  0.13560707858E+03  0.00000000000E+00 0. -1.
         -2   -1    0    0    0  501 -0.00000000000E+00 -0.00000000000E+00 -0.18668029040E+03  0.18668029040E+03  0.00000000000E+00 0.  1.
         23    2    1    2    0    0 -0.11352591859E+02 -0.35609833864E+02 -0.14640415307E+03  0.17537472343E+03  0.89023457424E+02 0.  0.
        -24    2    1    2    0    0  0.13766098539E+02  0.15657636904E+02  0.95769011984E+02  0.12681023067E+03  0.80464053365E+02 0.  0.
         11    1    4    4    0    0  0.39904386785E+02  0.10834903464E+02  0.18877791300E+02  0.45454661171E+02  0.00000000000E+00 0. -1.
        -12    1    4    4    0    0 -0.26138288247E+02  0.48227334396E+01  0.76891220684E+02  0.81355569499E+02  0.00000000000E+00 0.  1.
        -13    1    3    3    0    0  0.30459234995E+02 -0.30223216402E+02 -0.11518070787E+03  0.12291380423E+03  0.00000000000E+00 0.  1.
         13    1    3    3    0    0 -0.41811826853E+02 -0.53866174616E+01 -0.31223445203E+02  0.52460919195E+02  0.00000000000E+00 0. -1.
         21    1    1    2  502  501 -0.24135066798E+01  0.19952196960E+02 -0.43807073318E+00  0.20102414879E+02  0.00000000000E+00 0. -1.
<scales pt_clust_5="13000.00000" pt_clust_6="13000.00000" pt_clust_7="13000.00000" pt_clust_8="13000.00000" pt_clust_9="20.09764"></scales>
<clustering>
<clus scale="   20.098">  1  9  2 -1</clus>
<clus scale="   80.464">  5  6 -1 -1</clus>
<clus scale="   87.860">  1  5  2 -1</clus>
<clus scale="   89.023">  7  8 -1 -1</clus>
<clus scale="   20.098">  1  5  2 -1</clus>
</clustering>
</event>
<event>
 9    1  0.2333971E-005  0.1248147E+03  0.7546771E-02  0.1241510E+00
          3   -1    0    0  502    0  0.00000000000E+00  0.00000000000E+00  0.58986292904E+02  0.58986292904E+02  0.00000000000E+00 0. -1.
         -4   -1    0    0    0  501 -0.00000000000E+00 -0.00000000000E+00 -0.42841144217E+03  0.42841144217E+03  0.00000000000E+00 0.  1.
        -24    2    1    2    0    0  0.41199881139E+02 -0.61629978079E+02 -0.22959124949E+03  0.25489448204E+03  0.82239715016E+02 0.  0.
         23    2    1    2    0    0 -0.50714447461E+02  0.86161415950E+02 -0.29492323066E+02  0.11906788833E+03  0.57546677846E+02 0.  0.
         13    1    3    3    0    0  0.37156967004E+02  0.78430901854E+01 -0.11189772751E+03  0.11816622057E+03  0.00000000000E+00 0. -1.
        -14    1    3    3    0    0  0.40429141350E+01 -0.69473068265E+02 -0.11769352198E+03  0.13672826147E+03  0.00000000000E+00 0.  1.
        -13    1    4    4    0    0 -0.94773647755E+01  0.70202944867E+02 -0.22318681209E+02  0.74272454127E+02  0.00000000000E+00 0. -1.
         13    1    4    4    0    0 -0.41237082685E+02  0.15958471083E+02 -0.71736418571E+01  0.44795434200E+02  0.00000000000E+00 0.  1.
         21    1    1    2  502  501  0.95145663214E+01 -0.24531437871E+02 -0.11034157671E+03  0.11343536471E+03  0.00000000000E+00 0.  1.
<scales pt_clust_5="13000.00000" pt_clust_6="13000.00000" pt_clust_7="13000.00000" pt_clust_8="13000.00000" pt_clust_9="26.31194"></scales>
<clustering>
<clus scale="   26.312">  2  9  1 -1</clus>
<clus scale="   57.547">  7  8 -1 -1</clus>
<clus scale="   82.240">  5  6 -1 -1</clus>
<clus scale="  110.123">  1  7  2 -1</clus>
<clus scale="  110.123">  1  5  2 -1</clus>
</clustering>
</event>
<event>
 9    1  0.2333971E-005  0.1463328E+03  0.7546771E-02  0.1206239E+00
         -2   -1    0    0    0  501 -0.00000000000E+00  0.00000000000E+00  0.71349606616E+02  0.71349606616E+02  0.00000000000E+00 0.  1.
          1   -1    0    0  502    0  0.00000000000E+00 -0.00000000000E+00 -0.52667918974E+03  0.52667918974E+03  0.00000000000E+00 0. -1.
        -24    2    1    2    0    0  0.12062718527E+03  0.63648346122E+02 -0.83200075077E+02  0.17803268854E+03  0.78557977994E+02 0.  0.
         23    2    1    2    0    0 -0.10131353776E+03 -0.52803721063E+02 -0.37146228303E+03  0.39783605227E+03  0.85068389433E+02 0.  0.
         13    1    3    3    0    0  0.18369090044E+02  0.48998906959E+02 -0.15703046963E+02  0.54634256983E+02  0.00000000000E+00 0. -1.
        -14    1    3    3    0    0  0.10225809522E+03  0.14649439163E+02 -0.67497028114E+02  0.12339843156E+03  0.00000000000E+00 0.  1.
        -13    1    4    4    0    0 -0.47917053066E+02  0.19432790888E+02 -0.11478446213E+03  0.12589340762E+03  0.00000000000E+00 0.  1.
         13    1    4    4    0    0 -0.53396484699E+02 -0.72236511951E+02 -0.25667782091E+03  0.27194264465E+03  0.00000000000E+00 0. -1.
         21    1    1    2  502  501 -0.19313647501E+02 -0.10844625059E+02 -0.66722501473E+00  0.22160055543E+02  0.00000000000E+00 0. -1.
<scales pt_clust_5="13000.00000" pt_clust_6="13000.00000" pt_clust_7="13000.00000" pt_clust_8="13000.00000" pt_clust_9="22.15001"></scales>
<clustering>
<clus scale="   22.150">  1  9  2 -1</clus>
<clus scale="   78.558">  5  6 -1 -1</clus>
<clus scale="   85.068">  7  8 -1 -1</clus>
<clus scale="  142.646">  1  5  2 -1</clus>
<clus scale="  146.333">  2  5  1 -1</clus>
</clustering>
</event>
<event>
 9    1  0.2333971E-005  0.1735729E+03  0.7546771E-02  0.1175507E+00
          1   -1    0    0  502    0  0.00000000000E+00  0.00000000000E+00  0.64401843709E+02  0.64401843709E+02  0.00000000000E+00 0. -1.
         -2   -1    0    0    0  501 -0.00000000000E+00 -0.00000000000E+00 -0.58374695606E+03  0.58374695606E+03  0.00000000000E+00 0.  1.
        -24    2    1    2    0    0  0.99243917029E+02 -0.10229239528E+03 -0.33393111763E+03  0.37182677575E+03  0.80200191033E+02 0.  0.
         23    2    1    2    0    0 -0.91162808709E+02  0.12069081408E+03 -0.13498162703E+03  0.22203362897E+03  0.90564686624E+02 0.  0.
         11    1    3    3    0    0  0.13891592474E+02 -0.28807041638E+02 -0.18626847183E+02  0.37010558295E+02  0.00000000000E+00 0. -1.
        -12    1    3    3    0    0  0.85352324555E+02 -0.73485353647E+02 -0.31530427044E+03  0.33481621745E+03  0.00000000000E+00 0.  1.
        -11    1    4    4    0    0 -0.74039992733E+02  0.63271098984E+02 -0.12925890136E+03  0.16184256570E+03  0.00000000000E+00 0.  1.
         11    1    4    4    0    0 -0.17122815975E+02  0.57419715100E+02 -0.57227256696E+01  0.60191063275E+02  0.00000000000E+00 0. -1.
         21    1    1    2  502  501 -0.80811083200E+01 -0.18398418800E+02 -0.50432367693E+02  0.54288395050E+02  0.00000000000E+00 0.  1.
<scales pt_clust_5="13000.00000" pt_clust_6="13000.00000" pt_clust_7="13000.00000" pt_clust_8="13000.00000" pt_clust_9="20.09493"></scales>
<clustering>
<clus scale="   20.095">  2  9  1 -1</clus>
<clus scale="   80.200">  5  6 -1 -1</clus>
<clus scale="   90.565">  7  8 -1 -1</clus>
<clus scale="  168.397">  2  5  1 -1</clus>
<clus scale="  173.573">  1  5  2 -1</clus>
</clustering>
</event>
<event>
 9    1  0.2333971E-005  0.9722514E+02  0.7546771E-02  0.1291583E+00
          1   -1    0    0  502    0  0.00000000000E+00  0.00000000000E+00  0.13746953823E+03  0.13746953823E+03  0.00000000000E+00 0. -1.
         -2   -1    0    0    0  501 -0.00000000000E+00 -0.00000000000E+00 -0.15752115175E+03  0.15752115175E+03  0.00000000000E+00 0.  1.
        -24    2    1    2    0    0 -0.13560539207E+02  0.12915390175E+02 -0.35650655473E+02  0.89481795435E+02  0.79908240824E+02 0.  0.
         23    2    1    2    0    0 -0.48832058681E+02 -0.27577955878E+02  0.65175796819E+02  0.12448000015E+03  0.90012623232E+02 0.  0.
         11    1    3    3    0    0 -0.35933888157E+02 -0.20166721655E+02 -0.11382910545E+02  0.42749405059E+02  0.00000000000E+00 0. -1.
        -12    1    3    3    0    0  0.22373348951E+02  0.33082111829E+02 -0.24267744928E+02  0.46732390376E+02  0.00000000000E+00 0.  1.
        -13    1    4    4    0    0  0.26751957697E+02 -0.57527327517E+01  0.17833515343E+02  0.32661834673E+02  0.00000000000E+00 0.  1.
         13    1    4    4    0    0 -0.75584016377E+02 -0.21825223126E+02  0.47342281476E+02  0.91818165477E+02  0.00000000000E+00 0. -1.
         21    1    1    2  502  501  0.62392597887E+02  0.14662565703E+02 -0.49576754865E+02  0.81028894396E+02  0.00000000000E+00 0.  1.
<scales pt_clust_5="13000.00000" pt_clust_6="13000.00000" pt_clust_7="13000.00000" pt_clust_8="13000.00000" pt_clust_9="64.09233"></scales>
<clustering>
<clus scale="   64.092">  2  9  1 -1</clus>
<clus scale="   79.908">  5  6 -1 -1</clus>
<clus scale="   87.953">  2  5  1 -1</clus>
<clus scale="   90.013">  7  8 -1 -1</clus>
<clus scale="   97.225">  1  5  2 -1</clus>
</clustering>
</event>
<event>
 9    1  0.2333971E-005  0.1028189E+03  0.7546771E-02  0.1279396E+00
         -2   -1    0    0    0  501 -0.00000000000E+00  0.00000000000E+00  0.66353229158E+02  0.66353229158E+02  0.00000000000E+00 0.  1.
          1   -1    0    0  502    0  0.00000000000E+00 -0.00000000000E+00 -0.21555455059E+03  0.21555455059E+03  0.00000000000E+00 0. -1.
         23    2    1    2    0    0 -0.66701135880E+01 -0.34046814147E+02 -0.12773673490E+02  0.97330213972E+02  0.90035147851E+02 0.  0.
        -24    2    1    2    0    0  0.87721194856E+01  0.54559473613E+02 -0.13177821705E+03  0.16343980727E+03  0.79330863288E+02 0.  0.
         13    1    4    4    0    0  0.11587104217E+02  0.34572290460E+02 -0.13766702137E+03  0.14241387933E+03  0.00000000000E+00 0. -1.
        -14    1    4    4    0    0 -0.28149847318E+01  0.19987183153E+02  0.58888043226E+01  0.21025927941E+02  0.00000000000E+00 0.  1.
        -13    1    3    3    0    0 -0.36878403690E+02 -0.78148660437E+00 -0.31638185075E+02  0.48596318121E+02  0.00000000000E+00 0. -1.
         13    1    3    3    0    0  0.30208290102E+02 -0.33265327543E+02  0.18864511585E+02  0.48733895850E+02  0.00000000000E+00 0.  1.
         21    1    1    2  502  501 -0.21020058976E+01 -0.20512659466E+02 -0.46494308931E+01  0.21137758509E+02  0.00000000000E+00 0. -1.
<scales pt_clust_5="13000.00000" pt_clust_6="13000.00000" pt_clust_7="13000.00000" pt_clust_8="13000.00000" pt_clust_9="20.62008"></scales>
<clustering>
<clus scale="   20.620">  1  9  2 -1</clus>
<clus scale="   79.331">  5  6 -1 -1</clus>
<clus scale="   90.035">  7  8 -1 -1</clus>
<clus scale="   93.588">  2  5  1 -1</clus>
<clus scale="   93.588">  2  5  1 -1</clus>
</clustering>
</event>
<event>
 9    1  0.2333971E-005  0.1016738E+03  0.7546771E-02  0.1282790E+00
         -2   -1    0    0    0  501 -0.00000000000E+00  0.00000000000E+00  0.84298369823E+02  0.84298369823E+02  0.00000000000E+00 0.  1.
          1   -1    0    0  502    0  0.00000000000E+00 -0.00000000000E+00 -0.23832192294E+03  0.23832192294E+03  0.00000000000E+00 0. -1.
         23    2    1    2    0    0 -0.16824544046E+02 -0.45588127885E+02  0.11268835372E+02  0.10445940783E+03  0.91779292589E+02 0.  0.
        -24    2    1    2    0    0  0.37144748866E+02  0.24285118995E+02 -0.16530541952E+03  0.18872062199E+03  0.79499006721E+02 0.  0.
         13    1    4    4    0    0 -0.20869163920E+02  0.21289153621E+02 -0.34500121276E+02  0.45596144932E+02  0.00000000000E+00 0. -1.
        -14    1    4    4    0    0  0.58013912785E+02  0.29959653742E+01 -0.13080529824E+03  0.14312447706E+03  0.00000000000E+00 0.  1.
        -11    1    3    3    0    0 -0.44865312131E+02  0.57066649095E+01  0.20062121176E+01  0.45271261790E+02  0.00000000000E+00 0. -1.
         11    1    3    3    0    0  0.28040768085E+02 -0.51294792795E+02  0.92626232542E+01  0.59188146045E+02  0.00000000000E+00 0.  1.
         21    1    1    2  502  501 -0.20320204820E+02  0.21303008891E+02  0.13031033911E-01  0.29440262932E+02  0.00000000000E+00 0. -1.
<scales pt_clust_5="13000.00000" pt_clust_6="13000.00000" pt_clust_7="13000.00000" pt_clust_8="13000.00000" pt_clust_9="29.44026"></scales>
<clustering>
<clus scale="   29.440">  1  9  2 -1</clus>
<clus scale="   79.499">  5  6 -1 -1</clus>
<clus scale="   90.743">  2  5  1 -1</clus>
<clus scale="   91.779">  7  8 -1 -1</clus>
<clus scale="   90.743">  2  5  1 -1</clus>
</clustering>
</event>
<event>
 9    1  0.2333971E-005  0.1228760E+03  0.7546771E-02  0.1265022E+00
         -2   -1    0    0    0  501 -0.00000000000E+00  0.00000000000E+00  0.13924303657E+03  0.13924303657E+03  0.00000000000E+00 0.  1.
          1   -1    0    0  502    0  0.00000000000E+00 -0.00000000000E+00 -0.15307422876E+03  0.15307422876E+03  0.00000000000E+00 0. -1.
         23    2    1    2    0    0  0.96492631272E+02  0.11116432483E+02 -0.87439724603E+01  0.13505777134E+03  0.93433086133E+02 0.  0.
        -24    2    1    2    0    0 -0.23192851068E+02 -0.23888144950E+02 -0.30689110157E+02  0.78573845931E+02  0.64214297258E+02 0.  0.
         13    1    4    4    0    0 -0.18793654473E+02  0.20394088540E+02 -0.13796571721E+02  0.30975243132E+02  0.00000000000E+00 0. -1.
        -14    1    4    4    0    0 -0.43991965952E+01 -0.44282233491E+02 -0.16892538436E+02  0.47598602799E+02  0.00000000000E+00 0.  1.
        -13    1    3    3    0    0  0.47011033752E+02  0.17324237361E+02 -0.49666364876E+02  0.70547248667E+02  0.00000000000E+00 0. -1.
         13    1    3    3    0    0  0.49481597520E+02 -0.62078048775E+01  0.40922392416E+02  0.64510522674E+02  0.00000000000E+00 0.  1.
         21    1    1    2  502  501 -0.73299780204E+02  0.12771712467E+02  0.25601890418E+02  0.78685648058E+02  0.00000000000E+00 0. -1.
<scales pt_clust_5="13000.00000" pt_clust_6="13000.00000" pt_clust_7="13000.00000" pt_clust_8="13000.00000" pt_clust_9="79.80450"></scales>
<clustering>
<clus scale="   64.214">  5  6 -1 -1</clus>
<clus scale="   72.333">  2  5  1 -1</clus>
<clus scale="   79.805">  1  9  2 -1</clus>
<clus scale="   93.433">  7  8 -1 -1</clus>
<clus scale="   72.333">  2  5  1 -1</clus>
</clustering>
</event>
<event>
 9    1  0.2333971E-005  0.2820089E+03  0.7546771E-02  0.1095942E+00
         -4   -1    0    0    0  501 -0.00000000000E+00  0.00000000000E+00  0.82257598283E+03  0.82257598283E+03  0.00000000000E+00 0.  1.
          3   -1    0    0  502    0  0.00000000000E+00 -0.00000000000E+00 -0.15461411708E+03  0.15461411708E+03  0.00000000000E+00 0. -1.
         23    2    1    2    0    0 -0.19907227952E+03 -0.10846179934E+03  0.32250766239E+03  0.40910493657E+03  0.10937057390E+03 0.  0.
        -24    2    1    2    0    0  0.22724254399E+03  0.16040192438E+03  0.86292479584E+02  0.30227293740E+03  0.80960394709E+02 0.  0.
         13    1    4    4    0    0  0.13056417413E+03  0.12414239967E+03  0.84522310950E+02  0.19900341708E+03  0.00000000000E+00 0. -1.
        -14    1    4    4    0    0  0.96678369859E+02  0.36259524709E+02  0.17701686348E+01  0.10326952032E+03  0.00000000000E+00 0.  1.
        -11    1    3    3    0    0 -0.15990861569E+03 -0.29156193166E+02  0.19389668292E+03  0.25301536044E+03  0.00000000000E+00 0.  1.
         11    1    3    3    0    0 -0.39163663827E+02 -0.79305606173E+02  0.12861097947E+03  0.15608957613E+03  0.00000000000E+00 0. -1.
         21    1    1    2  502  501 -0.28170264474E+02 -0.51940125037E+02  0.25916172377E+03  0.26581222594E+03  0.00000000000E+00 0.  1.
<scales pt_clust_5="13000.00000" pt_clust_6="13000.00000" pt_clust_7="13000.00000" pt_clust_8="13000.00000" pt_clust_9="59.08757"></scales>
<clustering>
<clus scale="   59.088">  1  9  2 -1</clus>
<clus scale="   80.960">  5  6 -1 -1</clus>
<clus scale="  109.371">  7  8 -1 -1</clus>
<clus scale="  272.253">  2  5  1 -1</clus>
<clus scale="  272.253">  2  5  1 -1</clus>
</clustering>
</event>
<event>
 9    1  0.2333971E-005  0.9717533E+02  0.7546771E-02  0.1293011E+00
         -4   -1    0    0    0  501 -0.00000000000E+00  0.00000000000E+00  0.17600065305E+03  0.17600065305E+03  0.00000000000E+00 0.  1.
          3   -1    0    0  502    0  0.00000000000E+00 -0.00000000000E+00 -0.12812966314E+03  0.12812966314E+03  0.00000000000E+00 0. -1.
         23    2    1    2    0    0  0.34668768790E+02 -0.27830393817E+02  0.83941750336E+02  0.13244640375E+03  0.92300477070E+02 0.  0.
        -24    2    1    2    0    0  0.87788314441E+01  0.30779808356E+02 -0.74158459865E+02  0.11383008057E+03  0.80208139174E+02 0.  0.
         11    1    4    4    0    0  0.30435900162E+02  0.45813910929E+02 -0.66656577723E+02  0.86419660998E+02  0.00000000000E+00 0. -1.
        -12    1    4    4    0    0 -0.21657068717E+02 -0.15034102573E+02 -0.75018821417E+01  0.27410419575E+02  0.00000000000E+00 0.  1.
        -13    1    3    3    0    0 -0.26581661512E+02 -0.31027060841E+02  0.38211928804E+02  0.55941172101E+02  0.00000000000E+00 0. -1.
         13    1    3    3    0    0  0.61250430302E+02  0.31966670242E+01  0.45729821532E+02  0.76505231648E+02  0.00000000000E+00 0.  1.
         21    1    1    2  502  501 -0.43447600234E+02 -0.29494145393E+01  0.38087699439E+02  0.57853831859E+02  0.00000000000E+00 0. -1.
<scales pt_clust_5="13000.00000" pt_clust_6="13000.00000" pt_clust_7="13000.00000" pt_clust_8="13000.00000" pt_clust_9="43.54759"></scales>
<clustering>
<clus scale="   43.548">  1  9  2 -1</clus>
<clus scale="   80.208">  5  6 -1 -1</clus>
<clus scale="   85.773">  2  5  1 -1</clus>
<clus scale="   92.300">  7  8 -1 -1</clus>
<clus scale="   85.773">  2  5  1 -1</clus>
</clustering>
</event>
<event>
 9    1  0.2333971E-005  0.1306525E+03  0.7546771E-02  0.1229973E+00
         -2   -1    0    0    0  501 -0.00000000000E+00  0.00000000000E+00  0.17091175987E+03  0.17091175987E+03  0.00000000000E+00 0.  1.
          1   -1    0    0  502    0  0.00000000000E+00 -0.00000000000E+00 -0.24714094068E+03  0.24714094068E+03  0.00000000000E+00 0. -1.
         23    2    1    2    0    0 -0.47533260329E+02  0.19801862416E+02  0.96041871653E+02  0.14265060021E+03  0.92052311416E+02 0.  0.
        -24    2    1    2    0    0  0.75828494808E+02 -0.65303005572E+02 -0.18085055053E+03  0.22113809653E+03  0.78617383261E+02 0.  0.
         13    1    4    4    0    0  0.36405948692E+02 -0.75036663300E+02 -0.14344555914E+03  0.16592926920E+03  0.00000000000E+00 0. -1.
        -14    1    4    4    0    0  0.39422546116E+02  0.97336577287E+01 -0.37404991383E+02  0.55208827333E+02  0.00000000000E+00 0.  1.
        -11    1    3    3    0    0 -0.72300429917E+02  0.28541928488E+02  0.81521432405E+02  0.11263985879E+03  0.00000000000E+00 0.  1.
         11    1    3    3    0    0  0.24767169588E+02 -0.87400660720E+01  0.14520439249E+02  0.30010741416E+02  0.00000000000E+00 0. -1.
         21    1    1    2  502  501 -0.28295234478E+02  0.45501143156E+02  0.85794980570E+01  0.54264003811E+02  0.00000000000E+00 0.  1.
<scales pt_clust_5="13000.00000" pt_clust_6="13000.00000" pt_clust_7="13000.00000" pt_clust_8="13000.00000" pt_clust_9="53.58147"></scales>
<clustering>
<clus scale="   53.581">  1  9  2 -1</clus>
<clus scale="   78.617">  5  6 -1 -1</clus>
<clus scale="   92.052">  7  8 -1 -1</clus>
<clus scale="  121.561">  2  5  1 -1</clus>
<clus scale="  121.561">  2  5  1 -1</clus>
</clustering>
</event>
<event>
 9    1  0.2333971E-005  0.1473372E+03  0.7546771E-02  0.1205889E+00
         -2   -1    0    0    0  501 -0.00000000000E+00  0.00000000000E+00  0.20429100870E+03  0.20429100870E+03  0.00000000000E+00 0.  1.
          1   -1    0    0  502    0  0.00000000000E+00 -0.00000000000E+00 -0.15391099676E+03  0.15391099676E+03  0.00000000000E+00 0. -1.
         23    2    1    2    0    0 -0.91069531329E+02 -0.89517201561E+01  0.35298984685E+02  0.13464828239E+03  0.92251551757E+02 0.  0.
        -24    2    1    2    0    0  0.13037039378E+03  0.21034208573E+02 -0.34721200160E+02  0.15897194413E+03  0.81410317372E+02 0.  0.
         13    1    4    4    0    0  0.13830909487E+03  0.78445810686E+01 -0.37055002934E+02  0.14340159140E+03  0.00000000000E+00 0. -1.
        -14    1    4    4    0    0 -0.79387010838E+01  0.13189627505E+02  0.23338027741E+01  0.15570352725E+02  0.00000000000E+00 0.  1.
        -11    1    3    3    0    0 -0.81725446836E+02  0.32124426535E+02  0.24100894954E+02  0.91059763772E+02  0.00000000000E+00 0. -1.
         11    1    3    3    0    0 -0.93440844935E+01 -0.41076146691E+02  0.11198089732E+02  0.43588518622E+02  0.00000000000E+00 0.  1.
         21    1    1    2  502  501 -0.39300862454E+02 -0.12082488417E+02  0.49802227410E+02  0.64581778939E+02  0.00000000000E+00 0. -1.
<scales pt_clust_5="13000.00000" pt_clust_6="13000.00000" pt_clust_7="13000.00000" pt_clust_8="13000.00000" pt_clust_9="41.11623"></scales>
<clustering>
<clus scale="   41.116">  1  9  2 -1</clus>
<clus scale="   81.410">  5  6 -1 -1</clus>
<clus scale="   92.252">  7  8 -1 -1</clus>
<clus scale="  140.803">  2  5  1 -1</clus>
<clus scale="  140.803">  2  5  1 -1</clus>
</clustering>
</event>
<event>
 9    1  0.2333971E-005  0.1171295E+03  0.7546771E-02  0.1251116E+00
         -2   -1    0    0    0  501 -0.00000000000E+00  0.00000000000E+00  0.15114280322E+03  0.15114280322E+03  0.00000000000E+00 0.  1.
          1   -1    0    0  502    0  0.00000000000E+00 -0.00000000000E+00 -0.16499942774E+03  0.16499942774E+03  0.00000000000E+00 0. -1.
        -24    2    1    2    0    0 -0.86418500342E+01  0.53438237955E+02  0.62818877578E+02  0.11561302016E+03  0.80559494806E+02 0.  0.
         23    2    1    2    0    0 -0.14641350011E+02 -0.80859246202E+02 -0.99896912197E+02  0.15771270715E+03  0.90229253030E+02 0.  0.
         11    1    3    3    0    0 -0.38085243912E+02  0.25907991413E+02  0.67434312596E+01  0.46553020182E+02  0.00000000000E+00 0. -1.
        -12    1    3    3    0    0  0.29443393877E+02  0.27530246542E+02  0.56075446319E+02  0.69059999982E+02  0.00000000000E+00 0.  1.
        -11    1    4    4    0    0 -0.46822027699E+02 -0.33784300733E+02 -0.77050031277E+02  0.96282857112E+02  0.00000000000E+00 0. -1.
         11    1    4    4    0    0  0.32180677688E+02 -0.47074945469E+02 -0.22846880920E+02  0.61429850034E+02  0.00000000000E+00 0.  1.
         21    1    1    2  502  501  0.23283200045E+02  0.27421008247E+02  0.23221410103E+02  0.42816503649E+02  0.00000000000E+00 0.  1.
<scales pt_clust_5="13000.00000" pt_clust_6="13000.00000" pt_clust_7="13000.00000" pt_clust_8="13000.00000" pt_clust_9="35.97248"></scales>
<clustering>
<clus scale="   35.972">  1  9  2 -1</clus>
<clus scale="   80.559">  5  6 -1 -1</clus>
<clus scale="   90.229">  7  8 -1 -1</clus>
<clus scale="  109.854">  1  5  2 -1</clus>
<clus scale="  117.130">  2  5  1 -1</clus>
</clustering>
</event>
<event>
 9    1  0.2333971E-005  0.1469473E+03  0.7546771E-02  0.1206352E+00
          1   -1    0    0  502    0  0.00000000000E+00  0.00000000000E+00  0.26742372664E+03  0.26742372664E+03  0.00000000000E+00 0. -1.
         -2   -1    0    0    0  501 -0.00000000000E+00 -0.00000000000E+00 -0.22284265822E+03  0.22284265822E+03  0.00000000000E+00 0.  1.
         23    2    1    2    0    0 -0.69096395242E+02 -0.66295945708E+02 -0.13859202983E+03  0.19212171386E+03  0.92377150593E+02 0.  0.
        -24    2    1    2    0    0  0.93563097745E+02  0.69870457647E+02  0.21492169266E+03  0.25790327548E+03  0.81773048228E+02 0.  0.
         13    1    4    4    0    0  0.10561494738E+03  0.49914158811E+02  0.15885049799E+03  0.19717865268E+03  0.00000000000E+00 0. -1.
        -14    1    4    4    0    0 -0.12051849637E+02  0.19956298836E+02  0.56071194663E+02  0.60724622797E+02  0.00000000000E+00 0.  1.
        -11    1    3    3    0    0 -0.33083679678E+02 -0.72741647308E+02 -0.13293049507E+03  0.15510123673E+03  0.00000000000E+00 0.  1.
         11    1    3    3    0    0 -0.36012715564E+02  0.64457016004E+01 -0.56615347588E+01  0.37020477134E+02  0.00000000000E+00 0. -1.
         21    1    1    2  502  501 -0.24466702503E+02 -0.35745119389E+01 -0.31748594409E+02  0.40241395526E+02  0.00000000000E+00 0. -1.
<scales pt_clust_5="13000.00000" pt_clust_6="13000.00000" pt_clust_7="13000.00000" pt_clust_8="13000.00000" pt_clust_9="24.72644"></scales>
<clustering>
<clus scale="   24.726">  2  9  1 -1</clus>
<clus scale="   81.773">  5  6 -1 -1</clus>
<clus scale="   92.377">  7  8 -1 -1</clus>
<clus scale="  140.523">  1  5  2 -1</clus>
<clus scale="  140.523">  1  5  2 -1</clus>
</clustering>
</event>
<event>
 9    1  0.2333971E-005  0.1683049E+03  0.7546771E-02  0.1181363E+00
         -2   -1    0    0    0  501 -0.00000000000E+00  0.00000000000E+00  0.93444034875E+02  0.93444034875E+02  0.00000000000E+00 0.  1.
          1   -1    0    0  502    0  0.00000000000E+00 -0.00000000000E+00 -0.70417282169E+03  0.70417282169E+03  0.00000000000E+00 0. -1.
         23    2    1    2    0    0  0.11774299742E+03  0.36970837592E+02 -0.65790385653E+02  0.16837602651E+03  0.93764893131E+02 0.  0.
        -24    2    1    2    0    0 -0.14103585369E+03 -0.27320641398E+02 -0.57013376920E+03  0.59359689636E+03  0.81653114539E+02 0.  0.
         11    1    4    4    0    0 -0.11864757267E+03  0.87944909469E+01 -0.35806473216E+03  0.37731279065E+03  0.00000000000E+00 0. -1.
        -12    1    4    4    0    0 -0.22388281014E+02 -0.36115132344E+02 -0.21206903704E+03  0.21628410570E+03  0.00000000000E+00 0.  1.
        -11    1    3    3    0    0  0.69059911926E+02  0.53238451473E+02 -0.29659954160E+01  0.87249076094E+02  0.00000000000E+00 0.  1.
         11    1    3    3    0    0  0.48683085494E+02 -0.16267613880E+02 -0.62824390237E+02  0.81126950412E+02  0.00000000000E+00 0. -1.
         21    1    1    2  502  501  0.23292856267E+02 -0.96501961949E+01  0.25195368032E+02  0.35643933704E+02  0.00000000000E+00 0.  1.
<scales pt_clust_5="13000.00000" pt_clust_6="13000.00000" pt_clust_7="13000.00000" pt_clust_8="13000.00000" pt_clust_9="25.21276"></scales>
<clustering>
<clus scale="   25.213">  1  9  2 -1</clus>
<clus scale="   81.653">  5  6 -1 -1</clus>
<clus scale="   93.765">  7  8 -1 -1</clus>
<clus scale="  161.870">  2  5  1 -1</clus>
<clus scale="  161.870">  2  5  1 -1</clus>
</clustering>
</event>
<event>
 9    1  0.2333971E-005  0.1679115E+03  0.7546771E-02  0.1214461E+00
         -2   -1    0    0    0  501 -0.00000000000E+00  0.00000000000E+00  0.17232157196E+03  0.17232157196E+03  0.00000000000E+00 0.  1.
          1   -1    0    0  502    0  0.00000000000E+00 -0.00000000000E+00 -0.32930984166E+03  0.32930984166E+03  0.00000000000E+00 0. -1.
         23    2    1    2    0    0 -0.14915965308E+03 -0.54525943948E+01  0.42692189497E+01  0.17460861999E+03  0.90507519324E+02 0.  0.
        -24    2    1    2    0    0  0.14133762731E+02 -0.98760693551E+01 -0.17334820131E+03  0.19059279572E+03  0.77322150044E+02 0.  0.
         13    1    4    4    0    0 -0.26244380060E+02 -0.21850724183E+02 -0.10393720874E+03  0.10940367906E+03  0.00000000000E+00 0. -1.
        -14    1    4    4    0    0  0.40378142791E+02  0.11974654828E+02 -0.69410992569E+02  0.81189116653E+02  0.00000000000E+00 0.  1.
        -13    1    3    3    0    0 -0.11068719663E+03  0.29018517008E+02  0.27936172671E+02  0.11778862242E+03  0.00000000000E+00 0. -1.
         13    1    3    3    0    0 -0.38472456448E+02 -0.34471111402E+02 -0.23666953721E+02  0.56819997579E+02  0.00000000000E+00 0.  1.
         21    1    1    2  502  501  0.13502589035E+03  0.15328663750E+02  0.12090712664E+02  0.13642999791E+03  0.00000000000E+00 0.  1.
<scales pt_clust_5="13000.00000" pt_clust_6="13000.00000" pt_clust_7="13000.00000" pt_clust_8="13000.00000" pt_clust_9="141.43072"></scales>
<clustering>
<clus scale="   77.322">  5  6 -1 -1</clus>
<clus scale="   79.221">  2  5  1 -1</clus>
<clus scale="   90.508">  7  8 -1 -1</clus>
<clus scale="  141.431">  1  9  2 -1</clus>
<clus scale="   79.221">  2  5  1 -1</clus>
</clustering>
</event>
<event>
 9    1  0.2333971E-005  0.1300995E+03  0.7546771E-02  0.1230194E+00
         -2   -1    0    0    0  501 -0.00000000000E+00  0.00000000000E+00  0.44905637086E+03  0.44905637086E+03  0.00000000000E+00 0.  1.
          1   -1    0    0  502    0  0.00000000000E+00 -0.00000000000E+00 -0.13726844558E+03  0.13726844558E+03  0.00000000000E+00 0. -1.
        -24    2    1    2    0    0 -0.70973378427E+02  0.68626003397E+02  0.30632431343E+03  0.33171033103E+03  0.80314444050E+02 0.  0.
         23    2    1    2    0    0  0.96470484157E+02  0.30437417897E+01  0.74068590190E+02  0.15217768621E+03  0.91411560814E+02 0.  0.
         13    1    3    3    0    0 -0.61943821992E+02  0.23179704718E+02  0.97557636983E+02  0.11786360052E+03  0.00000000000E+00 0. -1.
        -14    1    3    3    0    0 -0.90295564342E+01  0.45446298679E+02  0.20876667645E+03  0.21384673051E+03  0.00000000000E+00 0.  1.
        -13    1    4    4    0    0  0.78903710913E+02  0.34708106223E+02  0.22363658209E+02  0.89053812057E+02  0.00000000000E+00 0. -1.
         13    1    4    4    0    0  0.17566773244E+02 -0.31664364433E+02  0.51704931981E+02  0.63123874155E+02  0.00000000000E+00 0.  1.
         21    1    1    2  502  501 -0.25497105730E+02 -0.71669745187E+02 -0.68604978350E+02  0.10243679920E+03  0.00000000000E+00 0.  1.
<scales pt_clust_5="13000.00000" pt_clust_6="13000.00000" pt_clust_7="13000.00000" pt_clust_8="13000.00000" pt_clust_9="76.07006"></scales>
<clustering>
<clus scale="   76.070">  2  9  1 -1</clus>
<clus scale="   80.314">  5  6 -1 -1</clus>
<clus scale="   91.412">  7  8 -1 -1</clus>
<clus scale="  122.557">  1  5  2 -1</clus>
<clus scale="   76.070">  2  5  1 -1</clus>
</clustering>
</event>
<event>
 9    1  0.2333971E-005  0.1018100E+03  0.7546771E-02  0.1281421E+00
          1   -1    0    0  502    0  0.00000000000E+00  0.00000000000E+00  0.96346016044E+02  0.96346016044E+02  0.00000000000E+00 0. -1.
         -2   -1    0    0    0  501 -0.00000000000E+00 -0.00000000000E+00 -0.21350170694E+03  0.21350170694E+03  0.00000000000E+00 0.  1.
         23    2    1    2    0    0 -0.25488002797E+02  0.53714989524E+02 -0.13098683935E+03  0.16978748376E+03  0.90195893330E+02 0.  0.
        -24    2    1    2    0    0  0.30203263109E+02 -0.33728827891E+02  0.45403857243E+02  0.10239704396E+03  0.79835915645E+02 0.  0.
         13    1    4    4    0    0  0.47366956539E+02 -0.23266433778E+01  0.46739433154E+02  0.66585407205E+02  0.00000000000E+00 0. -1.
        -14    1    4    4    0    0 -0.17163693430E+02 -0.31402184513E+02 -0.13355759108E+01  0.35811636759E+02  0.00000000000E+00 0.  1.
        -13    1    3    3    0    0 -0.23573821159E+02  0.65621283887E+01  0.57495764867E+01  0.25136511349E+02  0.00000000000E+00 0. -1.
         13    1    3    3    0    0 -0.19141816382E+01  0.47152861135E+02 -0.13673641583E+03  0.14465097241E+03  0.00000000000E+00 0.  1.
         21    1    1    2  502  501 -0.47152603121E+01 -0.19986161633E+02 -0.31572708791E+02  0.37663195258E+02  0.00000000000E+00 0.  1.
<scales pt_clust_5="13000.00000" pt_clust_6="13000.00000" pt_clust_7="13000.00000" pt_clust_8="13000.00000" pt_clust_9="20.53486"></scales>
<clustering>
<clus scale="   20.535">  2  9  1 -1</clus>
<clus scale="   79.836">  5  6 -1 -1</clus>
<clus scale="   90.196">  7  8 -1 -1</clus>
<clus scale="   92.756">  1  5  2 -1</clus>
<clus scale="   92.756">  1  5  2 -1</clus>
</clustering>
</event>
<event>
 9    1  0.2333971E-005  0.1065782E+03  0.7546771E-02  0.1271284E+00
         -2   -1    0    0    0  501 -0.00000000000E+00  0.00000000000E+00  0.36786052342E+02  0.36786052342E+02  0.00000000000E+00 0.  1.
          1   -1    0    0  502    0  0.00000000000E+00 -0.00000000000E+00 -0.47467078012E+03  0.47467078012E+03  0.00000000000E+00 0. -1.
         23    2    1    2    0    0 -0.45475627922E+02 -0.37375058044E+02 -0.94787409391E+02  0.14266985433E+03  0.88910666718E+02 0.  0.
        -24    2    1    2    0    0  0.26411859143E+02  0.23886535298E+02 -0.31711980198E+03  0.33385563283E+03  0.98114534573E+02 0.  0.
         13    1    4    4    0    0  0.49000418039E+02  0.26604490822E+02 -0.30062995900E+03  0.30575678594E+03  0.00000000000E+00 0. -1.
        -14    1    4    4    0    0 -0.22588558896E+02 -0.27179555236E+01 -0.16489842980E+02  0.28098846894E+02  0.00000000000E+00 0.  1.
        -13    1    3    3    0    0  0.23456785261E+01  0.24643879247E+02 -0.40189005255E+02  0.47201473870E+02  0.00000000000E+00 0. -1.
         13    1    3    3    0    0 -0.47821306448E+02 -0.62018937292E+02 -0.54598404135E+02  0.95468380458E+02  0.00000000000E+00 0.  1.
         21    1    1    2  502  501  0.19063768779E+02  0.13488522746E+02 -0.25977516413E+02  0.34931345307E+02  0.00000000000E+00 0.  1.
<scales pt_clust_5="13000.00000" pt_clust_6="13000.00000" pt_clust_7="13000.00000" pt_clust_8="13000.00000" pt_clust_9="23.35311"></scales>
<clustering>
<clus scale="   23.353">  1  9  2 -1</clus>
<clus scale="   88.911">  7  8 -1 -1</clus>
<clus scale="   98.115">  5  6 -1 -1</clus>
<clus scale="   98.171">  1  7  2 -1</clus>
<clus scale="  106.578">  2  5  1 -1</clus>
</clustering>
</event>
<event>
 9    1  0.2333971E-005  0.1272988E+03  0.7546771E-02  0.1234060E+00
         -2   -1    0    0    0  501 -0.00000000000E+00  0.00000000000E+00  0.30062680334E+03  0.30062680334E+03  0.00000000000E+00 0.  1.
          1   -1    0    0  502    0  0.00000000000E+00 -0.00000000000E+00 -0.72379520779E+02  0.72379520779E+02  0.00000000000E+00 0. -1.
        -24    2    1    2    0    0 -0.15885704151E+02 -0.10148154290E+03  0.12955633962E+03  0.18439409201E+03  0.81642371888E+02 0.  0.
         23    2    1    2    0    0 -0.20183906066E+01  0.81787371438E+02  0.48105198000E+02  0.13145162863E+03  0.90951484693E+02 0.  0.
         13    1    3    3    0    0 -0.24977826747E+02 -0.36431359859E+02  0.61514276356E+01  0.44597935738E+02  0.00000000000E+00 0. -1.
        -14    1    3    3    0    0  0.90921225961E+01 -0.65050183039E+02  0.12340491198E+03  0.13979615627E+03  0.00000000000E+00 0.  1.
        -13    1    4    4    0    0  0.21208330646E+02 -0.12832541368E+02  0.74834709582E+01  0.25893430525E+02  0.00000000000E+00 0.  1.
         13    1    4    4    0    0 -0.23226721253E+02  0.94619912806E+02  0.40621727041E+02  0.10555819811E+03  0.00000000000E+00 0. -1.
         21    1    1    2  502  501  0.17904094757E+02  0.19694171460E+02  0.50585744939E+02  0.57160603475E+02  0.00000000000E+00 0.  1.
<scales pt_clust_5="13000.00000" pt_clust_6="13000.00000" pt_clust_7="13000.00000" pt_clust_8="13000.00000" pt_clust_9="26.61610"></scales>
<clustering>
<clus scale="   26.616">  1  9  2 -1</clus>
<clus scale="   81.642">  5  6 -1 -1</clus>
<clus scale="   90.951">  7  8 -1 -1</clus>
<clus scale="  120.823">  1  5  2 -1</clus>
<clus scale="  127.299">  2  5  1 -1</clus>
</clustering>
</event>
<event>
 9    1  0.2333971E-005  0.9933034E+02  0.7546771E-02  0.1286152E+00
          1   -1    0    0  502    0  0.00000000000E+00  0.00000000000E+00  0.22578866608E+03  0.22578866608E+03  0.00000000000E+00 0. -1.
         -2   -1    0    0    0  501 -0.00000000000E+00 -0.00000000000E+00 -0.61039343598E+02  0.61039343598E+02  0.00000000000E+00 0.  1.
        -24    2    1    2    0    0  0.25935000638E+02 -0.14728663611E+02  0.16622995969E+02  0.87106660354E+02  0.80135438435E+02 0.  0.
         23    2    1    2    0    0 -0.48332767036E+02  0.14818675588E+02  0.14431380638E+03  0.17700124035E+03  0.89147713708E+02 0.  0.
         11    1    3    3    0    0  0.14653533256E+02  0.31577862574E+02  0.18472872504E+02  0.39409826949E+02  0.00000000000E+00 0. -1.
        -12    1    3    3    0    0  0.11281467382E+02 -0.46306526185E+02 -0.18498765350E+01  0.47696833405E+02  0.00000000000E+00 0.  1.
        -13    1    4    4    0    0 -0.69584613923E+02  0.30535286048E+02  0.10432727863E+03  0.12906821164E+03  0.00000000000E+00 0. -1.
         13    1    4    4    0    0  0.21251846887E+02 -0.15716610460E+02  0.39986527752E+02  0.47933028718E+02  0.00000000000E+00 0.  1.
         21    1    1    2  502  501  0.22397766398E+02 -0.90011977259E-01  0.38125201327E+01  0.22720108969E+02  0.00000000000E+00 0.  1.
<scales pt_clust_5="13000.00000" pt_clust_6="13000.00000" pt_clust_7="13000.00000" pt_clust_8="13000.00000" pt_clust_9="22.39795"></scales>
<clustering>
<clus scale="   22.398">  2  9  1 -1</clus>
<clus scale="   80.135">  5  6 -1 -1</clus>
<clus scale="   89.148">  7  8 -1 -1</clus>
<clus scale="   91.328">  2  5  1 -1</clus>
<clus scale="   99.330">  1  5  2 -1</clus>
</clustering>
</event>
<event>
 9    1  0.2333971E-005  0.9329217E+02  0.7546771E-02  0.1303064E+00
         -2   -1    0    0    0  501 -0.00000000000E+00  0.00000000000E+00  0.20773072080E+03  0.20773072080E+03  0.00000000000E+00 0.  1.
          1   -1    0    0  502    0  0.00000000000E+00 -0.00000000000E+00 -0.68427548811E+02  0.68427548811E+02  0.00000000000E+00 0. -1.
         23    2    1    2    0    0 -0.19132754307E+02  0.18214865697E+01  0.10139992234E+03  0.13889527729E+03  0.92954686294E+02 0.  0.
        -24    2    1    2    0    0 -0.15561928909E+02 -0.38682054565E+01 -0.52465414458E+01  0.81857084929E+02  0.80099435149E+02 0.  0.
         11    1    4    4    0    0  0.31163577462E+02  0.46592713371E+01 -0.12326213731E+02  0.33835084078E+02  0.00000000000E+00 0. -1.
        -12    1    4    4    0    0 -0.46725506371E+02 -0.85274767936E+01  0.70796722850E+01  0.48022000851E+02  0.00000000000E+00 0.  1.
        -11    1    3    3    0    0  0.37532798495E+02 -0.49215397046E+01  0.40077550005E+02  0.55128418536E+02  0.00000000000E+00 0.  1.
         11    1    3    3    0    0 -0.56665552802E+02  0.67430262743E+01  0.61322372333E+02  0.83766858758E+02  0.00000000000E+00 0. -1.
         21    1    1    2  502  501  0.34694683216E+02  0.20467188868E+01  0.43149791095E+02  0.55405907385E+02  0.00000000000E+00 0. -1.
<scales pt_clust_5="13000.00000" pt_clust_6="13000.00000" pt_clust_7="13000.00000" pt_clust_8="13000.00000" pt_clust_9="34.75500"></scales>
<clustering>
<clus scale="   34.755">  1  9  2 -1</clus>
<clus scale="   80.099">  5  6 -1 -1</clus>
<clus scale="   80.491">  2  5  1 -1</clus>
<clus scale="   92.955">  7  8 -1 -1</clus>
<clus scale="   80.491">  2  5  1 -1</clus>
</clustering>
</event>
<event>
 9    1  0.2333971E-005  0.9839218E+02  0.7546771E-02  0.1291172E+00
          1   -1    0    0  502    0  0.00000000000E+00  0.00000000000E+00  0.27769766906E+03  0.27769766906E+03  0.00000000000E+00 0. -1.
         -2   -1    0    0    0  501 -0.00000000000E+00 -0.00000000000E+00 -0.15773076933E+03  0.15773076933E+03  0.00000000000E+00 0.  1.
         23    2    1    2    0    0  0.53696562985E+01 -0.65667654411E+01 -0.54491692561E+02  0.11096910722E+03  0.96295600016E+02 0.  0.
        -24    2    1    2    0    0 -0.39646180651E+01 -0.22182699806E+02  0.23886819444E+03  0.25391074697E+03  0.83095503758E+02 0.  0.
         11    1    4    4    0    0  0.15917058891E+02 -0.48770142157E+02  0.12029410017E+03  0.13077671836E+03  0.00000000000E+00 0. -1.
        -12    1    4    4    0    0 -0.19881676956E+02  0.26587442352E+02  0.11857409427E+03  0.12313402861E+03  0.00000000000E+00 0.  1.
        -11    1    3    3    0    0  0.40107005476E+02 -0.15493629027E+02  0.31164594176E+01  0.43108430127E+02  0.00000000000E+00 0. -1.
         11    1    3    3    0    0 -0.34737349178E+02  0.89268635862E+01 -0.57608151979E+02  0.67860677095E+02  0.00000000000E+00 0.  1.
         21    1    1    2  502  501 -0.14050382334E+01  0.28749465247E+02 -0.64409602147E+02  0.70548584204E+02  0.00000000000E+00 0.  1.
<scales pt_clust_5="13000.00000" pt_clust_6="13000.00000" pt_clust_7="13000.00000" pt_clust_8="13000.00000" pt_clust_9="28.78378"></scales>
<clustering>
<clus scale="   28.784">  2  9  1 -1</clus>
<clus scale="   83.096">  5  6 -1 -1</clus>
<clus scale="   85.516">  1  5  2 -1</clus>
<clus scale="   96.296">  7  8 -1 -1</clus>
<clus scale="   85.516">  1  5  2 -1</clus>
</clustering>
</event>
<event>
 9    1  0.2333971E-005  0.2729374E+03  0.7546771E-02  0.1100188E+00
         -2   -1    0    0    0  501 -0.00000000000E+00  0.00000000000E+00  0.14487853275E+03  0.14487853275E+03  0.00000000000E+00 0.  1.
          1   -1    0    0  502    0  0.00000000000E+00 -0.00000000000E+00 -0.11054918918E+04  0.11054918918E+04  0.00000000000E+00 0. -1.
         23    2    1    2    0    0 -0.58982625396E+02 -0.22117463158E+03 -0.23013891957E+02  0.24781068740E+03  0.92104993419E+02 0.  0.
        -24    2    1    2    0    0  0.95487451041E+02  0.24415559434E+03 -0.91236191759E+03  0.95258313411E+03  0.79249928614E+02 0.  0.
         13    1    4    4    0    0  0.40069401018E+02  0.18551648440E+03 -0.56700890448E+03  0.59793061524E+03  0.00000000000E+00 0. -1.
        -14    1    4    4    0    0  0.55418050023E+02  0.58639109940E+02 -0.34535301311E+03  0.35465251887E+03  0.00000000000E+00 0.  1.
        -13    1    3    3    0    0 -0.40078571967E+02 -0.72413070820E+02  0.31061003195E+02  0.88400965357E+02  0.00000000000E+00 0.  1.
         13    1    3    3    0    0 -0.18904053429E+02 -0.14876156076E+03 -0.54074895152E+02  0.15940972204E+03  0.00000000000E+00 0. -1.
         21    1    1    2  502  501 -0.36504825644E+02 -0.22980962759E+02 -0.25237549476E+02  0.49976603008E+02  0.00000000000E+00 0. -1.
<scales pt_clust_5="13000.00000" pt_clust_6="13000.00000" pt_clust_7="13000.00000" pt_clust_8="13000.00000" pt_clust_9="43.13614"></scales>
<clustering>
<clus scale="   43.136">  1  9  2 -1</clus>
<clus scale="   79.250">  5  6 -1 -1</clus>
<clus scale="   92.105">  7  8 -1 -1</clus>
<clus scale="  268.872">  2  5  1 -1</clus>
<clus scale="  268.872">  2  5  1 -1</clus>
</clustering>
</event>
<event>
 9    1  0.2333971E-005  0.1112300E+03  0.7546771E-02  0.1262877E+00
         -2   -1    0    0    0  501 -0.00000000000E+00  0.00000000000E+00  0.44629147654E+03  0.44629147654E+03  0.00000000000E+00 0.  1.
          1   -1    0    0  502    0  0.00000000000E+00 -0.00000000000E+00 -0.48862180686E+03  0.48862180686E+03  0.00000000000E+00 0. -1.
        -24    2    1    2    0    0 -0.10605727295E+02  0.71040514676E+02  0.20829523858E+03  0.23463364870E+03  0.80664778628E+02 0.  0.
         23    2    1    2    0    0  0.57437437309E+02 -0.24905499502E+02 -0.46388181246E+03  0.47712078073E+03  0.92404330887E+02 0.  0.
         11    1    3    3    0    0  0.28608140740E+02  0.27928074667E+02  0.40088608612E+02  0.56617131786E+02  0.00000000000E+00 0. -1.
        -12    1    3    3    0    0 -0.39213868035E+02  0.43112440009E+02  0.16820662996E+03  0.17801651691E+03  0.00000000000E+00 0.  1.
        -11    1    4    4    0    0  0.10871816536E+02 -0.53102774192E+02 -0.17677351021E+03  0.18489720099E+03  0.00000000000E+00 0.  1.
         11    1    4    4    0    0  0.46565620772E+02  0.28197274690E+02 -0.28710830225E+03  0.29222357974E+03  0.00000000000E+00 0. -1.
         21    1    1    2  502  501 -0.46831710014E+02 -0.46135015174E+02  0.21325624356E+03  0.22315885397E+03  0.00000000000E+00 0. -1.
<scales pt_clust_5="13000.00000" pt_clust_6="13000.00000" pt_clust_7="13000.00000" pt_clust_8="13000.00000" pt_clust_9="65.73925"></scales>
<clustering>
<clus scale="   65.739">  1  9  2 -1</clus>
<clus scale="   80.665">  5  6 -1 -1</clus>
<clus scale="   92.404">  7  8 -1 -1</clus>
<clus scale="  101.688">  1  5  2 -1</clus>
<clus scale="  111.230">  2  5  1 -1</clus>
</clustering>
</event>
<event>
 9    1  0.2333971E-005  0.9780068E+02  0.7546771E-02  0.1291492E+00
          3   -1    0    0  502    0  0.00000000000E+00  0.00000000000E+00  0.42908523465E+03  0.42908523465E+03  0.00000000000E+00 0. -1.
         -4   -1    0    0    0  501 -0.00000000000E+00 -0.00000000000E+00 -0.71142837776E+02  0.71142837776E+02  0.00000000000E+00 0.  1.
        -24    2    1    2    0    0 -0.52098330930E+02 -0.29095839876E+02  0.34299122558E+02  0.10602698097E+03  0.80650399268E+02 0.  0.
         23    2    1    2    0    0  0.13614306221E+02  0.23619092766E+02  0.33894493967E+03  0.35242602857E+03  0.92613296042E+02 0.  0.
         13    1    3    3    0    0 -0.20945977517E+02 -0.17495779355E+02  0.58737625573E+02  0.64768394510E+02  0.00000000000E+00 0. -1.
        -14    1    3    3    0    0 -0.31152353413E+02 -0.11600060522E+02 -0.24438503015E+02  0.41258586463E+02  0.00000000000E+00 0.  1.
        -11    1    4    4    0    0 -0.27393217805E+02  0.39474642252E+02  0.22958773224E+03  0.23456163915E+03  0.00000000000E+00 0. -1.
         11    1    4    4    0    0  0.41007524026E+02 -0.15855549486E+02  0.10935720743E+03  0.11786438942E+03  0.00000000000E+00 0.  1.
         21    1    1    2  502  501  0.38484024709E+02  0.54767471099E+01 -0.15301665355E+02  0.41775062889E+02  0.00000000000E+00 0. -1.
<scales pt_clust_5="13000.00000" pt_clust_6="13000.00000" pt_clust_7="13000.00000" pt_clust_8="13000.00000" pt_clust_9="38.87178"></scales>
<clustering>
<clus scale="   38.872">  2  9  1 -1</clus>
<clus scale="   80.650">  5  6 -1 -1</clus>
<clus scale="   86.558">  2  5  1 -1</clus>
<clus scale="   92.613">  7  8 -1 -1</clus>
<clus scale="   97.801">  1  5  2 -1</clus>
</clustering>
</event>
<event>
 9    1  0.2333971E-005  0.1099145E+03  0.7546771E-02  0.1264157E+00
         -2   -1    0    0    0  501 -0.00000000000E+00  0.00000000000E+00  0.28029304209E+03  0.28029304209E+03  0.00000000000E+00 0.  1.
          1   -1    0    0  502    0  0.00000000000E+00 -0.00000000000E+00 -0.10843157904E+03  0.10843157904E+03  0.00000000000E+00 0. -1.
        -24    2    1    2    0    0  0.40811017398E+02 -0.70086909016E+02  0.12307332056E+03  0.16811974770E+03  0.80867134101E+02 0.  0.
         23    2    1    2    0    0 -0.32436581107E+02  0.49649962057E+02 -0.50529816345E+02  0.11886079777E+03  0.89762889780E+02 0.  0.
         11    1    3    3    0    0  0.63364650222E+02 -0.63964730734E+02  0.10655775367E+03  0.13950312019E+03  0.00000000000E+00 0. -1.
        -12    1    3    3    0    0 -0.22553632825E+02 -0.61221782821E+01  0.16515566889E+02  0.28616627512E+02  0.00000000000E+00 0.  1.
        -13    1    4    4    0    0  0.17619870310E+02 -0.11471654837E+02  0.58255965446E+01  0.21817338737E+02  0.00000000000E+00 0. -1.
         13    1    4    4    0    0 -0.50056451417E+02  0.61121616893E+02 -0.56355412890E+02  0.97043459038E+02  0.00000000000E+00 0.  1.
         21    1    1    2  502  501 -0.83744362906E+01  0.20436946960E+02  0.99317958839E+02  0.10174407566E+03  0.00000000000E+00 0.  1.
<scales pt_clust_5="13000.00000" pt_clust_6="13000.00000" pt_clust_7="13000.00000" pt_clust_8="13000.00000" pt_clust_9="22.08619"></scales>
<clustering>
<clus scale="   22.086">  1  9  2 -1</clus>
<clus scale="   80.867">  5  6 -1 -1</clus>
<clus scale="   89.763">  7  8 -1 -1</clus>
<clus scale="  102.778">  1  5  2 -1</clus>
<clus scale="  109.915">  2  5  1 -1</clus>
</clustering>
</event>
<event>
 9    1  0.2333971E-005  0.1260252E+03  0.7546771E-02  0.1235954E+00
         -2   -1    0    0    0  501 -0.00000000000E+00  0.00000000000E+00  0.84875247686E+02  0.84875247686E+02  0.00000000000E+00 0.  1.
          1   -1    0    0  502    0  0.00000000000E+00 -0.00000000000E+00 -0.27542594398E+03  0.27542594398E+03  0.00000000000E+00 0. -1.
        -24    2    1    2    0    0  0.31899658957E+02 -0.10609152522E+03 -0.75962658974E+02  0.15664432064E+03  0.80586088546E+02 0.  0.
         23    2    1    2    0    0 -0.18623713287E+01  0.75909563574E+02 -0.10985097254E+03  0.16081262708E+03  0.89597626031E+02 0.  0.
         11    1    3    3    0    0  0.42534397210E+02 -0.89182001725E+02 -0.88844086972E+02  0.13287541596E+03  0.00000000000E+00 0. -1.
        -12    1    3    3    0    0 -0.10634738253E+02 -0.16909523491E+02  0.12881427997E+02  0.23768904680E+02  0.00000000000E+00 0.  1.
        -13    1    4    4    0    0 -0.25475026054E+02  0.27930007829E+02  0.91483897251E+00  0.37814008252E+02  0.00000000000E+00 0.  1.
         13    1    4    4    0    0  0.23612654725E+02  0.47979555745E+02 -0.11076581151E+03  0.12299861882E+03  0.00000000000E+00 0. -1.
         21    1    1    2  502  501 -0.30037287628E+02  0.30181961642E+02 -0.47370647813E+01  0.42844243947E+02  0.00000000000E+00 0. -1.
<scales pt_clust_5="13000.00000" pt_clust_6="13000.00000" pt_clust_7="13000.00000" pt_clust_8="13000.00000" pt_clust_9="42.58156"></scales>
<clustering>
<clus scale="   42.582">  1  9  2 -1</clus>
<clus scale="   80.586">  5  6 -1 -1</clus>
<clus scale="   89.598">  7  8 -1 -1</clus>
<clus scale="  119.786">  1  5  2 -1</clus>
<clus scale="  126.025">  2  5  1 -1</clus>
</clustering>
</event>
<event>
 9    1  0.2333971E-005  0.1060699E+03  0.7546771E-02  0.1271987E+00
          1   -1    0    0  502    0  0.00000000000E+00  0.00000000000E+00  0.49343734474E+03  0.49343734474E+03  0.00000000000E+00 0. -1.
         -2   -1    0    0    0  501 -0.00000000000E+00 -0.00000000000E+00 -0.75909074605E+02  0.75909074605E+02  0.00000000000E+00 0.  1.
         23    2    1    2    0    0  0.30278875871E+02  0.39788993014E+02  0.15813157098E+02  0.10508659482E+03  0.91066800670E+02 0.  0.
        -24    2    1    2    0    0 -0.61982328676E+01 -0.55432767965E+02  0.41913424287E+03  0.43067364959E+03  0.81823401616E+02 0.  0.
         13    1    4    4    0    0  0.27678385095E+02 -0.48462066555E+02  0.33644833236E+03  0.34104566446E+03  0.00000000000E+00 0. -1.
        -14    1    4    4    0    0 -0.33876617963E+02 -0.69707014094E+01  0.82685910511E+02  0.89627985137E+02  0.00000000000E+00 0.  1.
        -11    1    3    3    0    0 -0.16513634212E+02  0.49917799419E+02 -0.51339797561E+01  0.52828444629E+02  0.00000000000E+00 0.  1.
         11    1    3    3    0    0  0.46792510082E+02 -0.10128806405E+02  0.20947136854E+02  0.52258150191E+02  0.00000000000E+00 0. -1.
         21    1    1    2  502  501 -0.24080643003E+02  0.15643774950E+02 -0.17419129837E+02  0.33586174930E+02  0.00000000000E+00 0. -1.
<scales pt_clust_5="13000.00000" pt_clust_6="13000.00000" pt_clust_7="13000.00000" pt_clust_8="13000.00000" pt_clust_9="28.71594"></scales>
<clustering>
<clus scale="   28.716">  2  9  1 -1</clus>
<clus scale="   81.823">  5  6 -1 -1</clus>
<clus scale="   91.067">  7  8 -1 -1</clus>
<clus scale="   98.248">  1  5  2 -1</clus>
<clus scale="   98.248">  1  5  2 -1</clus>
</clustering>
</event>
<event>
 9    1  0.2333971E-005  0.1450732E+03  0.7546771E-02  0.1208604E+00
          1   -1    0    0  502    0  0.00000000000E+00  0.00000000000E+00  0.94673935080E+03  0.94673935080E+03  0.00000000000E+00 0. -1.
         -2   -1    0    0    0  501 -0.00000000000E+00 -0.00000000000E+00 -0.29990255896E+03  0.29990255896E+03  0.00000000000E+00 0.  1.
         23    2    1    2    0    0  0.41591585766E+02  0.17576837894E+03  0.10011539445E+03  0.22483288361E+03  0.88895164685E+02 0.  0.
        -24    2    1    2    0    0 -0.60668931228E+02 -0.91003696759E+02  0.77026278008E+03  0.78197627980E+03  0.78865453445E+02 0.  0.
         13    1    4    4    0    0 -0.76256211577E+02 -0.86754280503E+02  0.60511827705E+03  0.61604337851E+03  0.00000000000E+00 0. -1.
        -14    1    4    4    0    0  0.15587280349E+02 -0.42494162557E+01  0.16514450303E+03  0.16593290129E+03  0.00000000000E+00 0.  1.
        -11    1    3    3    0    0  0.36418431994E+02  0.78898381979E+02  0.93430008710E+02  0.12759476241E+03  0.00000000000E+00 0. -1.
         11    1    3    3    0    0  0.51731537718E+01  0.96869996958E+02  0.66853857385E+01  0.97238121193E+02  0.00000000000E+00 0.  1.
         21    1    1    2  502  501  0.19077345461E+02 -0.84764682179E+02 -0.22354138268E+03  0.23983274636E+03  0.00000000000E+00 0.  1.
<scales pt_clust_5="13000.00000" pt_clust_6="13000.00000" pt_clust_7="13000.00000" pt_clust_8="13000.00000" pt_clust_9="86.88496"></scales>
<clustering>
<clus scale="   78.865">  5  6 -1 -1</clus>
<clus scale="   86.885">  2  9  1 -1</clus>
<clus scale="   88.895">  7  8 -1 -1</clus>
<clus scale="  139.153">  1  5  2 -1</clus>
<clus scale="  139.153">  1  5  2 -1</clus>
</clustering>
</event>
<event>
 9    1  0.2333971E-005  0.9390339E+02  0.7546771E-02  0.1299912E+00
         -2   -1    0    0    0  501 -0.00000000000E+00  0.00000000000E+00  0.49960116789E+02  0.49960116789E+02  0.00000000000E+00 0.  1.
          1   -1    0    0  502    0  0.00000000000E+00 -0.00000000000E+00 -0.45194579671E+03  0.45194579671E+03  0.00000000000E+00 0. -1.
        -24    2    1    2    0    0  0.32633467582E+02 -0.24328094264E+02 -0.22708350443E+02  0.93238708041E+02  0.80752635378E+02 0.  0.
         23    2    1    2    0    0 -0.58641629467E+01  0.18717964034E+02 -0.36696900153E+03  0.37867447019E+03  0.91341971229E+02 0.  0.
         13    1    3    3    0    0 -0.26655673736E+02 -0.14410243524E+02 -0.84574251852E+01  0.31459626531E+02  0.00000000000E+00 0. -1.
        -14    1    3    3    0    0  0.59289141318E+02 -0.99178507397E+01 -0.14250925258E+02  0.61779081510E+02  0.00000000000E+00 0.  1.
        -11    1    4    4    0    0  0.39333811763E+02  0.26682406641E+02 -0.18682508536E+03  0.19277632659E+03  0.00000000000E+00 0.  1.
         11    1    4    4    0    0 -0.45197974710E+02 -0.79644426075E+01 -0.18014391616E+03  0.18589814360E+03  0.00000000000E+00 0. -1.
         21    1    1    2  502  501 -0.26769304635E+02  0.56101302296E+01 -0.12308327953E+02  0.29992735268E+02  0.00000000000E+00 0.  1.
<scales pt_clust_5="13000.00000" pt_clust_6="13000.00000" pt_clust_7="13000.00000" pt_clust_8="13000.00000" pt_clust_9="27.35085"></scales>
<clustering>
<clus scale="   27.351">  1  9  2 -1</clus>
<clus scale="   80.753">  5  6 -1 -1</clus>
<clus scale="   83.639">  1  5  2 -1</clus>
<clus scale="   91.342">  7  8 -1 -1</clus>
<clus scale="   93.903">  2  5  1 -1</clus>
</clustering>
</event>
<event>
 9    1  0.2333971E-005  0.1076769E+03  0.7546771E-02  0.1269270E+00
         -4   -1    0    0    0  501 -0.00000000000E+00  0.00000000000E+00  0.66030790820E+03  0.66030790820E+03  0.00000000000E+00 0.  1.
          3   -1    0    0  502    0  0.00000000000E+00 -0.00000000000E+00 -0.67050958576E+02  0.67050958576E+02  0.00000000000E+00 0. -1.
         23    2    1    2    0    0 -0.78995434816E+02  0.19842045785E+02  0.69905331825E+02  0.13996670221E+03  0.89832827008E+02 0.  0.
        -24    2    1    2    0    0  0.37108983480E+02  0.51063151005E+02  0.61994621780E+02  0.11874272253E+03  0.79195826783E+02 0.  0.
         13    1    4    4    0    0  0.14822815479E+02  0.70287579969E+02  0.43268593779E+02  0.83858398292E+02  0.00000000000E+00 0. -1.
        -14    1    4    4    0    0  0.22286168001E+02 -0.19224428964E+02  0.18726028001E+02  0.34884324242E+02  0.00000000000E+00 0.  1.
        -11    1    3    3    0    0 -0.72364121302E+02 -0.11579794844E+02  0.77816370017E+02  0.10689268049E+03  0.00000000000E+00 0.  1.
         11    1    3    3    0    0 -0.66313135145E+01  0.31421840630E+02 -0.79110381920E+01  0.33074021720E+02  0.00000000000E+00 0. -1.
         21    1    1    2  502  501  0.41886451337E+02 -0.70905196790E+02  0.46135699602E+03  0.46864944203E+03  0.00000000000E+00 0.  1.
<scales pt_clust_5="13000.00000" pt_clust_6="13000.00000" pt_clust_7="13000.00000" pt_clust_8="13000.00000" pt_clust_9="82.35303"></scales>
<clustering>
<clus scale="   79.196">  5  6 -1 -1</clus>
<clus scale="   82.353">  1  9  2 -1</clus>
<clus scale="   89.833">  7  8 -1 -1</clus>
<clus scale="   98.977">  2  5  1 -1</clus>
<clus scale="   98.977">  2  5  1 -1</clus>
</clustering>
</event>
<event>
 9    1  0.2333971E-005  0.1703576E+03  0.7546771E-02  0.1181212E+00
         -2   -1    0    0    0  501 -0.00000000000E+00  0.00000000000E+00  0.12827861808E+03  0.12827861808E+03  0.00000000000E+00 0.  1.
          1   -1    0    0  502    0  0.00000000000E+00 -0.00000000000E+00 -0.41499160822E+03  0.41499160822E+03  0.00000000000E+00 0. -1.
        -24    2    1    2    0    0  0.13885670444E+03 -0.66184341593E+02  0.33109136245E+02  0.16943691375E+03  0.62857787094E+02 0.  0.
         23    2    1    2    0    0 -0.10418692745E+03  0.31705757777E+02 -0.21192232600E+03  0.25537178673E+03  0.91888553533E+02 0.  0.
         11    1    3    3    0    0  0.26226454223E+02  0.43493412528E+01 -0.11902994679E+02  0.29127735112E+02  0.00000000000E+00 0. -1.
        -12    1    3    3    0    0  0.11263025021E+03 -0.70533682846E+02  0.45012130925E+02  0.14030917863E+03  0.00000000000E+00 0.  1.
        -13    1    4    4    0    0 -0.54993669181E+02 -0.70429406820E+01 -0.30139970878E+02  0.63105661457E+02  0.00000000000E+00 0.  1.
         13    1    4    4    0    0 -0.49193258266E+02  0.38748698459E+02 -0.18178235513E+03  0.19226612527E+03  0.00000000000E+00 0. -1.
         21    1    1    2  502  501 -0.34669776987E+02  0.34478583817E+02 -0.10789980038E+03  0.11846152583E+03  0.00000000000E+00 0.  1.
<scales pt_clust_5="13000.00000" pt_clust_6="13000.00000" pt_clust_7="13000.00000" pt_clust_8="13000.00000" pt_clust_9="48.89546"></scales>
<clustering>
<clus scale="   48.895">  2  9  1 -1</clus>
<clus scale="   62.858">  5  6 -1 -1</clus>
<clus scale="   91.889">  7  8 -1 -1</clus>
<clus scale="  156.618">  1  5  2 -1</clus>
<clus scale="   48.895">  2  5  1 -1</clus>
</clustering>
</event>
<event>
 9    1  0.2333971E-005  0.1192059E+03  0.7546771E-02  0.1248649E+00
         -2   -1    0    0    0  501 -0.00000000000E+00  0.00000000000E+00  0.97710579603E+02  0.97710579603E+02  0.00000000000E+00 0.  1.
          1   -1    0    0  502    0  0.00000000000E+00 -0.00000000000E+00 -0.47313393342E+03  0.47313393342E+03  0.00000000000E+00 0. -1.
         23    2    1    2    0    0 -0.48504512132E+02 -0.81742410456E+02 -0.13692202818E+02  0.13355996313E+03  0.92823908397E+02 0.  0.
        -24    2    1    2    0    0  0.46691329542E+02  0.55373048039E+02 -0.38637104120E+03  0.40114931646E+03  0.79949596116E+02 0.  0.
         13    1    4    4    0    0  0.35145884927E+02  0.74930984951E+02 -0.33331348609E+03  0.34343524243E+03  0.00000000000E+00 0. -1.
        -14    1    4    4    0    0  0.11545444615E+02 -0.19557936912E+02 -0.53057555114E+02  0.57714074040E+02  0.00000000000E+00 0.  1.
        -13    1    3    3    0    0 -0.30209809643E+02  0.41325594747E+01  0.23208363545E+02  0.38318908973E+02  0.00000000000E+00 0.  1.
         13    1    3    3    0    0 -0.18294702489E+02 -0.85874969931E+02 -0.36900566363E+02  0.95241054161E+02  0.00000000000E+00 0. -1.
         21    1    1    2  502  501  0.18131825896E+01  0.26369362417E+02  0.24639890201E+02  0.36135233423E+02  0.00000000000E+00 0.  1.
<scales pt_clust_5="13000.00000" pt_clust_6="13000.00000" pt_clust_7="13000.00000" pt_clust_8="13000.00000" pt_clust_9="26.43163"></scales>
<clustering>
<clus scale="   26.432">  1  9  2 -1</clus>
<clus scale="   79.950">  5  6 -1 -1</clus>
<clus scale="   92.824">  7  8 -1 -1</clus>
<clus scale="  109.479">  2  5  1 -1</clus>
<clus scale="  109.479">  2  5  1 -1</clus>
</clustering>
</event>
<event>
 9    1  0.2333971E-005  0.1195004E+03  0.7546771E-02  0.1247488E+00
         -2   -1    0    0    0  501 -0.00000000000E+00  0.00000000000E+00  0.22983468272E+03  0.22983468272E+03  0.00000000000E+00 0.  1.
          1   -1    0    0  502    0  0.00000000000E+00 -0.00000000000E+00 -0.28443757293E+03  0.28443757293E+03  0.00000000000E+00 0. -1.
        -24    2    1    2    0    0 -0.34353418031E+02  0.44057970300E+02  0.51829109385E+02  0.11066562009E+03  0.80245627994E+02 0.  0.
         23    2    1    2    0    0  0.59526061877E+02 -0.54891177205E+02 -0.23892586033E+03  0.26830828560E+03  0.91363975429E+02 0.  0.
         11    1    3    3    0    0 -0.35271921472E+01  0.30902585171E+02 -0.16022515525E+02  0.34987595779E+02  0.00000000000E+00 0. -1.
        -12    1    3    3    0    0 -0.30826225883E+02  0.13155385129E+02  0.67851624910E+02  0.75678024307E+02  0.00000000000E+00 0.  1.
        -11    1    4    4    0    0  0.51085570692E+02 -0.11967943278E+02 -0.20855501498E+03  0.21505385715E+03  0.00000000000E+00 0.  1.
         11    1    4    4    0    0  0.84404911851E+01 -0.42923233927E+02 -0.30370845350E+02  0.53254428450E+02  0.00000000000E+00 0. -1.
         21    1    1    2  502  501 -0.25172643847E+02  0.10833206906E+02  0.13249386074E+03  0.13529834996E+03  0.00000000000E+00 0.  1.
<scales pt_clust_5="13000.00000" pt_clust_6="13000.00000" pt_clust_7="13000.00000" pt_clust_8="13000.00000" pt_clust_9="27.40475"></scales>
<clustering>
<clus scale="   27.405">  1  9  2 -1</clus>
<clus scale="   80.246">  5  6 -1 -1</clus>
<clus scale="   91.364">  7  8 -1 -1</clus>
<clus scale="  111.231">  1  5  2 -1</clus>
<clus scale="  119.500">  2  5  1 -1</clus>
</clustering>
</event>
<event>
 9    1  0.2333971E-005  0.2342699E+03  0.7546771E-02  0.1125007E+00
          1   -1    0    0  502    0  0.00000000000E+00  0.00000000000E+00  0.75591845381E+03  0.75591845381E+03  0.00000000000E+00 0. -1.
         -2   -1    0    0    0  501 -0.00000000000E+00 -0.00000000000E+00 -0.21318166004E+03  0.21318166004E+03  0.00000000000E+00 0.  1.
        -24    2    1    2    0    0  0.92984438414E+02 -0.21130489392E+03 -0.85748449120E+02  0.25817645963E+03  0.77501121278E+02 0.  0.
         23    2    1    2    0    0 -0.79434431782E+02  0.19531922907E+03  0.64413905615E+03  0.68476670426E+03  0.97626253675E+02 0.  0.
         11    1    3    3    0    0  0.18003650139E+02 -0.13500493141E+03 -0.41194716536E+02  0.14229359646E+03  0.00000000000E+00 0. -1.
        -12    1    3    3    0    0  0.74980788275E+02 -0.76299962514E+02 -0.44553732584E+02  0.11588286317E+03  0.00000000000E+00 0.  1.
        -13    1    4    4    0    0 -0.37059897765E+02  0.22236300406E+02  0.22831845544E+03  0.23237298933E+03  0.00000000000E+00 0. -1.
         13    1    4    4    0    0 -0.42374534017E+02  0.17308292866E+03  0.41582060072E+03  0.45239371493E+03  0.00000000000E+00 0.  1.
         21    1    1    2  502  501 -0.13550006632E+02  0.15985664860E+02 -0.15653813268E+02  0.26156949948E+02  0.00000000000E+00 0.  1.
<scales pt_clust_5="13000.00000" pt_clust_6="13000.00000" pt_clust_7="13000.00000" pt_clust_8="13000.00000" pt_clust_9="20.95577"></scales>
<clustering>
<clus scale="   20.956">  2  9  1 -1</clus>
<clus scale="   77.501">  5  6 -1 -1</clus>
<clus scale="   97.626">  7  8 -1 -1</clus>
<clus scale="  226.623">  2  5  1 -1</clus>
<clus scale="  234.270">  1  5  2 -1</clus>
</clustering>
</event>
<event>
 9    1  0.2333971E-005  0.1562445E+03  0.7546771E-02  0.1196256E+00
          1   -1    0    0  502    0  0.00000000000E+00  0.00000000000E+00  0.26661163216E+03  0.26661163216E+03  0.00000000000E+00 0. -1.
         -2   -1    0    0    0  501 -0.00000000000E+00 -0.00000000000E+00 -0.40060214297E+03  0.40060214297E+03  0.00000000000E+00 0.  1.
         23    2    1    2    0    0 -0.14404761658E+03 -0.49724447952E+02 -0.31629505757E+03  0.36276833163E+03  0.91302039508E+02 0.  0.
        -24    2    1    2    0    0  0.12285721793E+03  0.24223239451E+02  0.21437352355E+03  0.25831775223E+03  0.71353992111E+02 0.  0.
         13    1    4    4    0    0  0.11051940291E+03  0.18005582243E+01  0.13257589217E+03  0.17260981321E+03  0.00000000000E+00 0. -1.
        -14    1    4    4    0    0  0.12337815023E+02  0.22422681227E+02  0.81797631376E+02  0.85707939024E+02  0.00000000000E+00 0.  1.
        -11    1    3    3    0    0 -0.94757870321E+02 -0.31486553847E+02 -0.10444425011E+03  0.14449587690E+03  0.00000000000E+00 0. -1.
         11    1    3    3    0    0 -0.49289746262E+02 -0.18237894105E+02 -0.21185080747E+03  0.21827245473E+03  0.00000000000E+00 0.  1.
         21    1    1    2  502  501  0.21190398650E+02  0.25501208500E+02 -0.32068976791E+02  0.46127691275E+02  0.00000000000E+00 0. -1.
<scales pt_clust_5="13000.00000" pt_clust_6="13000.00000" pt_clust_7="13000.00000" pt_clust_8="13000.00000" pt_clust_9="33.15637"></scales>
<clustering>
<clus scale="   33.156">  2  9  1 -1</clus>
<clus scale="   71.354">  5  6 -1 -1</clus>
<clus scale="   91.302">  7  8 -1 -1</clus>
<clus scale="  145.491">  1  5  2 -1</clus>
<clus scale="  145.491">  1  5  2 -1</clus>
</clustering>
</event>
<event>
 9    1  0.2333971E-005  0.1057289E+03  0.7546771E-02  0.1276261E+00
          3   -1    0    0  502    0  0.00000000000E+00  0.00000000000E+00  0.57100621124E+02  0.57100621124E+02  0.00000000000E+00 0. -1.
         -4   -1    0    0    0  501 -0.00000000000E+00 -0.00000000000E+00 -0.40849108868E+03  0.40849108868E+03  0.00000000000E+00 0.  1.
         23    2    1    2    0    0 -0.51219431302E+02  0.21327420596E+01 -0.20220809774E+03  0.22758603900E+03  0.90990722737E+02 0.  0.
        -24    2    1    2    0    0  0.49140044256E+02 -0.25459027114E+02 -0.55101587542E+01  0.92437323778E+02  0.73833535515E+02 0.  0.
         11    1    4    4    0    0  0.61321281337E+02 -0.22101936839E+02  0.16337480379E+02  0.67199020990E+02  0.00000000000E+00 0. -1.
        -12    1    4    4    0    0 -0.12181237081E+02 -0.33570902749E+01 -0.21847639133E+02  0.25238302788E+02  0.00000000000E+00 0.  1.
        -13    1    3    3    0    0 -0.37265698571E+01 -0.38037603341E+02 -0.10919277877E+03  0.11568841569E+03  0.00000000000E+00 0.  1.
         13    1    3    3    0    0 -0.47492861445E+02  0.40170345401E+02 -0.93015318974E+02  0.11189762331E+03  0.00000000000E+00 0. -1.
         21    1    1    2  502  501  0.20793870461E+01  0.23326285054E+02 -0.14367221106E+03  0.14556834703E+03  0.00000000000E+00 0.  1.
<scales pt_clust_5="13000.00000" pt_clust_6="13000.00000" pt_clust_7="13000.00000" pt_clust_8="13000.00000" pt_clust_9="23.41878"></scales>
<clustering>
<clus scale="   23.419">  2  9  1 -1</clus>
<clus scale="   73.834">  5  6 -1 -1</clus>
<clus scale="   90.991">  7  8 -1 -1</clus>
<clus scale="   91.382">  1  5  2 -1</clus>
<clus scale="   91.382">  1  5  2 -1</clus>
</clustering>
</event>
<event>
 9    1  0.2333971E-005  0.1144478E+03  0.7546771E-02  0.1256455E+00
         -2   -1    0    0    0  501 -0.00000000000E+00  0.00000000000E+00  0.25034027065E+03  0.25034027065E+03  0.00000000000E+00 0.  1.
          1   -1    0    0  502    0  0.00000000000E+00 -0.00000000000E+00 -0.18572028197E+03  0.18572028197E+03  0.00000000000E+00 0. -1.
        -24    2    1    2    0    0 -0.69856227384E+02 -0.10388619938E+03 -0.54089430839E+01  0.14875488074E+03  0.80165597062E+02 0.  0.
         23    2    1    2    0    0  0.56679737101E+02  0.18826038298E+01 -0.58849159678E+02  0.12241808637E+03  0.91141798751E+02 0.  0.
         13    1    3    3    0    0 -0.45821910522E+02 -0.11367680710E+03 -0.69133361299E+01  0.12275935065E+03  0.00000000000E+00 0. -1.
        -14    1    3    3    0    0 -0.24034316863E+02  0.97906077104E+01  0.15043930460E+01  0.25995530093E+02  0.00000000000E+00 0.  1.
        -13    1    4    4    0    0  0.35523008560E+02  0.20391335915E+01  0.19974269406E+02  0.40804578680E+02  0.00000000000E+00 0.  1.
         13    1    4    4    0    0  0.21156728541E+02 -0.15652976168E+00 -0.78823429085E+02  0.81613507686E+02  0.00000000000E+00 0. -1.
         21    1    1    2  502  501  0.13176490283E+02  0.10200359555E+03  0.12887809144E+03  0.16488758551E+03  0.00000000000E+00 0.  1.
<scales pt_clust_5="13000.00000" pt_clust_6="13000.00000" pt_clust_7="13000.00000" pt_clust_8="13000.00000" pt_clust_9="102.85112"></scales>
<clustering>
<clus scale="   80.166">  5  6 -1 -1</clus>
<clus scale="   91.142">  7  8 -1 -1</clus>
<clus scale="  102.851">  1  9  2 -1</clus>
<clus scale="  105.915">  1  5  2 -1</clus>
<clus scale="  114.448">  2  5  1 -1</clus>
</clustering>
</event>
<event>
 9    1  0.2333971E-005  0.9555631E+02  0.7546771E-02  0.1300988E+00
          1   -1    0    0  502    0  0.00000000000E+00  0.00000000000E+00  0.48611731434E+03  0.48611731434E+03  0.00000000000E+00 0. -1.
         -2   -1    0    0    0  501 -0.00000000000E+00 -0.00000000000E+00 -0.43854064052E+02  0.43854064052E+02  0.00000000000E+00 0.  1.
        -24    2    1    2    0    0  0.11058466834E+02  0.93383588948E+01  0.22125473545E+02  0.76776327546E+02  0.72080325029E+02 0.  0.
         23    2    1    2    0    0  0.35470596286E+02 -0.12673042163E+02  0.37706391634E+03  0.38970149781E+03  0.90946639248E+02 0.  0.
         13    1    3    3    0    0  0.12988593548E+02 -0.22014594444E+02 -0.13805299349E+02  0.29050511545E+02  0.00000000000E+00 0. -1.
        -14    1    3    3    0    0 -0.19301267147E+01  0.31352953339E+02  0.35930772894E+02  0.47725816001E+02  0.00000000000E+00 0.  1.
        -11    1    4    4    0    0  0.33040304078E+02 -0.49483488289E+02  0.19245841524E+03  0.20144606947E+03  0.00000000000E+00 0. -1.
         11    1    4    4    0    0  0.24302922087E+01  0.36810446126E+02  0.18460550109E+03  0.18825542834E+03  0.00000000000E+00 0.  1.
         21    1    1    2  502  501 -0.46529063120E+02  0.33346832683E+01  0.43073860405E+02  0.63493553039E+02  0.00000000000E+00 0.  1.
<scales pt_clust_5="13000.00000" pt_clust_6="13000.00000" pt_clust_7="13000.00000" pt_clust_8="13000.00000" pt_clust_9="46.64841"></scales>
<clustering>
<clus scale="   46.648">  2  9  1 -1</clus>
<clus scale="   72.080">  5  6 -1 -1</clus>
<clus scale="   77.816">  2  5  1 -1</clus>
<clus scale="   90.947">  7  8 -1 -1</clus>
<clus scale="   95.556">  1  5  2 -1</clus>
</clustering>
</event>
<event>
 9    1  0.2333971E-005  0.9905959E+02  0.7546771E-02  0.1287102E+00
         -2   -1    0    0    0  501 -0.00000000000E+00  0.00000000000E+00  0.34310753971E+03  0.34310753971E+03  0.00000000000E+00 0.  1.
          1   -1    0    0  502    0  0.00000000000E+00 -0.00000000000E+00 -0.38167116230E+02  0.38167116230E+02  0.00000000000E+00 0. -1.
        -24    2    1    2    0    0 -0.28131308466E+02  0.11532778316E+02  0.13631161568E+03  0.16175876785E+03  0.81612909002E+02 0.  0.
         23    2    1    2    0    0  0.29999215290E+02 -0.36566454878E+02  0.88370061422E+02  0.13542284195E+03  0.91066019057E+02 0.  0.
         11    1    3    3    0    0 -0.18660529717E+02 -0.21005124330E+02  0.82409361984E+01  0.29280431125E+02  0.00000000000E+00 0. -1.
        -12    1    3    3    0    0 -0.94707787487E+01  0.32537902646E+02  0.12807067948E+03  0.13247833673E+03  0.00000000000E+00 0.  1.
        -11    1    4    4    0    0  0.26063163642E+02  0.13050123490E+02 -0.50395547989E+01  0.29580252445E+02  0.00000000000E+00 0. -1.
         11    1    4    4    0    0  0.39360516476E+01 -0.49616578367E+02  0.93409616221E+02  0.10584258951E+03  0.00000000000E+00 0.  1.
         21    1    1    2  502  501 -0.18679068241E+01  0.25033676561E+02  0.80258746379E+02  0.84093046136E+02  0.00000000000E+00 0.  1.
<scales pt_clust_5="13000.00000" pt_clust_6="13000.00000" pt_clust_7="13000.00000" pt_clust_8="13000.00000" pt_clust_9="25.10327"></scales>
<clustering>
<clus scale="   25.103">  1  9  2 -1</clus>
<clus scale="   81.613">  5  6 -1 -1</clus>
<clus scale="   90.446">  1  5  2 -1</clus>
<clus scale="   91.066">  7  8 -1 -1</clus>
<clus scale="   99.060">  2  5  1 -1</clus>
</clustering>
</event>
<event>
 9    1  0.2333971E-005  0.9762586E+02  0.7546771E-02  0.1291026E+00
         -2   -1    0    0    0  501 -0.00000000000E+00  0.00000000000E+00  0.12654958864E+04  0.12654958864E+04  0.00000000000E+00 0.  1.
          1   -1    0    0  502    0  0.00000000000E+00 -0.00000000000E+00 -0.27779177455E+02  0.27779177455E+02  0.00000000000E+00 0. -1.
        -24    2    1    2    0    0  0.22027017003E+02 -0.12736601250E+02  0.10616336961E+04  0.10649695843E+04  0.80291346777E+02 0.  0.
         23    2    1    2    0    0 -0.35824499779E+02 -0.95447846139E+01  0.74160837183E+02  0.12306784092E+03  0.90947050526E+02 0.  0.
         11    1    3    3    0    0  0.18857023519E+02 -0.68660916402E+01  0.59110867666E+02  0.62424556279E+02  0.00000000000E+00 0. -1.
        -12    1    3    3    0    0  0.31699934840E+01 -0.58705096101E+01  0.10025228285E+04  0.10025450281E+04  0.00000000000E+00 0.  1.
        -11    1    4    4    0    0 -0.61224626198E+02  0.14839795302E+02  0.46945315006E+02  0.78565494835E+02  0.00000000000E+00 0. -1.
         11    1    4    4    0    0  0.25400126418E+02 -0.24384579916E+02  0.27215522177E+02  0.44502346086E+02  0.00000000000E+00 0.  1.
         21    1    1    2  502  501  0.13797482776E+02  0.22281385864E+02  0.10192217563E+03  0.10523763857E+03  0.00000000000E+00 0.  1.
<scales pt_clust_5="13000.00000" pt_clust_6="13000.00000" pt_clust_7="13000.00000" pt_clust_8="13000.00000" pt_clust_9="26.20745"></scales>
<clustering>
<clus scale="   26.207">  1  9  2 -1</clus>
<clus scale="   80.291">  5  6 -1 -1</clus>
<clus scale="   87.785">  1  5  2 -1</clus>
<clus scale="   90.947">  7  8 -1 -1</clus>
<clus scale="   97.626">  2  5  1 -1</clus>
</clustering>
</event>
<event>
 9    1  0.2333971E-005  0.9711302E+02  0.7546771E-02  0.1292687E+00
         -2   -1    0    0    0  501 -0.00000000000E+00  0.00000000000E+00  0.11484165734E+03  0.11484165734E+03  0.00000000000E+00 0.  1.
          1   -1    0    0  502    0  0.00000000000E+00 -0.00000000000E+00 -0.20541835283E+03  0.20541835283E+03  0.00000000000E+00 0. -1.
        -24    2    1    2    0    0  0.87265704738E+01  0.17585540142E+02  0.34309271051E+02  0.91564512793E+02  0.82592552138E+02 0.  0.
         23    2    1    2    0    0  0.17455159074E+02 -0.23213013964E+02 -0.15808481074E+03  0.18604207219E+03  0.93687345154E+02 0.  0.
         13    1    3    3    0    0 -0.85390409840E+01 -0.30286589727E+02  0.24158666677E+02  0.39671575640E+02  0.00000000000E+00 0. -1.
        -14    1    3    3    0    0  0.17265611458E+02  0.47872129869E+02  0.10150604374E+02  0.51892937153E+02  0.00000000000E+00 0.  1.
        -11    1    4    4    0    0  0.43991774220E+02  0.62759174695E+01 -0.13013792877E+03  0.13751561309E+03  0.00000000000E+00 0. -1.
         11    1    4    4    0    0 -0.26536615147E+02 -0.29488931434E+02 -0.27946881964E+02  0.48526459092E+02  0.00000000000E+00 0.  1.
         21    1    1    2  502  501 -0.26181729548E+02  0.56274738221E+01  0.33198844198E+02  0.42653425183E+02  0.00000000000E+00 0.  1.
<scales pt_clust_5="13000.00000" pt_clust_6="13000.00000" pt_clust_7="13000.00000" pt_clust_8="13000.00000" pt_clust_9="26.77968"></scales>
<clustering>
<clus scale="   26.780">  1  9  2 -1</clus>
<clus scale="   82.593">  5  6 -1 -1</clus>
<clus scale="   86.459">  1  5  2 -1</clus>
<clus scale="   93.687">  7  8 -1 -1</clus>
<clus scale="   97.113">  2  5  1 -1</clus>
</clustering>
</event>
<event>
 9    1  0.2333971E-005  0.2984904E+03  0.7546771E-02  0.1086354E+00
         -2   -1    0    0    0  501 -0.00000000000E+00  0.00000000000E+00  0.10050253036E+03  0.10050253036E+03  0.00000000000E+00 0.  1.
          1   -1    0    0  502    0  0.00000000000E+00 -0.00000000000E+00 -0.12129391680E+04  0.12129391680E+04  0.00000000000E+00 0. -1.
        -24    2    1    2    0    0  0.20832511354E+02 -0.27917174344E+03 -0.29985123886E+03  0.41800155215E+03  0.80272512658E+02 0.  0.
         23    2    1    2    0    0 -0.52294115620E+02  0.28240118442E+03 -0.80951276667E+03  0.86366432361E+03  0.90111270036E+02 0.  0.
         11    1    3    3    0    0 -0.24316621757E+02 -0.10805390008E+03 -0.14770159536E+03  0.18461501751E+03  0.00000000000E+00 0. -1.
        -12    1    3    3    0    0  0.45149133111E+02 -0.17111784335E+03 -0.15214964350E+03  0.23338653464E+03  0.00000000000E+00 0.  1.
        -11    1    4    4    0    0 -0.27886474956E+02  0.23410395596E+03 -0.54718975759E+03  0.59581788199E+03  0.00000000000E+00 0. -1.
         11    1    4    4    0    0 -0.24407640664E+02  0.48297228463E+02 -0.26232300908E+03  0.26784644162E+03  0.00000000000E+00 0.  1.
         21    1    1    2  502  501  0.31461604266E+02 -0.32294409863E+01 -0.30726320830E+01  0.31775822570E+02  0.00000000000E+00 0. -1.
<scales pt_clust_5="13000.00000" pt_clust_6="13000.00000" pt_clust_7="13000.00000" pt_clust_8="13000.00000" pt_clust_9="31.62692"></scales>
<clustering>
<clus scale="   31.627">  1  9  2 -1</clus>
<clus scale="   80.273">  5  6 -1 -1</clus>
<clus scale="   90.111">  7  8 -1 -1</clus>
<clus scale="  295.669">  1  5  2 -1</clus>
<clus scale="  298.490">  2  5  1 -1</clus>
</clustering>
</event>
<event>
 9    1  0.2333971E-005  0.2641634E+03  0.7546771E-02  0.1105433E+00
          1   -1    0    0  502    0  0.00000000000E+00  0.00000000000E+00  0.67089672220E+03  0.67089672220E+03  0.00000000000E+00 0. -1.
         -2   -1    0    0    0  501 -0.00000000000E+00 -0.00000000000E+00 -0.44310857893E+03  0.44310857893E+03  0.00000000000E+00 0.  1.
        -24    2    1    2    0    0  0.14010186816E+03 -0.16344733484E+03 -0.29537417281E+03  0.37351183577E+03  0.76952094006E+02 0.  0.
         23    2    1    2    0    0 -0.17777404231E+03  0.17591223750E+03  0.59854707619E+03  0.65530292269E+03  0.92814829873E+02 0.  0.
         13    1    3    3    0    0  0.40141826327E+02 -0.98408286942E+02 -0.10892008131E+03  0.15218127767E+03  0.00000000000E+00 0. -1.
        -14    1    3    3    0    0  0.99960041829E+02 -0.65039047894E+02 -0.18645409150E+03  0.22133055811E+03  0.00000000000E+00 0.  1.
        -11    1    4    4    0    0 -0.17650911549E+03  0.12705227109E+03  0.47410198483E+03  0.52160371879E+03  0.00000000000E+00 0. -1.
         11    1    4    4    0    0 -0.12649268155E+01  0.48859966411E+02  0.12444509136E+03  0.13369920389E+03  0.00000000000E+00 0.  1.
         21    1    1    2  502  501  0.37672174149E+02 -0.12464902662E+02 -0.75384760108E+02  0.85190542667E+02  0.00000000000E+00 0.  1.
<scales pt_clust_5="13000.00000" pt_clust_6="13000.00000" pt_clust_7="13000.00000" pt_clust_8="13000.00000" pt_clust_9="39.68081"></scales>
<clustering>
<clus scale="   39.681">  2  9  1 -1</clus>
<clus scale="   76.952">  5  6 -1 -1</clus>
<clus scale="   92.815">  7  8 -1 -1</clus>
<clus scale="  259.016">  2  5  1 -1</clus>
<clus scale="  264.163">  1  5  2 -1</clus>
</clustering>
</event>
<event>
 9    1  0.2333971E-005  0.9279654E+02  0.7546771E-02  0.1302237E+00
          1   -1    0    0  502    0  0.00000000000E+00  0.00000000000E+00  0.24896383578E+03  0.24896383578E+03  0.00000000000E+00 0. -1.
         -2   -1    0    0    0  501 -0.00000000000E+00 -0.00000000000E+00 -0.49864775392E+02  0.49864775392E+02  0.00000000000E+00 0.  1.
        -24    2    1    2    0    0  0.13608907891E+02 -0.18464316223E+02  0.54680520309E+02  0.10067413575E+03  0.81358398211E+02 0.  0.
         23    2    1    2    0    0  0.17855895845E+02  0.13846805442E+02  0.13582983224E+03  0.16521329781E+03  0.91296897050E+02 0.  0.
         13    1    3    3    0    0  0.34412770672E+02  0.17074599318E+02  0.43434932871E+02  0.57985982105E+02  0.00000000000E+00 0. -1.
        -14    1    3    3    0    0 -0.20803862781E+02 -0.35538915541E+02  0.11245587438E+02  0.42688153641E+02  0.00000000000E+00 0.  1.
        -11    1    4    4    0    0  0.15790777186E+02 -0.38505840953E+02  0.57735670649E+02  0.71172017654E+02  0.00000000000E+00 0.  1.
         11    1    4    4    0    0  0.20651186587E+01  0.52352646395E+02  0.78094161589E+02  0.94041280159E+02  0.00000000000E+00 0. -1.
         21    1    1    2  502  501 -0.31464803736E+02  0.46175107814E+01  0.85887078378E+01  0.32941177609E+02  0.00000000000E+00 0. -1.
<scales pt_clust_5="13000.00000" pt_clust_6="13000.00000" pt_clust_7="13000.00000" pt_clust_8="13000.00000" pt_clust_9="31.80181"></scales>
<clustering>
<clus scale="   31.802">  2  9  1 -1</clus>
<clus scale="   81.358">  5  6 -1 -1</clus>
<clus scale="   83.038">  2  5  1 -1</clus>
<clus scale="   91.297">  7  8 -1 -1</clus>
<clus scale="   92.797">  1  5  2 -1</clus>
</clustering>
</event>
<event>
 9    1  0.2333971E-005  0.1471350E+03  0.7546771E-02  0.1227370E+00
         -2   -1    0    0    0  501 -0.00000000000E+00  0.00000000000E+00  0.48543926023E+02  0.48543926023E+02  0.00000000000E+00 0.  1.
          1   -1    0    0  502    0  0.00000000000E+00 -0.00000000000E+00 -0.84193490249E+03  0.84193490249E+03  0.00000000000E+00 0. -1.
         23    2    1    2    0    0 -0.10024032719E+03 -0.66111302219E+01 -0.13823906455E+03  0.19588098644E+03  0.95747018984E+02 0.  0.
        -24    2    1    2    0    0 -0.33411891474E+02  0.15941693475E+02 -0.34975781804E+03  0.36110792087E+03  0.81840742625E+02 0.  0.
         11    1    4    4    0    0 -0.11192553300E+02  0.48242644423E+02 -0.16680280153E+03  0.17399942698E+03  0.00000000000E+00 0. -1.
        -12    1    4    4    0    0 -0.22219338174E+02 -0.32300950948E+02 -0.18295501651E+03  0.18710849389E+03  0.00000000000E+00 0.  1.
        -11    1    3    3    0    0 -0.92237083053E+02 -0.34658765984E+02 -0.13412003737E+03  0.16642443923E+03  0.00000000000E+00 0.  1.
         11    1    3    3    0    0 -0.80032441389E+01  0.28047635762E+02 -0.41190271758E+01  0.29456547209E+02  0.00000000000E+00 0. -1.
         21    1    1    2  502  501  0.13365221867E+03 -0.93305632535E+01 -0.30539409387E+03  0.33348992119E+03  0.00000000000E+00 0. -1.
<scales pt_clust_5="13000.00000" pt_clust_6="13000.00000" pt_clust_7="13000.00000" pt_clust_8="13000.00000" pt_clust_9="111.71943"></scales>
<clustering>
<clus scale="   81.841">  5  6 -1 -1</clus>
<clus scale="   89.824">  2  5  1 -1</clus>
<clus scale="   95.747">  7  8 -1 -1</clus>
<clus scale="  111.719">  2  9  1 -1</clus>
<clus scale="   89.824">  2  5  1 -1</clus>
</clustering>
</event>
<event>
 9    1  0.2333971E-005  0.9682347E+02  0.7546771E-02  0.1293960E+00
          3   -1    0    0  502    0  0.00000000000E+00  0.00000000000E+00  0.11588176379E+03  0.11588176379E+03  0.00000000000E+00 0. -1.
         -4   -1    0    0    0  501 -0.00000000000E+00 -0.00000000000E+00 -0.14496909416E+03  0.14496909416E+03  0.00000000000E+00 0.  1.
         23    2    1    2    0    0  0.24712467416E+02  0.63323223707E+01 -0.16488881731E+02  0.96609478408E+02  0.91709889026E+02 0.  0.
        -24    2    1    2    0    0 -0.17054733952E+02  0.40656356663E+02  0.34666834483E+02  0.97154988759E+02  0.79331577196E+02 0.  0.
         11    1    4    4    0    0 -0.20836625133E+02 -0.11032175839E+02  0.38544376097E+02  0.45183434789E+02  0.00000000000E+00 0. -1.
        -12    1    4    4    0    0  0.37818911807E+01  0.51688532502E+02 -0.38775416131E+01  0.51971553970E+02  0.00000000000E+00 0.  1.
        -11    1    3    3    0    0  0.38514996939E+02  0.26243110756E+02  0.21679441851E+02  0.51401401249E+02  0.00000000000E+00 0. -1.
         11    1    3    3    0    0 -0.13802529524E+02 -0.19910788386E+02 -0.38168323582E+02  0.45208077159E+02  0.00000000000E+00 0.  1.
         21    1    1    2  502  501 -0.76577334632E+01 -0.46988679034E+02 -0.47265283128E+02  0.67086390783E+02  0.00000000000E+00 0.  1.
<scales pt_clust_5="13000.00000" pt_clust_6="13000.00000" pt_clust_7="13000.00000" pt_clust_8="13000.00000" pt_clust_9="47.60858"></scales>
<clustering>
<clus scale="   47.609">  2  9  1 -1</clus>
<clus scale="   79.332">  5  6 -1 -1</clus>
<clus scale="   85.191">  1  5  2 -1</clus>
<clus scale="   91.710">  7  8 -1 -1</clus>
<clus scale="   85.191">  1  5  2 -1</clus>
</clustering>
</event>
<event>
 9    1  0.2333971E-005  0.1324683E+03  0.7546771E-02  0.1224751E+00
          1   -1    0    0  502    0  0.00000000000E+00  0.00000000000E+00  0.11743768931E+04  0.11743768931E+04  0.00000000000E+00 0. -1.
         -2   -1    0    0    0  501 -0.00000000000E+00 -0.00000000000E+00 -0.38803009460E+02  0.38803009460E+02  0.00000000000E+00 0.  1.
        -24    2    1    2    0    0 -0.10217596720E+03 -0.79516679660E+02  0.63437815594E+03  0.65327458290E+03  0.87001179935E+02 0.  0.
         23    2    1    2    0    0  0.37314983611E+02  0.64717301949E+02  0.47347035332E+03  0.48783129414E+03  0.90688802517E+02 0.  0.
         11    1    3    3    0    0 -0.11325498986E+03 -0.49446256671E+02  0.48486107838E+03  0.50036175948E+03  0.00000000000E+00 0. -1.
        -12    1    3    3    0    0  0.11079022665E+02 -0.30070422990E+02  0.14951707757E+03  0.15291282342E+03  0.00000000000E+00 0.  1.
        -11    1    4    4    0    0 -0.28327274732E+02  0.84257038572E+01  0.15711309543E+03  0.15986854517E+03  0.00000000000E+00 0.  1.
         11    1    4    4    0    0  0.65642258343E+02  0.56291598092E+02  0.31635725788E+03  0.32796274897E+03  0.00000000000E+00 0. -1.
         21    1    1    2  502  501  0.64860983587E+02  0.14799377712E+02  0.27725374412E+02  0.72074025549E+02  0.00000000000E+00 0.  1.
<scales pt_clust_5="13000.00000" pt_clust_6="13000.00000" pt_clust_7="13000.00000" pt_clust_8="13000.00000" pt_clust_9="66.52795"></scales>
<clustering>
<clus scale="   66.528">  2  9  1 -1</clus>
<clus scale="   87.001">  5  6 -1 -1</clus>
<clus scale="   90.689">  7  8 -1 -1</clus>
<clus scale="  129.972">  2  5  1 -1</clus>
<clus scale="  132.468">  1  5  2 -1</clus>
</clustering>
</event>
<event>
 9    1  0.2333971E-005  0.1352633E+03  0.7546771E-02  0.1221006E+00
         -2   -1    0    0    0  501 -0.00000000000E+00  0.00000000000E+00  0.16578569156E+03  0.16578569156E+03  0.00000000000E+00 0.  1.
          1   -1    0    0  502    0  0.00000000000E+00 -0.00000000000E+00 -0.27605363212E+03  0.27605363212E+03  0.00000000000E+00 0. -1.
        -24    2    1    2    0    0 -0.30028719073E+02  0.80750115849E+02  0.77905028494E+02  0.14104146618E+03  0.80007478013E+02 0.  0.
         23    2    1    2    0    0  0.68825114955E+02 -0.84895534646E+02 -0.21330596974E+03  0.25438651671E+03  0.85257931609E+02 0.  0.
         11    1    3    3    0    0 -0.53740303568E+02  0.30303665296E+02  0.44318034141E+02  0.75963283948E+02  0.00000000000E+00 0. -1.
        -12    1    3    3    0    0  0.23711584495E+02  0.50446450553E+02  0.33586994353E+02  0.65078182230E+02  0.00000000000E+00 0.  1.
        -11    1    4    4    0    0  0.62146640169E+02 -0.45071085548E+02 -0.64717895615E+02  0.10040923090E+03  0.00000000000E+00 0.  1.
         11    1    4    4    0    0  0.66784747859E+01 -0.39824449098E+02 -0.14858807413E+03  0.15397728581E+03  0.00000000000E+00 0. -1.
         21    1    1    2  502  501 -0.38796395882E+02  0.41454187966E+01  0.25133000696E+02  0.46411340795E+02  0.00000000000E+00 0. -1.
<scales pt_clust_5="13000.00000" pt_clust_6="13000.00000" pt_clust_7="13000.00000" pt_clust_8="13000.00000" pt_clust_9="39.01724"></scales>
<clustering>
<clus scale="   39.017">  1  9  2 -1</clus>
<clus scale="   80.007">  5  6 -1 -1</clus>
<clus scale="   85.258">  7  8 -1 -1</clus>
<clus scale="  132.017">  1  5  2 -1</clus>
<clus scale="  135.263">  2  5  1 -1</clus>
</clustering>
</event>
<event>
 9    1  0.2333971E-005  0.2287805E+03  0.7546771E-02  0.1128176E+00
          1   -1    0    0  502    0  0.00000000000E+00  0.00000000000E+00  0.26682136290E+03  0.26682136290E+03  0.00000000000E+00 0. -1.
         -2   -1    0    0    0  501 -0.00000000000E+00 -0.00000000000E+00 -0.10962595729E+04  0.10962595729E+04  0.00000000000E+00 0.  1.
         23    2    1    2    0    0 -0.19918806257E+03  0.11192776214E+03 -0.97314392660E+03  0.10036955916E+04  0.90509836149E+02 0.  0.
        -24    2    1    2    0    0  0.19131771693E+03 -0.84690001142E+02  0.19737948507E+03  0.29868352066E+03  0.80488007091E+02 0.  0.
         11    1    4    4    0    0  0.12193590681E+03 -0.80952878977E+02  0.93395255752E+02  0.17362144966E+03  0.00000000000E+00 0. -1.
        -12    1    4    4    0    0  0.69381810114E+02 -0.37371221641E+01  0.10398422931E+03  0.12506207100E+03  0.00000000000E+00 0.  1.
        -11    1    3    3    0    0 -0.18977094396E+03  0.71268865665E+02 -0.76452411877E+03  0.79094209052E+03  0.00000000000E+00 0.  1.
         11    1    3    3    0    0 -0.94171186129E+01  0.40658896470E+02 -0.20861980784E+03  0.21275350104E+03  0.00000000000E+00 0. -1.
         21    1    1    2  502  501  0.78703456441E+01 -0.27237760994E+02 -0.53673768489E+02  0.60701823600E+02  0.00000000000E+00 0. -1.
<scales pt_clust_5="13000.00000" pt_clust_6="13000.00000" pt_clust_7="13000.00000" pt_clust_8="13000.00000" pt_clust_9="28.35204"></scales>
<clustering>
<clus scale="   28.352">  2  9  1 -1</clus>
<clus scale="   80.488">  5  6 -1 -1</clus>
<clus scale="   90.510">  7  8 -1 -1</clus>
<clus scale="  225.004">  1  5  2 -1</clus>
<clus scale="  225.004">  1  5  2 -1</clus>
</clustering>
</event>
<event>
 9    1  0.2333971E-005  0.1096271E+03  0.7546771E-02  0.1265340E+00
         -2   -1    0    0    0  501 -0.00000000000E+00  0.00000000000E+00  0.59036221490E+03  0.59036221490E+03  0.00000000000E+00 0.  1.
          1   -1    0    0  502    0  0.00000000000E+00 -0.00000000000E+00 -0.63650462610E+02  0.63650462610E+02  0.00000000000E+00 0. -1.
        -24    2    1    2    0    0 -0.11819298013E+03 -0.17158843801E+02  0.35964621265E+03  0.38713760933E+03  0.79158851765E+02 0.  0.
         23    2    1    2    0    0  0.53533623209E+02 -0.47280163801E+01  0.22380217403E+02  0.10689472702E+03  0.89651578803E+02 0.  0.
         11    1    3    3    0    0 -0.57503872884E+02  0.31271882474E+02  0.17425437424E+03  0.18614299066E+03  0.00000000000E+00 0. -1.
        -12    1    3    3    0    0 -0.60689107241E+02 -0.48430726275E+02  0.18539183841E+03  0.20099461867E+03  0.00000000000E+00 0.  1.
        -13    1    4    4    0    0 -0.32891532893E-01 -0.38781897571E+02  0.19366382619E+02  0.43348511356E+02  0.00000000000E+00 0.  1.
         13    1    4    4    0    0  0.53566514741E+02  0.34053881191E+02  0.30138347839E+01  0.63546215669E+02  0.00000000000E+00 0. -1.
         21    1    1    2  502  501  0.64659356917E+02  0.21886860181E+02  0.14468532223E+03  0.15998034115E+03  0.00000000000E+00 0.  1.
<scales pt_clust_5="13000.00000" pt_clust_6="13000.00000" pt_clust_7="13000.00000" pt_clust_8="13000.00000" pt_clust_9="68.26322"></scales>
<clustering>
<clus scale="   68.263">  1  9  2 -1</clus>
<clus scale="   79.159">  5  6 -1 -1</clus>
<clus scale="   89.652">  7  8 -1 -1</clus>
<clus scale="  101.227">  1  5  2 -1</clus>
<clus scale="  109.627">  2  5  1 -1</clus>
</clustering>
</event>
<event>
 9    1  0.5028291E-005  0.1006891E+03  0.7546771E-02  0.1282302E+00
         -2   -1    0    0    0  501 -0.00000000000E+00  0.00000000000E+00  0.12123350970E+03  0.12123350970E+03  0.00000000000E+00 0.  1.
          1   -1    0    0  502    0  0.00000000000E+00 -0.00000000000E+00 -0.81127960425E+03  0.81127960425E+03  0.00000000000E+00 0. -1.
         23    2    1    2    0    0 -0.46843424959E+01 -0.25269730734E+02  0.84633586061E+02  0.12644445715E+03  0.90359584425E+02 0.  0.
        -24    2    1    2    0    0 -0.30207703079E+02  0.33647309341E+02 -0.76222907615E+03  0.76808634225E+03  0.83179431799E+02 0.  0.
         11    1    4    4    0    0 -0.61278988344E+01  0.51954535491E+02 -0.27580722660E+03  0.28072486734E+03  0.00000000000E+00 0. -1.
        -12    1    4    4    0    0 -0.24079804244E+02 -0.18307226151E+02 -0.48642184955E+03  0.48736147491E+03  0.00000000000E+00 0.  1.
        -11    1    3    3    0    0 -0.38035938749E+02 -0.14064206860E+02  0.81610992844E+02  0.91131162091E+02  0.00000000000E+00 0.  1.
         11    1    3    3    0    0  0.33351596253E+02 -0.11205523874E+02  0.30225932165E+01  0.35313295055E+02  0.00000000000E+00 0. -1.
         21    1    1    2  502  501  0.34892045574E+02 -0.83775786066E+01 -0.12450604454E+02  0.37982314555E+02  0.00000000000E+00 0.  1.
<scales pt_clust_5="13000.00000" pt_clust_6="13000.00000" pt_clust_7="13000.00000" pt_clust_8="13000.00000" pt_clust_9="35.88368"></scales>
<clustering>
<clus scale="   35.884">  1  9  2 -1</clus>
<clus scale="   83.179">  5  6 -1 -1</clus>
<clus scale="   90.360">  7  8 -1 -1</clus>
<clus scale="   94.299">  2  5  1 -1</clus>
<clus scale="   94.299">  2  5  1 -1</clus>
</clustering>
</event>
<event>
 9    1  0.2333971E-005  0.9748531E+02  0.7546771E-02  0.1290763E+00
         -2   -1    0    0    0  501 -0.00000000000E+00  0.00000000000E+00  0.32106332305E+02  0.32106332305E+02  0.00000000000E+00 0.  1.
          1   -1    0    0  502    0  0.00000000000E+00 -0.00000000000E+00 -0.43448235499E+03  0.43448235499E+03  0.00000000000E+00 0. -1.
         23    2    1    2    0    0 -0.20045723082E+01  0.11199972320E+02 -0.89379775336E+02  0.12887873138E+03  0.92149473534E+02 0.  0.
        -24    2    1    2    0    0  0.17620162336E+02 -0.35521593911E+02 -0.27552587064E+03  0.29038747649E+03  0.82692970405E+02 0.  0.
         13    1    4    4    0    0  0.41641631094E+02 -0.43027260852E+02 -0.23640873734E+03  0.24387386434E+03  0.00000000000E+00 0. -1.
        -14    1    4    4    0    0 -0.24021468758E+02  0.75056669414E+01 -0.39117133295E+02  0.46513612144E+02  0.00000000000E+00 0.  1.
        -13    1    3    3    0    0 -0.43035148520E+02  0.18615304452E+02 -0.66351026459E+02  0.81246613961E+02  0.00000000000E+00 0.  1.
         13    1    3    3    0    0  0.41030576212E+02 -0.74153321315E+01 -0.23028748878E+02  0.47632117418E+02  0.00000000000E+00 0. -1.
         21    1    1    2  502  501 -0.15615590028E+02  0.24321621591E+02 -0.37470376713E+02  0.47322479433E+02  0.00000000000E+00 0.  1.
<scales pt_clust_5="13000.00000" pt_clust_6="13000.00000" pt_clust_7="13000.00000" pt_clust_8="13000.00000" pt_clust_9="28.90308"></scales>
<clustering>
<clus scale="   28.903">  1  9  2 -1</clus>
<clus scale="   82.693">  5  6 -1 -1</clus>
<clus scale="   88.600">  2  5  1 -1</clus>
<clus scale="   92.149">  7  8 -1 -1</clus>
<clus scale="   88.600">  2  5  1 -1</clus>
</clustering>
</event>
<event>
 9    1  0.2333971E-005  0.4909383E+03  0.7546771E-02  0.1052169E+00
         -2   -1    0    0    0  501 -0.00000000000E+00  0.00000000000E+00  0.12219303554E+04  0.12219303554E+04  0.00000000000E+00 0.  1.
          1   -1    0    0  502    0  0.00000000000E+00 -0.00000000000E+00 -0.54205624569E+03  0.54205624569E+03  0.00000000000E+00 0. -1.
         23    2    1    2    0    0 -0.61895742634E+02 -0.12909812637E+03  0.69641910376E+03  0.71690022496E+03  0.91918198830E+02 0.  0.
        -24    2    1    2    0    0  0.70923076840E+01 -0.44116776167E+03 -0.12156370461E+03  0.46464708395E+03  0.80248885202E+02 0.  0.
         11    1    4    4    0    0  0.41726783282E+02 -0.16817251677E+03 -0.45632288824E+02  0.17917986947E+03  0.00000000000E+00 0. -1.
        -12    1    4    4    0    0 -0.34634475598E+02 -0.27299524490E+03 -0.75931415789E+02  0.28546721448E+03  0.00000000000E+00 0.  1.
        -11    1    3    3    0    0 -0.31098693991E+02 -0.13437308740E+03  0.59501806554E+03  0.61079436286E+03  0.00000000000E+00 0.  1.
         11    1    3    3    0    0 -0.30797048644E+02  0.52749610346E+01  0.10140103823E+03  0.10610586210E+03  0.00000000000E+00 0. -1.
         21    1    1    2  502  501  0.54803434951E+02  0.57026588804E+03  0.10501871059E+03  0.58243929221E+03  0.00000000000E+00 0. -1.
<scales pt_clust_5="13000.00000" pt_clust_6="13000.00000" pt_clust_7="13000.00000" pt_clust_8="13000.00000" pt_clust_9="484.33512"></scales>
<clustering>
<clus scale="   80.249">  5  6 -1 -1</clus>
<clus scale="   91.918">  7  8 -1 -1</clus>
<clus scale="  170.136">  1  7  2 -1</clus>
<clus scale="  484.335">  1  9  2 -1</clus>
<clus scale="  490.938">  2  5  1 -1</clus>
</clustering>
</event>
<event>
 9    1  0.2333971E-005  0.1197020E+03  0.7546771E-02  0.1245602E+00
          1   -1    0    0  502    0  0.00000000000E+00  0.00000000000E+00  0.40486723421E+03  0.40486723421E+03  0.00000000000E+00 0. -1.
         -2   -1    0    0    0  501 -0.00000000000E+00 -0.00000000000E+00 -0.74901950506E+02  0.74901950506E+02  0.00000000000E+00 0.  1.
        -24    2    1    2    0    0  0.72492608014E+01 -0.81558589451E+02 -0.44443217389E+01  0.11433351658E+03  0.79674624085E+02 0.  0.
         23    2    1    2    0    0 -0.27385812770E+02  0.85186032172E+02  0.25930865706E+03  0.28759742872E+03  0.86398255569E+02 0.  0.
         11    1    3    3    0    0  0.21910527808E+02 -0.40893448425E+02  0.33170529928E+02  0.57031828031E+02  0.00000000000E+00 0. -1.
        -12    1    3    3    0    0 -0.14661267007E+02 -0.40665141026E+02 -0.37614851667E+02  0.57301688551E+02  0.00000000000E+00 0.  1.
        -11    1    4    4    0    0 -0.49292275253E+00  0.28419836820E+02  0.94344604931E+01  0.29948942261E+02  0.00000000000E+00 0.  1.
         11    1    4    4    0    0 -0.26892890018E+02  0.56766195352E+02  0.24987419656E+03  0.25764848646E+03  0.00000000000E+00 0. -1.
         21    1    1    2  502  501  0.20136551969E+02 -0.36274427215E+01  0.75100948383E+02  0.77838239406E+02  0.00000000000E+00 0. -1.
<scales pt_clust_5="13000.00000" pt_clust_6="13000.00000" pt_clust_7="13000.00000" pt_clust_8="13000.00000" pt_clust_9="20.46067"></scales>
<clustering>
<clus scale="   20.461">  1  9  2 -1</clus>
<clus scale="   79.675">  5  6 -1 -1</clus>
<clus scale="   86.398">  7  8 -1 -1</clus>
<clus scale="  114.943">  2  5  1 -1</clus>
<clus scale="   20.461">  1  5  2 -1</clus>
</clustering>
</event>
<event>
 9    1  0.2333971E-005  0.2550898E+03  0.7546771E-02  0.1125639E+00
         -2   -1    0    0    0  501 -0.00000000000E+00  0.00000000000E+00  0.69627239925E+02  0.69627239925E+02  0.00000000000E+00 0.  1.
          1   -1    0    0  502    0  0.00000000000E+00 -0.00000000000E+00 -0.18385687146E+04  0.18385687146E+04  0.00000000000E+00 0. -1.
        -24    2    1    2    0    0  0.74576827172E+02 -0.13402750429E+03 -0.31655551288E+03  0.36065634653E+03  0.79627460718E+02 0.  0.
         23    2    1    2    0    0  0.33761729630E+02  0.31065443889E+03 -0.82742169733E+03  0.88912131483E+03  0.90906614075E+02 0.  0.
         11    1    3    3    0    0 -0.82482170188E+01 -0.57344345889E+02 -0.13454211869E+03  0.14648545590E+03  0.00000000000E+00 0. -1.
        -12    1    3    3    0    0  0.82825044191E+02 -0.76683158397E+02 -0.18201339419E+03  0.21417089063E+03  0.00000000000E+00 0.  1.
        -11    1    4    4    0    0  0.52231584784E+02  0.10297971228E+03 -0.33650750668E+03  0.35576714526E+03  0.00000000000E+00 0. -1.
         11    1    4    4    0    0 -0.18469855154E+02  0.20767472661E+03 -0.49091419064E+03  0.53335416957E+03  0.00000000000E+00 0.  1.
         21    1    1    2  502  501 -0.10833855680E+03 -0.17662693460E+03 -0.62496426444E+03  0.65841829314E+03  0.00000000000E+00 0. -1.
<scales pt_clust_5="13000.00000" pt_clust_6="13000.00000" pt_clust_7="13000.00000" pt_clust_8="13000.00000" pt_clust_9="238.34171"></scales>
<clustering>
<clus scale="   79.627">  5  6 -1 -1</clus>
<clus scale="   90.907">  7  8 -1 -1</clus>
<clus scale="  172.817">  1  5  2 -1</clus>
<clus scale="  238.342">  2  9  1 -1</clus>
<clus scale="  238.342">  2  5  1 -1</clus>
</clustering>
</event>
<event>
 9    1  0.2333971E-005  0.1118094E+03  0.7546771E-02  0.1261570E+00
         -2   -1    0    0    0  501 -0.00000000000E+00  0.00000000000E+00  0.10848347752E+03  0.10848347752E+03  0.00000000000E+00 0.  1.
          1   -1    0    0  502    0  0.00000000000E+00 -0.00000000000E+00 -0.38880425843E+03  0.38880425843E+03  0.00000000000E+00 0. -1.
        -24    2    1    2    0    0 -0.43026400714E+02  0.53234572503E+01 -0.13377021573E+02  0.92086563761E+02  0.80133514609E+02 0.  0.
         23    2    1    2    0    0  0.52348961905E+02 -0.48859445708E+02 -0.31734673852E+03  0.33794975771E+03  0.91506431678E+02 0.  0.
         13    1    3    3    0    0 -0.52036444899E+02 -0.21889084983E+02 -0.24233245942E+02  0.61434305140E+02  0.00000000000E+00 0. -1.
        -14    1    3    3    0    0  0.90100441852E+01  0.27212542233E+02  0.10856224369E+02  0.30652258621E+02  0.00000000000E+00 0.  1.
        -11    1    4    4    0    0  0.59766341522E+02  0.95107031746E+00 -0.11717636449E+03  0.13154170634E+03  0.00000000000E+00 0.  1.
         11    1    4    4    0    0 -0.74173796171E+01 -0.49810516026E+02 -0.20017037404E+03  0.20640805137E+03  0.00000000000E+00 0. -1.
         21    1    1    2  502  501 -0.93225611910E+01  0.43535988458E+02  0.50402979185E+02  0.67251414475E+02  0.00000000000E+00 0.  1.
<scales pt_clust_5="13000.00000" pt_clust_6="13000.00000" pt_clust_7="13000.00000" pt_clust_8="13000.00000" pt_clust_9="44.52294"></scales>
<clustering>
<clus scale="   44.523">  1  9  2 -1</clus>
<clus scale="   80.134">  5  6 -1 -1</clus>
<clus scale="   91.506">  7  8 -1 -1</clus>
<clus scale="  102.710">  1  5  2 -1</clus>
<clus scale="  111.809">  2  5  1 -1</clus>
</clustering>
</event>
<event>
 9    1  0.2333971E-005  0.1287450E+03  0.7546771E-02  0.1234915E+00
          1   -1    0    0  502    0  0.00000000000E+00  0.00000000000E+00  0.14535129205E+03  0.14535129205E+03  0.00000000000E+00 0. -1.
         -2   -1    0    0    0  501 -0.00000000000E+00 -0.00000000000E+00 -0.19621022752E+03  0.19621022752E+03  0.00000000000E+00 0.  1.
         23    2    1    2    0    0  0.53980292523E+01  0.90451964851E+02 -0.96270261728E+02  0.16171973172E+03  0.93137595353E+02 0.  0.
        -24    2    1    2    0    0  0.17457152294E+02 -0.87317223369E+02  0.78757137613E+02  0.13929392646E+03  0.72602076843E+02 0.  0.
         13    1    4    4    0    0 -0.25483120640E+02 -0.30192414304E+02  0.46122508346E+02  0.60731022511E+02  0.00000000000E+00 0. -1.
        -14    1    4    4    0    0  0.42940272934E+02 -0.57124809065E+02  0.32634629267E+02  0.78562903954E+02  0.00000000000E+00 0.  1.
        -11    1    3    3    0    0  0.28405141554E+02 -0.73999033158E+01 -0.24008065717E+02  0.37920942173E+02  0.00000000000E+00 0.  1.
         11    1    3    3    0    0 -0.23007112302E+02  0.97851868167E+02 -0.72262196011E+02  0.12379878954E+03  0.00000000000E+00 0. -1.
         21    1    1    2  502  501 -0.22855181546E+02 -0.31347414821E+01 -0.33345811354E+02  0.40547861380E+02  0.00000000000E+00 0.  1.
<scales pt_clust_5="13000.00000" pt_clust_6="13000.00000" pt_clust_7="13000.00000" pt_clust_8="13000.00000" pt_clust_9="23.06916"></scales>
<clustering>
<clus scale="   23.069">  2  9  1 -1</clus>
<clus scale="   72.602">  5  6 -1 -1</clus>
<clus scale="   93.138">  7  8 -1 -1</clus>
<clus scale="  114.768">  1  5  2 -1</clus>
<clus scale="  114.768">  1  5  2 -1</clus>
</clustering>
</event>
<event>
 9    1  0.2333971E-005  0.1230336E+03  0.7546771E-02  0.1241247E+00
          1   -1    0    0  502    0  0.00000000000E+00  0.00000000000E+00  0.12653264669E+03  0.12653264669E+03  0.00000000000E+00 0. -1.
         -2   -1    0    0    0  501 -0.00000000000E+00 -0.00000000000E+00 -0.28408044385E+03  0.28408044385E+03  0.00000000000E+00 0.  1.
        -24    2    1    2    0    0  0.31540351675E+02  0.61297506052E+02 -0.21018898534E+03  0.23544239832E+03  0.80632098675E+02 0.  0.
         23    2    1    2    0    0 -0.19938208188E+02 -0.82986681143E+02  0.71850120054E+02  0.14396150906E+03  0.90984366493E+02 0.  0.
         11    1    3    3    0    0  0.24121073743E+02  0.30837675802E+02 -0.22505274853E+02  0.45158341905E+02  0.00000000000E+00 0. -1.
        -12    1    3    3    0    0  0.74192779327E+01  0.30459830250E+02 -0.18768371049E+03  0.19028405642E+03  0.00000000000E+00 0.  1.
        -13    1    4    4    0    0 -0.44097652492E+02 -0.28111577111E+02  0.25984015000E+01  0.52360437482E+02  0.00000000000E+00 0.  1.
         13    1    4    4    0    0  0.24159444304E+02 -0.54875104032E+02  0.69251718554E+02  0.91601071578E+02  0.00000000000E+00 0. -1.
         21    1    1    2  502  501 -0.11602143487E+02  0.21689175091E+02 -0.19208931876E+02  0.31209183159E+02  0.00000000000E+00 0.  1.
<scales pt_clust_5="13000.00000" pt_clust_6="13000.00000" pt_clust_7="13000.00000" pt_clust_8="13000.00000" pt_clust_9="24.59736"></scales>
<clustering>
<clus scale="   24.597">  2  9  1 -1</clus>
<clus scale="   80.632">  5  6 -1 -1</clus>
<clus scale="   90.984">  7  8 -1 -1</clus>
<clus scale="  115.588">  2  5  1 -1</clus>
<clus scale="  123.034">  1  5  2 -1</clus>
</clustering>
</event>
<event>
 9    1  0.2333971E-005  0.1112916E+03  0.7546771E-02  0.1263053E+00
          1   -1    0    0  502    0  0.00000000000E+00  0.00000000000E+00  0.67194170148E+03  0.67194170148E+03  0.00000000000E+00 0. -1.
         -2   -1    0    0    0  501 -0.00000000000E+00 -0.00000000000E+00 -0.41746474768E+02  0.41746474768E+02  0.00000000000E+00 0.  1.
        -24    2    1    2    0    0  0.39708583197E+02 -0.19930446153E+02  0.73729621020E+02  0.11704242641E+03  0.79302448272E+02 0.  0.
         23    2    1    2    0    0 -0.61975678019E+02  0.27273167889E+02  0.56123373469E+03  0.57271931825E+03  0.91865674694E+02 0.  0.
         13    1    3    3    0    0 -0.19061530717E+02  0.12533440138E+02  0.26430862128E+02  0.34914460439E+02  0.00000000000E+00 0. -1.
        -14    1    3    3    0    0  0.58770113913E+02 -0.32463886291E+02  0.47298758892E+02  0.82127965975E+02  0.00000000000E+00 0.  1.
        -13    1    4    4    0    0 -0.95426088495E+01  0.54272244553E+02  0.26330311529E+03  0.26900756204E+03  0.00000000000E+00 0.  1.
         13    1    4    4    0    0 -0.52433069170E+02 -0.26999076665E+02  0.29793061940E+03  0.30371175621E+03  0.00000000000E+00 0. -1.
         21    1    1    2  502  501  0.22267094823E+02 -0.73427217357E+01 -0.47681289973E+01  0.23926431586E+02  0.00000000000E+00 0.  1.
<scales pt_clust_5="13000.00000" pt_clust_6="13000.00000" pt_clust_7="13000.00000" pt_clust_8="13000.00000" pt_clust_9="23.44652"></scales>
<clustering>
<clus scale="   23.447">  2  9  1 -1</clus>
<clus scale="   79.302">  5  6 -1 -1</clus>
<clus scale="   91.866">  7  8 -1 -1</clus>
<clus scale="  101.170">  2  5  1 -1</clus>
<clus scale="  111.292">  1  5  2 -1</clus>
</clustering>
</event>
<event>
 9    1  0.2333971E-005  0.2042909E+03  0.7546771E-02  0.1146168E+00
          3   -1    0    0  502    0  0.00000000000E+00  0.00000000000E+00  0.14014712628E+03  0.14014712628E+03  0.00000000000E+00 0. -1.
         -4   -1    0    0    0  501 -0.00000000000E+00 -0.00000000000E+00 -0.16727999815E+03  0.16727999815E+03  0.00000000000E+00 0.  1.
        -24    2    1    2    0    0  0.11012272540E+02 -0.67435698431E+02 -0.16192462844E+02  0.10538172115E+03  0.78576508772E+02 0.  0.
         23    2    1    2    0    0 -0.23214573812E+02 -0.33724886968E+02  0.50970407448E+00  0.99510212807E+02  0.90695855563E+02 0.  0.
         11    1    3    3    0    0  0.22727467687E+02 -0.11168990067E+02  0.24284097811E+02  0.35085631433E+02  0.00000000000E+00 0. -1.
        -12    1    3    3    0    0 -0.11715195147E+02 -0.56266708365E+02 -0.40476560655E+02  0.70296089720E+02  0.00000000000E+00 0.  1.
        -11    1    4    4    0    0  0.11506931836E+02  0.23598122391E+02 -0.15658079845E+02  0.30568878375E+02  0.00000000000E+00 0. -1.
         11    1    4    4    0    0 -0.34721505648E+02 -0.57323009359E+02  0.16167783919E+02  0.68941334432E+02  0.00000000000E+00 0.  1.
         21    1    1    2  502  501  0.12202301272E+02  0.10116058540E+03 -0.11450113097E+02  0.10253519047E+03  0.00000000000E+00 0. -1.
<scales pt_clust_5="13000.00000" pt_clust_6="13000.00000" pt_clust_7="13000.00000" pt_clust_8="13000.00000" pt_clust_9="101.89387"></scales>
<clustering>
<clus scale="   78.577">  5  6 -1 -1</clus>
<clus scale="   90.696">  7  8 -1 -1</clus>
<clus scale="   96.644">  5  7 -1 -1</clus>
<clus scale="  101.894">  2  9  1 -1</clus>
<clus scale="  204.291">  1  5  2 -1</clus>
</clustering>
</event>
<event>
 9    1  0.2333971E-005  0.1026237E+03  0.7546771E-02  0.1280711E+00
          1   -1    0    0  502    0  0.00000000000E+00  0.00000000000E+00  0.65474608378E+03  0.65474608378E+03  0.00000000000E+00 0. -1.
         -2   -1    0    0    0  501 -0.00000000000E+00 -0.00000000000E+00 -0.47539172085E+02  0.47539172085E+02  0.00000000000E+00 0.  1.
         23    2    1    2    0    0 -0.60844038306E+02  0.12146512024E+02  0.17810769945E+03  0.21028178494E+03  0.92986782507E+02 0.  0.
        -24    2    1    2    0    0  0.37941790347E+02 -0.55139276683E+01  0.45089870005E+03  0.45969678733E+03  0.80879637292E+02 0.  0.
         13    1    4    4    0    0 -0.18694138468E+02  0.11014787486E+02  0.50349035744E+02  0.54825375118E+02  0.00000000000E+00 0. -1.
        -14    1    4    4    0    0  0.56635928815E+02 -0.16528715155E+02  0.40054966430E+03  0.40487141222E+03  0.00000000000E+00 0.  1.
        -13    1    3    3    0    0 -0.87017274095E+01 -0.34489915320E+02  0.96203025295E+02  0.10256849611E+03  0.00000000000E+00 0.  1.
         13    1    3    3    0    0 -0.52142310897E+02  0.46636427344E+02  0.81904674153E+02  0.10771328882E+03  0.00000000000E+00 0. -1.
         21    1    1    2  502  501  0.22902247959E+02 -0.66325843560E+01 -0.21799487797E+02  0.32306683597E+02  0.00000000000E+00 0.  1.
<scales pt_clust_5="13000.00000" pt_clust_6="13000.00000" pt_clust_7="13000.00000" pt_clust_8="13000.00000" pt_clust_9="23.84332"></scales>
<clustering>
<clus scale="   23.843">  2  9  1 -1</clus>
<clus scale="   80.880">  5  6 -1 -1</clus>
<clus scale="   91.797">  1  5  2 -1</clus>
<clus scale="   92.987">  7  8 -1 -1</clus>
<clus scale="   91.797">  1  5  2 -1</clus>
</clustering>
</event>
<event>
 9    1  0.2333971E-005  0.9246350E+02  0.7546771E-02  0.1302593E+00
          1   -1    0    0  502    0  0.00000000000E+00  0.00000000000E+00  0.32560577822E+03  0.32560577822E+03  0.00000000000E+00 0. -1.
         -2   -1    0    0    0  501 -0.00000000000E+00 -0.00000000000E+00 -0.35619739436E+02  0.35619739436E+02  0.00000000000E+00 0.  1.
        -24    2    1    2    0    0  0.14286832759E+02 -0.35726511929E+02  0.75814847184E+02  0.11617784540E+03  0.79176407246E+02 0.  0.
         23    2    1    2    0    0  0.15021967060E+01  0.21064242376E+02  0.19841454437E+03  0.21835408628E+03  0.88680418796E+02 0.  0.
         13    1    3    3    0    0  0.43426908422E+02 -0.24545037974E+01  0.42430961126E+02  0.60764359834E+02  0.00000000000E+00 0. -1.
        -14    1    3    3    0    0 -0.29140075662E+02 -0.33272008132E+02  0.33383886058E+02  0.55413485570E+02  0.00000000000E+00 0.  1.
        -13    1    4    4    0    0  0.27004136481E+02 -0.20938680952E+02  0.12804387251E+03  0.13252503550E+03  0.00000000000E+00 0. -1.
         13    1    4    4    0    0 -0.25501939775E+02  0.42002923329E+02  0.70370671859E+02  0.85829050783E+02  0.00000000000E+00 0.  1.
         21    1    1    2  502  501 -0.15789029465E+02  0.14662269553E+02  0.15756647232E+02  0.26693585970E+02  0.00000000000E+00 0.  1.
<scales pt_clust_5="13000.00000" pt_clust_6="13000.00000" pt_clust_7="13000.00000" pt_clust_8="13000.00000" pt_clust_9="21.54706"></scales>
<clustering>
<clus scale="   21.547">  2  9  1 -1</clus>
<clus scale="   79.176">  5  6 -1 -1</clus>
<clus scale="   83.392">  2  5  1 -1</clus>
<clus scale="   88.680">  7  8 -1 -1</clus>
<clus scale="   92.464">  1  5  2 -1</clus>
</clustering>
</event>
<event>
 9    1  0.2333971E-005  0.1212414E+03  0.7546771E-02  0.1244258E+00
         -2   -1    0    0    0  501 -0.00000000000E+00  0.00000000000E+00  0.17718251766E+03  0.17718251766E+03  0.00000000000E+00 0.  1.
          1   -1    0    0  502    0  0.00000000000E+00 -0.00000000000E+00 -0.16782795582E+03  0.16782795582E+03  0.00000000000E+00 0. -1.
         23    2    1    2    0    0 -0.50548465740E+02  0.30427261191E+02  0.98209525210E+02  0.14611848406E+03  0.90689221681E+02 0.  0.
        -24    2    1    2    0    0  0.58239106255E+02 -0.62403088540E+02 -0.10924438411E+03  0.16019666717E+03  0.80266417350E+02 0.  0.
         11    1    4    4    0    0  0.51685383224E+02 -0.29055801920E+02 -0.11134350329E+03  0.12614671692E+03  0.00000000000E+00 0. -1.
        -12    1    4    4    0    0  0.65537230312E+01 -0.33347286620E+02  0.20991191785E+01  0.34049950247E+02  0.00000000000E+00 0.  1.
        -13    1    3    3    0    0 -0.20933958233E+02  0.31877874101E+02 -0.52477260533E+01  0.38496338699E+02  0.00000000000E+00 0. -1.
         13    1    3    3    0    0 -0.29614507507E+02 -0.14506129095E+01  0.10345725126E+03  0.10762214536E+03  0.00000000000E+00 0.  1.
         21    1    1    2  502  501 -0.76906405148E+01  0.31975827349E+02  0.20389420746E+02  0.38695322257E+02  0.00000000000E+00 0. -1.
<scales pt_clust_5="13000.00000" pt_clust_6="13000.00000" pt_clust_7="13000.00000" pt_clust_8="13000.00000" pt_clust_9="32.88768"></scales>
<clustering>
<clus scale="   32.888">  1  9  2 -1</clus>
<clus scale="   80.266">  5  6 -1 -1</clus>
<clus scale="   90.689">  7  8 -1 -1</clus>
<clus scale="  113.656">  2  5  1 -1</clus>
<clus scale="  113.656">  2  5  1 -1</clus>
</clustering>
</event>
<event>
 9    1  0.2333971E-005  0.1088291E+03  0.7546771E-02  0.1269515E+00
         -2   -1    0    0    0  501 -0.00000000000E+00  0.00000000000E+00  0.22810819235E+03  0.22810819235E+03  0.00000000000E+00 0.  1.
          1   -1    0    0  502    0  0.00000000000E+00 -0.00000000000E+00 -0.69136011566E+02  0.69136011566E+02  0.00000000000E+00 0. -1.
         23    2    1    2    0    0 -0.35639537250E+02  0.61666438033E+02  0.11051058614E+03  0.16051434448E+03  0.92083326074E+02 0.  0.
        -24    2    1    2    0    0  0.15442664327E+02 -0.51081496228E+02  0.11602024860E+02  0.93387241218E+02  0.75754700865E+02 0.  0.
         11    1    4    4    0    0 -0.29866109806E+02 -0.10687445120E+02  0.78575292462E+00  0.31730480706E+02  0.00000000000E+00 0. -1.
        -12    1    4    4    0    0  0.45308774133E+02 -0.40394051108E+02  0.10816271935E+02  0.61656760513E+02  0.00000000000E+00 0.  1.
        -13    1    3    3    0    0  0.65852029274E+01 -0.21000751061E+02  0.32552108755E+02  0.39294226384E+02  0.00000000000E+00 0.  1.
         13    1    3    3    0    0 -0.42224740178E+02  0.82667189094E+02  0.77958477383E+02  0.12122011810E+03  0.00000000000E+00 0. -1.
         21    1    1    2  502  501  0.20196872924E+02 -0.10584941805E+02  0.36859569783E+02  0.43342618212E+02  0.00000000000E+00 0.  1.
<scales pt_clust_5="13000.00000" pt_clust_6="13000.00000" pt_clust_7="13000.00000" pt_clust_8="13000.00000" pt_clust_9="22.80251"></scales>
<clustering>
<clus scale="   22.803">  1  9  2 -1</clus>
<clus scale="   75.755">  5  6 -1 -1</clus>
<clus scale="   92.083">  7  8 -1 -1</clus>
<clus scale="   95.411">  2  5  1 -1</clus>
<clus scale="   95.411">  2  5  1 -1</clus>
</clustering>
</event>
<event>
 9    1  0.2333971E-005  0.1048746E+03  0.7546771E-02  0.1274995E+00
          1   -1    0    0  502    0  0.00000000000E+00  0.00000000000E+00  0.88096086346E+02  0.88096086346E+02  0.00000000000E+00 0. -1.
         -2   -1    0    0    0  501 -0.00000000000E+00 -0.00000000000E+00 -0.20309693699E+03  0.20309693699E+03  0.00000000000E+00 0.  1.
        -24    2    1    2    0    0 -0.40999538386E+02 -0.57486271207E+02 -0.12076928645E+02  0.10733999799E+03  0.79939911421E+02 0.  0.
         23    2    1    2    0    0  0.24250782439E+02  0.24191863002E+02 -0.28887156987E+02  0.10096466056E+03  0.90476782429E+02 0.  0.
         13    1    3    3    0    0 -0.51577345242E+02 -0.10874860824E+02  0.11642133606E+02  0.53981704448E+02  0.00000000000E+00 0. -1.
        -14    1    3    3    0    0  0.10577806856E+02 -0.46611410383E+02 -0.23719062251E+02  0.53358293543E+02  0.00000000000E+00 0.  1.
        -11    1    4    4    0    0 -0.16674488840E+02  0.25020774837E+02 -0.47325895271E+02  0.56069761144E+02  0.00000000000E+00 0.  1.
         11    1    4    4    0    0  0.40925271279E+02 -0.82891183521E+00  0.18438738284E+02  0.44894899416E+02  0.00000000000E+00 0. -1.
         21    1    1    2  502  501  0.16748755946E+02  0.33294408205E+02 -0.74036765013E+02  0.82888364787E+02  0.00000000000E+00 0.  1.
<scales pt_clust_5="13000.00000" pt_clust_6="13000.00000" pt_clust_7="13000.00000" pt_clust_8="13000.00000" pt_clust_9="37.26981"></scales>
<clustering>
<clus scale="   37.270">  2  9  1 -1</clus>
<clus scale="   79.940">  5  6 -1 -1</clus>
<clus scale="   90.477">  7  8 -1 -1</clus>
<clus scale="   95.932">  2  5  1 -1</clus>
<clus scale="  104.875">  1  5  2 -1</clus>
</clustering>
</event>
<event>
 9    1  0.2333971E-005  0.2621345E+03  0.7546771E-02  0.1108610E+00
         -2   -1    0    0    0  501 -0.00000000000E+00  0.00000000000E+00  0.68617833125E+03  0.68617833125E+03  0.00000000000E+00 0.  1.
          1   -1    0    0  502    0  0.00000000000E+00 -0.00000000000E+00 -0.69833773524E+03  0.69833773524E+03  0.00000000000E+00 0. -1.
        -24    2    1    2    0    0  0.87458830305E+01 -0.26296776900E+03  0.41608566836E+03  0.49883319643E+03  0.80490598487E+02 0.  0.
         23    2    1    2    0    0 -0.23616645082E+02  0.22770127582E+03 -0.62925340964E+03  0.68106318194E+03  0.12442502693E+03 0.  0.
         13    1    3    3    0    0  0.45350357968E+01 -0.63288511060E+02  0.46262403834E+02  0.78525232826E+02  0.00000000000E+00 0. -1.
        -14    1    3    3    0    0  0.42108472337E+01 -0.19967925794E+03  0.36982326452E+03  0.42030796360E+03  0.00000000000E+00 0.  1.
        -13    1    4    4    0    0 -0.17804602460E+02  0.12660056570E+03 -0.18153699099E+03  0.22203690279E+03  0.00000000000E+00 0.  1.
         13    1    4    4    0    0 -0.58120426221E+01  0.10110071012E+03 -0.44771641865E+03  0.45902627915E+03  0.00000000000E+00 0. -1.
         21    1    1    2  502  501  0.14870762051E+02  0.35266493186E+02  0.20100833729E+03  0.20461968812E+03  0.00000000000E+00 0.  1.
<scales pt_clust_5="13000.00000" pt_clust_6="13000.00000" pt_clust_7="13000.00000" pt_clust_8="13000.00000" pt_clust_9="38.27356"></scales>
<clustering>
<clus scale="   38.274">  1  9  2 -1</clus>
<clus scale="   80.491">  5  6 -1 -1</clus>
<clus scale="  124.425">  7  8 -1 -1</clus>
<clus scale="  244.360">  1  5  2 -1</clus>
<clus scale="  262.134">  2  5  1 -1</clus>
</clustering>
</event>
<event>
 9    1  0.2333971E-005  0.1427269E+03  0.7546771E-02  0.1216095E+00
         -2   -1    0    0    0  501 -0.00000000000E+00  0.00000000000E+00  0.86072256834E+02  0.86072256834E+02  0.00000000000E+00 0.  1.
          1   -1    0    0  502    0  0.00000000000E+00 -0.00000000000E+00 -0.53503311306E+03  0.53503311306E+03  0.00000000000E+00 0. -1.
        -24    2    1    2    0    0 -0.11516283412E+03 -0.37115234032E+02 -0.23484019936E+02  0.14646664518E+03  0.79126228266E+02 0.  0.
         23    2    1    2    0    0  0.83732816404E+02  0.37679466111E+02 -0.42010815534E+03  0.44274848942E+03  0.10537758772E+03 0.  0.
         13    1    3    3    0    0 -0.26731539768E+02  0.24633498226E+02 -0.14323419030E+01  0.36379060688E+02  0.00000000000E+00 0. -1.
        -14    1    3    3    0    0 -0.88431294352E+02 -0.61748732258E+02 -0.22051678033E+02  0.11008758450E+03  0.00000000000E+00 0.  1.
        -11    1    4    4    0    0 -0.39230954968E+01  0.23234073821E+02 -0.14815603698E+02  0.27833702189E+02  0.00000000000E+00 0.  1.
         11    1    4    4    0    0  0.87655911901E+02  0.14445392290E+02 -0.40529255164E+03  0.41491478723E+03  0.00000000000E+00 0. -1.
         21    1    1    2  502  501  0.31430017716E+02 -0.56423207959E+00 -0.53686809506E+01  0.31890235286E+02  0.00000000000E+00 0.  1.
<scales pt_clust_5="13000.00000" pt_clust_6="13000.00000" pt_clust_7="13000.00000" pt_clust_8="13000.00000" pt_clust_9="31.43508"></scales>
<clustering>
<clus scale="   31.435">  1  9  2 -1</clus>
<clus scale="   79.126">  5  6 -1 -1</clus>
<clus scale="  105.378">  7  8 -1 -1</clus>
<clus scale="  124.609">  1  5  2 -1</clus>
<clus scale="  142.727">  2  5  1 -1</clus>
</clustering>
</event>
<event>
 9    1  0.2333971E-005  0.1053369E+03  0.7546771E-02  0.1275124E+00
         -2   -1    0    0    0  501 -0.00000000000E+00  0.00000000000E+00  0.80772123762E+02  0.80772123762E+02  0.00000000000E+00 0.  1.
          1   -1    0    0  502    0  0.00000000000E+00 -0.00000000000E+00 -0.23518788179E+03  0.23518788179E+03  0.00000000000E+00 0. -1.
         23    2    1    2    0    0  0.17593095547E+02 -0.58682903228E+02 -0.34397808746E+02  0.11653424713E+03  0.92972153705E+02 0.  0.
        -24    2    1    2    0    0  0.19334823187E+02  0.44878989543E+02 -0.12833081841E+03  0.15913527558E+03  0.80419387533E+02 0.  0.
         11    1    4    4    0    0  0.23152868737E+02  0.57524216549E+02 -0.13164392406E+03  0.14551705591E+03  0.00000000000E+00 0. -1.
        -12    1    4    4    0    0 -0.38180455502E+01 -0.12645227006E+02  0.33131056507E+01  0.13618219668E+02  0.00000000000E+00 0.  1.
        -11    1    3    3    0    0 -0.34040142121E+02 -0.33618085311E+02 -0.34761409121E+02  0.59137657205E+02  0.00000000000E+00 0. -1.
         11    1    3    3    0    0  0.51633237668E+02 -0.25064817917E+02  0.36360037495E+00  0.57396589921E+02  0.00000000000E+00 0.  1.
         21    1    1    2  502  501 -0.36927918734E+02  0.13803913685E+02  0.83128691232E+01  0.40290482848E+02  0.00000000000E+00 0. -1.
<scales pt_clust_5="13000.00000" pt_clust_6="13000.00000" pt_clust_7="13000.00000" pt_clust_8="13000.00000" pt_clust_9="39.42359"></scales>
<clustering>
<clus scale="   39.424">  1  9  2 -1</clus>
<clus scale="   80.419">  5  6 -1 -1</clus>
<clus scale="   92.972">  7  8 -1 -1</clus>
<clus scale="   94.442">  2  5  1 -1</clus>
<clus scale="   94.442">  2  5  1 -1</clus>
</clustering>
</event>
<event>
 9    1  0.2333971E-005  0.8027191E+02  0.7546771E-02  0.1335902E+00
         -2   -1    0    0    0  501 -0.00000000000E+00  0.00000000000E+00  0.18577994652E+03  0.18577994652E+03  0.00000000000E+00 0.  1.
          1   -1    0    0  502    0  0.00000000000E+00 -0.00000000000E+00 -0.31317293101E+03  0.31317293101E+03  0.00000000000E+00 0. -1.
         23    2    1    2    0    0  0.33854646430E+02 -0.19456738838E+02  0.52191632154E+02  0.95547914237E+02  0.69862262181E+02 0.  0.
        -24    2    1    2    0    0  0.10046811411E+02 -0.36476006898E+01 -0.28000892120E+03  0.29139518939E+03  0.79949465531E+02 0.  0.
         11    1    4    4    0    0  0.31502099311E+02 -0.30117776995E+02 -0.19501545116E+03  0.19982614679E+03  0.00000000000E+00 0. -1.
        -12    1    4    4    0    0 -0.21455287900E+02  0.26470176305E+02 -0.84993470042E+02  0.91569042598E+02  0.00000000000E+00 0.  1.
        -11    1    3    3    0    0  0.51418986090E+02  0.71582875819E+00  0.24207661937E+02  0.56836919672E+02  0.00000000000E+00 0. -1.
         11    1    3    3    0    0 -0.17564339660E+02 -0.20172567596E+02  0.27983970217E+02  0.38710994565E+02  0.00000000000E+00 0.  1.
         21    1    1    2  502  501 -0.43901457841E+02  0.23104339528E+02  0.10042430455E+03  0.11200977390E+03  0.00000000000E+00 0.  1.
<scales pt_clust_5="13000.00000" pt_clust_6="13000.00000" pt_clust_7="13000.00000" pt_clust_8="13000.00000" pt_clust_9="49.60996"></scales>
<clustering>
<clus scale="   49.610">  1  9  2 -1</clus>
<clus scale="   69.862">  7  8 -1 -1</clus>
<clus scale="   70.231">  1  7  2 -1</clus>
<clus scale="   79.949">  5  6 -1 -1</clus>
<clus scale="   80.272">  2  5  1 -1</clus>
</clustering>
</event>
<event>
 9    1  0.2333971E-005  0.1137991E+03  0.7546771E-02  0.1255630E+00
         -4   -1    0    0    0  501 -0.00000000000E+00  0.00000000000E+00  0.14270972940E+03  0.14270972940E+03  0.00000000000E+00 0.  1.
          3   -1    0    0  502    0  0.00000000000E+00 -0.00000000000E+00 -0.20050885881E+03  0.20050885881E+03  0.00000000000E+00 0. -1.
        -24    2    1    2    0    0 -0.92946052251E+02  0.31288331547E+02 -0.22606678234E+02  0.12921695387E+03  0.81043389289E+02 0.  0.
         23    2    1    2    0    0  0.39539949999E+02 -0.53560826048E+02 -0.84327114707E+02  0.13809056182E+03  0.86751203197E+02 0.  0.
         11    1    3    3    0    0 -0.10467378340E+03  0.39205651197E+02 -0.13983589290E+02  0.11264645927E+03  0.00000000000E+00 0. -1.
        -12    1    3    3    0    0  0.11727731150E+02 -0.79173196498E+01 -0.86230889438E+01  0.16570494600E+02  0.00000000000E+00 0.  1.
        -13    1    4    4    0    0  0.49203926469E+02 -0.28341156655E+02 -0.82712548674E+01  0.57381714837E+02  0.00000000000E+00 0.  1.
         13    1    4    4    0    0 -0.96639764696E+01 -0.25219669393E+02 -0.76055859840E+02  0.80708846984E+02  0.00000000000E+00 0. -1.
         21    1    1    2  502  501  0.53406102252E+02  0.22272494501E+02  0.49134663532E+02  0.75911072509E+02  0.00000000000E+00 0.  1.
<scales pt_clust_5="13000.00000" pt_clust_6="13000.00000" pt_clust_7="13000.00000" pt_clust_8="13000.00000" pt_clust_9="57.86429"></scales>
<clustering>
<clus scale="   57.864">  1  9  2 -1</clus>
<clus scale="   81.043">  5  6 -1 -1</clus>
<clus scale="   86.751">  7  8 -1 -1</clus>
<clus scale="  109.510">  1  5  2 -1</clus>
<clus scale="  113.799">  2  5  1 -1</clus>
</clustering>
</event>
<event>
 9    1  0.2333971E-005  0.9675499E+02  0.7546771E-02  0.1293988E+00
          1   -1    0    0  502    0  0.00000000000E+00  0.00000000000E+00  0.32473768025E+03  0.32473768025E+03  0.00000000000E+00 0. -1.
         -2   -1    0    0    0  501 -0.00000000000E+00 -0.00000000000E+00 -0.39084528752E+02  0.39084528752E+02  0.00000000000E+00 0.  1.
        -24    2    1    2    0    0 -0.12914514200E+02  0.15918662006E+02  0.70748727582E+02  0.10923907471E+03  0.80669724879E+02 0.  0.
         23    2    1    2    0    0  0.19410216585E+01 -0.33553299223E+02  0.21175377348E+03  0.23357540794E+03  0.92672645124E+02 0.  0.
         11    1    3    3    0    0  0.27214165010E+02 -0.14052037347E+02  0.40323916070E+02  0.50636831832E+02  0.00000000000E+00 0. -1.
        -12    1    3    3    0    0 -0.40128679210E+02  0.29970699353E+02  0.30424811513E+02  0.58602242878E+02  0.00000000000E+00 0.  1.
        -13    1    4    4    0    0 -0.13814821047E+02 -0.58774120006E+02  0.18096151852E+03  0.19076770599E+03  0.00000000000E+00 0. -1.
         13    1    4    4    0    0  0.15755842705E+02  0.25220820783E+02  0.30792254963E+02  0.42807701947E+02  0.00000000000E+00 0.  1.
         21    1    1    2  502  501  0.10973492541E+02  0.17634637217E+02  0.31506504290E+01  0.21007726352E+02  0.00000000000E+00 0. -1.
<scales pt_clust_5="13000.00000" pt_clust_6="13000.00000" pt_clust_7="13000.00000" pt_clust_8="13000.00000" pt_clust_9="20.77012"></scales>
<clustering>
<clus scale="   20.770">  2  9  1 -1</clus>
<clus scale="   80.670">  5  6 -1 -1</clus>
<clus scale="   85.328">  2  5  1 -1</clus>
<clus scale="   92.673">  7  8 -1 -1</clus>
<clus scale="   96.755">  1  5  2 -1</clus>
</clustering>
</event>
<event>
 9    1  0.2333971E-005  0.1334870E+03  0.7546771E-02  0.1223429E+00
         -2   -1    0    0    0  501 -0.00000000000E+00  0.00000000000E+00  0.20608046361E+03  0.20608046361E+03  0.00000000000E+00 0.  1.
          1   -1    0    0  502    0  0.00000000000E+00 -0.00000000000E+00 -0.18203756561E+03  0.18203756561E+03  0.00000000000E+00 0. -1.
         23    2    1    2    0    0  0.57539744844E+02  0.10063921990E+03  0.84522671209E+02  0.16653412267E+03  0.84560376339E+02 0.  0.
        -24    2    1    2    0    0 -0.34028367379E+02 -0.94679519327E+02 -0.10826244971E+03  0.16799764828E+03  0.79876846730E+02 0.  0.
         13    1    4    4    0    0 -0.59285782282E+02 -0.78819069165E+02 -0.84036958804E+02  0.12957414900E+03  0.00000000000E+00 0. -1.
        -14    1    4    4    0    0  0.25257414904E+02 -0.15860450162E+02 -0.24225490904E+02  0.38423499275E+02  0.00000000000E+00 0.  1.
        -13    1    3    3    0    0  0.52686646881E+02  0.66715952405E+02  0.97979073824E+02  0.12971815591E+03  0.00000000000E+00 0.  1.
         13    1    3    3    0    0  0.48530979633E+01  0.33923267495E+02 -0.13456402614E+02  0.36815966763E+02  0.00000000000E+00 0. -1.
         21    1    1    2  502  501 -0.23511377465E+02 -0.59597005727E+01  0.47782676498E+02  0.53586258263E+02  0.00000000000E+00 0.  1.
<scales pt_clust_5="13000.00000" pt_clust_6="13000.00000" pt_clust_7="13000.00000" pt_clust_8="13000.00000" pt_clust_9="24.25496"></scales>
<clustering>
<clus scale="   24.255">  1  9  2 -1</clus>
<clus scale="   79.877">  5  6 -1 -1</clus>
<clus scale="   84.560">  7  8 -1 -1</clus>
<clus scale="  130.570">  2  5  1 -1</clus>
<clus scale="  130.570">  2  5  1 -1</clus>
</clustering>
</event>
<event>
 9    1  0.2333971E-005  0.1009976E+03  0.7546771E-02  0.1281693E+00
         -2   -1    0    0    0  501 -0.00000000000E+00  0.00000000000E+00  0.46309055255E+03  0.46309055255E+03  0.00000000000E+00 0.  1.
          1   -1    0    0  502    0  0.00000000000E+00 -0.00000000000E+00 -0.58178187935E+02  0.58178187935E+02  0.00000000000E+00 0. -1.
         23    2    1    2    0    0 -0.16584654250E+02  0.39002571276E+02  0.35890379680E+03  0.37303601013E+03  0.92453654177E+02 0.  0.
        -24    2    1    2    0    0  0.40750533376E+02 -0.13163742538E+02  0.72423566011E+01  0.95749838705E+02  0.85332817806E+02 0.  0.
         11    1    4    4    0    0  0.63752233678E+02 -0.16486246505E+02  0.20534341246E+02  0.68976827944E+02  0.00000000000E+00 0. -1.
        -12    1    4    4    0    0 -0.23001700302E+02  0.33225039673E+01 -0.13291984644E+02  0.26773010761E+02  0.00000000000E+00 0.  1.
        -13    1    3    3    0    0  0.24216113788E+02  0.52490185192E+02  0.18054640442E+03  0.18957490302E+03  0.00000000000E+00 0. -1.
         13    1    3    3    0    0 -0.40800768038E+02 -0.13487613916E+02  0.17835739238E+03  0.18346110710E+03  0.00000000000E+00 0.  1.
         21    1    1    2  502  501 -0.24165879126E+02 -0.25838828738E+02  0.38766211212E+02  0.52482891653E+02  0.00000000000E+00 0.  1.
<scales pt_clust_5="13000.00000" pt_clust_6="13000.00000" pt_clust_7="13000.00000" pt_clust_8="13000.00000" pt_clust_9="35.37845"></scales>
<clustering>
<clus scale="   35.378">  2  9  1 -1</clus>
<clus scale="   85.333">  5  6 -1 -1</clus>
<clus scale="   92.454">  7  8 -1 -1</clus>
<clus scale="   94.523">  2  5  1 -1</clus>
<clus scale="   35.378">  2  5  1 -1</clus>
</clustering>
</event>
<event>
 9    1  0.2333971E-005  0.9101634E+02  0.7546771E-02  0.1304678E+00
         -2   -1    0    0    0  501 -0.00000000000E+00  0.00000000000E+00  0.18711912848E+03  0.18711912848E+03  0.00000000000E+00 0.  1.
          1   -1    0    0  502    0  0.00000000000E+00 -0.00000000000E+00 -0.88678133563E+02  0.88678133563E+02  0.00000000000E+00 0. -1.
        -24    2    1    2    0    0 -0.17264545926E+01  0.19094936418E+02  0.90795325824E+02  0.12504773597E+03  0.83818541126E+02 0.  0.
         23    2    1    2    0    0  0.89164557220E+01  0.33066917024E+01 -0.38465884751E+02  0.98982698315E+02  0.90705638653E+02 0.  0.
         13    1    3    3    0    0 -0.28308897129E+02  0.35297869132E+02  0.23692537339E+02  0.51075136295E+02  0.00000000000E+00 0. -1.
        -14    1    3    3    0    0  0.26582442537E+02 -0.16202932714E+02  0.67102788485E+02  0.73972599672E+02  0.00000000000E+00 0.  1.
        -11    1    4    4    0    0 -0.26427173791E+02 -0.10794555284E+02 -0.51397136584E+02  0.58792717129E+02  0.00000000000E+00 0. -1.
         11    1    4    4    0    0  0.35343629513E+02  0.14101246986E+02  0.12931251834E+02  0.40189981186E+02  0.00000000000E+00 0.  1.
         21    1    1    2  502  501 -0.71900011294E+01 -0.22401628120E+02  0.46111553839E+02  0.51766827758E+02  0.00000000000E+00 0. -1.
<scales pt_clust_5="13000.00000" pt_clust_6="13000.00000" pt_clust_7="13000.00000" pt_clust_8="13000.00000" pt_clust_9="23.52720"></scales>
<clustering>
<clus scale="   23.527">  1  9  2 -1</clus>
<clus scale="   83.819">  5  6 -1 -1</clus>
<clus scale="   84.155">  1  5  2 -1</clus>
<clus scale="   90.706">  7  8 -1 -1</clus>
<clus scale="   91.016">  2  5  1 -1</clus>
</clustering>
</event>
<event>
 9    1  0.2333971E-005  0.1045965E+03  0.7546771E-02  0.1274863E+00
          1   -1    0    0  502    0  0.00000000000E+00  0.00000000000E+00  0.16049298417E+02  0.16049298417E+02  0.00000000000E+00 0. -1.
         -2   -1    0    0    0  501 -0.00000000000E+00 -0.00000000000E+00 -0.81829875074E+03  0.81829875074E+03  0.00000000000E+00 0.  1.
        -24    2    1    2    0    0 -0.47936970545E+02  0.24674865849E+02 -0.35734220774E+03  0.37021496855E+03  0.80367078826E+02 0.  0.
         23    2    1    2    0    0  0.34359153036E+02 -0.46479568066E+02 -0.35551376593E+03  0.37112234901E+03  0.89447518236E+02 0.  0.
         13    1    3    3    0    0 -0.29662087988E+02  0.17390662526E+02 -0.42088891077E+02  0.54348407143E+02  0.00000000000E+00 0. -1.
        -14    1    3    3    0    0 -0.18274882557E+02  0.72842033230E+01 -0.31525331666E+03  0.31586656141E+03  0.00000000000E+00 0.  1.
        -11    1    4    4    0    0  0.28202747849E+02  0.19685367987E+02 -0.70201452299E+02  0.78173861385E+02  0.00000000000E+00 0. -1.
         11    1    4    4    0    0  0.61564051875E+01 -0.66164936053E+02 -0.28531231364E+03  0.29294848762E+03  0.00000000000E+00 0.  1.
         21    1    1    2  502  501  0.13577817509E+02  0.21804702217E+02 -0.89393478654E+02  0.93010731601E+02  0.00000000000E+00 0. -1.
<scales pt_clust_5="13000.00000" pt_clust_6="13000.00000" pt_clust_7="13000.00000" pt_clust_8="13000.00000" pt_clust_9="25.68661"></scales>
<clustering>
<clus scale="   25.687">  1  9  2 -1</clus>
<clus scale="   80.367">  5  6 -1 -1</clus>
<clus scale="   89.448">  7  8 -1 -1</clus>
<clus scale="   96.946">  2  5  1 -1</clus>
<clus scale="   25.687">  1  5  2 -1</clus>
</clustering>
</event>
<event>
 9    1  0.2333971E-005  0.9417633E+02  0.7546771E-02  0.1298905E+00
         -4   -1    0    0    0  501 -0.00000000000E+00  0.00000000000E+00  0.34352180866E+03  0.34352180866E+03  0.00000000000E+00 0.  1.
          3   -1    0    0  502    0  0.00000000000E+00 -0.00000000000E+00 -0.42063185091E+02  0.42063185091E+02  0.00000000000E+00 0. -1.
        -24    2    1    2    0    0  0.17918642271E+02 -0.35055208417E+02  0.12624393210E+03  0.15471750701E+03  0.80312086301E+02 0.  0.
         23    2    1    2    0    0 -0.22178877292E+02  0.48684377541E+01  0.58185440396E+02  0.10993264340E+03  0.90465663805E+02 0.  0.
         11    1    3    3    0    0 -0.17570941366E+02 -0.18701047027E+02  0.10904500531E+03  0.11202357039E+03  0.00000000000E+00 0. -1.
        -12    1    3    3    0    0  0.35489583638E+02 -0.16354161390E+02  0.17198926794E+02  0.42693936623E+02  0.00000000000E+00 0.  1.
        -11    1    4    4    0    0 -0.32680918812E+02  0.42749856768E+02  0.30520745074E+02  0.61863628958E+02  0.00000000000E+00 0.  1.
         11    1    4    4    0    0  0.10502041520E+02 -0.37881419013E+02  0.27664695322E+02  0.48069014446E+02  0.00000000000E+00 0. -1.
         21    1    1    2  502  501  0.42602350205E+01  0.30186770663E+02  0.11702925107E+03  0.12093484333E+03  0.00000000000E+00 0. -1.
<scales pt_clust_5="13000.00000" pt_clust_6="13000.00000" pt_clust_7="13000.00000" pt_clust_8="13000.00000" pt_clust_9="30.48591"></scales>
<clustering>
<clus scale="   30.486">  1  9  2 -1</clus>
<clus scale="   80.312">  5  6 -1 -1</clus>
<clus scale="   84.470">  1  5  2 -1</clus>
<clus scale="   90.466">  7  8 -1 -1</clus>
<clus scale="   94.176">  2  5  1 -1</clus>
</clustering>
</event>
<event>
 9    1  0.2333971E-005  0.1003734E+03  0.7546771E-02  0.1285328E+00
          1   -1    0    0  502    0  0.00000000000E+00  0.00000000000E+00  0.12342688132E+03  0.12342688132E+03  0.00000000000E+00 0. -1.
         -2   -1    0    0    0  501 -0.00000000000E+00 -0.00000000000E+00 -0.21887533995E+03  0.21887533995E+03  0.00000000000E+00 0.  1.
        -24    2    1    2    0    0  0.10158044902E+02 -0.12552295077E+02 -0.15162980099E+03  0.17257303493E+03  0.80802907427E+02 0.  0.
         23    2    1    2    0    0 -0.15137435509E+02  0.40244101075E+02  0.82606445344E+02  0.13112974959E+03  0.92317153280E+02 0.  0.
         13    1    3    3    0    0  0.17971813726E+00  0.23580825635E+02 -0.92325492059E+01  0.25324446708E+02  0.00000000000E+00 0. -1.
        -14    1    3    3    0    0  0.99783267650E+01 -0.36133120713E+02 -0.14239725179E+03  0.14724858822E+03  0.00000000000E+00 0.  1.
        -11    1    4    4    0    0  0.23187713562E+02 -0.19078749705E+02  0.34176762255E+02  0.45494173570E+02  0.00000000000E+00 0.  1.
         11    1    4    4    0    0 -0.38325149071E+02  0.59322850780E+02  0.48429683089E+02  0.85635576019E+02  0.00000000000E+00 0. -1.
         21    1    1    2  502  501  0.49793906065E+01 -0.27691805998E+02 -0.26425102981E+02  0.38599436755E+02  0.00000000000E+00 0.  1.
<scales pt_clust_5="13000.00000" pt_clust_6="13000.00000" pt_clust_7="13000.00000" pt_clust_8="13000.00000" pt_clust_9="28.13593"></scales>
<clustering>
<clus scale="   28.136">  2  9  1 -1</clus>
<clus scale="   80.803">  5  6 -1 -1</clus>
<clus scale="   89.897">  2  5  1 -1</clus>
<clus scale="   92.317">  7  8 -1 -1</clus>
<clus scale="  100.373">  1  5  2 -1</clus>
</clustering>
</event>
<event>
 9    1  0.2333971E-005  0.2091067E+03  0.7546771E-02  0.1145180E+00
          1   -1    0    0  502    0  0.00000000000E+00  0.00000000000E+00  0.29506293844E+03  0.29506293844E+03  0.00000000000E+00 0. -1.
         -2   -1    0    0    0  501 -0.00000000000E+00 -0.00000000000E+00 -0.18113640809E+03  0.18113640809E+03  0.00000000000E+00 0.  1.
         23    2    1    2    0    0  0.13605437343E+03  0.12671260446E+03 -0.13929774147E+02  0.21633785853E+03  0.10973219112E+03 0.  0.
        -24    2    1    2    0    0 -0.14323990036E+03 -0.86898424589E+02  0.10932236010E+03  0.21536083843E+03  0.79749025473E+02 0.  0.
         13    1    4    4    0    0  0.20551074058E+01 -0.28999726269E+02  0.14988147869E+02  0.32708594691E+02  0.00000000000E+00 0. -1.
        -14    1    4    4    0    0 -0.14529500776E+03 -0.57898698320E+02  0.94334212226E+02  0.18265224374E+03  0.00000000000E+00 0.  1.
        -13    1    3    3    0    0  0.18771125271E+02  0.83278450568E+02  0.18030893553E+02  0.87251181054E+02  0.00000000000E+00 0. -1.
         13    1    3    3    0    0  0.11728324816E+03  0.43434153895E+02 -0.31960667699E+02  0.12908667748E+03  0.00000000000E+00 0.  1.
         21    1    1    2  502  501  0.71855269291E+01 -0.39814179874E+02  0.18533944410E+02  0.44500649565E+02  0.00000000000E+00 0.  1.
<scales pt_clust_5="13000.00000" pt_clust_6="13000.00000" pt_clust_7="13000.00000" pt_clust_8="13000.00000" pt_clust_9="40.45739"></scales>
<clustering>
<clus scale="   40.457">  1  9  2 -1</clus>
<clus scale="   79.749">  5  6 -1 -1</clus>
<clus scale="  109.732">  7  8 -1 -1</clus>
<clus scale="  195.050">  1  5  2 -1</clus>
<clus scale="   40.457">  1  5  2 -1</clus>
</clustering>
</event>
<event>
 9    1  0.2333971E-005  0.9428536E+02  0.7546771E-02  0.1298855E+00
         -2   -1    0    0    0  501 -0.00000000000E+00  0.00000000000E+00  0.30168916034E+02  0.30168916034E+02  0.00000000000E+00 0.  1.
          1   -1    0    0  502    0  0.00000000000E+00 -0.00000000000E+00 -0.57417270147E+03  0.57417270147E+03  0.00000000000E+00 0. -1.
        -24    2    1    2    0    0 -0.20350157017E+02 -0.31242541757E+01 -0.55993214676E+02  0.99589152922E+02  0.79742519619E+02 0.  0.
         23    2    1    2    0    0  0.22312239502E+02 -0.20461775662E+02 -0.45009661140E+03  0.46005773463E+03  0.90275352687E+02 0.  0.
         11    1    3    3    0    0  0.22519895971E+02  0.11331222983E+02 -0.47186056740E+02  0.53498282958E+02  0.00000000000E+00 0. -1.
        -12    1    3    3    0    0 -0.42870052988E+02 -0.14455477159E+02 -0.88071579368E+01  0.46090869964E+02  0.00000000000E+00 0.  1.
        -13    1    4    4    0    0 -0.34612659015E+02  0.32699816042E+00 -0.16386777478E+03  0.16748370280E+03  0.00000000000E+00 0.  1.
         13    1    4    4    0    0  0.56924898516E+02 -0.20788773822E+02 -0.28622883663E+03  0.29257403184E+03  0.00000000000E+00 0. -1.
         21    1    1    2  502  501 -0.19620824847E+01  0.23586029837E+02 -0.37913959354E+02  0.44694729947E+02  0.00000000000E+00 0. -1.
<scales pt_clust_5="13000.00000" pt_clust_6="13000.00000" pt_clust_7="13000.00000" pt_clust_8="13000.00000" pt_clust_9="23.66750"></scales>
<clustering>
<clus scale="   23.668">  1  9  2 -1</clus>
<clus scale="   79.743">  5  6 -1 -1</clus>
<clus scale="   84.255">  1  5  2 -1</clus>
<clus scale="   90.275">  7  8 -1 -1</clus>
<clus scale="   94.285">  2  5  1 -1</clus>
</clustering>
</event>
<event>
 9    1  0.2333971E-005  0.2299079E+03  0.7546771E-02  0.1127256E+00
         -2   -1    0    0    0  501 -0.00000000000E+00  0.00000000000E+00  0.21063555911E+03  0.21063555911E+03  0.00000000000E+00 0.  1.
          1   -1    0    0  502    0  0.00000000000E+00 -0.00000000000E+00 -0.10924053196E+04  0.10924053196E+04  0.00000000000E+00 0. -1.
         23    2    1    2    0    0 -0.17735334793E+03  0.12831294000E+03 -0.32328662885E+03  0.40050664445E+03  0.89291137650E+02 0.  0.
        -24    2    1    2    0    0  0.18207402394E+03 -0.10288781842E+03 -0.71219251824E+03  0.74666474689E+03  0.80951885911E+02 0.  0.
         13    1    4    4    0    0  0.11505995554E+03 -0.74543199563E+02 -0.57776993075E+03  0.59381274393E+03  0.00000000000E+00 0. -1.
        -14    1    4    4    0    0  0.67014068399E+02 -0.28344618852E+02 -0.13442258749E+03  0.15285200296E+03  0.00000000000E+00 0.  1.
        -13    1    3    3    0    0 -0.10758954349E+03  0.31313653044E+02 -0.19711930989E+03  0.22674231424E+03  0.00000000000E+00 0. -1.
         13    1    3    3    0    0 -0.69763804440E+02  0.96999286959E+02 -0.12616731896E+03  0.17376433021E+03  0.00000000000E+00 0.  1.
         21    1    1    2  502  501 -0.47206760051E+01 -0.25425121588E+02  0.15370938656E+03  0.15586948742E+03  0.00000000000E+00 0.  1.
<scales pt_clust_5="13000.00000" pt_clust_6="13000.00000" pt_clust_7="13000.00000" pt_clust_8="13000.00000" pt_clust_9="25.85965"></scales>
<clustering>
<clus scale="   25.860">  1  9  2 -1</clus>
<clus scale="   80.952">  5  6 -1 -1</clus>
<clus scale="   89.291">  7  8 -1 -1</clus>
<clus scale="  226.799">  2  5  1 -1</clus>
<clus scale="  226.799">  2  5  1 -1</clus>
</clustering>
</event>
<event>
 9    1  0.5893460E-005  0.2167701E+03  0.7546771E-02  0.1137151E+00
          1   -1    0    0  502    0  0.00000000000E+00  0.00000000000E+00  0.77544501466E+03  0.77544501466E+03  0.00000000000E+00 0. -1.
         -2   -1    0    0    0  501 -0.00000000000E+00 -0.00000000000E+00 -0.37844699330E+03  0.37844699330E+03  0.00000000000E+00 0.  1.
        -24    2    1    2    0    0 -0.14910372431E+03  0.95472469510E+02 -0.32178629150E+03  0.37602120821E+03  0.80614009905E+02 0.  0.
         23    2    1    2    0    0  0.15432596746E+03 -0.12319534594E+03  0.71733817564E+03  0.74962330403E+03  0.91473724181E+02 0.  0.
         11    1    3    3    0    0 -0.44170165548E+02  0.74774746739E+02 -0.16059512307E+03  0.18257343681E+03  0.00000000000E+00 0. -1.
        -12    1    3    3    0    0 -0.10493355876E+03  0.20697722771E+02 -0.16119116843E+03  0.19344777141E+03  0.00000000000E+00 0.  1.
        -11    1    4    4    0    0  0.64807046304E+02 -0.66367814911E+02  0.18645730162E+03  0.20825696971E+03  0.00000000000E+00 0.  1.
         11    1    4    4    0    0  0.89518921160E+02 -0.56827531033E+02  0.53088087402E+03  0.54136633432E+03  0.00000000000E+00 0. -1.
         21    1    1    2  502  501 -0.52222431556E+01  0.27722876434E+02  0.14461372141E+01  0.28247495716E+02  0.00000000000E+00 0. -1.
<scales pt_clust_5="13000.00000" pt_clust_6="13000.00000" pt_clust_7="13000.00000" pt_clust_8="13000.00000" pt_clust_9="28.21045"></scales>
<clustering>
<clus scale="   28.210">  2  9  1 -1</clus>
<clus scale="   80.614">  5  6 -1 -1</clus>
<clus scale="   91.474">  7  8 -1 -1</clus>
<clus scale="  212.416">  2  5  1 -1</clus>
<clus scale="  216.770">  1  5  2 -1</clus>
</clustering>
</event>
<event>
 9    1  0.2333971E-005  0.1297515E+03  0.7546771E-02  0.1230596E+00
          1   -1    0    0  502    0  0.00000000000E+00  0.00000000000E+00  0.14063278071E+03  0.14063278071E+03  0.00000000000E+00 0. -1.
         -2   -1    0    0    0  501 -0.00000000000E+00 -0.00000000000E+00 -0.46840149027E+03  0.46840149027E+03  0.00000000000E+00 0.  1.
        -24    2    1    2    0    0  0.59597633215E+02 -0.49255544431E+02 -0.36319221248E+03  0.38471814788E+03  0.10060558416E+03 0.  0.
         23    2    1    2    0    0 -0.11764591565E+03  0.56068470016E+02  0.44625242568E+02  0.16514948502E+03  0.91097230090E+02 0.  0.
         13    1    3    3    0    0  0.45407215579E+01  0.27972757597E+02 -0.12846300367E+03  0.13155165005E+03  0.00000000000E+00 0. -1.
        -14    1    3    3    0    0  0.55056911657E+02 -0.77228302029E+02 -0.23472920881E+03  0.25316649783E+03  0.00000000000E+00 0.  1.
        -13    1    4    4    0    0 -0.41009548885E+02  0.33063068600E+02 -0.25708893587E+02  0.58616523391E+02  0.00000000000E+00 0.  1.
         13    1    4    4    0    0 -0.76636366765E+02  0.23005401416E+02  0.70334136156E+02  0.10653296163E+03  0.00000000000E+00 0. -1.
         21    1    1    2  502  501  0.58048282435E+02 -0.68129255847E+01 -0.92017396575E+01  0.59166638078E+02  0.00000000000E+00 0.  1.
<scales pt_clust_5="13000.00000" pt_clust_6="13000.00000" pt_clust_7="13000.00000" pt_clust_8="13000.00000" pt_clust_9="58.44672"></scales>
<clustering>
<clus scale="   58.447">  1  9  2 -1</clus>
<clus scale="   91.097">  7  8 -1 -1</clus>
<clus scale="  100.606">  5  6 -1 -1</clus>
<clus scale="  122.526">  1  7  2 -1</clus>
<clus scale="   58.447">  1  5  2 -1</clus>
</clustering>
</event>
<event>
 9    1  0.2333971E-005  0.1295766E+03  0.7546771E-02  0.1237346E+00
         -2   -1    0    0    0  501 -0.00000000000E+00  0.00000000000E+00  0.89504633828E+03  0.89504633828E+03  0.00000000000E+00 0.  1.
          1   -1    0    0  502    0  0.00000000000E+00 -0.00000000000E+00 -0.53729795574E+02  0.53729795574E+02  0.00000000000E+00 0. -1.
        -24    2    1    2    0    0  0.13771643174E+02  0.69500486885E+02  0.69319122889E+03  0.70169685142E+03  0.82730983603E+02 0.  0.
         23    2    1    2    0    0 -0.50179975419E+02 -0.29410761520E+02  0.48674903984E+02  0.13383999264E+03  0.11027635525E+03 0.  0.
         13    1    3    3    0    0 -0.11774766794E+02  0.63000390953E+02  0.26292223031E+03  0.27062112554E+03  0.00000000000E+00 0. -1.
        -14    1    3    3    0    0  0.25546409968E+02  0.65000959322E+01  0.43026899858E+03  0.43107572588E+03  0.00000000000E+00 0.  1.
        -11    1    4    4    0    0 -0.15318170022E+02 -0.69151879451E+02  0.19520953580E+02  0.73469016552E+02  0.00000000000E+00 0.  1.
         11    1    4    4    0    0 -0.34861805397E+02  0.39741117931E+02  0.29153950404E+02  0.60370976091E+02  0.00000000000E+00 0. -1.
         21    1    1    2  502  501  0.36408332245E+02 -0.40089725366E+02  0.99450409828E+02  0.11323928979E+03  0.00000000000E+00 0.  1.
<scales pt_clust_5="13000.00000" pt_clust_6="13000.00000" pt_clust_7="13000.00000" pt_clust_8="13000.00000" pt_clust_9="54.15490"></scales>
<clustering>
<clus scale="   54.155">  2  9  1 -1</clus>
<clus scale="   82.731">  5  6 -1 -1</clus>
<clus scale="  107.115">  1  5  2 -1</clus>
<clus scale="  110.276">  7  8 -1 -1</clus>
<clus scale="   54.155">  2  5  1 -1</clus>
</clustering>
</event>
<event>
 9    1  0.2333971E-005  0.9841851E+02  0.7546771E-02  0.1289094E+00
         -2   -1    0    0    0  501 -0.00000000000E+00  0.00000000000E+00  0.12612814323E+03  0.12612814323E+03  0.00000000000E+00 0.  1.
          1   -1    0    0  502    0  0.00000000000E+00 -0.00000000000E+00 -0.49829109881E+03  0.49829109881E+03  0.00000000000E+00 0. -1.
        -24    2    1    2    0    0  0.36373518895E+02  0.52616392594E+00  0.84784191232E+02  0.12211694421E+03  0.80005495157E+02 0.  0.
         23    2    1    2    0    0 -0.89620996946E+02 -0.27627811915E+01 -0.41605344966E+03  0.43512647746E+03  0.90526362777E+02 0.  0.
         11    1    3    3    0    0  0.35557056714E+02  0.14953279042E+02  0.25878410492E+01  0.38660079638E+02  0.00000000000E+00 0. -1.
        -12    1    3    3    0    0  0.81646218076E+00 -0.14427115116E+02  0.82196350183E+02  0.83456864573E+02  0.00000000000E+00 0.  1.
        -13    1    4    4    0    0 -0.58437975556E+02  0.38982980726E+02 -0.29655996136E+03  0.30476627185E+03  0.00000000000E+00 0. -1.
         13    1    4    4    0    0 -0.31183021390E+02 -0.41745761917E+02 -0.11949348830E+03  0.13036020562E+03  0.00000000000E+00 0.  1.
         21    1    1    2  502  501  0.53247478051E+02  0.22366172656E+01 -0.40893697142E+02  0.67175820364E+02  0.00000000000E+00 0. -1.
<scales pt_clust_5="13000.00000" pt_clust_6="13000.00000" pt_clust_7="13000.00000" pt_clust_8="13000.00000" pt_clust_9="53.29443"></scales>
<clustering>
<clus scale="   53.294">  2  9  1 -1</clus>
<clus scale="   80.005">  5  6 -1 -1</clus>
<clus scale="   88.837">  1  5  2 -1</clus>
<clus scale="   90.526">  7  8 -1 -1</clus>
<clus scale="   53.294">  2  5  1 -1</clus>
</clustering>
</event>
<event>
 9    1  0.2333971E-005  0.9891301E+02  0.7546771E-02  0.1287355E+00
         -2   -1    0    0    0  501 -0.00000000000E+00  0.00000000000E+00  0.21633803227E+03  0.21633803227E+03  0.00000000000E+00 0.  1.
          1   -1    0    0  502    0  0.00000000000E+00 -0.00000000000E+00 -0.29325240599E+03  0.29325240599E+03  0.00000000000E+00 0. -1.
        -24    2    1    2    0    0  0.23671599338E+02  0.98086384671E+01  0.18200556245E+03  0.20116023523E+03  0.81748770455E+02 0.  0.
         23    2    1    2    0    0 -0.34590347012E+02  0.19522945654E+02 -0.25871418130E+03  0.27713158944E+03  0.91056316339E+02 0.  0.
         11    1    3    3    0    0 -0.13494404336E+02  0.37086385310E+02  0.79038383257E+02  0.88343448833E+02  0.00000000000E+00 0. -1.
        -12    1    3    3    0    0  0.37166003674E+02 -0.27277746843E+02  0.10296717920E+03  0.11281678640E+03  0.00000000000E+00 0.  1.
        -11    1    4    4    0    0 -0.95160744904E+01 -0.28444483030E+02 -0.17425354034E+03  0.17681612090E+03  0.00000000000E+00 0. -1.
         11    1    4    4    0    0 -0.25074272522E+02  0.47967428684E+02 -0.84460640964E+02  0.10031546854E+03  0.00000000000E+00 0.  1.
         21    1    1    2  502  501  0.10918747674E+02 -0.29331584121E+02 -0.20575486988E+00  0.31298613594E+02  0.00000000000E+00 0. -1.
<scales pt_clust_5="13000.00000" pt_clust_6="13000.00000" pt_clust_7="13000.00000" pt_clust_8="13000.00000" pt_clust_9="31.29794"></scales>
<clustering>
<clus scale="   31.298">  1  9  2 -1</clus>
<clus scale="   81.749">  5  6 -1 -1</clus>
<clus scale="   90.418">  1  5  2 -1</clus>
<clus scale="   91.056">  7  8 -1 -1</clus>
<clus scale="   98.913">  2  5  1 -1</clus>
</clustering>
</event>
<event>
 9    1  0.2333971E-005  0.9993817E+02  0.7546771E-02  0.1285717E+00
          1   -1    0    0  502    0  0.00000000000E+00  0.00000000000E+00  0.70736192063E+03  0.70736192063E+03  0.00000000000E+00 0. -1.
         -2   -1    0    0    0  501 -0.00000000000E+00 -0.00000000000E+00 -0.32367828756E+02  0.32367828756E+02  0.00000000000E+00 0.  1.
         23    2    1    2    0    0  0.60062885394E+02  0.35164591945E+02  0.12389380969E+03  0.16930720028E+03  0.92038868188E+02 0.  0.
        -24    2    1    2    0    0 -0.23276682644E+02 -0.24785019117E+02  0.49310194222E+03  0.50096200144E+03  0.81592281085E+02 0.  0.
         13    1    4    4    0    0  0.13372373750E+02 -0.44176265518E+02  0.22648353182E+03  0.23113881759E+03  0.00000000000E+00 0. -1.
        -14    1    4    4    0    0 -0.36649056394E+02  0.19391246401E+02  0.26661841041E+03  0.26982318384E+03  0.00000000000E+00 0.  1.
        -13    1    3    3    0    0  0.44399859341E+02 -0.21395754121E+02  0.27463432115E+02  0.56421324935E+02  0.00000000000E+00 0.  1.
         13    1    3    3    0    0  0.15663026053E+02  0.56560346066E+02  0.96430377575E+02  0.11288587534E+03  0.00000000000E+00 0. -1.
         21    1    1    2  502  501 -0.36786202750E+02 -0.10379572828E+02  0.57998339965E+02  0.69460547677E+02  0.00000000000E+00 0.  1.
<scales pt_clust_5="13000.00000" pt_clust_6="13000.00000" pt_clust_7="13000.00000" pt_clust_8="13000.00000" pt_clust_9="38.22251"></scales>
<clustering>
<clus scale="   38.223">  2  9  1 -1</clus>
<clus scale="   81.592">  5  6 -1 -1</clus>
<clus scale="   90.409">  1  5  2 -1</clus>
<clus scale="   92.039">  7  8 -1 -1</clus>
<clus scale="   90.409">  1  5  2 -1</clus>
</clustering>
</event>
<event>
 9    1  0.2333971E-005  0.1110976E+03  0.7546771E-02  0.1263553E+00
          1   -1    0    0  502    0  0.00000000000E+00  0.00000000000E+00  0.38562392449E+03  0.38562392449E+03  0.00000000000E+00 0. -1.
         -2   -1    0    0    0  501 -0.00000000000E+00 -0.00000000000E+00 -0.42287445892E+02  0.42287445892E+02  0.00000000000E+00 0.  1.
        -24    2    1    2    0    0 -0.58607812183E+02 -0.47489159907E+02  0.12843168198E+03  0.16851311069E+03  0.78815452665E+02 0.  0.
         23    2    1    2    0    0  0.54603681741E+02  0.13127621049E+02  0.18341547236E+03  0.21261871336E+03  0.91714694979E+02 0.  0.
         13    1    3    3    0    0  0.15256930600E+02 -0.21613695196E+02  0.55728422930E+02  0.61689406494E+02  0.00000000000E+00 0. -1.
        -14    1    3    3    0    0 -0.73864742784E+02 -0.25875464711E+02  0.72703259053E+02  0.10682370419E+03  0.00000000000E+00 0.  1.
        -11    1    4    4    0    0  0.49254015523E+01  0.39076362202E+02  0.30680744729E+02  0.49925241717E+02  0.00000000000E+00 0. -1.
         11    1    4    4    0    0  0.49678280188E+02 -0.25948741154E+02  0.15273472764E+03  0.16269347165E+03  0.00000000000E+00 0.  1.
         21    1    1    2  502  501  0.40041304425E+01  0.34361538858E+02  0.31489324248E+02  0.46779546331E+02  0.00000000000E+00 0.  1.
<scales pt_clust_5="13000.00000" pt_clust_6="13000.00000" pt_clust_7="13000.00000" pt_clust_8="13000.00000" pt_clust_9="34.59405"></scales>
<clustering>
<clus scale="   34.594">  2  9  1 -1</clus>
<clus scale="   78.815">  5  6 -1 -1</clus>
<clus scale="   91.715">  7  8 -1 -1</clus>
<clus scale="  100.712">  2  5  1 -1</clus>
<clus scale="  111.098">  1  5  2 -1</clus>
</clustering>
</event>
<event>
 9    1  0.2333971E-005  0.1389340E+03  0.7546771E-02  0.1217271E+00
         -2   -1    0    0    0  501 -0.00000000000E+00  0.00000000000E+00  0.26081363210E+03  0.26081363210E+03  0.00000000000E+00 0.  1.
          1   -1    0    0  502    0  0.00000000000E+00 -0.00000000000E+00 -0.50264960080E+03  0.50264960080E+03  0.00000000000E+00 0. -1.
        -24    2    1    2    0    0  0.50297875116E+02 -0.30315013697E+02  0.16495388755E+03  0.19270056965E+03  0.80466441620E+02 0.  0.
         23    2    1    2    0    0 -0.10598579862E+03  0.16565208465E+02 -0.46684740121E+03  0.48771381815E+03  0.91710832280E+02 0.  0.
         11    1    3    3    0    0  0.25480147501E+02  0.18308100636E+02  0.18547464606E+02  0.36447673573E+02  0.00000000000E+00 0. -1.
        -12    1    3    3    0    0  0.24817727615E+02 -0.48623114334E+02  0.14640642295E+03  0.15625289607E+03  0.00000000000E+00 0.  1.
        -11    1    4    4    0    0 -0.23115049990E+02  0.58937581027E+01 -0.14939874246E+02  0.28146789570E+02  0.00000000000E+00 0.  1.
         11    1    4    4    0    0 -0.82870748627E+02  0.10671450363E+02 -0.45190752696E+03  0.45956702858E+03  0.00000000000E+00 0. -1.
         21    1    1    2  502  501  0.55687923501E+02  0.13749805232E+02  0.60057544950E+02  0.83048845104E+02  0.00000000000E+00 0. -1.
<scales pt_clust_5="13000.00000" pt_clust_6="13000.00000" pt_clust_7="13000.00000" pt_clust_8="13000.00000" pt_clust_9="57.36028"></scales>
<clustering>
<clus scale="   57.360">  1  9  2 -1</clus>
<clus scale="   80.466">  5  6 -1 -1</clus>
<clus scale="   91.711">  7  8 -1 -1</clus>
<clus scale="  131.783">  1  5  2 -1</clus>
<clus scale="  138.934">  2  5  1 -1</clus>
</clustering>
</event>
<event>
 9    1  0.2333971E-005  0.9683177E+02  0.7546771E-02  0.1293512E+00
          1   -1    0    0  502    0  0.00000000000E+00  0.00000000000E+00  0.57987965965E+03  0.57987965965E+03  0.00000000000E+00 0. -1.
         -2   -1    0    0    0  501 -0.00000000000E+00 -0.00000000000E+00 -0.26179998783E+02  0.26179998783E+02  0.00000000000E+00 0.  1.
         23    2    1    2    0    0  0.13276954009E+01  0.35322544162E+02  0.99510206255E+02  0.13999492683E+03  0.91906765196E+02 0.  0.
        -24    2    1    2    0    0 -0.31547914289E+01 -0.14295704076E+02  0.39153896470E+03  0.39995459494E+03  0.80290704732E+02 0.  0.
         11    1    4    4    0    0 -0.11699925841E+02 -0.44039262007E+02  0.16018448217E+03  0.16653952441E+03  0.00000000000E+00 0. -1.
        -12    1    4    4    0    0  0.85451344122E+01  0.29743557932E+02  0.23135448254E+03  0.23341507053E+03  0.00000000000E+00 0.  1.
        -13    1    3    3    0    0 -0.21879020981E+02  0.59677494106E+02  0.54015309139E+02  0.83413119371E+02  0.00000000000E+00 0.  1.
         13    1    3    3    0    0  0.23206716382E+02 -0.24354949944E+02  0.45494897117E+02  0.56581807462E+02  0.00000000000E+00 0. -1.
         21    1    1    2  502  501  0.18270960280E+01 -0.21026840086E+02  0.62650489902E+02  0.66110136658E+02  0.00000000000E+00 0. -1.
<scales pt_clust_5="13000.00000" pt_clust_6="13000.00000" pt_clust_7="13000.00000" pt_clust_8="13000.00000" pt_clust_9="21.10607"></scales>
<clustering>
<clus scale="   21.106">  1  9  2 -1</clus>
<clus scale="   80.291">  5  6 -1 -1</clus>
<clus scale="   85.884">  1  5  2 -1</clus>
<clus scale="   91.907">  7  8 -1 -1</clus>
<clus scale="   21.106">  1  5  2 -1</clus>
</clustering>
</event>
<event>
 9    1  0.2333971E-005  0.1641231E+03  0.7546771E-02  0.1184940E+00
         -2   -1    0    0    0  501 -0.00000000000E+00  0.00000000000E+00  0.42563166955E+03  0.42563166955E+03  0.00000000000E+00 0.  1.
          1   -1    0    0  502    0  0.00000000000E+00 -0.00000000000E+00 -0.89679279049E+02  0.89679279049E+02  0.00000000000E+00 0. -1.
        -24    2    1    2    0    0 -0.66390660469E+01 -0.14200678648E+03  0.17107032537E+03  0.23821081558E+03  0.85260376694E+02 0.  0.
         23    2    1    2    0    0 -0.27691709163E+02  0.13224352794E+03  0.72731383850E+02  0.17827872134E+03  0.90764898776E+02 0.  0.
         11    1    3    3    0    0 -0.34855972354E+02 -0.85348934202E+02  0.14018204729E+03  0.16778076696E+03  0.00000000000E+00 0. -1.
        -12    1    3    3    0    0  0.28216906307E+02 -0.56657852280E+02  0.30888278073E+02  0.70430048622E+02  0.00000000000E+00 0.  1.
        -13    1    4    4    0    0 -0.60579066565E+02  0.98578299797E+02  0.51464743719E+02  0.12663381990E+03  0.00000000000E+00 0. -1.
         13    1    4    4    0    0  0.32887357402E+02  0.33665228138E+02  0.21266640130E+02  0.51644901441E+02  0.00000000000E+00 0.  1.
         21    1    1    2  502  501  0.34330775210E+02  0.97632585470E+01  0.92150681287E+02  0.98821411676E+02  0.00000000000E+00 0.  1.
<scales pt_clust_5="13000.00000" pt_clust_6="13000.00000" pt_clust_7="13000.00000" pt_clust_8="13000.00000" pt_clust_9="35.69206"></scales>
<clustering>
<clus scale="   35.692">  1  9  2 -1</clus>
<clus scale="   85.260">  5  6 -1 -1</clus>
<clus scale="   90.765">  7  8 -1 -1</clus>
<clus scale="  161.144">  1  5  2 -1</clus>
<clus scale="  164.123">  2  5  1 -1</clus>
</clustering>
</event>
<event>
 9    1  0.2333971E-005  0.9721581E+02  0.7546771E-02  0.1290888E+00
         -2   -1    0    0    0  501 -0.00000000000E+00  0.00000000000E+00  0.71108257314E+02  0.71108257314E+02  0.00000000000E+00 0.  1.
          1   -1    0    0  502    0  0.00000000000E+00 -0.00000000000E+00 -0.53538254985E+03  0.53538254985E+03  0.00000000000E+00 0. -1.
        -24    2    1    2    0    0 -0.52671921400E+02 -0.34916334525E+02 -0.59058576273E+02  0.11780813144E+03  0.79983490054E+02 0.  0.
         23    2    1    2    0    0  0.25692540217E+02  0.24119693049E+02 -0.43599058305E+03  0.44635600680E+03  0.88904612268E+02 0.  0.
         11    1    3    3    0    0 -0.92165730060E+01 -0.48450118013E+02 -0.52142044883E+02  0.71771526373E+02  0.00000000000E+00 0. -1.
        -12    1    3    3    0    0 -0.43455348394E+02  0.13533783487E+02 -0.69165313905E+01  0.46036605066E+02  0.00000000000E+00 0.  1.
        -13    1    4    4    0    0  0.29718034392E+02 -0.29412203090E+02 -0.17903128178E+03  0.18384895734E+03  0.00000000000E+00 0.  1.
         13    1    4    4    0    0 -0.40254941756E+01  0.53531896139E+02 -0.25695930127E+03  0.26250704946E+03  0.00000000000E+00 0. -1.
         21    1    1    2  502  501  0.26979381183E+02  0.10796641477E+02  0.30774866789E+02  0.42326668923E+02  0.00000000000E+00 0.  1.
<scales pt_clust_5="13000.00000" pt_clust_6="13000.00000" pt_clust_7="13000.00000" pt_clust_8="13000.00000" pt_clust_9="29.05950"></scales>
<clustering>
<clus scale="   29.059">  1  9  2 -1</clus>
<clus scale="   79.983">  5  6 -1 -1</clus>
<clus scale="   88.905">  7  8 -1 -1</clus>
<clus scale="   89.130">  1  5  2 -1</clus>
<clus scale="   97.216">  2  5  1 -1</clus>
</clustering>
</event>
<event>
 9    1  0.2333971E-005  0.1026377E+03  0.7546771E-02  0.1279662E+00
         -2   -1    0    0    0  501 -0.00000000000E+00  0.00000000000E+00  0.23295201193E+03  0.23295201193E+03  0.00000000000E+00 0.  1.
          1   -1    0    0  502    0  0.00000000000E+00 -0.00000000000E+00 -0.13515282254E+03  0.13515282254E+03  0.00000000000E+00 0. -1.
        -24    2    1    2    0    0 -0.23178117540E+02  0.36988262672E+01  0.16919183244E+03  0.18877681864E+03  0.80373531962E+02 0.  0.
         23    2    1    2    0    0  0.36959116007E+02 -0.36269078972E+02 -0.91303910605E+02  0.13874235513E+03  0.90728246259E+02 0.  0.
         13    1    3    3    0    0  0.16783076537E+02  0.14995452595E+02  0.10673014942E+02  0.24908803756E+02  0.00000000000E+00 0. -1.
        -14    1    3    3    0    0 -0.39961194077E+02 -0.11296626328E+02  0.15851881750E+03  0.16386801488E+03  0.00000000000E+00 0.  1.
        -13    1    4    4    0    0 -0.53747299548E+01  0.27002190002E+02 -0.16965765101E+02  0.32339498642E+02  0.00000000000E+00 0.  1.
         13    1    4    4    0    0  0.42333845962E+02 -0.63271268974E+02 -0.74338145504E+02  0.10640285649E+03  0.00000000000E+00 0. -1.
         21    1    1    2  502  501 -0.13780998468E+02  0.32570252705E+02  0.19911267549E+02  0.40585660712E+02  0.00000000000E+00 0.  1.
<scales pt_clust_5="13000.00000" pt_clust_6="13000.00000" pt_clust_7="13000.00000" pt_clust_8="13000.00000" pt_clust_9="35.36576"></scales>
<clustering>
<clus scale="   35.366">  1  9  2 -1</clus>
<clus scale="   80.374">  5  6 -1 -1</clus>
<clus scale="   90.728">  7  8 -1 -1</clus>
<clus scale="   93.610">  1  5  2 -1</clus>
<clus scale="  102.638">  2  5  1 -1</clus>
</clustering>
</event>
<event>
 9    1  0.2333971E-005  0.1234963E+03  0.7546771E-02  0.1237734E+00
          1   -1    0    0  502    0  0.00000000000E+00  0.00000000000E+00  0.80015960379E+02  0.80015960379E+02  0.00000000000E+00 0. -1.
         -2   -1    0    0    0  501 -0.00000000000E+00 -0.00000000000E+00 -0.26986144470E+03  0.26986144470E+03  0.00000000000E+00 0.  1.
        -24    2    1    2    0    0 -0.67769708141E+02 -0.46863960851E+02 -0.84853659201E+02  0.14206752240E+03  0.78702434980E+02 0.  0.
         23    2    1    2    0    0  0.95821329847E+02  0.44657776661E+02 -0.40125324154E+02  0.13710327990E+03  0.77532080144E+02 0.  0.
         13    1    3    3    0    0  0.42524668655E+01 -0.21530985464E+02  0.66155976323E+01  0.22922324086E+02  0.00000000000E+00 0. -1.
        -14    1    3    3    0    0 -0.72022175007E+02 -0.25332975387E+02 -0.91469256833E+02  0.11914519831E+03  0.00000000000E+00 0.  1.
        -13    1    4    4    0    0  0.59733608545E+02  0.21860484403E+02  0.16953806230E+02  0.65828689139E+02  0.00000000000E+00 0. -1.
         13    1    4    4    0    0  0.36087721302E+02  0.22797292258E+02 -0.57079130384E+02  0.71274590763E+02  0.00000000000E+00 0.  1.
         21    1    1    2  502  501 -0.28051621706E+02  0.22061841900E+01 -0.64866500963E+02  0.70706602777E+02  0.00000000000E+00 0.  1.
<scales pt_clust_5="13000.00000" pt_clust_6="13000.00000" pt_clust_7="13000.00000" pt_clust_8="13000.00000" pt_clust_9="28.13824"></scales>
<clustering>
<clus scale="   28.138">  2  9  1 -1</clus>
<clus scale="   77.532">  7  8 -1 -1</clus>
<clus scale="   78.702">  5  6 -1 -1</clus>
<clus scale="  122.754">  1  7  2 -1</clus>
<clus scale="  122.754">  1  5  2 -1</clus>
</clustering>
</event>
<event>
 9    1  0.2333971E-005  0.1140505E+03  0.7546771E-02  0.1257298E+00
          1   -1    0    0  502    0  0.00000000000E+00  0.00000000000E+00  0.61699976824E+03  0.61699976824E+03  0.00000000000E+00 0. -1.
         -2   -1    0    0    0  501 -0.00000000000E+00 -0.00000000000E+00 -0.34920314374E+02  0.34920314374E+02  0.00000000000E+00 0.  1.
        -24    2    1    2    0    0  0.82586337193E+02 -0.45190912792E+02  0.17364079515E+03  0.21293868319E+03  0.79555234713E+02 0.  0.
         23    2    1    2    0    0 -0.59093230029E+02  0.88621887765E+01  0.34839392095E+03  0.36497415108E+03  0.90869458998E+02 0.  0.
         11    1    3    3    0    0  0.87560316271E+02 -0.58606001024E+02  0.16627287661E+03  0.19684547706E+03  0.00000000000E+00 0. -1.
        -12    1    3    3    0    0 -0.49739790784E+01  0.13415088232E+02  0.73679185393E+01  0.16093206137E+02  0.00000000000E+00 0.  1.
        -11    1    4    4    0    0 -0.82389319243E+02 -0.25879419003E+01  0.27716011626E+03  0.28915813565E+03  0.00000000000E+00 0. -1.
         11    1    4    4    0    0  0.23296089214E+02  0.11450130677E+02  0.71233804695E+02  0.75816015435E+02  0.00000000000E+00 0.  1.
         21    1    1    2  502  501 -0.23493107164E+02  0.36328724015E+02  0.60044737763E+02  0.74007248333E+02  0.00000000000E+00 0.  1.
<scales pt_clust_5="13000.00000" pt_clust_6="13000.00000" pt_clust_7="13000.00000" pt_clust_8="13000.00000" pt_clust_9="43.26317"></scales>
<clustering>
<clus scale="   43.263">  2  9  1 -1</clus>
<clus scale="   79.555">  5  6 -1 -1</clus>
<clus scale="   90.869">  7  8 -1 -1</clus>
<clus scale="  105.258">  2  5  1 -1</clus>
<clus scale="  114.051">  1  5  2 -1</clus>
</clustering>
</event>
<event>
 9    1  0.2333971E-005  0.1229855E+03  0.7546771E-02  0.1238645E+00
          1   -1    0    0  502    0  0.00000000000E+00  0.00000000000E+00  0.55731843447E+03  0.55731843447E+03  0.00000000000E+00 0. -1.
         -2   -1    0    0    0  501 -0.00000000000E+00 -0.00000000000E+00 -0.70843052679E+02  0.70843052679E+02  0.00000000000E+00 0.  1.
         23    2    1    2    0    0  0.61357992992E+02 -0.25313378459E+02  0.52486836633E+01  0.11691580654E+03  0.96105081586E+02 0.  0.
        -24    2    1    2    0    0 -0.61333111641E+02  0.46027614447E+02  0.47298917657E+03  0.48895359786E+03  0.97347664775E+02 0.  0.
         11    1    4    4    0    0 -0.67843633543E+02  0.65195390928E+02  0.44224317357E+03  0.45214181645E+03  0.00000000000E+00 0. -1.
        -12    1    4    4    0    0  0.65105219019E+01 -0.19167776481E+02  0.30746002998E+02  0.36811781416E+02  0.00000000000E+00 0.  1.
        -11    1    3    3    0    0  0.73988267195E+02 -0.49172028718E+02  0.10362722767E+02  0.89440137041E+02  0.00000000000E+00 0.  1.
         11    1    3    3    0    0 -0.12630274204E+02  0.23858650259E+02 -0.51140391034E+01  0.27475669502E+02  0.00000000000E+00 0. -1.
         21    1    1    2  502  501 -0.24881350773E-01 -0.20714235988E+02  0.82375215627E+01  0.22292082746E+02  0.00000000000E+00 0.  1.
<scales pt_clust_5="13000.00000" pt_clust_6="13000.00000" pt_clust_7="13000.00000" pt_clust_8="13000.00000" pt_clust_9="20.71425"></scales>
<clustering>
<clus scale="   20.714">  2  9  1 -1</clus>
<clus scale="   96.105">  7  8 -1 -1</clus>
<clus scale="   97.348">  5  6 -1 -1</clus>
<clus scale="  122.004">  2  7  1 -1</clus>
<clus scale="  122.986">  1  5  2 -1</clus>
</clustering>
</event>
<event>
 9    1  0.2333971E-005  0.1093616E+03  0.7546771E-02  0.1265765E+00
         -2   -1    0    0    0  501 -0.00000000000E+00  0.00000000000E+00  0.21144310081E+03  0.21144310081E+03  0.00000000000E+00 0.  1.
          1   -1    0    0  502    0  0.00000000000E+00 -0.00000000000E+00 -0.34069495776E+03  0.34069495776E+03  0.00000000000E+00 0. -1.
         23    2    1    2    0    0 -0.22433716159E+02 -0.72112780089E+02  0.70061331029E+02  0.13831655873E+03  0.92300355576E+02 0.  0.
        -24    2    1    2    0    0  0.75619270417E+01  0.56898426846E+02 -0.29717333116E+03  0.31367533528E+03  0.82374835328E+02 0.  0.
         13    1    4    4    0    0 -0.35322199768E+02  0.31643918344E+02 -0.10590393008E+03  0.11603722580E+03  0.00000000000E+00 0. -1.
        -14    1    4    4    0    0  0.42884126810E+02  0.25254508502E+02 -0.19126940108E+03  0.19763810948E+03  0.00000000000E+00 0.  1.
        -11    1    3    3    0    0 -0.23194563125E+01 -0.66408356856E+02  0.88342776312E+02  0.11054363783E+03  0.00000000000E+00 0.  1.
         11    1    3    3    0    0 -0.20114259846E+02 -0.57044232334E+01 -0.18281445283E+02  0.27772920898E+02  0.00000000000E+00 0. -1.
         21    1    1    2  502  501  0.14871789117E+02  0.15214353243E+02  0.97860143170E+02  0.10014616457E+03  0.00000000000E+00 0.  1.
<scales pt_clust_5="13000.00000" pt_clust_6="13000.00000" pt_clust_7="13000.00000" pt_clust_8="13000.00000" pt_clust_9="21.27549"></scales>
<clustering>
<clus scale="   21.275">  1  9  2 -1</clus>
<clus scale="   82.375">  5  6 -1 -1</clus>
<clus scale="   92.300">  7  8 -1 -1</clus>
<clus scale="  101.125">  2  5  1 -1</clus>
<clus scale="  101.125">  2  5  1 -1</clus>
</clustering>
</event>
<event>
 9    1  0.2333971E-005  0.9676643E+02  0.7546771E-02  0.1294932E+00
          1   -1    0    0  502    0  0.00000000000E+00  0.00000000000E+00  0.21255814389E+03  0.21255814389E+03  0.00000000000E+00 0. -1.
         -2   -1    0    0    0  501 -0.00000000000E+00 -0.00000000000E+00 -0.18677041612E+03  0.18677041612E+03  0.00000000000E+00 0.  1.
         23    2    1    2    0    0  0.27279744233E+02 -0.44865489494E+02 -0.11720126309E+03  0.15699643643E+03  0.90303091799E+02 0.  0.
        -24    2    1    2    0    0 -0.23178984776E+01  0.33856199122E+02  0.17879361766E+03  0.19731802004E+03  0.76260267792E+02 0.  0.
         11    1    4    4    0    0 -0.32105483935E+02  0.41639321058E+02  0.10797776960E+03  0.12009910026E+03  0.00000000000E+00 0. -1.
        -12    1    4    4    0    0  0.29787585458E+02 -0.77831219352E+01  0.70815848061E+02  0.77218919774E+02  0.00000000000E+00 0.  1.
        -11    1    3    3    0    0  0.46333347293E+02 -0.53207327082E+02 -0.11648342799E+03  0.13618438869E+03  0.00000000000E+00 0.  1.
         11    1    3    3    0    0 -0.19053603059E+02  0.83418375882E+01 -0.71783510056E+00  0.20812047740E+02  0.00000000000E+00 0. -1.
         21    1    1    2  502  501 -0.24961845756E+02  0.11009290371E+02 -0.35804626795E+02  0.45014103545E+02  0.00000000000E+00 0. -1.
<scales pt_clust_5="13000.00000" pt_clust_6="13000.00000" pt_clust_7="13000.00000" pt_clust_8="13000.00000" pt_clust_9="27.28183"></scales>
<clustering>
<clus scale="   27.282">  2  9  1 -1</clus>
<clus scale="   76.260">  5  6 -1 -1</clus>
<clus scale="   83.814">  1  5  2 -1</clus>
<clus scale="   90.303">  7  8 -1 -1</clus>
<clus scale="   83.814">  1  5  2 -1</clus>
</clustering>
</event>
<event>
 9    1  0.2333971E-005  0.1785371E+03  0.7546771E-02  0.1198301E+00
         -2   -1    0    0    0  501 -0.00000000000E+00  0.00000000000E+00  0.76065959072E+03  0.76065959072E+03  0.00000000000E+00 0.  1.
          1   -1    0    0  502    0  0.00000000000E+00 -0.00000000000E+00 -0.79577837578E+02  0.79577837578E+02  0.00000000000E+00 0. -1.
        -24    2    1    2    0    0  0.21666389381E+02  0.43494598347E+02  0.22876291461E+03  0.24704144204E+03  0.79597678791E+02 0.  0.
         23    2    1    2    0    0 -0.26770689804E+01  0.11745325026E+03  0.39275904157E+03  0.42053396475E+03  0.93737495565E+02 0.  0.
         13    1    3    3    0    0  0.37418484640E+02 -0.61656544659E+01  0.12947994592E+03  0.13491928951E+03  0.00000000000E+00 0. -1.
        -14    1    3    3    0    0 -0.15752095259E+02  0.49660252813E+02  0.99282968694E+02  0.11212215253E+03  0.00000000000E+00 0.  1.
        -11    1    4    4    0    0  0.20530573180E+02  0.73433617352E+02  0.11258941130E+03  0.13597932244E+03  0.00000000000E+00 0.  1.
         11    1    4    4    0    0 -0.23207642161E+02  0.44019632905E+02  0.28016963027E+03  0.28455464231E+03  0.00000000000E+00 0. -1.
         21    1    1    2  502  501 -0.18989320401E+02 -0.16094784860E+03  0.59559796960E+02  0.17266202151E+03  0.00000000000E+00 0. -1.
<scales pt_clust_5="13000.00000" pt_clust_6="13000.00000" pt_clust_7="13000.00000" pt_clust_8="13000.00000" pt_clust_9="151.94996"></scales>
<clustering>
<clus scale="   79.598">  5  6 -1 -1</clus>
<clus scale="   93.258">  1  5  2 -1</clus>
<clus scale="   93.737">  7  8 -1 -1</clus>
<clus scale="  151.950">  2  9  1 -1</clus>
<clus scale="  151.950">  2  5  1 -1</clus>
</clustering>
</event>
<event>
 9    1  0.2333971E-005  0.1859523E+03  0.7546771E-02  0.1162863E+00
         -2   -1    0    0    0  501 -0.00000000000E+00  0.00000000000E+00  0.18625967880E+03  0.18625967880E+03  0.00000000000E+00 0.  1.
          1   -1    0    0  502    0  0.00000000000E+00 -0.00000000000E+00 -0.61984358532E+03  0.61984358532E+03  0.00000000000E+00 0. -1.
        -24    2    1    2    0    0  0.10609043830E+03 -0.92641705075E+02  0.10438793750E+03  0.19433200061E+03  0.83847589994E+02 0.  0.
         23    2    1    2    0    0 -0.10663975912E+03  0.12599778145E+03 -0.54597142308E+03  0.57746495433E+03  0.90185916335E+02 0.  0.
         13    1    3    3    0    0  0.93647051665E+02 -0.96970849331E+02  0.59148192025E+02  0.14721285448E+03  0.00000000000E+00 0. -1.
        -14    1    3    3    0    0  0.12443386632E+02  0.43291442552E+01  0.45239745476E+02  0.47119146125E+02  0.00000000000E+00 0.  1.
        -13    1    4    4    0    0 -0.67332340722E+02  0.53955271311E+02 -0.14971046216E+03  0.17279478549E+03  0.00000000000E+00 0.  1.
         13    1    4    4    0    0 -0.39307418399E+02  0.72042510139E+02 -0.39626096091E+03  0.40467016884E+03  0.00000000000E+00 0. -1.
         21    1    1    2  502  501  0.54932082436E+00 -0.33356076375E+02  0.79995790516E+01  0.34306309179E+02  0.00000000000E+00 0.  1.
<scales pt_clust_5="13000.00000" pt_clust_6="13000.00000" pt_clust_7="13000.00000" pt_clust_8="13000.00000" pt_clust_9="33.36060"></scales>
<clustering>
<clus scale="   33.361">  1  9  2 -1</clus>
<clus scale="   83.848">  5  6 -1 -1</clus>
<clus scale="   90.186">  7  8 -1 -1</clus>
<clus scale="  182.962">  1  5  2 -1</clus>
<clus scale="  185.952">  2  5  1 -1</clus>
</clustering>
</event>
<event>
 9    1  0.2333971E-005  0.1334803E+03  0.7546771E-02  0.1225566E+00
         -2   -1    0    0    0  501 -0.00000000000E+00  0.00000000000E+00  0.91130277574E+02  0.91130277574E+02  0.00000000000E+00 0.  1.
          1   -1    0    0  502    0  0.00000000000E+00 -0.00000000000E+00 -0.46728691569E+03  0.46728691569E+03  0.00000000000E+00 0. -1.
         23    2    1    2    0    0  0.12966921057E+02  0.11785782460E+03 -0.13341264355E+03  0.20047258348E+03  0.91278230733E+02 0.  0.
        -24    2    1    2    0    0 -0.10364961349E+02 -0.89222413514E+02 -0.28382633861E+03  0.30779966034E+03  0.78199545489E+02 0.  0.
         11    1    4    4    0    0 -0.42478119939E+02 -0.69327600550E+02 -0.19185639088E+03  0.20837365859E+03  0.00000000000E+00 0. -1.
        -12    1    4    4    0    0  0.32113158590E+02 -0.19894812964E+02 -0.91969947734E+02  0.99426001748E+02  0.00000000000E+00 0.  1.
        -11    1    3    3    0    0 -0.86421744325E+01  0.59397137715E+02 -0.81666181582E+01  0.60575579236E+02  0.00000000000E+00 0.  1.
         11    1    3    3    0    0  0.21609095490E+02  0.58460686883E+02 -0.12524602539E+03  0.13989700424E+03  0.00000000000E+00 0. -1.
         21    1    1    2  502  501 -0.26019597082E+01 -0.28635411084E+02  0.41082344052E+02  0.50144949448E+02  0.00000000000E+00 0.  1.
<scales pt_clust_5="13000.00000" pt_clust_6="13000.00000" pt_clust_7="13000.00000" pt_clust_8="13000.00000" pt_clust_9="28.75338"></scales>
<clustering>
<clus scale="   28.753">  1  9  2 -1</clus>
<clus scale="   78.200">  5  6 -1 -1</clus>
<clus scale="   91.278">  7  8 -1 -1</clus>
<clus scale="  124.902">  2  5  1 -1</clus>
<clus scale="  124.902">  2  5  1 -1</clus>
</clustering>
</event>
<event>
 9    1  0.2333971E-005  0.9164186E+02  0.7546771E-02  0.1301238E+00
          1   -1    0    0  502    0  0.00000000000E+00  0.00000000000E+00  0.15689059276E+03  0.15689059276E+03  0.00000000000E+00 0. -1.
         -2   -1    0    0    0  501 -0.00000000000E+00 -0.00000000000E+00 -0.52558312246E+03  0.52558312246E+03  0.00000000000E+00 0.  1.
         23    2    1    2    0    0 -0.59224493853E+02 -0.55785407019E+01 -0.38619710676E+03  0.40129505646E+03  0.91383019636E+02 0.  0.
        -24    2    1    2    0    0  0.11642092595E+01  0.61675436082E+01  0.12867523941E+03  0.15575832653E+03  0.87543960776E+02 0.  0.
         13    1    4    4    0    0  0.34048888340E+02  0.25157145246E+02  0.98644468568E+02  0.10734495765E+03  0.00000000000E+00 0. -1.
        -14    1    4    4    0    0 -0.32884679081E+02 -0.18989601638E+02  0.30030770841E+02  0.48413368876E+02  0.00000000000E+00 0.  1.
        -11    1    3    3    0    0 -0.35054677803E+02  0.41862515282E+02 -0.16586002036E+03  0.17461628497E+03  0.00000000000E+00 0. -1.
         11    1    3    3    0    0 -0.24169816050E+02 -0.47441055984E+02 -0.22033708640E+03  0.22667877149E+03  0.00000000000E+00 0.  1.
         21    1    1    2  502  501  0.58060284594E+02 -0.58900290638E+00 -0.11117066234E+03  0.12542033223E+03  0.00000000000E+00 0.  1.
<scales pt_clust_5="13000.00000" pt_clust_6="13000.00000" pt_clust_7="13000.00000" pt_clust_8="13000.00000" pt_clust_9="58.06327"></scales>
<clustering>
<clus scale="   58.063">  2  9  1 -1</clus>
<clus scale="   87.544">  5  6 -1 -1</clus>
<clus scale="   87.814">  1  5  2 -1</clus>
<clus scale="   91.383">  7  8 -1 -1</clus>
<clus scale="   87.814">  1  5  2 -1</clus>
</clustering>
</event>
<event>
 9    1  0.2333971E-005  0.1061808E+03  0.7546771E-02  0.1273249E+00
          1   -1    0    0  502    0  0.00000000000E+00  0.00000000000E+00  0.10548876598E+03  0.10548876598E+03  0.00000000000E+00 0. -1.
         -2   -1    0    0    0  501 -0.00000000000E+00 -0.00000000000E+00 -0.24460757946E+03  0.24460757946E+03  0.00000000000E+00 0.  1.
         23    2    1    2    0    0 -0.41714484135E+01  0.30740449273E+02 -0.17355057100E+03  0.19879850467E+03  0.91862225982E+02 0.  0.
        -24    2    1    2    0    0  0.64303554143E+01 -0.56115984157E+02  0.60632604095E+02  0.11475328176E+03  0.79382931709E+02 0.  0.
         13    1    4    4    0    0 -0.33177392808E+02 -0.40977376861E+02  0.45776400741E+02  0.69823804485E+02  0.00000000000E+00 0. -1.
        -14    1    4    4    0    0  0.39607748222E+02 -0.15138607296E+02  0.14856203353E+02  0.44929477275E+02  0.00000000000E+00 0.  1.
        -13    1    3    3    0    0 -0.25187293765E+02  0.54051248261E+02 -0.77730507143E+02  0.97969224486E+02  0.00000000000E+00 0.  1.
         13    1    3    3    0    0  0.21015845352E+02 -0.23310798988E+02 -0.95820063859E+02  0.10082928019E+03  0.00000000000E+00 0. -1.
         21    1    1    2  502  501 -0.22589070007E+01  0.25375534884E+02 -0.26200846581E+02  0.36544559007E+02  0.00000000000E+00 0. -1.
<scales pt_clust_5="13000.00000" pt_clust_6="13000.00000" pt_clust_7="13000.00000" pt_clust_8="13000.00000" pt_clust_9="25.47588"></scales>
<clustering>
<clus scale="   25.476">  2  9  1 -1</clus>
<clus scale="   79.383">  5  6 -1 -1</clus>
<clus scale="   91.862">  7  8 -1 -1</clus>
<clus scale="   95.590">  1  5  2 -1</clus>
<clus scale="   95.590">  1  5  2 -1</clus>
</clustering>
</event>
<event>
 9    1  0.2333971E-005  0.1062323E+03  0.7546771E-02  0.1272640E+00
          1   -1    0    0  502    0  0.00000000000E+00  0.00000000000E+00  0.23409321427E+03  0.23409321427E+03  0.00000000000E+00 0. -1.
         -2   -1    0    0    0  501 -0.00000000000E+00 -0.00000000000E+00 -0.18119159462E+03  0.18119159462E+03  0.00000000000E+00 0.  1.
         23    2    1    2    0    0  0.50755707330E+01  0.74454597210E+02 -0.28696154181E+02  0.12159829503E+03  0.91615651638E+02 0.  0.
        -24    2    1    2    0    0 -0.71951413697E-01 -0.50449305305E+02  0.17397545420E+03  0.19810970665E+03  0.80217576766E+02 0.  0.
         13    1    4    4    0    0  0.24310651618E+02  0.13578125268E+01  0.13754502281E+02  0.27964938225E+02  0.00000000000E+00 0. -1.
        -14    1    4    4    0    0 -0.24382603031E+02 -0.51807117831E+02  0.16022095192E+03  0.17014476843E+03  0.00000000000E+00 0.  1.
        -13    1    3    3    0    0 -0.15215742278E+02  0.78561716259E+02  0.70061136837E+01  0.80327751764E+02  0.00000000000E+00 0. -1.
         13    1    3    3    0    0  0.20291313011E+02 -0.41071190487E+01 -0.35702267865E+02  0.41270543264E+02  0.00000000000E+00 0.  1.
         21    1    1    2  502  501 -0.50036193193E+01 -0.24005291905E+02 -0.92377680368E+02  0.95576807207E+02  0.00000000000E+00 0.  1.
<scales pt_clust_5="13000.00000" pt_clust_6="13000.00000" pt_clust_7="13000.00000" pt_clust_8="13000.00000" pt_clust_9="24.52122"></scales>
<clustering>
<clus scale="   24.521">  2  9  1 -1</clus>
<clus scale="   80.218">  5  6 -1 -1</clus>
<clus scale="   91.616">  7  8 -1 -1</clus>
<clus scale="   96.575">  1  5  2 -1</clus>
<clus scale="   96.575">  1  5  2 -1</clus>
</clustering>
</event>
<event>
 9    1  0.2333971E-005  0.1349314E+03  0.7546771E-02  0.1220770E+00
          3   -1    0    0  502    0  0.00000000000E+00  0.00000000000E+00  0.59158404089E+03  0.59158404089E+03  0.00000000000E+00 0. -1.
         -4   -1    0    0    0  501 -0.00000000000E+00 -0.00000000000E+00 -0.10974431758E+03  0.10974431758E+03  0.00000000000E+00 0.  1.
         23    2    1    2    0    0  0.92771829884E+02 -0.23238638743E+02  0.67669617054E+01  0.13227244994E+03  0.91123885406E+02 0.  0.
        -24    2    1    2    0    0 -0.96035166683E+02 -0.26814959338E+02  0.49622817457E+03  0.51461728671E+03  0.92987930714E+02 0.  0.
         13    1    4    4    0    0 -0.31106492674E+02 -0.53307610888E+02  0.16792247845E+03  0.17890576859E+03  0.00000000000E+00 0. -1.
        -14    1    4    4    0    0 -0.64928674009E+02  0.26492651550E+02  0.32830569612E+03  0.33571151812E+03  0.00000000000E+00 0.  1.
        -13    1    3    3    0    0  0.36198238483E+02 -0.13446774907E+02  0.47986125219E+02  0.61593801946E+02  0.00000000000E+00 0. -1.
         13    1    3    3    0    0  0.56573591402E+02 -0.97918638357E+01 -0.41219163513E+02  0.70678647994E+02  0.00000000000E+00 0.  1.
         21    1    1    2  502  501  0.32633367988E+01  0.50053598081E+02 -0.21155412973E+02  0.54438621823E+02  0.00000000000E+00 0. -1.
<scales pt_clust_5="13000.00000" pt_clust_6="13000.00000" pt_clust_7="13000.00000" pt_clust_8="13000.00000" pt_clust_9="50.15986"></scales>
<clustering>
<clus scale="   50.160">  2  9  1 -1</clus>
<clus scale="   91.124">  7  8 -1 -1</clus>
<clus scale="   92.988">  5  6 -1 -1</clus>
<clus scale="  133.654">  2  7  1 -1</clus>
<clus scale="  134.931">  1  5  2 -1</clus>
</clustering>
</event>
<event>
 9    1  0.2333971E-005  0.9674783E+02  0.7546771E-02  0.1292367E+00
         -2   -1    0    0    0  501 -0.00000000000E+00  0.00000000000E+00  0.47540298503E+02  0.47540298503E+02  0.00000000000E+00 0.  1.
          1   -1    0    0  502    0  0.00000000000E+00 -0.00000000000E+00 -0.47175932467E+03  0.47175932467E+03  0.00000000000E+00 0. -1.
        -24    2    1    2    0    0  0.43957341456E+00  0.11301804619E+02 -0.91705845013E+02  0.12424174527E+03  0.83054953162E+02 0.  0.
         23    2    1    2    0    0 -0.27257590833E+02  0.39744771573E+02 -0.31936925917E+03  0.33591633850E+03  0.92306227523E+02 0.  0.
         11    1    3    3    0    0  0.30044364595E+02  0.20270814727E+02 -0.85260150359E+02  0.92643742437E+02  0.00000000000E+00 0. -1.
        -12    1    3    3    0    0 -0.29604791181E+02 -0.89690101081E+01 -0.64456946542E+01  0.31598002828E+02  0.00000000000E+00 0.  1.
        -11    1    4    4    0    0  0.42433311739E+01 -0.19692889085E+02 -0.17631337433E+02  0.26770875959E+02  0.00000000000E+00 0.  1.
         11    1    4    4    0    0 -0.31500922007E+02  0.59437660658E+02 -0.30173792174E+03  0.30914546254E+03  0.00000000000E+00 0. -1.
         21    1    1    2  502  501  0.26818017419E+02 -0.51046576192E+02 -0.13143921987E+02  0.59141539415E+02  0.00000000000E+00 0.  1.
<scales pt_clust_5="13000.00000" pt_clust_6="13000.00000" pt_clust_7="13000.00000" pt_clust_8="13000.00000" pt_clust_9="57.66246"></scales>
<clustering>
<clus scale="   57.662">  1  9  2 -1</clus>
<clus scale="   83.055">  5  6 -1 -1</clus>
<clus scale="   87.965">  1  5  2 -1</clus>
<clus scale="   92.306">  7  8 -1 -1</clus>
<clus scale="   96.748">  2  5  1 -1</clus>
</clustering>
</event>
<event>
 9    1  0.2333971E-005  0.2732122E+03  0.7546771E-02  0.1132112E+00
         -2   -1    0    0    0  501 -0.00000000000E+00  0.00000000000E+00  0.88096798779E+03  0.88096798779E+03  0.00000000000E+00 0.  1.
          1   -1    0    0  502    0  0.00000000000E+00 -0.00000000000E+00 -0.24221138765E+03  0.24221138765E+03  0.00000000000E+00 0. -1.
         23    2    1    2    0    0  0.45429758900E+02  0.64698562519E+02  0.19379740258E+03  0.22791295315E+03  0.90205953137E+02 0.  0.
        -24    2    1    2    0    0 -0.25590147403E+03  0.68313458776E+02 -0.10148335287E+03  0.29477495557E+03  0.80256529113E+02 0.  0.
         13    1    4    4    0    0 -0.48833787174E+02 -0.16897526269E+02 -0.87187942427E+01  0.52404985801E+02  0.00000000000E+00 0. -1.
        -14    1    4    4    0    0 -0.20706768685E+03  0.85210985045E+02 -0.92764558624E+02  0.24236996977E+03  0.00000000000E+00 0.  1.
        -13    1    3    3    0    0  0.33538611244E+02  0.80931284448E+02  0.10443725915E+03  0.13631526820E+03  0.00000000000E+00 0.  1.
         13    1    3    3    0    0  0.11891147656E+02 -0.16232721929E+02  0.89360143433E+02  0.91597684950E+02  0.00000000000E+00 0. -1.
         21    1    1    2  502  501  0.21047171513E+03 -0.13301202129E+03  0.54644255042E+03  0.60049146671E+03  0.00000000000E+00 0.  1.
<scales pt_clust_5="13000.00000" pt_clust_6="13000.00000" pt_clust_7="13000.00000" pt_clust_8="13000.00000" pt_clust_9="261.15860"></scales>
<clustering>
<clus scale="   80.257">  5  6 -1 -1</clus>
<clus scale="   90.206">  7  8 -1 -1</clus>
<clus scale="  119.945">  1  7  2 -1</clus>
<clus scale="  261.159">  1  9  2 -1</clus>
<clus scale="  273.212">  2  5  1 -1</clus>
</clustering>
</event>
<event>
 9    1  0.2333971E-005  0.2437096E+03  0.7546771E-02  0.1118135E+00
         -4   -1    0    0    0  501 -0.00000000000E+00  0.00000000000E+00  0.91822607464E+03  0.91822607464E+03  0.00000000000E+00 0.  1.
          3   -1    0    0  502    0  0.00000000000E+00 -0.00000000000E+00 -0.29822660890E+03  0.29822660890E+03  0.00000000000E+00 0. -1.
        -24    2    1    2    0    0  0.13334371687E+03  0.26846358140E+03  0.63371771551E+03  0.70543100274E+03  0.78622613207E+02 0.  0.
         23    2    1    2    0    0 -0.10139439555E+03 -0.19462296554E+03 -0.19821956966E+03  0.30974094968E+03  0.92138677825E+02 0.  0.
         11    1    3    3    0    0  0.81096632120E+02  0.98055944775E+02  0.20697209972E+03  0.24295901323E+03  0.00000000000E+00 0. -1.
        -12    1    3    3    0    0  0.52247084747E+02  0.17040763663E+03  0.42674561579E+03  0.46247198951E+03  0.00000000000E+00 0.  1.
        -13    1    4    4    0    0 -0.19584506498E+02  0.54792909377E+01 -0.82281540551E+01  0.21938050121E+02  0.00000000000E+00 0.  1.
         13    1    4    4    0    0 -0.81809889050E+02 -0.20010225648E+03 -0.18999141560E+03  0.28780289956E+03  0.00000000000E+00 0. -1.
         21    1    1    2  502  501 -0.31949321319E+02 -0.73840615863E+02  0.18450131988E+03  0.20128073112E+03  0.00000000000E+00 0.  1.
<scales pt_clust_5="13000.00000" pt_clust_6="13000.00000" pt_clust_7="13000.00000" pt_clust_8="13000.00000" pt_clust_9="80.45617"></scales>
<clustering>
<clus scale="   78.623">  5  6 -1 -1</clus>
<clus scale="   80.456">  1  9  2 -1</clus>
<clus scale="   92.139">  7  8 -1 -1</clus>
<clus scale="  238.927">  1  5  2 -1</clus>
<clus scale="  243.710">  2  5  1 -1</clus>
</clustering>
</event>
<event>
 9    1  0.2333971E-005  0.9879832E+02  0.7546771E-02  0.1294543E+00
          1   -1    0    0  502    0  0.00000000000E+00  0.00000000000E+00  0.18290742074E+03  0.18290742074E+03  0.00000000000E+00 0. -1.
         -2   -1    0    0    0  501 -0.00000000000E+00 -0.00000000000E+00 -0.17372066111E+03  0.17372066111E+03  0.00000000000E+00 0.  1.
        -24    2    1    2    0    0 -0.17348332351E+02  0.85962457795E+01 -0.38004397871E+02  0.89455218153E+02  0.78632319820E+02 0.  0.
         23    2    1    2    0    0 -0.72218270313E+01 -0.10536666148E+02  0.13979637180E+03  0.17134393446E+03  0.98247352063E+02 0.  0.
         11    1    3    3    0    0 -0.19249159912E+02  0.18163369691E+02  0.18387236063E+02  0.32226209921E+02  0.00000000000E+00 0. -1.
        -12    1    3    3    0    0  0.19008275604E+01 -0.95671239116E+01 -0.56391633934E+02  0.57229008231E+02  0.00000000000E+00 0.  1.
        -13    1    4    4    0    0  0.40278582466E+02 -0.21867715141E+02  0.42612908295E+02  0.62581316096E+02  0.00000000000E+00 0.  1.
         13    1    4    4    0    0 -0.47500409497E+02  0.11331048993E+02  0.97183463507E+02  0.10876261836E+03  0.00000000000E+00 0. -1.
         21    1    1    2  502  501  0.24570159383E+02  0.19404203686E+01 -0.92605214306E+02  0.95828929243E+02  0.00000000000E+00 0.  1.
<scales pt_clust_5="13000.00000" pt_clust_6="13000.00000" pt_clust_7="13000.00000" pt_clust_8="13000.00000" pt_clust_9="24.64666"></scales>
<clustering>
<clus scale="   24.647">  2  9  1 -1</clus>
<clus scale="   78.632">  5  6 -1 -1</clus>
<clus scale="   79.320">  2  5  1 -1</clus>
<clus scale="   98.247">  7  8 -1 -1</clus>
<clus scale="   98.798">  1  5  2 -1</clus>
</clustering>
</event>
<event>
 9    1  0.2333971E-005  0.1069096E+03  0.7546771E-02  0.1270561E+00
          1   -1    0    0  502    0  0.00000000000E+00  0.00000000000E+00  0.35334192155E+03  0.35334192155E+03  0.00000000000E+00 0. -1.
         -2   -1    0    0    0  501 -0.00000000000E+00 -0.00000000000E+00 -0.13715446491E+03  0.13715446491E+03  0.00000000000E+00 0.  1.
         23    2    1    2    0    0 -0.25214766258E+02 -0.68016669722E+02 -0.84181610428E+02  0.14350129854E+03  0.90796626318E+02 0.  0.
        -24    2    1    2    0    0  0.10229888890E+02  0.54481287707E+02  0.30962606668E+03  0.32478146242E+03  0.80881616130E+02 0.  0.
         13    1    4    4    0    0 -0.29263218350E+02  0.50493839316E+02  0.18441432459E+03  0.19342855754E+03  0.00000000000E+00 0. -1.
        -14    1    4    4    0    0  0.39493107240E+02  0.39874483912E+01  0.12521174209E+03  0.13135290488E+03  0.00000000000E+00 0.  1.
        -11    1    3    3    0    0 -0.24742424482E+02 -0.90172728710E+02 -0.73306574625E+02  0.11881566587E+03  0.00000000000E+00 0.  1.
         11    1    3    3    0    0 -0.47234177552E+00  0.22156058989E+02 -0.10875035803E+02  0.24685632671E+02  0.00000000000E+00 0. -1.
         21    1    1    2  502  501  0.14984877368E+02  0.13535382015E+02 -0.92569996135E+01  0.22213625500E+02  0.00000000000E+00 0. -1.
<scales pt_clust_5="13000.00000" pt_clust_6="13000.00000" pt_clust_7="13000.00000" pt_clust_8="13000.00000" pt_clust_9="20.19290"></scales>
<clustering>
<clus scale="   20.193">  2  9  1 -1</clus>
<clus scale="   80.882">  5  6 -1 -1</clus>
<clus scale="   90.797">  7  8 -1 -1</clus>
<clus scale="   98.628">  1  5  2 -1</clus>
<clus scale="   98.628">  1  5  2 -1</clus>
</clustering>
</event>
<event>
 9    1  0.2333971E-005  0.2597922E+03  0.7546771E-02  0.1107714E+00
          1   -1    0    0  502    0  0.00000000000E+00  0.00000000000E+00  0.12190871870E+03  0.12190871870E+03  0.00000000000E+00 0. -1.
         -2   -1    0    0    0  501 -0.00000000000E+00 -0.00000000000E+00 -0.69109031521E+03  0.69109031521E+03  0.00000000000E+00 0.  1.
        -24    2    1    2    0    0  0.22360814603E+03 -0.26128377378E+02 -0.36714376086E+03  0.43828364149E+03  0.81330893172E+02 0.  0.
         23    2    1    2    0    0 -0.24848345851E+03  0.54773591481E+02 -0.14563734572E+03  0.30674227475E+03  0.90202057477E+02 0.  0.
         11    1    3    3    0    0  0.78009487074E+02  0.91591794984E+00 -0.64021466952E+02  0.10092109398E+03  0.00000000000E+00 0. -1.
        -12    1    3    3    0    0  0.14559865896E+03 -0.27044295328E+02 -0.30312229390E+03  0.33736254751E+03  0.00000000000E+00 0.  1.
        -13    1    4    4    0    0 -0.12035943400E+03  0.71525235371E+02 -0.64371434821E+02  0.15409715853E+03  0.00000000000E+00 0. -1.
         13    1    4    4    0    0 -0.12812402452E+03 -0.16751643890E+02 -0.81265910897E+02  0.15264511622E+03  0.00000000000E+00 0.  1.
         21    1    1    2  502  501  0.24875312483E+02 -0.28645214103E+02 -0.56400489931E+02  0.67973117676E+02  0.00000000000E+00 0. -1.
<scales pt_clust_5="13000.00000" pt_clust_6="13000.00000" pt_clust_7="13000.00000" pt_clust_8="13000.00000" pt_clust_9="37.93850"></scales>
<clustering>
<clus scale="   37.938">  2  9  1 -1</clus>
<clus scale="   81.331">  5  6 -1 -1</clus>
<clus scale="   90.202">  7  8 -1 -1</clus>
<clus scale="  256.847">  2  5  1 -1</clus>
<clus scale="  259.792">  1  5  2 -1</clus>
</clustering>
</event>
<event>
 9    1  0.2333971E-005  0.9348888E+02  0.7546771E-02  0.1301433E+00
         -4   -1    0    0    0  501 -0.00000000000E+00  0.00000000000E+00  0.10733552557E+04  0.10733552557E+04  0.00000000000E+00 0.  1.
          3   -1    0    0  502    0  0.00000000000E+00 -0.00000000000E+00 -0.24333208509E+02  0.24333208509E+02  0.00000000000E+00 0. -1.
        -24    2    1    2    0    0 -0.42974552362E+01  0.57723585727E+01  0.80926797509E+03  0.81338373501E+03  0.81404278902E+02 0.  0.
         23    2    1    2    0    0  0.16989740928E+02 -0.46729319063E+02  0.19949505528E+03  0.22548844606E+03  0.92598497121E+02 0.  0.
         11    1    3    3    0    0 -0.88320545666E+01  0.34168304647E+02  0.17820286460E+03  0.18166380812E+03  0.00000000000E+00 0. -1.
        -12    1    3    3    0    0  0.45345993304E+01 -0.28395946074E+02  0.63106511049E+03  0.63171992688E+03  0.00000000000E+00 0.  1.
        -13    1    4    4    0    0 -0.37703833580E+02 -0.10559926158E+02  0.84006912946E+02  0.92683615218E+02  0.00000000000E+00 0. -1.
         13    1    4    4    0    0  0.54693574508E+02 -0.36169392905E+02  0.11548814233E+03  0.13280483084E+03  0.00000000000E+00 0.  1.
         21    1    1    2  502  501 -0.12692285692E+02  0.40956960490E+02  0.40259016868E+02  0.58816283187E+02  0.00000000000E+00 0. -1.
<scales pt_clust_5="13000.00000" pt_clust_6="13000.00000" pt_clust_7="13000.00000" pt_clust_8="13000.00000" pt_clust_9="42.87851"></scales>
<clustering>
<clus scale="   42.879">  2  9  1 -1</clus>
<clus scale="   81.404">  5  6 -1 -1</clus>
<clus scale="   82.416">  1  5  2 -1</clus>
<clus scale="   92.598">  7  8 -1 -1</clus>
<clus scale="   42.879">  2  5  1 -1</clus>
</clustering>
</event>
<event>
 9    1  0.2333971E-005  0.1673937E+03  0.7546771E-02  0.1182307E+00
         -4   -1    0    0    0  501 -0.00000000000E+00  0.00000000000E+00  0.87692816616E+02  0.87692816616E+02  0.00000000000E+00 0.  1.
          3   -1    0    0  502    0  0.00000000000E+00 -0.00000000000E+00 -0.73862570084E+03  0.73862570084E+03  0.00000000000E+00 0. -1.
         23    2    1    2    0    0 -0.51689713651E+02  0.15390760829E+03 -0.18083700728E+03  0.26048916705E+03  0.93772088411E+02 0.  0.
        -24    2    1    2    0    0  0.87590689176E+02 -0.10135146726E+03 -0.47663904400E+03  0.50184621951E+03  0.81979271902E+02 0.  0.
         11    1    4    4    0    0  0.38324497442E+02 -0.60686051631E+02 -0.37494132294E+03  0.38174934134E+03  0.00000000000E+00 0. -1.
        -12    1    4    4    0    0  0.49266191734E+02 -0.40665415629E+02 -0.10169772106E+03  0.12009687817E+03  0.00000000000E+00 0.  1.
        -13    1    3    3    0    0  0.11688265836E+02  0.10894099300E+03 -0.11190210154E+03  0.15661045892E+03  0.00000000000E+00 0. -1.
         13    1    3    3    0    0 -0.63377979486E+02  0.44966615285E+02 -0.68934905737E+02  0.10387870813E+03  0.00000000000E+00 0.  1.
         21    1    1    2  502  501 -0.35900975525E+02 -0.52556141030E+02  0.65431670561E+01  0.63983130892E+02  0.00000000000E+00 0.  1.
<scales pt_clust_5="13000.00000" pt_clust_6="13000.00000" pt_clust_7="13000.00000" pt_clust_8="13000.00000" pt_clust_9="63.64769"></scales>
<clustering>
<clus scale="   63.648">  1  9  2 -1</clus>
<clus scale="   81.979">  5  6 -1 -1</clus>
<clus scale="   93.772">  7  8 -1 -1</clus>
<clus scale="  161.084">  2  5  1 -1</clus>
<clus scale="  161.084">  2  5  1 -1</clus>
</clustering>
</event>
<event>
 9    1  0.2333971E-005  0.1199521E+03  0.7546771E-02  0.1246163E+00
         -2   -1    0    0    0  501 -0.00000000000E+00  0.00000000000E+00  0.27816242806E+02  0.27816242806E+02  0.00000000000E+00 0.  1.
          1   -1    0    0  502    0  0.00000000000E+00 -0.00000000000E+00 -0.71654271241E+03  0.71654271241E+03  0.00000000000E+00 0. -1.
        -24    2    1    2    0    0 -0.41325274531E+02  0.76930730574E+02 -0.28297202199E+03  0.30687191271E+03  0.80443085218E+02 0.  0.
         23    2    1    2    0    0  0.55012484870E+02 -0.51297019236E+02 -0.38305017467E+03  0.40061007281E+03  0.90017978477E+02 0.  0.
         11    1    3    3    0    0  0.21615744608E+02  0.10739559614E+02 -0.93019659542E+02  0.96100133283E+02  0.00000000000E+00 0. -1.
        -12    1    3    3    0    0 -0.62941019139E+02  0.66191170960E+02 -0.18995236245E+03  0.21077177943E+03  0.00000000000E+00 0.  1.
        -11    1    4    4    0    0 -0.12118873993E+02 -0.17620542001E+02 -0.18115571068E+02  0.28027210393E+02  0.00000000000E+00 0.  1.
         11    1    4    4    0    0  0.67131358863E+02 -0.33676477235E+02 -0.36493460360E+03  0.37258286242E+03  0.00000000000E+00 0. -1.
         21    1    1    2  502  501 -0.13687210339E+02 -0.25633711339E+02 -0.22704272941E+02  0.36876969692E+02  0.00000000000E+00 0.  1.
<scales pt_clust_5="13000.00000" pt_clust_6="13000.00000" pt_clust_7="13000.00000" pt_clust_8="13000.00000" pt_clust_9="29.05902"></scales>
<clustering>
<clus scale="   29.059">  1  9  2 -1</clus>
<clus scale="   80.443">  5  6 -1 -1</clus>
<clus scale="   90.018">  7  8 -1 -1</clus>
<clus scale="  112.944">  1  5  2 -1</clus>
<clus scale="  119.952">  2  5  1 -1</clus>
</clustering>
</event>
<event>
 9    1  0.2333971E-005  0.1237199E+03  0.7546771E-02  0.1241919E+00
         -2   -1    0    0    0  501 -0.00000000000E+00  0.00000000000E+00  0.17718339802E+03  0.17718339802E+03  0.00000000000E+00 0.  1.
          1   -1    0    0  502    0  0.00000000000E+00 -0.00000000000E+00 -0.26152926429E+03  0.26152926429E+03  0.00000000000E+00 0. -1.
        -24    2    1    2    0    0 -0.24764894682E+02  0.96427002028E+02  0.33787018619E+02  0.13254190032E+03  0.80711374560E+02 0.  0.
         23    2    1    2    0    0 -0.16555349223E+00 -0.73776917581E+02 -0.19082132021E+03  0.22605732865E+03  0.96156531833E+02 0.  0.
         11    1    3    3    0    0 -0.26141822834E+02  0.26548545794E+02 -0.21864071085E+02  0.43200205894E+02  0.00000000000E+00 0. -1.
        -12    1    3    3    0    0  0.13769281522E+01  0.69878456234E+02  0.55651089705E+02  0.89341694422E+02  0.00000000000E+00 0.  1.
        -11    1    4    4    0    0 -0.25829672497E+02  0.97680619171E+01 -0.19740289009E+02  0.33945044191E+02  0.00000000000E+00 0.  1.
         11    1    4    4    0    0  0.25664119005E+02 -0.83544979498E+02 -0.17108103120E+03  0.19211228446E+03  0.00000000000E+00 0. -1.
         21    1    1    2  502  501  0.24930448174E+02 -0.22650084447E+02  0.72688435321E+02  0.80113433337E+02  0.00000000000E+00 0. -1.
<scales pt_clust_5="13000.00000" pt_clust_6="13000.00000" pt_clust_7="13000.00000" pt_clust_8="13000.00000" pt_clust_9="33.68313"></scales>
<clustering>
<clus scale="   33.683">  1  9  2 -1</clus>
<clus scale="   80.711">  5  6 -1 -1</clus>
<clus scale="   96.157">  7  8 -1 -1</clus>
<clus scale="  112.138">  1  5  2 -1</clus>
<clus scale="  123.720">  2  5  1 -1</clus>
</clustering>
</event>
<event>
 9    1  0.2333971E-005  0.1096737E+03  0.7546771E-02  0.1264874E+00
          1   -1    0    0  502    0  0.00000000000E+00  0.00000000000E+00  0.77348983373E+03  0.77348983373E+03  0.00000000000E+00 0. -1.
         -2   -1    0    0    0  501 -0.00000000000E+00 -0.00000000000E+00 -0.15272333435E+03  0.15272333435E+03  0.00000000000E+00 0.  1.
        -24    2    1    2    0    0  0.43211265357E+02  0.99275280718E+01  0.16986369410E+03  0.19398756408E+03  0.82533212571E+02 0.  0.
         23    2    1    2    0    0 -0.67640004323E+02  0.53086749194E+01  0.58450761898E+03  0.59555391193E+03  0.91825667167E+02 0.  0.
         13    1    3    3    0    0  0.45439208180E+02  0.37239196576E+02  0.14698074154E+03  0.15828713714E+03  0.00000000000E+00 0. -1.
        -14    1    3    3    0    0 -0.22279428233E+01 -0.27311668504E+02  0.22882952564E+02  0.35700426940E+02  0.00000000000E+00 0.  1.
        -13    1    4    4    0    0  0.20981378046E+02  0.57017840928E+01  0.64959034987E+02  0.68501129866E+02  0.00000000000E+00 0.  1.
         13    1    4    4    0    0 -0.88621382369E+02 -0.39310917343E+00  0.51954858399E+03  0.52705278206E+03  0.00000000000E+00 0. -1.
         21    1    1    2  502  501  0.24428738966E+02 -0.15236202991E+02 -0.13360481370E+03  0.13667169207E+03  0.00000000000E+00 0.  1.
<scales pt_clust_5="13000.00000" pt_clust_6="13000.00000" pt_clust_7="13000.00000" pt_clust_8="13000.00000" pt_clust_9="28.79071"></scales>
<clustering>
<clus scale="   28.791">  2  9  1 -1</clus>
<clus scale="   82.533">  5  6 -1 -1</clus>
<clus scale="   91.826">  7  8 -1 -1</clus>
<clus scale="  102.020">  2  5  1 -1</clus>
<clus scale="  109.674">  1  5  2 -1</clus>
</clustering>
</event>
<event>
 9    1  0.2333971E-005  0.3071273E+03  0.7546771E-02  0.1081731E+00
         -4   -1    0    0    0  501 -0.00000000000E+00  0.00000000000E+00  0.16384388318E+03  0.16384388318E+03  0.00000000000E+00 0.  1.
          3   -1    0    0  502    0  0.00000000000E+00 -0.00000000000E+00 -0.48418376151E+03  0.48418376151E+03  0.00000000000E+00 0. -1.
        -24    2    1    2    0    0  0.60686994574E+02 -0.12728073065E+03 -0.79307899365E+02  0.18054663521E+03  0.80150164557E+02 0.  0.
         23    2    1    2    0    0  0.45809939981E+01 -0.11028129764E+03 -0.37948638984E+02  0.14820296356E+03  0.91329453590E+02 0.  0.
         11    1    3    3    0    0  0.29572141636E+02 -0.10978514161E+01 -0.27715545745E+01  0.29722017991E+02  0.00000000000E+00 0. -1.
        -12    1    3    3    0    0  0.31114852937E+02 -0.12618287924E+03 -0.76536344790E+02  0.15082461722E+03  0.00000000000E+00 0.  1.
        -11    1    4    4    0    0  0.41355539891E+02 -0.61349856576E+02 -0.44985760945E+02  0.86589862394E+02  0.00000000000E+00 0.  1.
         11    1    4    4    0    0 -0.36774545893E+02 -0.48931441066E+02  0.70371219611E+01  0.61613101171E+02  0.00000000000E+00 0. -1.
         21    1    1    2  502  501 -0.65267988572E+02  0.23756202830E+03 -0.20308333999E+03  0.31927804591E+03  0.00000000000E+00 0. -1.
<scales pt_clust_5="13000.00000" pt_clust_6="13000.00000" pt_clust_7="13000.00000" pt_clust_8="13000.00000" pt_clust_9="246.36483"></scales>
<clustering>
<clus scale="   80.150">  5  6 -1 -1</clus>
<clus scale="   91.329">  7  8 -1 -1</clus>
<clus scale="  106.078">  5  7 -1 -1</clus>
<clus scale="  246.365">  2  9  1 -1</clus>
<clus scale="  246.365">  2  5  1 -1</clus>
</clustering>
</event>
<event>
 9    1  0.2333971E-005  0.1015187E+03  0.7546771E-02  0.1281265E+00
         -2   -1    0    0    0  501 -0.00000000000E+00  0.00000000000E+00  0.21060507762E+03  0.21060507762E+03  0.00000000000E+00 0.  1.
          1   -1    0    0  502    0  0.00000000000E+00 -0.00000000000E+00 -0.12252060541E+03  0.12252060541E+03  0.00000000000E+00 0. -1.
         23    2    1    2    0    0  0.87848130539E+01  0.20181220512E+02  0.86868048558E+02  0.12724449917E+03  0.90336316653E+02 0.  0.
        -24    2    1    2    0    0 -0.17478345766E+02 -0.48597070455E+02 -0.76161640024E+02  0.12299329104E+03  0.81606288993E+02 0.  0.
         13    1    4    4    0    0 -0.47107644890E+02 -0.32818365361E+02 -0.66925476731E+02  0.88177064749E+02  0.00000000000E+00 0. -1.
        -14    1    4    4    0    0  0.29629299124E+02 -0.15778705095E+02 -0.92361632931E+01  0.34816226295E+02  0.00000000000E+00 0.  1.
        -11    1    3    3    0    0  0.42982270890E+02  0.35219954721E+02  0.54019887563E+02  0.77498832725E+02  0.00000000000E+00 0.  1.
         11    1    3    3    0    0 -0.34197457836E+02 -0.15038734209E+02  0.32848160995E+02  0.49745666443E+02  0.00000000000E+00 0. -1.
         21    1    1    2  502  501  0.86935327119E+01  0.28415849943E+02  0.77378063676E+02  0.82887892827E+02  0.00000000000E+00 0. -1.
<scales pt_clust_5="13000.00000" pt_clust_6="13000.00000" pt_clust_7="13000.00000" pt_clust_8="13000.00000" pt_clust_9="29.71596"></scales>
<clustering>
<clus scale="   29.716">  1  9  2 -1</clus>
<clus scale="   81.606">  5  6 -1 -1</clus>
<clus scale="   90.336">  7  8 -1 -1</clus>
<clus scale="   93.835">  2  5  1 -1</clus>
<clus scale="   93.835">  2  5  1 -1</clus>
</clustering>
</event>
<event>
 9    1  0.2333971E-005  0.9117527E+02  0.7546771E-02  0.1314985E+00
         -4   -1    0    0    0  501 -0.00000000000E+00  0.00000000000E+00  0.84675749789E+02  0.84675749789E+02  0.00000000000E+00 0.  1.
          3   -1    0    0  502    0  0.00000000000E+00 -0.00000000000E+00 -0.27554469064E+03  0.27554469064E+03  0.00000000000E+00 0. -1.
        -24    2    1    2    0    0 -0.11865150416E+02 -0.11930095407E+01  0.49733145939E+02  0.85467285907E+02  0.68476755831E+02 0.  0.
         23    2    1    2    0    0 -0.19593123668E+00  0.30080510560E+02 -0.21159793582E+03  0.23207765594E+03  0.90451514299E+02 0.  0.
         13    1    3    3    0    0 -0.13868354766E+02  0.31132031969E+02  0.37940326778E+02  0.51000030141E+02  0.00000000000E+00 0. -1.
        -14    1    3    3    0    0  0.20032043498E+01 -0.32325041509E+02  0.11792819161E+02  0.34467255766E+02  0.00000000000E+00 0.  1.
        -11    1    4    4    0    0  0.20535990232E+02  0.41646235985E+02 -0.20061800409E+03  0.20592163420E+03  0.00000000000E+00 0. -1.
         11    1    4    4    0    0 -0.20731921468E+02 -0.11565725425E+02 -0.10979931726E+02  0.26156021737E+02  0.00000000000E+00 0.  1.
         21    1    1    2  502  501  0.12061081653E+02 -0.28887501019E+02 -0.29004150975E+02  0.42675498586E+02  0.00000000000E+00 0.  1.
<scales pt_clust_5="13000.00000" pt_clust_6="13000.00000" pt_clust_7="13000.00000" pt_clust_8="13000.00000" pt_clust_9="31.30427"></scales>
<clustering>
<clus scale="   31.304">  2  9  1 -1</clus>
<clus scale="   68.477">  5  6 -1 -1</clus>
<clus scale="   69.430">  1  5  2 -1</clus>
<clus scale="   90.452">  7  8 -1 -1</clus>
<clus scale="   31.304">  2  5  1 -1</clus>
</clustering>
</event>
<event>
 9    1  0.2333971E-005  0.1624403E+03  0.7546771E-02  0.1207507E+00
          1   -1    0    0  502    0  0.00000000000E+00  0.00000000000E+00  0.71095259062E+03  0.71095259062E+03  0.00000000000E+00 0. -1.
         -2   -1    0    0    0  501 -0.00000000000E+00 -0.00000000000E+00 -0.18949792515E+03  0.18949792515E+03  0.00000000000E+00 0.  1.
        -24    2    1    2    0    0  0.10638202894E+03 -0.91293662186E+02 -0.12341647274E+03  0.20329524633E+03  0.80284883991E+02 0.  0.
         23    2    1    2    0    0  0.23113615324E+02  0.14151043509E+02  0.37004218354E+03  0.38370501847E+03  0.97794848320E+02 0.  0.
         11    1    3    3    0    0  0.26893571255E+02 -0.61994359460E+02 -0.21818357965E+02  0.71011305607E+02  0.00000000000E+00 0. -1.
        -12    1    3    3    0    0  0.79488457688E+02 -0.29299302726E+02 -0.10159811478E+03  0.13228394072E+03  0.00000000000E+00 0.  1.
        -13    1    4    4    0    0  0.43215156831E+02  0.43713865407E+02  0.17672442298E+03  0.18710952270E+03  0.00000000000E+00 0.  1.
         13    1    4    4    0    0 -0.20101541507E+02 -0.29562821899E+02  0.19331776056E+03  0.19659549577E+03  0.00000000000E+00 0. -1.
         21    1    1    2  502  501 -0.12949564427E+03  0.77142618677E+02  0.27482895468E+03  0.31345025096E+03  0.00000000000E+00 0.  1.
<scales pt_clust_5="13000.00000" pt_clust_6="13000.00000" pt_clust_7="13000.00000" pt_clust_8="13000.00000" pt_clust_9="141.21328"></scales>
<clustering>
<clus scale="   80.285">  5  6 -1 -1</clus>
<clus scale="   97.795">  7  8 -1 -1</clus>
<clus scale="  101.481">  1  7  2 -1</clus>
<clus scale="  141.213">  1  9  2 -1</clus>
<clus scale="  101.481">  1  5  2 -1</clus>
</clustering>
</event>
<event>
 9    1  0.2333971E-005  0.1419825E+03  0.7546771E-02  0.1236009E+00
          1   -1    0    0  502    0  0.00000000000E+00  0.00000000000E+00  0.43190191664E+03  0.43190191664E+03  0.00000000000E+00 0. -1.
         -2   -1    0    0    0  501 -0.00000000000E+00 -0.00000000000E+00 -0.20385848912E+03  0.20385848912E+03  0.00000000000E+00 0.  1.
        -24    2    1    2    0    0  0.18880780315E+02  0.12888160195E+02 -0.15061970916E+03  0.17230058910E+03  0.80489798604E+02 0.  0.
         23    2    1    2    0    0  0.49952429397E+02  0.86670053601E+02  0.26299611769E+03  0.29604205185E+03  0.92016276542E+02 0.  0.
         11    1    3    3    0    0 -0.56557002812E+00 -0.27208092397E+02 -0.18601060348E+02  0.32963610351E+02  0.00000000000E+00 0. -1.
        -12    1    3    3    0    0  0.19446350343E+02  0.40096252592E+02 -0.13201864881E+03  0.13933697875E+03  0.00000000000E+00 0.  1.
        -11    1    4    4    0    0  0.38991189397E+02  0.39859402699E+02  0.23253668879E+03  0.23912840999E+03  0.00000000000E+00 0. -1.
         11    1    4    4    0    0  0.10961239999E+02  0.46810650902E+02  0.30459428907E+02  0.56913641858E+02  0.00000000000E+00 0.  1.
         21    1    1    2  502  501 -0.68833209711E+02 -0.99558213796E+02  0.11566701898E+03  0.16741776481E+03  0.00000000000E+00 0. -1.
<scales pt_clust_5="13000.00000" pt_clust_6="13000.00000" pt_clust_7="13000.00000" pt_clust_8="13000.00000" pt_clust_9="108.12969"></scales>
<clustering>
<clus scale="   80.490">  5  6 -1 -1</clus>
<clus scale="   83.673">  2  5  1 -1</clus>
<clus scale="   92.016">  7  8 -1 -1</clus>
<clus scale="  108.130">  2  9  1 -1</clus>
<clus scale="  141.982">  1  5  2 -1</clus>
</clustering>
</event>
<event>
 9    1  0.2333971E-005  0.9451235E+02  0.7546771E-02  0.1298168E+00
         -2   -1    0    0    0  501 -0.00000000000E+00  0.00000000000E+00  0.48001961938E+03  0.48001961938E+03  0.00000000000E+00 0.  1.
          1   -1    0    0  502    0  0.00000000000E+00 -0.00000000000E+00 -0.62994433255E+02  0.62994433255E+02  0.00000000000E+00 0. -1.
        -24    2    1    2    0    0  0.11619121601E+02  0.14960774113E+02  0.33474778620E+03  0.34493307044E+03  0.81017985490E+02 0.  0.
         23    2    1    2    0    0 -0.56311516840E+02 -0.51152298748E+02  0.35541029543E+02  0.12397615803E+03  0.91210626476E+02 0.  0.
         11    1    3    3    0    0 -0.36504921020E+01  0.43561640850E+02  0.25707454728E+03  0.26076477044E+03  0.00000000000E+00 0. -1.
        -12    1    3    3    0    0  0.15269613703E+02 -0.28600866737E+02  0.77673238919E+02  0.84168300000E+02  0.00000000000E+00 0.  1.
        -13    1    4    4    0    0 -0.27171083114E+02 -0.70675667285E+02  0.24560475325E+01  0.75758497036E+02  0.00000000000E+00 0. -1.
         13    1    4    4    0    0 -0.29140433727E+02  0.19523368536E+02  0.33084982011E+02  0.48217660991E+02  0.00000000000E+00 0.  1.
         21    1    1    2  502  501  0.44692395239E+02  0.36191524636E+02  0.46736370385E+02  0.74104824165E+02  0.00000000000E+00 0.  1.
<scales pt_clust_5="13000.00000" pt_clust_6="13000.00000" pt_clust_7="13000.00000" pt_clust_8="13000.00000" pt_clust_9="57.50858"></scales>
<clustering>
<clus scale="   57.509">  2  9  1 -1</clus>
<clus scale="   81.018">  5  6 -1 -1</clus>
<clus scale="   84.718">  1  5  2 -1</clus>
<clus scale="   91.211">  7  8 -1 -1</clus>
<clus scale="   57.509">  2  5  1 -1</clus>
</clustering>
</event>
<event>
 9    1  0.2333971E-005  0.2011382E+03  0.7546771E-02  0.1149760E+00
          1   -1    0    0  502    0  0.00000000000E+00  0.00000000000E+00  0.69030171717E+03  0.69030171717E+03  0.00000000000E+00 0. -1.
         -2   -1    0    0    0  501 -0.00000000000E+00 -0.00000000000E+00 -0.84452939372E+02  0.84452939372E+02  0.00000000000E+00 0.  1.
        -24    2    1    2    0    0  0.15586933135E+03  0.22310092664E+02  0.93204661128E+02  0.20016667724E+03  0.81157877811E+02 0.  0.
         23    2    1    2    0    0 -0.18858045292E+03  0.39559782344E+01  0.47042124040E+03  0.51506743465E+03  0.91761003890E+02 0.  0.
         11    1    3    3    0    0  0.26514786953E+02  0.29929683937E+02  0.49024846039E+02  0.63263381485E+02  0.00000000000E+00 0. -1.
        -12    1    3    3    0    0  0.12935454439E+03 -0.76195912723E+01  0.44179815088E+02  0.13690329575E+03  0.00000000000E+00 0.  1.
        -13    1    4    4    0    0 -0.15114811069E+03 -0.13141252992E+02  0.26317907732E+03  0.30377898320E+03  0.00000000000E+00 0.  1.
         13    1    4    4    0    0 -0.37432342234E+02  0.17097231227E+02  0.20724216308E+03  0.21128845145E+03  0.00000000000E+00 0. -1.
         21    1    1    2  502  501  0.32711121573E+02 -0.26266070899E+02  0.42222876270E+02  0.59520544651E+02  0.00000000000E+00 0. -1.
<scales pt_clust_5="13000.00000" pt_clust_6="13000.00000" pt_clust_7="13000.00000" pt_clust_8="13000.00000" pt_clust_9="41.95145"></scales>
<clustering>
<clus scale="   41.951">  2  9  1 -1</clus>
<clus scale="   81.158">  5  6 -1 -1</clus>
<clus scale="   91.761">  7  8 -1 -1</clus>
<clus scale="  196.528">  2  5  1 -1</clus>
<clus scale="  201.138">  1  5  2 -1</clus>
</clustering>
</event>
<event>
 9    1  0.2333971E-005  0.1508232E+03  0.7546771E-02  0.1201634E+00
          1   -1    0    0  502    0  0.00000000000E+00  0.00000000000E+00  0.81213358582E+03  0.81213358582E+03  0.00000000000E+00 0. -1.
         -2   -1    0    0    0  501 -0.00000000000E+00 -0.00000000000E+00 -0.69735289799E+02  0.69735289799E+02  0.00000000000E+00 0.  1.
         23    2    1    2    0    0  0.11641912810E+03 -0.55736543885E+01  0.38098161745E+02  0.15314068433E+03  0.91739414965E+02 0.  0.
        -24    2    1    2    0    0 -0.14080517743E+03  0.43762222415E+00  0.62391170869E+03  0.64456550837E+03  0.79828471319E+02 0.  0.
         11    1    4    4    0    0 -0.14109975245E+03  0.85012072377E+01  0.61939160976E+03  0.63531675320E+03  0.00000000000E+00 0. -1.
        -12    1    4    4    0    0  0.29457502058E+00 -0.80635850135E+01  0.45200989348E+01  0.92487551645E+01  0.00000000000E+00 0.  1.
        -11    1    3    3    0    0  0.26028673836E+02  0.37093390932E+02 -0.22011857032E+01  0.45368014404E+02  0.00000000000E+00 0.  1.
         11    1    3    3    0    0  0.90390454262E+02 -0.42667045320E+02  0.40299347448E+02  0.10777266993E+03  0.00000000000E+00 0. -1.
         21    1    1    2  502  501  0.24386049332E+02  0.51360321643E+01  0.80388425582E+02  0.84162682918E+02  0.00000000000E+00 0. -1.
<scales pt_clust_5="13000.00000" pt_clust_6="13000.00000" pt_clust_7="13000.00000" pt_clust_8="13000.00000" pt_clust_9="24.92104"></scales>
<clustering>
<clus scale="   24.921">  1  9  2 -1</clus>
<clus scale="   79.828">  5  6 -1 -1</clus>
<clus scale="   91.739">  7  8 -1 -1</clus>
<clus scale="  143.889">  1  5  2 -1</clus>
<clus scale="   24.921">  1  5  2 -1</clus>
</clustering>
</event>
<event>
 9    1  0.2333971E-005  0.1998717E+03  0.7546771E-02  0.1162501E+00
          1   -1    0    0  502    0  0.00000000000E+00  0.00000000000E+00  0.22531857493E+03  0.22531857493E+03  0.00000000000E+00 0. -1.
         -2   -1    0    0    0  501 -0.00000000000E+00 -0.00000000000E+00 -0.54653912491E+03  0.54653912491E+03  0.00000000000E+00 0.  1.
         23    2    1    2    0    0  0.84342035427E+02  0.80551543714E+02 -0.32886743260E+03  0.36087275396E+03  0.92050128658E+02 0.  0.
        -24    2    1    2    0    0 -0.16469628735E+03  0.97466564276E+02  0.47081922768E+02  0.21173039771E+03  0.77385112553E+02 0.  0.
         13    1    4    4    0    0 -0.14279528380E+03  0.78376891333E+02  0.80723648602E+01  0.16309075156E+03  0.00000000000E+00 0. -1.
        -14    1    4    4    0    0 -0.21901003555E+02  0.19089672943E+02  0.39009557908E+02  0.48639646154E+02  0.00000000000E+00 0.  1.
        -11    1    3    3    0    0  0.75840568879E+02  0.10073948864E+03 -0.29061871890E+03  0.31679563796E+03  0.00000000000E+00 0.  1.
         11    1    3    3    0    0  0.85014665479E+01 -0.20187944929E+02 -0.38248713708E+02  0.44077115993E+02  0.00000000000E+00 0. -1.
         21    1    1    2  502  501  0.80354251925E+02 -0.17801810799E+03 -0.39435040142E+02  0.19925454817E+03  0.00000000000E+00 0.  1.
<scales pt_clust_5="13000.00000" pt_clust_6="13000.00000" pt_clust_7="13000.00000" pt_clust_8="13000.00000" pt_clust_9="184.28301"></scales>
<clustering>
<clus scale="   77.385">  5  6 -1 -1</clus>
<clus scale="   92.050">  7  8 -1 -1</clus>
<clus scale="  148.578">  2  7  1 -1</clus>
<clus scale="  184.283">  2  9  1 -1</clus>
<clus scale="  199.872">  1  5  2 -1</clus>
</clustering>
</event>
<event>
 9    1  0.3061817E-005  0.1366930E+03  0.7546771E-02  0.1220352E+00
         -2   -1    0    0    0  501 -0.00000000000E+00  0.00000000000E+00  0.37478443824E+03  0.37478443824E+03  0.00000000000E+00 0.  1.
          1   -1    0    0  502    0  0.00000000000E+00 -0.00000000000E+00 -0.70205460922E+03  0.70205460922E+03  0.00000000000E+00 0. -1.
         23    2    1    2    0    0  0.46532227477E+02 -0.87538034968E+02  0.31268468436E+03  0.34048103985E+03  0.91254977400E+02 0.  0.
        -24    2    1    2    0    0 -0.72110923199E+02  0.72000739088E+02 -0.67666218328E+03  0.68899657645E+03  0.80377113657E+02 0.  0.
         11    1    4    4    0    0 -0.42059402811E+02  0.83519120639E+02 -0.41752975403E+03  0.42787326672E+03  0.00000000000E+00 0. -1.
        -12    1    4    4    0    0 -0.30051520388E+02 -0.11518381550E+02 -0.25913242926E+03  0.26112330973E+03  0.00000000000E+00 0.  1.
        -11    1    3    3    0    0  0.13116053760E+02 -0.97754181175E+02  0.24932204986E+03  0.26812197849E+03  0.00000000000E+00 0. -1.
         11    1    3    3    0    0  0.33416173717E+02  0.10216146208E+02  0.63362634505E+02  0.72359061358E+02  0.00000000000E+00 0.  1.
         21    1    1    2  502  501  0.25578695721E+02  0.15537295880E+02  0.36707327942E+02  0.47361431172E+02  0.00000000000E+00 0.  1.
<scales pt_clust_5="13000.00000" pt_clust_6="13000.00000" pt_clust_7="13000.00000" pt_clust_8="13000.00000" pt_clust_9="29.92787"></scales>
<clustering>
<clus scale="   29.928">  1  9  2 -1</clus>
<clus scale="   80.377">  5  6 -1 -1</clus>
<clus scale="   91.255">  7  8 -1 -1</clus>
<clus scale="  129.684">  2  5  1 -1</clus>
<clus scale="  129.684">  2  5  1 -1</clus>
</clustering>
</event>
<event>
 9    1  0.2333971E-005  0.2651034E+03  0.7546771E-02  0.1106064E+00
         -2   -1    0    0    0  501 -0.00000000000E+00  0.00000000000E+00  0.62481730123E+03  0.62481730123E+03  0.00000000000E+00 0.  1.
          1   -1    0    0  502    0  0.00000000000E+00 -0.00000000000E+00 -0.51461127016E+03  0.51461127016E+03  0.00000000000E+00 0. -1.
        -24    2    1    2    0    0  0.12057185995E+03 -0.23946804683E+03  0.50766481809E+03  0.57974216860E+03  0.80590915475E+02 0.  0.
         23    2    1    2    0    0 -0.97203415966E+02  0.21612001867E+03 -0.43573190011E+03  0.50912905141E+03  0.11486398773E+03 0.  0.
         13    1    3    3    0    0  0.77173706254E+02 -0.70287097052E+02  0.21301668225E+03  0.23721754544E+03  0.00000000000E+00 0. -1.
        -14    1    3    3    0    0  0.43398153695E+02 -0.16918094978E+03  0.29464813585E+03  0.34252462316E+03  0.00000000000E+00 0.  1.
        -11    1    4    4    0    0 -0.10474698212E+03  0.10164066757E+03 -0.20759107904E+03  0.25376526883E+03  0.00000000000E+00 0.  1.
         11    1    4    4    0    0  0.75435661557E+01  0.11447935109E+03 -0.22814082107E+03  0.25536378258E+03  0.00000000000E+00 0. -1.
         21    1    1    2  502  501 -0.23368443983E+02  0.23348028167E+02  0.38273113085E+02  0.50557351381E+02  0.00000000000E+00 0.  1.
<scales pt_clust_5="13000.00000" pt_clust_6="13000.00000" pt_clust_7="13000.00000" pt_clust_8="13000.00000" pt_clust_9="33.03354"></scales>
<clustering>
<clus scale="   33.034">  1  9  2 -1</clus>
<clus scale="   80.591">  5  6 -1 -1</clus>
<clus scale="  114.864">  7  8 -1 -1</clus>
<clus scale="  252.153">  1  5  2 -1</clus>
<clus scale="  265.103">  2  5  1 -1</clus>
</clustering>
</event>
<event>
 9    1  0.2333971E-005  0.3389836E+03  0.7546771E-02  0.1098097E+00
         -2   -1    0    0    0  501 -0.00000000000E+00  0.00000000000E+00  0.23543228088E+03  0.23543228088E+03  0.00000000000E+00 0.  1.
          1   -1    0    0  502    0  0.00000000000E+00 -0.00000000000E+00 -0.79851596465E+03  0.79851596465E+03  0.00000000000E+00 0. -1.
        -24    2    1    2    0    0  0.74465891537E+02  0.99833879123E+02 -0.25956050594E+02  0.15044133067E+03  0.80292621006E+02 0.  0.
         23    2    1    2    0    0 -0.35365429817E+03 -0.47722873299E+02 -0.45923294088E+03  0.58900851688E+03  0.93205706453E+02 0.  0.
         11    1    3    3    0    0  0.27581330925E+02  0.97292648378E+02 -0.20358106800E+02  0.10315542524E+03  0.00000000000E+00 0. -1.
        -12    1    3    3    0    0  0.46884560613E+02  0.25412307447E+01 -0.55979437931E+01  0.47285905429E+02  0.00000000000E+00 0.  1.
        -11    1    4    4    0    0 -0.23706104638E+03 -0.32878496903E+02 -0.23274681218E+03  0.33384130039E+03  0.00000000000E+00 0. -1.
         11    1    4    4    0    0 -0.11659325179E+03 -0.14844376396E+02 -0.22648612871E+03  0.25516721649E+03  0.00000000000E+00 0.  1.
         21    1    1    2  502  501  0.27918840664E+03 -0.52111005824E+02 -0.77894692298E+02  0.29449839799E+03  0.00000000000E+00 0.  1.
<scales pt_clust_5="13000.00000" pt_clust_6="13000.00000" pt_clust_7="13000.00000" pt_clust_8="13000.00000" pt_clust_9="325.91806"></scales>
<clustering>
<clus scale="   80.293">  5  6 -1 -1</clus>
<clus scale="   93.206">  7  8 -1 -1</clus>
<clus scale="  148.185">  1  5  2 -1</clus>
<clus scale="  325.918">  1  9  2 -1</clus>
<clus scale="  338.984">  2  5  1 -1</clus>
</clustering>
</event>
<event>
 9    1  0.2333971E-005  0.1298941E+03  0.7546771E-02  0.1231010E+00
          1   -1    0    0  502    0  0.00000000000E+00  0.00000000000E+00  0.52929088188E+03  0.52929088188E+03  0.00000000000E+00 0. -1.
         -2   -1    0    0    0  501 -0.00000000000E+00 -0.00000000000E+00 -0.64619100833E+02  0.64619100833E+02  0.00000000000E+00 0.  1.
         23    2    1    2    0    0  0.48389329671E+02  0.11098454262E+02  0.53628246815E+02  0.11662477349E+03  0.90888096148E+02 0.  0.
        -24    2    1    2    0    0 -0.10624693765E+03 -0.17734282533E+02  0.39519285929E+03  0.41692975451E+03  0.77782437755E+02 0.  0.
         13    1    4    4    0    0 -0.50482950325E+02 -0.27353450929E+02  0.30571296420E+03  0.31105812324E+03  0.00000000000E+00 0. -1.
        -14    1    4    4    0    0 -0.55763987322E+02  0.96191683953E+01  0.89479895093E+02  0.10587163127E+03  0.00000000000E+00 0.  1.
        -13    1    3    3    0    0  0.62013794533E+02  0.38265611091E+02  0.33724216358E+02  0.80295021473E+02  0.00000000000E+00 0.  1.
         13    1    3    3    0    0 -0.13624464861E+02 -0.27167156829E+02  0.19904030457E+02  0.36329752013E+02  0.00000000000E+00 0. -1.
         21    1    1    2  502  501  0.57857607977E+02  0.66358282714E+01  0.15850674936E+02  0.60355454713E+02  0.00000000000E+00 0. -1.
<scales pt_clust_5="13000.00000" pt_clust_6="13000.00000" pt_clust_7="13000.00000" pt_clust_8="13000.00000" pt_clust_9="58.23690"></scales>
<clustering>
<clus scale="   58.237">  2  9  1 -1</clus>
<clus scale="   77.782">  5  6 -1 -1</clus>
<clus scale="   90.888">  7  8 -1 -1</clus>
<clus scale="  121.086">  1  5  2 -1</clus>
<clus scale="  121.086">  1  5  2 -1</clus>
</clustering>
</event>
<event>
 9    1  0.2333971E-005  0.9532037E+02  0.7546771E-02  0.1296368E+00
         -2   -1    0    0    0  501 -0.00000000000E+00  0.00000000000E+00  0.48211095247E+02  0.48211095247E+02  0.00000000000E+00 0.  1.
          1   -1    0    0  502    0  0.00000000000E+00 -0.00000000000E+00 -0.30701596549E+03  0.30701596549E+03  0.00000000000E+00 0. -1.
        -24    2    1    2    0    0  0.90523762800E+01 -0.32673200920E+02 -0.33335306973E+02  0.92956288396E+02  0.79875811650E+02 0.  0.
         23    2    1    2    0    0  0.18226168930E+02  0.26400376712E+02 -0.20855503566E+03  0.22956651273E+03  0.90423491107E+02 0.  0.
         11    1    3    3    0    0 -0.13723176396E+02  0.20729736697E+02 -0.23233566181E+02  0.34027138454E+02  0.00000000000E+00 0. -1.
        -12    1    3    3    0    0  0.22775552676E+02 -0.53402937617E+02 -0.10101740792E+02  0.58929149942E+02  0.00000000000E+00 0.  1.
        -13    1    4    4    0    0  0.37782199524E+01  0.59440323784E+02 -0.13887824889E+03  0.15111120095E+03  0.00000000000E+00 0. -1.
         13    1    4    4    0    0  0.14447948978E+02 -0.33039947072E+02 -0.69676786768E+02  0.78455311780E+02  0.00000000000E+00 0.  1.
         21    1    1    2  502  501 -0.27278545210E+02  0.62728242082E+01 -0.16914527611E+02  0.32704259610E+02  0.00000000000E+00 0. -1.
<scales pt_clust_5="13000.00000" pt_clust_6="13000.00000" pt_clust_7="13000.00000" pt_clust_8="13000.00000" pt_clust_9="27.99049"></scales>
<clustering>
<clus scale="   27.990">  1  9  2 -1</clus>
<clus scale="   79.876">  5  6 -1 -1</clus>
<clus scale="   85.380">  1  5  2 -1</clus>
<clus scale="   90.423">  7  8 -1 -1</clus>
<clus scale="   95.320">  2  5  1 -1</clus>
</clustering>
</event>
<event>
 9    1  0.7388982E-005  0.2570674E+03  0.7546771E-02  0.1109446E+00
         -2   -1    0    0    0  501 -0.00000000000E+00  0.00000000000E+00  0.20720582681E+03  0.20720582681E+03  0.00000000000E+00 0.  1.
          1   -1    0    0  502    0  0.00000000000E+00 -0.00000000000E+00 -0.15775647138E+04  0.15775647138E+04  0.00000000000E+00 0. -1.
        -24    2    1    2    0    0  0.51355671553E+02 -0.22483778161E+03  0.10414537608E+03  0.26568848574E+03  0.80960972417E+02 0.  0.
         23    2    1    2    0    0 -0.81846004778E+02  0.22672777025E+03 -0.14644023511E+04  0.14869062704E+04  0.91168859320E+02 0.  0.
         11    1    3    3    0    0 -0.18891561165E+02 -0.35267362104E+02  0.43874181045E+01  0.40248321092E+02  0.00000000000E+00 0. -1.
        -12    1    3    3    0    0  0.70247232719E+02 -0.18957041951E+03  0.99757957975E+02  0.22544016465E+03  0.00000000000E+00 0.  1.
        -11    1    4    4    0    0 -0.48486841033E+02  0.27690101886E+02 -0.33107190828E+03  0.33574741093E+03  0.00000000000E+00 0.  1.
         11    1    4    4    0    0 -0.33359163746E+02  0.19903766837E+03 -0.11333304428E+04  0.11511588595E+04  0.00000000000E+00 0. -1.
         21    1    1    2  502  501  0.30490333225E+02 -0.18899886400E+01 -0.10101911961E+02  0.32175784412E+02  0.00000000000E+00 0.  1.
<scales pt_clust_5="13000.00000" pt_clust_6="13000.00000" pt_clust_7="13000.00000" pt_clust_8="13000.00000" pt_clust_9="30.54885"></scales>
<clustering>
<clus scale="   30.549">  1  9  2 -1</clus>
<clus scale="   80.961">  5  6 -1 -1</clus>
<clus scale="   91.169">  7  8 -1 -1</clus>
<clus scale="  253.627">  1  5  2 -1</clus>
<clus scale="  257.067">  2  5  1 -1</clus>
</clustering>
</event>
<event>
 9    1  0.2333971E-005  0.1279019E+03  0.7546771E-02  0.1234245E+00
         -2   -1    0    0    0  501 -0.00000000000E+00  0.00000000000E+00  0.26554662437E+03  0.26554662437E+03  0.00000000000E+00 0.  1.
          1   -1    0    0  502    0  0.00000000000E+00 -0.00000000000E+00 -0.87707352977E+02  0.87707352977E+02  0.00000000000E+00 0. -1.
         23    2    1    2    0    0  0.14712353222E+02 -0.88905143775E+02  0.63728515019E+02  0.14472277953E+03  0.93609728991E+02 0.  0.
        -24    2    1    2    0    0 -0.55910086128E+02  0.70444098410E+02  0.51286264756E+02  0.13116854442E+03  0.80539414961E+02 0.  0.
         11    1    4    4    0    0 -0.63879516063E+02  0.20834298477E+02  0.14089409545E+02  0.68652545668E+02  0.00000000000E+00 0. -1.
        -12    1    4    4    0    0  0.79694299348E+01  0.49609799933E+02  0.37196855211E+02  0.62515998756E+02  0.00000000000E+00 0.  1.
        -13    1    3    3    0    0 -0.17012327349E+02 -0.55902918208E+02  0.77368755018E+02  0.96956071492E+02  0.00000000000E+00 0.  1.
         13    1    3    3    0    0  0.31724680572E+02 -0.33002225567E+02 -0.13640239999E+02  0.47766708040E+02  0.00000000000E+00 0. -1.
         21    1    1    2  502  501  0.41197732906E+02  0.18461045365E+02  0.62824491618E+02  0.77362653390E+02  0.00000000000E+00 0.  1.
<scales pt_clust_5="13000.00000" pt_clust_6="13000.00000" pt_clust_7="13000.00000" pt_clust_8="13000.00000" pt_clust_9="45.14492"></scales>
<clustering>
<clus scale="   45.145">  1  9  2 -1</clus>
<clus scale="   80.539">  5  6 -1 -1</clus>
<clus scale="   93.610">  7  8 -1 -1</clus>
<clus scale="  118.671">  2  5  1 -1</clus>
<clus scale="  118.671">  2  5  1 -1</clus>
</clustering>
</event>
<event>
 9    1  0.2333971E-005  0.1017418E+03  0.7546771E-02  0.1282452E+00
         -4   -1    0    0    0  501 -0.00000000000E+00  0.00000000000E+00  0.96086423509E+02  0.96086423509E+02  0.00000000000E+00 0.  1.
          3   -1    0    0  502    0  0.00000000000E+00 -0.00000000000E+00 -0.18150097561E+03  0.18150097561E+03  0.00000000000E+00 0. -1.
        -24    2    1    2    0    0 -0.20878989323E+02  0.51201143237E+02 -0.60597265861E+01  0.96237618376E+02  0.78533239080E+02 0.  0.
         23    2    1    2    0    0  0.43372484721E+02 -0.18208882342E+02 -0.94034870168E+02  0.13880626977E+03  0.90619467524E+02 0.  0.
         13    1    3    3    0    0  0.14015732674E+02  0.58202419796E+02  0.13627026991E+01  0.59881711659E+02  0.00000000000E+00 0. -1.
        -14    1    3    3    0    0 -0.34894721997E+02 -0.70012765594E+01 -0.74224292851E+01  0.36355906717E+02  0.00000000000E+00 0.  1.
        -11    1    4    4    0    0  0.18031449365E+02 -0.51852575309E+02 -0.31153419461E+02  0.63121773394E+02  0.00000000000E+00 0.  1.
         11    1    4    4    0    0  0.25341035355E+02  0.33643692966E+02 -0.62881450707E+02  0.75684496381E+02  0.00000000000E+00 0. -1.
         21    1    1    2  502  501 -0.22493495398E+02 -0.32992260895E+02  0.14680044657E+02  0.42543510966E+02  0.00000000000E+00 0.  1.
<scales pt_clust_5="13000.00000" pt_clust_6="13000.00000" pt_clust_7="13000.00000" pt_clust_8="13000.00000" pt_clust_9="39.93052"></scales>
<clustering>
<clus scale="   39.931">  1  9  2 -1</clus>
<clus scale="   78.533">  5  6 -1 -1</clus>
<clus scale="   90.619">  7  8 -1 -1</clus>
<clus scale="   91.143">  1  5  2 -1</clus>
<clus scale="  101.742">  2  5  1 -1</clus>
</clustering>
</event>
<event>
 9    1  0.2333971E-005  0.9866610E+02  0.7546771E-02  0.1288487E+00
          1   -1    0    0  502    0  0.00000000000E+00  0.00000000000E+00  0.11367491717E+04  0.11367491717E+04  0.00000000000E+00 0. -1.
         -2   -1    0    0    0  501 -0.00000000000E+00 -0.00000000000E+00 -0.58741620086E+02  0.58741620086E+02  0.00000000000E+00 0.  1.
         23    2    1    2    0    0  0.34410033865E+02 -0.48525590995E+02  0.43642862182E+02  0.11815400203E+03  0.92286972879E+02 0.  0.
        -24    2    1    2    0    0 -0.27112275272E+02  0.20172189265E+02  0.10430335990E+04  0.10468028306E+04  0.82067561992E+02 0.  0.
         11    1    4    4    0    0  0.11159841054E+02  0.29640431841E+02  0.17292450448E+03  0.17580097128E+03  0.00000000000E+00 0. -1.
        -12    1    4    4    0    0 -0.38272116327E+02 -0.94682425759E+01  0.87010909454E+03  0.87100185930E+03  0.00000000000E+00 0.  1.
        -13    1    3    3    0    0  0.65564361276E+02 -0.27783665339E+02  0.20305862538E+02  0.74046914740E+02  0.00000000000E+00 0.  1.
         13    1    3    3    0    0 -0.31154327411E+02 -0.20741925656E+02  0.23336999645E+02  0.44107087285E+02  0.00000000000E+00 0. -1.
         21    1    1    2  502  501 -0.72977585923E+01  0.28353401730E+02 -0.86689095855E+01  0.30533959185E+02  0.00000000000E+00 0.  1.
<scales pt_clust_5="13000.00000" pt_clust_6="13000.00000" pt_clust_7="13000.00000" pt_clust_8="13000.00000" pt_clust_9="29.27751"></scales>
<clustering>
<clus scale="   29.278">  2  9  1 -1</clus>
<clus scale="   82.068">  5  6 -1 -1</clus>
<clus scale="   89.181">  1  5  2 -1</clus>
<clus scale="   92.287">  7  8 -1 -1</clus>
<clus scale="   89.181">  1  5  2 -1</clus>
</clustering>
</event>
<event>
 9    1  0.2333971E-005  0.1708784E+03  0.7546771E-02  0.1178280E+00
         -2   -1    0    0    0  501 -0.00000000000E+00  0.00000000000E+00  0.48162855307E+02  0.48162855307E+02  0.00000000000E+00 0.  1.
          1   -1    0    0  502    0  0.00000000000E+00 -0.00000000000E+00 -0.99804306228E+03  0.99804306228E+03  0.00000000000E+00 0. -1.
        -24    2    1    2    0    0 -0.15570183178E+03 -0.13926560113E+01 -0.42689579022E+03  0.46179067312E+03  0.82253329180E+02 0.  0.
         23    2    1    2    0    0  0.12629068650E+03 -0.63924802314E+02 -0.45628844119E+03  0.48653910343E+03  0.92116446692E+02 0.  0.
         11    1    3    3    0    0 -0.56649544398E+02 -0.37610316436E+02 -0.12983393558E+03  0.14656247000E+03  0.00000000000E+00 0. -1.
        -12    1    3    3    0    0 -0.99052287387E+02  0.36217660425E+02 -0.29706185464E+03  0.31522820312E+03  0.00000000000E+00 0.  1.
        -11    1    4    4    0    0  0.96345730259E+02 -0.54431136193E+02 -0.43434625518E+03  0.44822083588E+03  0.00000000000E+00 0. -1.
         11    1    4    4    0    0  0.29944956244E+02 -0.94936661209E+01 -0.21942186006E+02  0.38318267544E+02  0.00000000000E+00 0.  1.
         21    1    1    2  502  501  0.29411145281E+02  0.65317458325E+02 -0.66695975564E+02  0.97876141042E+02  0.00000000000E+00 0.  1.
<scales pt_clust_5="13000.00000" pt_clust_6="13000.00000" pt_clust_7="13000.00000" pt_clust_8="13000.00000" pt_clust_9="71.63369"></scales>
<clustering>
<clus scale="   71.634">  1  9  2 -1</clus>
<clus scale="   82.253">  5  6 -1 -1</clus>
<clus scale="   92.116">  7  8 -1 -1</clus>
<clus scale="  165.770">  1  5  2 -1</clus>
<clus scale="  170.878">  2  5  1 -1</clus>
</clustering>
</event>
<event>
 9    1  0.2333971E-005  0.1756233E+03  0.7546771E-02  0.1173408E+00
         -2   -1    0    0    0  501 -0.00000000000E+00  0.00000000000E+00  0.14469723457E+03  0.14469723457E+03  0.00000000000E+00 0.  1.
          1   -1    0    0  502    0  0.00000000000E+00 -0.00000000000E+00 -0.88183115408E+03  0.88183115408E+03  0.00000000000E+00 0. -1.
         23    2    1    2    0    0 -0.84479448600E+02  0.97650656335E+02  0.69710057505E+02  0.17240102022E+03  0.90499678109E+02 0.  0.
        -24    2    1    2    0    0  0.91491347702E+02 -0.12153560912E+03 -0.81088342878E+03  0.82890882626E+03  0.80102036181E+02 0.  0.
         11    1    4    4    0    0  0.90988922563E+02 -0.93124024304E+02 -0.75575586996E+03  0.76688852052E+03  0.00000000000E+00 0. -1.
        -12    1    4    4    0    0  0.50242513941E+00 -0.28411584814E+02 -0.55127558817E+02  0.62020305737E+02  0.00000000000E+00 0.  1.
        -13    1    3    3    0    0 -0.70483101202E+02  0.11437668056E+03  0.67853885025E+02  0.15051259855E+03  0.00000000000E+00 0.  1.
         13    1    3    3    0    0 -0.13996347398E+02 -0.16726024224E+02  0.18561724793E+01  0.21888421667E+02  0.00000000000E+00 0. -1.
         21    1    1    2  502  501 -0.70118991026E+01  0.23884952783E+02  0.40394517608E+01  0.25218542167E+02  0.00000000000E+00 0. -1.
<scales pt_clust_5="13000.00000" pt_clust_6="13000.00000" pt_clust_7="13000.00000" pt_clust_8="13000.00000" pt_clust_9="24.89292"></scales>
<clustering>
<clus scale="   24.893">  1  9  2 -1</clus>
<clus scale="   80.102">  5  6 -1 -1</clus>
<clus scale="   90.500">  7  8 -1 -1</clus>
<clus scale="  170.498">  2  5  1 -1</clus>
<clus scale="  170.498">  2  5  1 -1</clus>
</clustering>
</event>
<event>
 9    1  0.2333971E-005  0.1452253E+03  0.7546771E-02  0.1208935E+00
          3   -1    0    0  502    0  0.00000000000E+00  0.00000000000E+00  0.11941076317E+03  0.11941076317E+03  0.00000000000E+00 0. -1.
         -4   -1    0    0    0  501 -0.00000000000E+00 -0.00000000000E+00 -0.42316887791E+03  0.42316887791E+03  0.00000000000E+00 0.  1.
        -24    2    1    2    0    0 -0.99096177125E+02 -0.79934323100E+02 -0.30756935602E+03  0.34233735713E+03  0.79915011065E+02 0.  0.
         23    2    1    2    0    0  0.98359166339E+02  0.49475844081E+02  0.43631370908E+02  0.15010342824E+03  0.92222328593E+02 0.  0.
         13    1    3    3    0    0 -0.31568818060E+02 -0.65210712735E+02 -0.99448940836E+02  0.12304112793E+03  0.00000000000E+00 0. -1.
        -14    1    3    3    0    0 -0.67527359064E+02 -0.14723610365E+02 -0.20812041518E+03  0.21929622920E+03  0.00000000000E+00 0.  1.
        -13    1    4    4    0    0  0.11335462126E+03  0.30299296544E+02  0.45129507375E+02  0.12571392114E+03  0.00000000000E+00 0. -1.
         13    1    4    4    0    0 -0.14995454921E+02  0.19176547537E+02 -0.14981364678E+01  0.24389507100E+02  0.00000000000E+00 0.  1.
         21    1    1    2  502  501  0.73701078584E+00  0.30458479019E+02 -0.39820129624E+02  0.50138855714E+02  0.00000000000E+00 0.  1.
<scales pt_clust_5="13000.00000" pt_clust_6="13000.00000" pt_clust_7="13000.00000" pt_clust_8="13000.00000" pt_clust_9="30.46739"></scales>
<clustering>
<clus scale="   30.467">  2  9  1 -1</clus>
<clus scale="   79.915">  5  6 -1 -1</clus>
<clus scale="   92.222">  7  8 -1 -1</clus>
<clus scale="  137.738">  2  5  1 -1</clus>
<clus scale="  145.225">  1  5  2 -1</clus>
</clustering>
</event>
<event>
 9    1  0.2333971E-005  0.1015787E+03  0.7546771E-02  0.1281590E+00
          1   -1    0    0  502    0  0.00000000000E+00  0.00000000000E+00  0.58633557325E+03  0.58633557325E+03  0.00000000000E+00 0. -1.
         -2   -1    0    0    0  501 -0.00000000000E+00 -0.00000000000E+00 -0.37416593281E+02  0.37416593281E+02  0.00000000000E+00 0.  1.
        -24    2    1    2    0    0 -0.29059303849E+02 -0.15895695203E+02  0.77704204106E+02  0.11593767962E+03  0.79413386487E+02 0.  0.
         23    2    1    2    0    0  0.36003738645E+02  0.39739416808E+02  0.47162727429E+03  0.48297664502E+03  0.89211340874E+02 0.  0.
         13    1    3    3    0    0 -0.48738668896E+02 -0.22489287492E+02  0.78581592980E+02  0.95164555655E+02  0.00000000000E+00 0. -1.
        -14    1    3    3    0    0  0.19679365047E+02  0.65935922897E+01 -0.87738887479E+00  0.20773123963E+02  0.00000000000E+00 0.  1.
        -13    1    4    4    0    0 -0.11393883569E+02  0.51956935554E+02  0.29172127906E+03  0.29653102433E+03  0.00000000000E+00 0.  1.
         13    1    4    4    0    0  0.47397622214E+02 -0.12217518746E+02  0.17990599523E+03  0.18644562069E+03  0.00000000000E+00 0. -1.
         21    1    1    2  502  501 -0.69444347964E+01 -0.23843721605E+02 -0.41249842844E+00  0.24837841886E+02  0.00000000000E+00 0.  1.
<scales pt_clust_5="13000.00000" pt_clust_6="13000.00000" pt_clust_7="13000.00000" pt_clust_8="13000.00000" pt_clust_9="24.83442"></scales>
<clustering>
<clus scale="   24.834">  2  9  1 -1</clus>
<clus scale="   79.413">  5  6 -1 -1</clus>
<clus scale="   89.211">  7  8 -1 -1</clus>
<clus scale="   93.092">  2  5  1 -1</clus>
<clus scale="  101.579">  1  5  2 -1</clus>
</clustering>
</event>
<event>
 9    1  0.2333971E-005  0.1231139E+03  0.7546771E-02  0.1241381E+00
          1   -1    0    0  502    0  0.00000000000E+00  0.00000000000E+00  0.17083207551E+03  0.17083207551E+03  0.00000000000E+00 0. -1.
         -2   -1    0    0    0  501 -0.00000000000E+00 -0.00000000000E+00 -0.25303348167E+03  0.25303348167E+03  0.00000000000E+00 0.  1.
        -24    2    1    2    0    0  0.71354778623E+02  0.39706879842E+02 -0.18609890017E+03  0.21861488907E+03  0.80570021341E+02 0.  0.
         23    2    1    2    0    0 -0.93618680640E+02 -0.63285103210E+01  0.99931273277E+02  0.16493283345E+03  0.91717352579E+02 0.  0.
         13    1    3    3    0    0  0.19632671571E+02  0.45115299858E+02 -0.39596494660E+02  0.63156270185E+02  0.00000000000E+00 0. -1.
        -14    1    3    3    0    0  0.51722107052E+02 -0.54084200159E+01 -0.14650240551E+03  0.15545861889E+03  0.00000000000E+00 0.  1.
        -11    1    4    4    0    0 -0.10955815222E+03  0.65851353390E+01  0.76473998413E+02  0.13377079337E+03  0.00000000000E+00 0. -1.
         11    1    4    4    0    0  0.15939471575E+02 -0.12913645660E+02  0.23457274864E+02  0.31162040087E+02  0.00000000000E+00 0.  1.
         21    1    1    2  502  501  0.22263902017E+02 -0.33378369521E+02  0.39662207343E+01  0.40317834662E+02  0.00000000000E+00 0.  1.
<scales pt_clust_5="13000.00000" pt_clust_6="13000.00000" pt_clust_7="13000.00000" pt_clust_8="13000.00000" pt_clust_9="40.12227"></scales>
<clustering>
<clus scale="   40.122">  1  9  2 -1</clus>
<clus scale="   80.570">  5  6 -1 -1</clus>
<clus scale="   91.717">  7  8 -1 -1</clus>
<clus scale="  115.050">  2  5  1 -1</clus>
<clus scale="   40.122">  1  5  2 -1</clus>
</clustering>
</event>
<event>
 9    1  0.2333971E-005  0.1138358E+03  0.7546771E-02  0.1256650E+00
         -2   -1    0    0    0  501 -0.00000000000E+00  0.00000000000E+00  0.13014196451E+03  0.13014196451E+03  0.00000000000E+00 0.  1.
          1   -1    0    0  502    0  0.00000000000E+00 -0.00000000000E+00 -0.13341446476E+03  0.13341446476E+03  0.00000000000E+00 0. -1.
        -24    2    1    2    0    0 -0.51405081589E+02  0.21070751989E+02  0.20279916222E+02  0.10017524360E+03  0.80853852262E+02 0.  0.
         23    2    1    2    0    0  0.71748319645E+02 -0.37021580653E+02 -0.46166166892E+02  0.12903503628E+03  0.89444434239E+02 0.  0.
         13    1    3    3    0    0  0.14702335701E+01 -0.22333019764E+02 -0.11019058366E+02  0.24946843604E+02  0.00000000000E+00 0. -1.
        -14    1    3    3    0    0 -0.52875315159E+02  0.43403771754E+02  0.31298974587E+02  0.75228399995E+02  0.00000000000E+00 0.  1.
        -13    1    4    4    0    0  0.25709968147E+02 -0.25941574424E+02  0.24493220683E+02  0.43975966222E+02  0.00000000000E+00 0.  1.
         13    1    4    4    0    0  0.46038351498E+02 -0.11080006229E+02 -0.70659387575E+02  0.85059070058E+02  0.00000000000E+00 0. -1.
         21    1    1    2  502  501 -0.20343238056E+02  0.15950828664E+02  0.22613750423E+02  0.34346149389E+02  0.00000000000E+00 0. -1.
<scales pt_clust_5="13000.00000" pt_clust_6="13000.00000" pt_clust_7="13000.00000" pt_clust_8="13000.00000" pt_clust_9="25.85104"></scales>
<clustering>
<clus scale="   25.851">  1  9  2 -1</clus>
<clus scale="   80.854">  5  6 -1 -1</clus>
<clus scale="   89.444">  7  8 -1 -1</clus>
<clus scale="  107.218">  1  5  2 -1</clus>
<clus scale="  113.836">  2  5  1 -1</clus>
</clustering>
</event>
<event>
 9    1  0.2333971E-005  0.9184726E+02  0.7546771E-02  0.1306122E+00
          1   -1    0    0  502    0  0.00000000000E+00  0.00000000000E+00  0.13198333893E+03  0.13198333893E+03  0.00000000000E+00 0. -1.
         -2   -1    0    0    0  501 -0.00000000000E+00 -0.00000000000E+00 -0.20996381166E+03  0.20996381166E+03  0.00000000000E+00 0.  1.
        -24    2    1    2    0    0 -0.10524396849E+02  0.22541829544E+02 -0.14407813785E+03  0.16643545547E+03  0.79519519758E+02 0.  0.
         23    2    1    2    0    0 -0.13737636490E+01 -0.42656329335E+01  0.99674954875E+02  0.13547396326E+03  0.91640685506E+02 0.  0.
         13    1    3    3    0    0 -0.44403492479E+02  0.15898186781E+02 -0.66552660322E+02  0.81570086939E+02  0.00000000000E+00 0. -1.
        -14    1    3    3    0    0  0.33879095630E+02  0.66436427635E+01 -0.77525477525E+02  0.84865368528E+02  0.00000000000E+00 0.  1.
        -13    1    4    4    0    0  0.43966876021E+02  0.42231125873E+01  0.60792708206E+02  0.75144355996E+02  0.00000000000E+00 0.  1.
         13    1    4    4    0    0 -0.45340639670E+02 -0.84887455207E+01  0.38882246669E+02  0.60329607261E+02  0.00000000000E+00 0. -1.
         21    1    1    2  502  501  0.11898160498E+02 -0.18276196611E+02 -0.33577289752E+02  0.40037731865E+02  0.00000000000E+00 0. -1.
<scales pt_clust_5="13000.00000" pt_clust_6="13000.00000" pt_clust_7="13000.00000" pt_clust_8="13000.00000" pt_clust_9="21.80792"></scales>
<clustering>
<clus scale="   21.808">  2  9  1 -1</clus>
<clus scale="   79.520">  5  6 -1 -1</clus>
<clus scale="   79.757">  2  5  1 -1</clus>
<clus scale="   91.641">  7  8 -1 -1</clus>
<clus scale="   91.847">  1  5  2 -1</clus>
</clustering>
</event>
<event>
 9    1  0.2333971E-005  0.2267697E+03  0.7546771E-02  0.1129696E+00
         -2   -1    0    0    0  501 -0.00000000000E+00  0.00000000000E+00  0.72179792735E+02  0.72179792735E+02  0.00000000000E+00 0.  1.
          1   -1    0    0  502    0  0.00000000000E+00 -0.00000000000E+00 -0.15093030287E+04  0.15093030287E+04  0.00000000000E+00 0. -1.
         23    2    1    2    0    0 -0.13524770943E+03 -0.11425876901E+03 -0.12075928919E+03  0.23276443584E+03  0.90826579061E+02 0.  0.
        -24    2    1    2    0    0  0.15698757375E+03  0.14454630001E+03 -0.12644266973E+04  0.12847853416E+04  0.79748165534E+02 0.  0.
         11    1    4    4    0    0  0.12481914664E+03  0.14828417332E+03 -0.10234094400E+04  0.10416020821E+04  0.00000000000E+00 0. -1.
        -12    1    4    4    0    0  0.32168427114E+02 -0.37378733088E+01 -0.24101725728E+03  0.24318325951E+03  0.00000000000E+00 0.  1.
        -11    1    3    3    0    0 -0.48008819275E+02 -0.90847987580E+02 -0.35939933527E+02  0.10885716512E+03  0.00000000000E+00 0.  1.
         11    1    3    3    0    0 -0.87238890154E+02 -0.23410781430E+02 -0.84819355660E+02  0.12390727072E+03  0.00000000000E+00 0. -1.
         21    1    1    2  502  501 -0.21739864320E+02 -0.30287530997E+02 -0.51937249429E+02  0.63933043982E+02  0.00000000000E+00 0.  1.
<scales pt_clust_5="13000.00000" pt_clust_6="13000.00000" pt_clust_7="13000.00000" pt_clust_8="13000.00000" pt_clust_9="37.28212"></scales>
<clustering>
<clus scale="   37.282">  1  9  2 -1</clus>
<clus scale="   79.748">  5  6 -1 -1</clus>
<clus scale="   90.827">  7  8 -1 -1</clus>
<clus scale="  222.564">  2  5  1 -1</clus>
<clus scale="  222.564">  2  5  1 -1</clus>
</clustering>
</event>
<event>
 9    1  0.2333971E-005  0.1132918E+03  0.7546771E-02  0.1258058E+00
          1   -1    0    0  502    0  0.00000000000E+00  0.00000000000E+00  0.40364386495E+03  0.40364386495E+03  0.00000000000E+00 0. -1.
         -2   -1    0    0    0  501 -0.00000000000E+00 -0.00000000000E+00 -0.11500258874E+03  0.11500258874E+03  0.00000000000E+00 0.  1.
        -24    2    1    2    0    0  0.38151298257E+02  0.17179981841E+01 -0.38836940263E+02  0.97457012013E+02  0.80815148240E+02 0.  0.
         23    2    1    2    0    0 -0.65988366093E+02 -0.30542057702E+02  0.35440328679E+03  0.37291224039E+03  0.90413315382E+02 0.  0.
         13    1    3    3    0    0  0.61595371762E+02 -0.22673483682E+01 -0.14273334287E+02  0.63268149671E+02  0.00000000000E+00 0. -1.
        -14    1    3    3    0    0 -0.23444073506E+02  0.39853465522E+01 -0.24563605976E+02  0.34188862342E+02  0.00000000000E+00 0.  1.
        -11    1    4    4    0    0 -0.90147773348E+01  0.29004380854E+02  0.60835505565E+02  0.67996169425E+02  0.00000000000E+00 0.  1.
         11    1    4    4    0    0 -0.56973588758E+02 -0.59546438556E+02  0.29356778122E+03  0.30491607097E+03  0.00000000000E+00 0. -1.
         21    1    1    2  502  501  0.27837067836E+02  0.28824059518E+02 -0.26925070310E+02  0.48277201286E+02  0.00000000000E+00 0. -1.
<scales pt_clust_5="13000.00000" pt_clust_6="13000.00000" pt_clust_7="13000.00000" pt_clust_8="13000.00000" pt_clust_9="40.07155"></scales>
<clustering>
<clus scale="   40.072">  2  9  1 -1</clus>
<clus scale="   80.815">  5  6 -1 -1</clus>
<clus scale="   90.413">  7  8 -1 -1</clus>
<clus scale="  105.790">  2  5  1 -1</clus>
<clus scale="  113.292">  1  5  2 -1</clus>
</clustering>
</event>
<event>
 9    1  0.2333971E-005  0.2299535E+03  0.7546771E-02  0.1127431E+00
         -2   -1    0    0    0  501 -0.00000000000E+00  0.00000000000E+00  0.12427682595E+03  0.12427682595E+03  0.00000000000E+00 0.  1.
          1   -1    0    0  502    0  0.00000000000E+00 -0.00000000000E+00 -0.10302678863E+04  0.10302678863E+04  0.00000000000E+00 0. -1.
        -24    2    1    2    0    0 -0.18369616893E+03 -0.11034960905E+03 -0.51599418686E+02  0.23398862074E+03  0.78529331671E+02 0.  0.
         23    2    1    2    0    0  0.19466399102E+03  0.82517156099E+02 -0.85995009550E+03  0.89012855513E+03  0.90064018589E+02 0.  0.
         13    1    3    3    0    0 -0.11772485215E+03 -0.11153643882E+03 -0.39390970453E+02  0.16688668776E+03  0.00000000000E+00 0. -1.
        -14    1    3    3    0    0 -0.65971316776E+02  0.11868297663E+01 -0.12208448233E+02  0.67101932985E+02  0.00000000000E+00 0.  1.
        -11    1    4    4    0    0  0.15867519499E+03  0.99067730320E+02 -0.64583757954E+03  0.67238263797E+03  0.00000000000E+00 0.  1.
         11    1    4    4    0    0  0.35988796035E+02 -0.16550574221E+02 -0.21411251596E+03  0.21774591716E+03  0.00000000000E+00 0. -1.
         21    1    1    2  502  501 -0.10967822096E+02  0.27832452950E+02  0.55584538653E+01  0.30427536346E+02  0.00000000000E+00 0. -1.
<scales pt_clust_5="13000.00000" pt_clust_6="13000.00000" pt_clust_7="13000.00000" pt_clust_8="13000.00000" pt_clust_9="29.91552"></scales>
<clustering>
<clus scale="   29.916">  1  9  2 -1</clus>
<clus scale="   78.529">  5  6 -1 -1</clus>
<clus scale="   90.064">  7  8 -1 -1</clus>
<clus scale="  225.685">  1  5  2 -1</clus>
<clus scale="  229.953">  2  5  1 -1</clus>
</clustering>
</event>
<event>
 9    1  0.2333971E-005  0.1054554E+03  0.7546771E-02  0.1280751E+00
          1   -1    0    0  502    0  0.00000000000E+00  0.00000000000E+00  0.27472798788E+03  0.27472798788E+03  0.00000000000E+00 0. -1.
         -2   -1    0    0    0  501 -0.00000000000E+00 -0.00000000000E+00 -0.11299536055E+03  0.11299536055E+03  0.00000000000E+00 0.  1.
        -24    2    1    2    0    0  0.11072564545E+02  0.62463886999E+02 -0.16444035562E+02  0.10337646954E+03  0.79949667193E+02 0.  0.
         23    2    1    2    0    0 -0.35253509360E+01 -0.19796155542E+02  0.20751408152E+03  0.23201925834E+03  0.10181613986E+03 0.  0.
         13    1    3    3    0    0 -0.30384276222E+02  0.49491927093E+02 -0.14682425921E+02  0.59901825680E+02  0.00000000000E+00 0. -1.
        -14    1    3    3    0    0  0.41456840767E+02  0.12971959906E+02 -0.17616096407E+01  0.43474643859E+02  0.00000000000E+00 0.  1.
        -11    1    4    4    0    0 -0.34039080561E+02 -0.49120502866E+02  0.10029145028E+03  0.11674698201E+03  0.00000000000E+00 0.  1.
         11    1    4    4    0    0  0.30513729625E+02  0.29324347324E+02  0.10722263124E+03  0.11527227633E+03  0.00000000000E+00 0. -1.
         21    1    1    2  502  501 -0.75472136094E+01 -0.42667731456E+02 -0.29337418635E+02  0.52327620556E+02  0.00000000000E+00 0.  1.
<scales pt_clust_5="13000.00000" pt_clust_6="13000.00000" pt_clust_7="13000.00000" pt_clust_8="13000.00000" pt_clust_9="43.33008"></scales>
<clustering>
<clus scale="   43.330">  2  9  1 -1</clus>
<clus scale="   79.950">  5  6 -1 -1</clus>
<clus scale="   84.536">  2  5  1 -1</clus>
<clus scale="  101.816">  7  8 -1 -1</clus>
<clus scale="  105.455">  1  5  2 -1</clus>
</clustering>
</event>
<event>
 9    1  0.2333971E-005  0.1493626E+03  0.7546771E-02  0.1203294E+00
          1   -1    0    0  502    0  0.00000000000E+00  0.00000000000E+00  0.16391024392E+03  0.16391024392E+03  0.00000000000E+00 0. -1.
         -2   -1    0    0    0  501 -0.00000000000E+00 -0.00000000000E+00 -0.34520877836E+03  0.34520877836E+03  0.00000000000E+00 0.  1.
        -24    2    1    2    0    0 -0.12632780738E+03 -0.19009878818E+01 -0.20916079346E+03  0.25732315669E+03  0.80651353207E+02 0.  0.
         23    2    1    2    0    0  0.74986541585E+02  0.78038773590E+02  0.60773494592E+02  0.15424568665E+03  0.91571188716E+02 0.  0.
         13    1    3    3    0    0 -0.34607594751E+02  0.33356509299E+02 -0.44122183017E+02  0.65246527580E+02  0.00000000000E+00 0. -1.
        -14    1    3    3    0    0 -0.91720212628E+02 -0.35257497181E+02 -0.16503861045E+03  0.19207662911E+03  0.00000000000E+00 0.  1.
        -13    1    4    4    0    0  0.87626283471E+02  0.55909346895E+02  0.71951824943E+02  0.12641711015E+03  0.00000000000E+00 0. -1.
         13    1    4    4    0    0 -0.12639741886E+02  0.22129426694E+02 -0.11178330351E+02  0.27828576503E+02  0.00000000000E+00 0.  1.
         21    1    1    2  502  501  0.51341265794E+02 -0.76137785708E+02 -0.32911235563E+02  0.97550178944E+02  0.00000000000E+00 0. -1.
<scales pt_clust_5="13000.00000" pt_clust_6="13000.00000" pt_clust_7="13000.00000" pt_clust_8="13000.00000" pt_clust_9="91.83076"></scales>
<clustering>
<clus scale="   80.651">  5  6 -1 -1</clus>
<clus scale="   91.571">  7  8 -1 -1</clus>
<clus scale="   91.831">  1  9  2 -1</clus>
<clus scale="  142.928">  2  5  1 -1</clus>
<clus scale="   91.831">  1  5  2 -1</clus>
</clustering>
</event>
<event>
 9    1  0.2333971E-005  0.9403572E+02  0.7546771E-02  0.1299014E+00
          1   -1    0    0  502    0  0.00000000000E+00  0.00000000000E+00  0.27722139050E+03  0.27722139050E+03  0.00000000000E+00 0. -1.
         -2   -1    0    0    0  501 -0.00000000000E+00 -0.00000000000E+00 -0.52350818814E+02  0.52350818814E+02  0.00000000000E+00 0.  1.
        -24    2    1    2    0    0 -0.11503779850E+01  0.12965008635E+02  0.27352047936E+02  0.87619036586E+02  0.82216459590E+02 0.  0.
         23    2    1    2    0    0 -0.29036149743E+02  0.49726031041E+01  0.17623143315E+03  0.20089072519E+03  0.91824510159E+02 0.  0.
         11    1    3    3    0    0 -0.35539508393E+02 -0.22108929224E+01  0.34245388660E+02  0.49403353619E+02  0.00000000000E+00 0. -1.
        -12    1    3    3    0    0  0.34389130408E+02  0.15175901557E+02 -0.68933407236E+01  0.38215682967E+02  0.00000000000E+00 0.  1.
        -13    1    4    4    0    0 -0.51649036944E+02  0.17365454709E+02  0.16308372294E+03  0.17194616228E+03  0.00000000000E+00 0. -1.
         13    1    4    4    0    0  0.22612887200E+02 -0.12392851605E+02  0.13147710201E+02  0.28944562908E+02  0.00000000000E+00 0.  1.
         21    1    1    2  502  501  0.30186527728E+02 -0.17937611739E+02  0.21287090603E+02  0.41062447535E+02  0.00000000000E+00 0.  1.
<scales pt_clust_5="13000.00000" pt_clust_6="13000.00000" pt_clust_7="13000.00000" pt_clust_8="13000.00000" pt_clust_9="35.11388"></scales>
<clustering>
<clus scale="   35.114">  2  9  1 -1</clus>
<clus scale="   82.216">  5  6 -1 -1</clus>
<clus scale="   84.679">  2  5  1 -1</clus>
<clus scale="   91.825">  7  8 -1 -1</clus>
<clus scale="   94.036">  1  5  2 -1</clus>
</clustering>
</event>
<event>
 9    1  0.2333971E-005  0.1037944E+03  0.7546771E-02  0.1277771E+00
          1   -1    0    0  502    0  0.00000000000E+00  0.00000000000E+00  0.12759576229E+03  0.12759576229E+03  0.00000000000E+00 0. -1.
         -2   -1    0    0    0  501 -0.00000000000E+00 -0.00000000000E+00 -0.13922862601E+03  0.13922862601E+03  0.00000000000E+00 0.  1.
        -24    2    1    2    0    0  0.39093121096E+02  0.52665104058E+02 -0.20486742856E+02  0.10490857553E+03  0.79273055219E+02 0.  0.
         23    2    1    2    0    0 -0.15101846225E+02 -0.40608590943E+02  0.50315137060E+02  0.11251969261E+03  0.90840215707E+02 0.  0.
         11    1    3    3    0    0  0.16447143410E+02  0.66718483644E+02  0.38407215700E+01  0.68823075551E+02  0.00000000000E+00 0. -1.
        -12    1    3    3    0    0  0.22645977686E+02 -0.14053379586E+02 -0.24327464426E+02  0.36085499976E+02  0.00000000000E+00 0.  1.
        -11    1    4    4    0    0 -0.44153595606E+02  0.44795808641E+01  0.35617324939E+02  0.56905188564E+02  0.00000000000E+00 0. -1.
         11    1    4    4    0    0  0.29051749381E+02 -0.45088171807E+02  0.14697812121E+02  0.55614504045E+02  0.00000000000E+00 0.  1.
         21    1    1    2  502  501 -0.23991274871E+02 -0.12056513115E+02 -0.41461257923E+02  0.49396120161E+02  0.00000000000E+00 0.  1.
<scales pt_clust_5="13000.00000" pt_clust_6="13000.00000" pt_clust_7="13000.00000" pt_clust_8="13000.00000" pt_clust_9="26.85034"></scales>
<clustering>
<clus scale="   26.850">  2  9  1 -1</clus>
<clus scale="   79.273">  5  6 -1 -1</clus>
<clus scale="   90.840">  7  8 -1 -1</clus>
<clus scale="   93.838">  2  5  1 -1</clus>
<clus scale="  103.794">  1  5  2 -1</clus>
</clustering>
</event>
<event>
 9    1  0.2333971E-005  0.2016233E+03  0.7546771E-02  0.1175766E+00
         -2   -1    0    0    0  501 -0.00000000000E+00  0.00000000000E+00  0.12353877070E+03  0.12353877070E+03  0.00000000000E+00 0.  1.
          1   -1    0    0  502    0  0.00000000000E+00 -0.00000000000E+00 -0.80444995461E+03  0.80444995461E+03  0.00000000000E+00 0. -1.
        -24    2    1    2    0    0 -0.22432663633E+01 -0.69742869759E+02 -0.61646729029E+02  0.12332324717E+03  0.80865344657E+02 0.  0.
         23    2    1    2    0    0 -0.24367420390E+02 -0.16569821797E+03 -0.50889825991E+03  0.54328198319E+03  0.90156551129E+02 0.  0.
         13    1    3    3    0    0  0.17178907024E+02  0.13160339387E+02 -0.11509432352E+02  0.24510740756E+02  0.00000000000E+00 0. -1.
        -14    1    3    3    0    0 -0.19422173388E+02 -0.82903209146E+02 -0.50137296677E+02  0.98812506415E+02  0.00000000000E+00 0.  1.
        -13    1    4    4    0    0 -0.24537387051E+02 -0.71122631355E+02 -0.10961624052E+03  0.13295199224E+03  0.00000000000E+00 0.  1.
         13    1    4    4    0    0  0.16996666032E+00 -0.94575586610E+02 -0.39928201939E+03  0.41032999095E+03  0.00000000000E+00 0. -1.
         21    1    1    2  502  501  0.26610686754E+02  0.23544108772E+03 -0.11036619497E+03  0.26138349495E+03  0.00000000000E+00 0.  1.
<scales pt_clust_5="13000.00000" pt_clust_6="13000.00000" pt_clust_7="13000.00000" pt_clust_8="13000.00000" pt_clust_9="180.34348"></scales>
<clustering>
<clus scale="   80.865">  5  6 -1 -1</clus>
<clus scale="   90.157">  7  8 -1 -1</clus>
<clus scale="  106.810">  1  5  2 -1</clus>
<clus scale="  180.343">  1  9  2 -1</clus>
<clus scale="  201.623">  2  5  1 -1</clus>
</clustering>
</event>
<event>
 9    1  0.2333971E-005  0.9595262E+02  0.7546771E-02  0.1296911E+00
          1   -1    0    0  502    0  0.00000000000E+00  0.00000000000E+00  0.34502945357E+03  0.34502945357E+03  0.00000000000E+00 0. -1.
         -2   -1    0    0    0  501 -0.00000000000E+00 -0.00000000000E+00 -0.69795190763E+02  0.69795190763E+02  0.00000000000E+00 0.  1.
         23    2    1    2    0    0  0.17433922257E+02 -0.16362585237E+02 -0.76092182398E+01  0.96251151999E+02  0.92923130694E+02 0.  0.
        -24    2    1    2    0    0 -0.19643616213E+02 -0.17700622062E+02  0.26906721090E+03  0.28176356897E+03  0.79337009900E+02 0.  0.
         11    1    4    4    0    0 -0.21479702185E+01 -0.48315383734E+02  0.15443500929E+03  0.16183065895E+03  0.00000000000E+00 0. -1.
        -12    1    4    4    0    0 -0.17495645995E+02  0.30614761672E+02  0.11463220161E+03  0.11993291002E+03  0.00000000000E+00 0.  1.
        -11    1    3    3    0    0 -0.25908537677E+02  0.36589259306E+01  0.26757873885E+02  0.37424909865E+02  0.00000000000E+00 0. -1.
         11    1    3    3    0    0  0.43342459933E+02 -0.20021511168E+02 -0.34367092125E+02  0.58826242134E+02  0.00000000000E+00 0.  1.
         21    1    1    2  502  501  0.22096939566E+01  0.34063207300E+02  0.13776270153E+02  0.36809923366E+02  0.00000000000E+00 0.  1.
<scales pt_clust_5="13000.00000" pt_clust_6="13000.00000" pt_clust_7="13000.00000" pt_clust_8="13000.00000" pt_clust_9="34.13480"></scales>
<clustering>
<clus scale="   34.135">  2  9  1 -1</clus>
<clus scale="   79.337">  5  6 -1 -1</clus>
<clus scale="   82.865">  1  5  2 -1</clus>
<clus scale="   92.923">  7  8 -1 -1</clus>
<clus scale="   82.865">  1  5  2 -1</clus>
</clustering>
</event>
<event>
 9    1  0.2333971E-005  0.1767374E+03  0.7546771E-02  0.1172383E+00
          1   -1    0    0  502    0  0.00000000000E+00  0.00000000000E+00  0.39907826630E+03  0.39907826630E+03  0.00000000000E+00 0. -1.
         -2   -1    0    0    0  501 -0.00000000000E+00 -0.00000000000E+00 -0.23943883199E+03  0.23943883199E+03  0.00000000000E+00 0.  1.
        -24    2    1    2    0    0  0.14287583149E+03 -0.57707732625E+02  0.31321838289E+02  0.17640824335E+03  0.79969526329E+02 0.  0.
         23    2    1    2    0    0 -0.60087217094E+02  0.15554641076E+03  0.23011381590E+03  0.29843591278E+03  0.91139816835E+02 0.  0.
         13    1    3    3    0    0  0.20693053719E+02  0.12687936790E+02  0.25604079716E+02  0.35281087148E+02  0.00000000000E+00 0. -1.
        -14    1    3    3    0    0  0.12218277777E+03 -0.70395669415E+02  0.57177585734E+01  0.14112715621E+03  0.00000000000E+00 0.  1.
        -13    1    4    4    0    0  0.22028303023E+02  0.33264967476E+02  0.72200619831E+02  0.82490809786E+02  0.00000000000E+00 0. -1.
         13    1    4    4    0    0 -0.82115520118E+02  0.12228144328E+03  0.15791319607E+03  0.21594510300E+03  0.00000000000E+00 0.  1.
         21    1    1    2  502  501 -0.82788614394E+02 -0.97838678133E+02 -0.10179621988E+03  0.16367294216E+03  0.00000000000E+00 0.  1.
<scales pt_clust_5="13000.00000" pt_clust_6="13000.00000" pt_clust_7="13000.00000" pt_clust_8="13000.00000" pt_clust_9="128.16537"></scales>
<clustering>
<clus scale="   79.970">  5  6 -1 -1</clus>
<clus scale="   91.140">  7  8 -1 -1</clus>
<clus scale="  128.165">  2  9  1 -1</clus>
<clus scale="  171.245">  2  5  1 -1</clus>
<clus scale="  176.737">  1  5  2 -1</clus>
</clustering>
</event>
<event>
 9    1  0.2333971E-005  0.1579817E+03  0.7546771E-02  0.1203500E+00
         -2   -1    0    0    0  501 -0.00000000000E+00  0.00000000000E+00  0.47681974587E+03  0.47681974587E+03  0.00000000000E+00 0.  1.
          1   -1    0    0  502    0  0.00000000000E+00 -0.00000000000E+00 -0.30096075318E+03  0.30096075318E+03  0.00000000000E+00 0. -1.
         23    2    1    2    0    0 -0.39191984424E+02 -0.10841969790E+03 -0.33708605035E+02  0.15131434365E+03  0.92026724408E+02 0.  0.
        -24    2    1    2    0    0 -0.77889643040E+02  0.44932090244E+02 -0.17903618019E+03  0.21567219241E+03  0.79842667375E+02 0.  0.
         11    1    4    4    0    0 -0.91280515397E+02  0.37929049629E+02 -0.17330022020E+03  0.19950867555E+03  0.00000000000E+00 0. -1.
        -12    1    4    4    0    0  0.13390872356E+02  0.70030406143E+01 -0.57359599929E+01  0.16163516862E+02  0.00000000000E+00 0.  1.
        -13    1    3    3    0    0  0.26185960795E+02 -0.54492833802E+02 -0.27262634981E+02  0.66320620810E+02  0.00000000000E+00 0.  1.
         13    1    3    3    0    0 -0.65377945218E+02 -0.53926864094E+02 -0.64459700542E+01  0.84993722838E+02  0.00000000000E+00 0. -1.
         21    1    1    2  502  501  0.11708162746E+03  0.63487607652E+02  0.38860377792E+03  0.41079396299E+03  0.00000000000E+00 0.  1.
<scales pt_clust_5="13000.00000" pt_clust_6="13000.00000" pt_clust_7="13000.00000" pt_clust_8="13000.00000" pt_clust_9="128.41067"></scales>
<clustering>
<clus scale="   79.843">  5  6 -1 -1</clus>
<clus scale="   92.027">  7  8 -1 -1</clus>
<clus scale="  120.252">  2  5  1 -1</clus>
<clus scale="  128.411">  1  9  2 -1</clus>
<clus scale="  120.252">  2  5  1 -1</clus>
</clustering>
</event>
<event>
 9    1  0.2333971E-005  0.9315325E+02  0.7546771E-02  0.1300807E+00
         -2   -1    0    0    0  501 -0.00000000000E+00  0.00000000000E+00  0.21484604878E+03  0.21484604878E+03  0.00000000000E+00 0.  1.
          1   -1    0    0  502    0  0.00000000000E+00 -0.00000000000E+00 -0.13565046947E+03  0.13565046947E+03  0.00000000000E+00 0. -1.
         23    2    1    2    0    0  0.28373842649E+01 -0.37295986984E+01  0.14045881629E+03  0.16722136642E+03  0.90621993233E+02 0.  0.
        -24    2    1    2    0    0  0.14786699013E+02  0.18348343974E+02 -0.10435887203E+03  0.13447402701E+03  0.81468899432E+02 0.  0.
         13    1    4    4    0    0  0.36179137892E+02 -0.19142404940E+02 -0.42121634342E+02  0.58733242419E+02  0.00000000000E+00 0. -1.
        -14    1    4    4    0    0 -0.21392438878E+02  0.37490748915E+02 -0.62237237684E+02  0.75740784587E+02  0.00000000000E+00 0.  1.
        -11    1    3    3    0    0  0.32051399610E+02  0.29103689552E+02  0.46741837015E+02  0.63711194386E+02  0.00000000000E+00 0. -1.
         11    1    3    3    0    0 -0.29214015345E+02 -0.32833288251E+02  0.93716979271E+02  0.10351017203E+03  0.00000000000E+00 0.  1.
         21    1    1    2  502  501 -0.17624083278E+02 -0.14618745276E+02  0.43095635049E+02  0.48801124835E+02  0.00000000000E+00 0.  1.
<scales pt_clust_5="13000.00000" pt_clust_6="13000.00000" pt_clust_7="13000.00000" pt_clust_8="13000.00000" pt_clust_9="22.89795"></scales>
<clustering>
<clus scale="   22.898">  1  9  2 -1</clus>
<clus scale="   81.469">  5  6 -1 -1</clus>
<clus scale="   84.276">  2  5  1 -1</clus>
<clus scale="   90.622">  7  8 -1 -1</clus>
<clus scale="   84.276">  2  5  1 -1</clus>
</clustering>
</event>
<event>
 9    1  0.2761850E-005  0.1010088E+03  0.7546771E-02  0.1284313E+00
         -2   -1    0    0    0  501 -0.00000000000E+00  0.00000000000E+00  0.26546598301E+03  0.26546598301E+03  0.00000000000E+00 0.  1.
          1   -1    0    0  502    0  0.00000000000E+00 -0.00000000000E+00 -0.21463482267E+03  0.21463482267E+03  0.00000000000E+00 0. -1.
         23    2    1    2    0    0 -0.15869110668E+01  0.44541535079E+02  0.22598591419E+03  0.24785296295E+03  0.91514977987E+02 0.  0.
        -24    2    1    2    0    0 -0.18125109724E+02 -0.38856609388E+02 -0.18773459696E+03  0.20818262725E+03  0.79103550453E+02 0.  0.
         13    1    4    4    0    0 -0.44229374476E+02 -0.41903818756E+02 -0.10525875693E+03  0.12162061298E+03  0.00000000000E+00 0. -1.
        -14    1    4    4    0    0  0.26104264752E+02  0.30472093688E+01 -0.82475840038E+02  0.86562014263E+02  0.00000000000E+00 0.  1.
        -13    1    3    3    0    0  0.94681776634E+01  0.70566862536E+02  0.18338954586E+03  0.19672583462E+03  0.00000000000E+00 0.  1.
         13    1    3    3    0    0 -0.11055088730E+02 -0.26025327458E+02  0.42596368333E+02  0.51127128330E+02  0.00000000000E+00 0. -1.
         21    1    1    2  502  501  0.19712020791E+02 -0.56849256910E+01  0.12579843117E+02  0.24065215491E+02  0.00000000000E+00 0.  1.
<scales pt_clust_5="13000.00000" pt_clust_6="13000.00000" pt_clust_7="13000.00000" pt_clust_8="13000.00000" pt_clust_9="20.51541"></scales>
<clustering>
<clus scale="   20.515">  1  9  2 -1</clus>
<clus scale="   79.104">  5  6 -1 -1</clus>
<clus scale="   89.918">  2  5  1 -1</clus>
<clus scale="   91.515">  7  8 -1 -1</clus>
<clus scale="   89.918">  2  5  1 -1</clus>
</clustering>
</event>
<event>
 9    1  0.2333971E-005  0.9950242E+02  0.7546771E-02  0.1286062E+00
         -2   -1    0    0    0  501 -0.00000000000E+00  0.00000000000E+00  0.21175329882E+03  0.21175329882E+03  0.00000000000E+00 0.  1.
          1   -1    0    0  502    0  0.00000000000E+00 -0.00000000000E+00 -0.20923914271E+03  0.20923914271E+03  0.00000000000E+00 0. -1.
         23    2    1    2    0    0  0.15147229090E+02 -0.21478683956E+02  0.14413078838E+03  0.17214980001E+03  0.90394120777E+02 0.  0.
        -24    2    1    2    0    0  0.21843601072E+02  0.37917337817E+02 -0.17411248768E+03  0.19693376486E+03  0.80949873143E+02 0.  0.
         11    1    4    4    0    0 -0.19237178750E+02  0.26702638887E+02 -0.13553697546E+03  0.13947534436E+03  0.00000000000E+00 0. -1.
        -12    1    4    4    0    0  0.41080779822E+02  0.11214698929E+02 -0.38575512227E+02  0.57458420500E+02  0.00000000000E+00 0.  1.
        -11    1    3    3    0    0 -0.26853055829E+02 -0.12483852450E+02  0.11847161435E+03  0.12211656966E+03  0.00000000000E+00 0.  1.
         11    1    3    3    0    0  0.42000284919E+02 -0.89948315056E+01  0.25659174027E+02  0.50033230345E+02  0.00000000000E+00 0. -1.
         21    1    1    2  502  501 -0.36990830162E+02 -0.16438653861E+02  0.32495855410E+02  0.51908876656E+02  0.00000000000E+00 0.  1.
<scales pt_clust_5="13000.00000" pt_clust_6="13000.00000" pt_clust_7="13000.00000" pt_clust_8="13000.00000" pt_clust_9="40.47902"></scales>
<clustering>
<clus scale="   40.479">  1  9  2 -1</clus>
<clus scale="   80.950">  5  6 -1 -1</clus>
<clus scale="   90.394">  7  8 -1 -1</clus>
<clus scale="   91.008">  2  5  1 -1</clus>
<clus scale="   91.008">  2  5  1 -1</clus>
</clustering>
</event>
<event>
 9    1  0.2333971E-005  0.9283362E+02  0.7546771E-02  0.1303256E+00
          1   -1    0    0  502    0  0.00000000000E+00  0.00000000000E+00  0.26988416983E+03  0.26988416983E+03  0.00000000000E+00 0. -1.
         -2   -1    0    0    0  501 -0.00000000000E+00 -0.00000000000E+00 -0.10255047340E+03  0.10255047340E+03  0.00000000000E+00 0.  1.
         23    2    1    2    0    0  0.28117277674E+02  0.46572532793E+02  0.13246314588E+01  0.10658848068E+03  0.91650245226E+02 0.  0.
        -24    2    1    2    0    0 -0.13963927282E+01 -0.89828614441E+01  0.19526372545E+03  0.21123092436E+03  0.80049604721E+02 0.  0.
         11    1    4    4    0    0  0.34417832889E+02 -0.22761996731E+02  0.11705895828E+03  0.12411887620E+03  0.00000000000E+00 0. -1.
        -12    1    4    4    0    0 -0.35814225617E+02  0.13779135287E+02  0.78204767171E+02  0.87112048157E+02  0.00000000000E+00 0.  1.
        -11    1    3    3    0    0  0.31936772368E+01  0.65699527700E+02 -0.19844002416E+02  0.68705254138E+02  0.00000000000E+00 0.  1.
         11    1    3    3    0    0  0.24923600437E+02 -0.19126994907E+02  0.21168633875E+02  0.37883226539E+02  0.00000000000E+00 0. -1.
         21    1    1    2  502  501 -0.26720884945E+02 -0.37589671349E+02 -0.29254660479E+02  0.54615238204E+02  0.00000000000E+00 0. -1.
<scales pt_clust_5="13000.00000" pt_clust_6="13000.00000" pt_clust_7="13000.00000" pt_clust_8="13000.00000" pt_clust_9="46.11929"></scales>
<clustering>
<clus scale="   46.119">  2  9  1 -1</clus>
<clus scale="   80.050">  5  6 -1 -1</clus>
<clus scale="   81.402">  1  5  2 -1</clus>
<clus scale="   91.650">  7  8 -1 -1</clus>
<clus scale="   81.402">  1  5  2 -1</clus>
</clustering>
</event>
<event>
 9    1  0.2333971E-005  0.1135609E+03  0.7546771E-02  0.1258690E+00
          1   -1    0    0  502    0  0.00000000000E+00  0.00000000000E+00  0.30340748072E+03  0.30340748072E+03  0.00000000000E+00 0. -1.
         -2   -1    0    0    0  501 -0.00000000000E+00 -0.00000000000E+00 -0.14658823072E+03  0.14658823072E+03  0.00000000000E+00 0.  1.
         23    2    1    2    0    0 -0.28832642442E+02  0.84717476355E+02  0.21450235490E+02  0.12958803361E+03  0.91239102263E+02 0.  0.
        -24    2    1    2    0    0  0.40384428278E+02 -0.49509820341E+02  0.21217006183E+03  0.23513503470E+03  0.78677983259E+02 0.  0.
         11    1    4    4    0    0  0.65168777727E+01 -0.47747508276E+02  0.18643543412E+03  0.19256288671E+03  0.00000000000E+00 0. -1.
        -12    1    4    4    0    0  0.33867550505E+02 -0.17623120649E+01  0.25734627702E+02  0.42572147984E+02  0.00000000000E+00 0.  1.
        -11    1    3    3    0    0  0.13455744883E+02  0.63387549344E+02  0.42775643742E+02  0.77645310095E+02  0.00000000000E+00 0. -1.
         11    1    3    3    0    0 -0.42288387325E+02  0.21329927011E+02 -0.21325408252E+02  0.51942723513E+02  0.00000000000E+00 0.  1.
         21    1    1    2  502  501 -0.11551785836E+02 -0.35207656014E+02 -0.76801047315E+02  0.85272643132E+02  0.00000000000E+00 0.  1.
<scales pt_clust_5="13000.00000" pt_clust_6="13000.00000" pt_clust_7="13000.00000" pt_clust_8="13000.00000" pt_clust_9="37.05432"></scales>
<clustering>
<clus scale="   37.054">  2  9  1 -1</clus>
<clus scale="   78.678">  5  6 -1 -1</clus>
<clus scale="   91.239">  7  8 -1 -1</clus>
<clus scale="  103.739">  1  5  2 -1</clus>
<clus scale="  103.739">  1  5  2 -1</clus>
</clustering>
</event>
<event>
 9    1  0.2333971E-005  0.1960559E+03  0.7546771E-02  0.1153956E+00
          1   -1    0    0  502    0  0.00000000000E+00  0.00000000000E+00  0.92689741180E+03  0.92689741180E+03  0.00000000000E+00 0. -1.
         -2   -1    0    0    0  501 -0.00000000000E+00 -0.00000000000E+00 -0.11785812710E+03  0.11785812710E+03  0.00000000000E+00 0.  1.
        -24    2    1    2    0    0  0.16894688883E+03 -0.54739181804E+02  0.70792521136E+02  0.20799014884E+03  0.81907824375E+02 0.  0.
         23    2    1    2    0    0 -0.15158477366E+03  0.84841916466E+02  0.76702066940E+03  0.79164826101E+03  0.90609974505E+02 0.  0.
         11    1    3    3    0    0  0.43887271317E+02 -0.50084478122E+01  0.57847900837E+02  0.72784316747E+02  0.00000000000E+00 0. -1.
        -12    1    3    3    0    0  0.12505961752E+03 -0.49730733992E+02  0.12944620299E+02  0.13520583209E+03  0.00000000000E+00 0.  1.
        -11    1    4    4    0    0 -0.76209270407E+02 -0.32287427420E+01  0.38260778978E+03  0.39013715342E+03  0.00000000000E+00 0.  1.
         11    1    4    4    0    0 -0.75375503257E+02  0.88070659208E+02  0.38441287962E+03  0.40151110759E+03  0.00000000000E+00 0. -1.
         21    1    1    2  502  501 -0.17362115169E+02 -0.30102734662E+02 -0.28773905837E+02  0.45117129057E+02  0.00000000000E+00 0.  1.
<scales pt_clust_5="13000.00000" pt_clust_6="13000.00000" pt_clust_7="13000.00000" pt_clust_8="13000.00000" pt_clust_9="34.75079"></scales>
<clustering>
<clus scale="   34.751">  2  9  1 -1</clus>
<clus scale="   81.908">  5  6 -1 -1</clus>
<clus scale="   90.610">  7  8 -1 -1</clus>
<clus scale="  192.189">  2  5  1 -1</clus>
<clus scale="  196.056">  1  5  2 -1</clus>
</clustering>
</event>
<event>
 9    1  0.2333971E-005  0.1059634E+03  0.7546771E-02  0.1273016E+00
         -2   -1    0    0    0  501 -0.00000000000E+00  0.00000000000E+00  0.14408711780E+03  0.14408711780E+03  0.00000000000E+00 0.  1.
          1   -1    0    0  502    0  0.00000000000E+00 -0.00000000000E+00 -0.40175806907E+03  0.40175806907E+03  0.00000000000E+00 0. -1.
         23    2    1    2    0    0 -0.37551083807E+02  0.29389110491E+02  0.13251059237E+02  0.10411895011E+03  0.91604374847E+02 0.  0.
        -24    2    1    2    0    0  0.10951222437E+02 -0.54016608540E+02 -0.34537753464E+03  0.35891505782E+03  0.80601823952E+02 0.  0.
         11    1    4    4    0    0  0.10448328669E+02 -0.36427939334E+02 -0.48659932687E+02  0.61676181669E+02  0.00000000000E+00 0. -1.
        -12    1    4    4    0    0  0.50289376814E+00 -0.17588669205E+02 -0.29671760195E+03  0.29723887615E+03  0.00000000000E+00 0.  1.
        -13    1    3    3    0    0 -0.12042861347E+02 -0.26102045869E+02 -0.19579468242E+02  0.34780783266E+02  0.00000000000E+00 0. -1.
         13    1    3    3    0    0 -0.25508222460E+02  0.55491156359E+02  0.32830527479E+02  0.69338166847E+02  0.00000000000E+00 0.  1.
         21    1    1    2  502  501  0.26599861370E+02  0.24627498049E+02  0.74455524130E+02  0.82811178946E+02  0.00000000000E+00 0.  1.
<scales pt_clust_5="13000.00000" pt_clust_6="13000.00000" pt_clust_7="13000.00000" pt_clust_8="13000.00000" pt_clust_9="36.25005"></scales>
<clustering>
<clus scale="   36.250">  1  9  2 -1</clus>
<clus scale="   80.602">  5  6 -1 -1</clus>
<clus scale="   91.604">  7  8 -1 -1</clus>
<clus scale="   96.610">  2  5  1 -1</clus>
<clus scale="   96.610">  2  5  1 -1</clus>
</clustering>
</event>
<event>
 9    1  0.2333971E-005  0.1836705E+03  0.7546771E-02  0.1165729E+00
         -2   -1    0    0    0  501 -0.00000000000E+00  0.00000000000E+00  0.55252204345E+02  0.55252204345E+02  0.00000000000E+00 0.  1.
          1   -1    0    0  502    0  0.00000000000E+00 -0.00000000000E+00 -0.10537286726E+04  0.10537286726E+04  0.00000000000E+00 0. -1.
         23    2    1    2    0    0 -0.10433698851E+03 -0.52520985348E+02 -0.18105269974E+03  0.23465691765E+03  0.92946908729E+02 0.  0.
        -24    2    1    2    0    0  0.18370701106E+03  0.13204253665E+02 -0.69320272163E+03  0.72175831979E+03  0.80513605630E+02 0.  0.
         13    1    4    4    0    0  0.13563514081E+03  0.34462382202E+02 -0.58442520083E+03  0.60094705472E+03  0.00000000000E+00 0. -1.
        -14    1    4    4    0    0  0.48071870248E+02 -0.21258128537E+02 -0.10877752080E+03  0.12081126508E+03  0.00000000000E+00 0.  1.
        -11    1    3    3    0    0 -0.42658992905E+02 -0.50052941311E+02 -0.31609806721E+02  0.72967571499E+02  0.00000000000E+00 0.  1.
         11    1    3    3    0    0 -0.61677995606E+02 -0.24680440373E+01 -0.14944289302E+03  0.16168934615E+03  0.00000000000E+00 0. -1.
         21    1    1    2  502  501 -0.79370022548E+02  0.39316731683E+02 -0.12422104690E+03  0.15256563952E+03  0.00000000000E+00 0. -1.
<scales pt_clust_5="13000.00000" pt_clust_6="13000.00000" pt_clust_7="13000.00000" pt_clust_8="13000.00000" pt_clust_9="88.57430"></scales>
<clustering>
<clus scale="   80.514">  5  6 -1 -1</clus>
<clus scale="   88.574">  1  9  2 -1</clus>
<clus scale="   92.947">  7  8 -1 -1</clus>
<clus scale="  177.702">  2  5  1 -1</clus>
<clus scale="  177.702">  2  5  1 -1</clus>
</clustering>
</event>
<event>
 9    1  0.2333971E-005  0.1461694E+03  0.7546771E-02  0.1207226E+00
         -2   -1    0    0    0  501 -0.00000000000E+00  0.00000000000E+00  0.33686722898E+03  0.33686722898E+03  0.00000000000E+00 0.  1.
          1   -1    0    0  502    0  0.00000000000E+00 -0.00000000000E+00 -0.11151600218E+03  0.11151600218E+03  0.00000000000E+00 0. -1.
         23    2    1    2    0    0 -0.16690755143E+02  0.83643448901E+02  0.64087151554E+02  0.13910410344E+03  0.89263546588E+02 0.  0.
        -24    2    1    2    0    0  0.83593145245E+02 -0.12467816539E+03  0.15628131417E+03  0.23063686385E+03  0.78975027375E+02 0.  0.
         11    1    4    4    0    0 -0.98760805226E+01 -0.33431139558E+02  0.55980663717E+02  0.65947045186E+02  0.00000000000E+00 0. -1.
        -12    1    4    4    0    0  0.93469225768E+02 -0.91247025831E+02  0.10030065046E+03  0.16468981866E+03  0.00000000000E+00 0.  1.
        -11    1    3    3    0    0  0.28804240346E+02  0.38197377630E+01  0.40202784736E+01  0.29333211510E+02  0.00000000000E+00 0.  1.
         11    1    3    3    0    0 -0.45494995489E+02  0.79823711138E+02  0.60066873081E+02  0.10977089193E+03  0.00000000000E+00 0. -1.
         21    1    1    2  502  501 -0.66902390102E+02  0.41034716489E+02  0.49827610773E+01  0.78642263870E+02  0.00000000000E+00 0. -1.
<scales pt_clust_5="13000.00000" pt_clust_6="13000.00000" pt_clust_7="13000.00000" pt_clust_8="13000.00000" pt_clust_9="78.48425"></scales>
<clustering>
<clus scale="   78.484">  2  9  1 -1</clus>
<clus scale="   78.975">  5  6 -1 -1</clus>
<clus scale="   89.264">  7  8 -1 -1</clus>
<clus scale="  140.123">  2  5  1 -1</clus>
<clus scale="   78.484">  2  5  1 -1</clus>
</clustering>
</event>
<event>
 9    1  0.2333971E-005  0.9243075E+02  0.7546771E-02  0.1303199E+00
          3   -1    0    0  502    0  0.00000000000E+00  0.00000000000E+00  0.59687920143E+02  0.59687920143E+02  0.00000000000E+00 0. -1.
         -4   -1    0    0    0  501 -0.00000000000E+00 -0.00000000000E+00 -0.43595759251E+03  0.43595759251E+03  0.00000000000E+00 0.  1.
        -24    2    1    2    0    0  0.24427435735E+02 -0.16388243100E+02 -0.26524426667E+03  0.27845969506E+03  0.79498469433E+02 0.  0.
         23    2    1    2    0    0  0.49310549609E+02  0.25355621375E+02 -0.35561845093E+02  0.11129694502E+03  0.89710240815E+02 0.  0.
         13    1    3    3    0    0 -0.28730387805E+02  0.31369259577E+00 -0.79204089324E+02  0.84254503453E+02  0.00000000000E+00 0. -1.
        -14    1    3    3    0    0  0.53157823540E+02 -0.16701935696E+02 -0.18604017735E+03  0.19420519161E+03  0.00000000000E+00 0.  1.
        -11    1    4    4    0    0 -0.25156321084E+02 -0.38092032801E+01 -0.71971675798E+01  0.26441439849E+02  0.00000000000E+00 0.  1.
         11    1    4    4    0    0  0.74466870693E+02  0.29164824655E+02 -0.28364677513E+02  0.84855505175E+02  0.00000000000E+00 0. -1.
         21    1    1    2  502  501 -0.73737985344E+02 -0.89673782747E+01 -0.75463560609E+02  0.10588887258E+03  0.00000000000E+00 0.  1.
<scales pt_clust_5="13000.00000" pt_clust_6="13000.00000" pt_clust_7="13000.00000" pt_clust_8="13000.00000" pt_clust_9="74.28125"></scales>
<clustering>
<clus scale="   74.281">  1  9  2 -1</clus>
<clus scale="   79.498">  5  6 -1 -1</clus>
<clus scale="   82.556">  2  5  1 -1</clus>
<clus scale="   89.710">  7  8 -1 -1</clus>
<clus scale="   74.281">  1  5  2 -1</clus>
</clustering>
</event>
<event>
 9    1  0.2333971E-005  0.1078471E+03  0.7546771E-02  0.1269054E+00
         -2   -1    0    0    0  501 -0.00000000000E+00  0.00000000000E+00  0.26210084004E+02  0.26210084004E+02  0.00000000000E+00 0.  1.
          1   -1    0    0  502    0  0.00000000000E+00 -0.00000000000E+00 -0.63508460071E+03  0.63508460071E+03  0.00000000000E+00 0. -1.
        -24    2    1    2    0    0  0.12794462006E+02 -0.31688663893E+02 -0.16135142391E+03  0.18410568313E+03  0.81809234723E+02 0.  0.
         23    2    1    2    0    0 -0.57540762248E+01  0.73402085532E+02 -0.37562940445E+03  0.39377270221E+03  0.92404090638E+02 0.  0.
         13    1    3    3    0    0 -0.32619945543E+02 -0.11444911411E+02 -0.95686749546E+02  0.10173986870E+03  0.00000000000E+00 0. -1.
        -14    1    3    3    0    0  0.45414407549E+02 -0.20243752482E+02 -0.65664674365E+02  0.82365814432E+02  0.00000000000E+00 0.  1.
        -11    1    4    4    0    0  0.18103602482E+02  0.62029827938E+02 -0.35333749930E+03  0.35919747826E+03  0.00000000000E+00 0. -1.
         11    1    4    4    0    0 -0.23857678707E+02  0.11372257594E+02 -0.22291905146E+02  0.34575223948E+02  0.00000000000E+00 0.  1.
         21    1    1    2  502  501 -0.70403857808E+01 -0.41713421639E+02 -0.71893688349E+02  0.83416299373E+02  0.00000000000E+00 0. -1.
<scales pt_clust_5="13000.00000" pt_clust_6="13000.00000" pt_clust_7="13000.00000" pt_clust_8="13000.00000" pt_clust_9="42.30339"></scales>
<clustering>
<clus scale="   42.303">  1  9  2 -1</clus>
<clus scale="   81.809">  5  6 -1 -1</clus>
<clus scale="   92.404">  7  8 -1 -1</clus>
<clus scale="   98.920">  1  5  2 -1</clus>
<clus scale="  107.847">  2  5  1 -1</clus>
</clustering>
</event>
<event>
 9    1  0.2333971E-005  0.9694964E+02  0.7546771E-02  0.1289325E+00
          3   -1    0    0  502    0  0.00000000000E+00  0.00000000000E+00  0.11250485117E+03  0.11250485117E+03  0.00000000000E+00 0. -1.
         -4   -1    0    0    0  501 -0.00000000000E+00 -0.00000000000E+00 -0.73750764612E+03  0.73750764612E+03  0.00000000000E+00 0.  1.
        -24    2    1    2    0    0 -0.76336050368E+01  0.37492619567E+01 -0.65276749930E+03  0.65993464575E+03  0.96622976679E+02 0.  0.
         23    2    1    2    0    0  0.92396359079E+01  0.45121610694E+02  0.70722854681E+02  0.12499064690E+03  0.92193324136E+02 0.  0.
         11    1    3    3    0    0  0.26555970506E+02 -0.12877099337E+02 -0.70513409173E+02  0.76440696818E+02  0.00000000000E+00 0. -1.
        -12    1    3    3    0    0 -0.34189575543E+02  0.16626361294E+02 -0.58225409013E+03  0.58349394893E+03  0.00000000000E+00 0.  1.
        -13    1    4    4    0    0 -0.15950045773E+02  0.63400731697E+02  0.25675281858E+02  0.70237289515E+02  0.00000000000E+00 0.  1.
         13    1    4    4    0    0  0.25189681681E+02 -0.18279121003E+02  0.45047572823E+02  0.54753357386E+02  0.00000000000E+00 0. -1.
         21    1    1    2  502  501 -0.16060308711E+01 -0.48870872650E+02 -0.42958150334E+02  0.65087204648E+02  0.00000000000E+00 0.  1.
<scales pt_clust_5="13000.00000" pt_clust_6="13000.00000" pt_clust_7="13000.00000" pt_clust_8="13000.00000" pt_clust_9="48.89725"></scales>
<clustering>
<clus scale="   48.897">  1  9  2 -1</clus>
<clus scale="   92.193">  7  8 -1 -1</clus>
<clus scale="   92.536">  1  7  2 -1</clus>
<clus scale="   96.623">  5  6 -1 -1</clus>
<clus scale="   48.897">  1  5  2 -1</clus>
</clustering>
</event>
<event>
 9    1  0.2333971E-005  0.1069140E+03  0.7546771E-02  0.1273269E+00
          1   -1    0    0  502    0  0.00000000000E+00  0.00000000000E+00  0.38742906373E+03  0.38742906373E+03  0.00000000000E+00 0. -1.
         -2   -1    0    0    0  501 -0.00000000000E+00 -0.00000000000E+00 -0.62056681800E+02  0.62056681800E+02  0.00000000000E+00 0.  1.
        -24    2    1    2    0    0 -0.60624903744E+02 -0.30699820870E+02  0.37352451927E+02  0.11210643198E+03  0.80961648155E+02 0.  0.
         23    2    1    2    0    0  0.39759534808E+02  0.13423994767E+02  0.29177657193E+03  0.31003100196E+03  0.96044937419E+02 0.  0.
         11    1    3    3    0    0  0.31208711762E+01 -0.39141310921E+02  0.25226671176E+02  0.46670836677E+02  0.00000000000E+00 0. -1.
        -12    1    3    3    0    0 -0.63745774920E+02  0.84414900510E+01  0.12125780751E+02  0.65435595308E+02  0.00000000000E+00 0.  1.
        -13    1    4    4    0    0  0.53002653622E+02  0.44273122015E+02  0.16466345186E+03  0.17855935428E+03  0.00000000000E+00 0.  1.
         13    1    4    4    0    0 -0.13243118814E+02 -0.30849127248E+02  0.12711312007E+03  0.13147164768E+03  0.00000000000E+00 0. -1.
         21    1    1    2  502  501  0.20865368937E+02  0.17275826103E+02 -0.37566419240E+01  0.27348311592E+02  0.00000000000E+00 0.  1.
<scales pt_clust_5="13000.00000" pt_clust_6="13000.00000" pt_clust_7="13000.00000" pt_clust_8="13000.00000" pt_clust_9="27.08907"></scales>
<clustering>
<clus scale="   27.089">  2  9  1 -1</clus>
<clus scale="   80.962">  5  6 -1 -1</clus>
<clus scale="   93.599">  2  5  1 -1</clus>
<clus scale="   96.045">  7  8 -1 -1</clus>
<clus scale="  106.914">  1  5  2 -1</clus>
</clustering>
</event>
<event>
 9    1  0.2333971E-005  0.1001659E+03  0.7546771E-02  0.1285305E+00
         -2   -1    0    0    0  501 -0.00000000000E+00  0.00000000000E+00  0.12564578486E+03  0.12564578486E+03  0.00000000000E+00 0.  1.
          1   -1    0    0  502    0  0.00000000000E+00 -0.00000000000E+00 -0.31992802527E+03  0.31992802527E+03  0.00000000000E+00 0. -1.
        -24    2    1    2    0    0  0.31898814137E+02 -0.53712389828E+02  0.62923017345E+02  0.11893567574E+03  0.79270635714E+02 0.  0.
         23    2    1    2    0    0 -0.15023271108E+02  0.39161875913E+02 -0.27856015849E+03  0.29577499792E+03  0.90153958857E+02 0.  0.
         13    1    3    3    0    0 -0.24178175079E+02 -0.13816113647E+01  0.14447035179E+02  0.28199464987E+02  0.00000000000E+00 0. -1.
        -14    1    3    3    0    0  0.56076989216E+02 -0.52330778464E+02  0.48475982167E+02  0.90736210749E+02  0.00000000000E+00 0.  1.
        -11    1    4    4    0    0  0.11893059958E+02 -0.18153395024E+02 -0.19791540906E+02  0.29371682238E+02  0.00000000000E+00 0.  1.
         11    1    4    4    0    0 -0.26916331067E+02  0.57315270937E+02 -0.25876861758E+03  0.26640331568E+03  0.00000000000E+00 0. -1.
         21    1    1    2  502  501 -0.16875543029E+02  0.14550513916E+02  0.21354900737E+02  0.30863136477E+02  0.00000000000E+00 0.  1.
<scales pt_clust_5="13000.00000" pt_clust_6="13000.00000" pt_clust_7="13000.00000" pt_clust_8="13000.00000" pt_clust_9="22.28231"></scales>
<clustering>
<clus scale="   22.282">  1  9  2 -1</clus>
<clus scale="   79.271">  5  6 -1 -1</clus>
<clus scale="   90.154">  7  8 -1 -1</clus>
<clus scale="   90.495">  1  5  2 -1</clus>
<clus scale="  100.166">  2  5  1 -1</clus>
</clustering>
</event>
<event>
 9    1  0.2333971E-005  0.1044703E+03  0.7546771E-02  0.1276169E+00
          1   -1    0    0  502    0  0.00000000000E+00  0.00000000000E+00  0.11856119586E+03  0.11856119586E+03  0.00000000000E+00 0. -1.
         -2   -1    0    0    0  501 -0.00000000000E+00 -0.00000000000E+00 -0.26515050285E+03  0.26515050285E+03  0.00000000000E+00 0.  1.
         23    2    1    2    0    0 -0.61045847975E+02 -0.26737285424E+01 -0.17234549815E+03  0.20441115129E+03  0.91363032247E+02 0.  0.
        -24    2    1    2    0    0  0.19331740448E+02  0.50468524010E+02  0.52947367533E+02  0.11028048285E+03  0.80234487995E+02 0.  0.
         13    1    4    4    0    0  0.18378965469E+02  0.50108811055E+02  0.72873447970E+02  0.90328393853E+02  0.00000000000E+00 0. -1.
        -14    1    4    4    0    0  0.95277497815E+00  0.35971295470E+00 -0.19926080438E+02  0.19952088993E+02  0.00000000000E+00 0.  1.
        -11    1    3    3    0    0 -0.41017288114E+02 -0.35800102674E+02 -0.15031506181E+03  0.15987083250E+03  0.00000000000E+00 0.  1.
         11    1    3    3    0    0 -0.20028559861E+02  0.33126374132E+02 -0.22030436337E+02  0.44540318796E+02  0.00000000000E+00 0. -1.
         21    1    1    2  502  501  0.41714107528E+02 -0.47794795467E+02 -0.27191176370E+02  0.69020064568E+02  0.00000000000E+00 0.  1.
<scales pt_clust_5="13000.00000" pt_clust_6="13000.00000" pt_clust_7="13000.00000" pt_clust_8="13000.00000" pt_clust_9="63.43823"></scales>
<clustering>
<clus scale="   63.438">  2  9  1 -1</clus>
<clus scale="   80.234">  5  6 -1 -1</clus>
<clus scale="   91.363">  7  8 -1 -1</clus>
<clus scale="   94.892">  1  5  2 -1</clus>
<clus scale="   94.892">  1  5  2 -1</clus>
</clustering>
</event>
<event>
 9    1  0.2333971E-005  0.1173847E+03  0.7546771E-02  0.1252371E+00
         -2   -1    0    0    0  501 -0.00000000000E+00  0.00000000000E+00  0.18772521590E+03  0.18772521590E+03  0.00000000000E+00 0.  1.
          1   -1    0    0  502    0  0.00000000000E+00 -0.00000000000E+00 -0.32212651443E+03  0.32212651443E+03  0.00000000000E+00 0. -1.
        -24    2    1    2    0    0  0.44918364817E+02 -0.17346277890E+02  0.11545994103E+03  0.14895260337E+03  0.80853739636E+02 0.  0.
         23    2    1    2    0    0 -0.54671247915E+02  0.45795939340E+02 -0.28849927964E+03  0.31193587434E+03  0.94794208385E+02 0.  0.
         13    1    3    3    0    0 -0.18152976274E+02 -0.24591075737E+02  0.39911333579E+02  0.50270927001E+02  0.00000000000E+00 0. -1.
        -14    1    3    3    0    0  0.63071341091E+02  0.72447978473E+01  0.75548607448E+02  0.98681676365E+02  0.00000000000E+00 0.  1.
        -11    1    4    4    0    0 -0.40460539774E+02 -0.22290450541E+02 -0.83054347413E+02  0.95036540806E+02  0.00000000000E+00 0.  1.
         11    1    4    4    0    0 -0.14210708140E+02  0.68086389881E+02 -0.20544493222E+03  0.21689933354E+03  0.00000000000E+00 0. -1.
         21    1    1    2  502  501  0.97528830979E+01 -0.28449661450E+02  0.38638040086E+02  0.48963252619E+02  0.00000000000E+00 0.  1.
<scales pt_clust_5="13000.00000" pt_clust_6="13000.00000" pt_clust_7="13000.00000" pt_clust_8="13000.00000" pt_clust_9="30.07494"></scales>
<clustering>
<clus scale="   30.075">  1  9  2 -1</clus>
<clus scale="   80.854">  5  6 -1 -1</clus>
<clus scale="   94.794">  7  8 -1 -1</clus>
<clus scale="  106.445">  1  5  2 -1</clus>
<clus scale="  117.385">  2  5  1 -1</clus>
</clustering>
</event>
<event>
 9    1  0.2333971E-005  0.1106736E+03  0.7546771E-02  0.1263727E+00
         -2   -1    0    0    0  501 -0.00000000000E+00  0.00000000000E+00  0.18529475650E+03  0.18529475650E+03  0.00000000000E+00 0.  1.
          1   -1    0    0  502    0  0.00000000000E+00 -0.00000000000E+00 -0.23669060820E+03  0.23669060820E+03  0.00000000000E+00 0. -1.
        -24    2    1    2    0    0  0.32224100639E+02 -0.16595356702E+02  0.10780281801E+03  0.13842232568E+03  0.78901800668E+02 0.  0.
         23    2    1    2    0    0 -0.64378263194E+02  0.19471926483E+02 -0.20119936091E+03  0.23058924471E+03  0.90368690667E+02 0.  0.
         11    1    3    3    0    0 -0.52378404791E+01 -0.41241869958E+02  0.45140046688E+02  0.61367341685E+02  0.00000000000E+00 0. -1.
        -12    1    3    3    0    0  0.37461941118E+02  0.24646513257E+02  0.62662771323E+02  0.77054983991E+02  0.00000000000E+00 0.  1.
        -13    1    4    4    0    0  0.16506637911E+02  0.20283746919E+02 -0.22747585429E+02  0.34660526929E+02  0.00000000000E+00 0.  1.
         13    1    4    4    0    0 -0.80884901104E+02 -0.81182043573E+00 -0.17845177548E+03  0.19592871778E+03  0.00000000000E+00 0. -1.
         21    1    1    2  502  501  0.32154162555E+02 -0.28765697816E+01  0.42000691200E+02  0.52973794320E+02  0.00000000000E+00 0. -1.
<scales pt_clust_5="13000.00000" pt_clust_6="13000.00000" pt_clust_7="13000.00000" pt_clust_8="13000.00000" pt_clust_9="32.28258"></scales>
<clustering>
<clus scale="   32.283">  1  9  2 -1</clus>
<clus scale="   78.902">  5  6 -1 -1</clus>
<clus scale="   90.369">  7  8 -1 -1</clus>
<clus scale="  101.527">  1  5  2 -1</clus>
<clus scale="  110.674">  2  5  1 -1</clus>
</clustering>
</event>
<event>
 9    1  0.2333971E-005  0.1019514E+03  0.7546771E-02  0.1282083E+00
         -2   -1    0    0    0  501 -0.00000000000E+00  0.00000000000E+00  0.45640992373E+03  0.45640992373E+03  0.00000000000E+00 0.  1.
          1   -1    0    0  502    0  0.00000000000E+00 -0.00000000000E+00 -0.98357763156E+02  0.98357763156E+02  0.00000000000E+00 0. -1.
         23    2    1    2    0    0  0.64889904937E+02  0.14544944895E+02  0.16485268582E+03  0.20043484019E+03  0.92603790172E+02 0.  0.
        -24    2    1    2    0    0 -0.74669473394E+01  0.48719044967E+02 -0.42502753522E+02  0.10362331579E+03  0.80635022627E+02 0.  0.
         11    1    4    4    0    0 -0.78531758957E+01  0.46967319594E+02  0.11986324697E+02  0.49104719337E+02  0.00000000000E+00 0. -1.
        -12    1    4    4    0    0  0.38622855629E+00  0.17517253735E+01 -0.54489078220E+02  0.54518596456E+02  0.00000000000E+00 0.  1.
        -13    1    3    3    0    0  0.59509526477E+02 -0.24368741489E+02  0.58031076718E+02  0.86618849959E+02  0.00000000000E+00 0. -1.
         13    1    3    3    0    0  0.53803784595E+01  0.38913686383E+02  0.10682160911E+03  0.11381599023E+03  0.00000000000E+00 0.  1.
         21    1    1    2  502  501 -0.57422957597E+02 -0.63263989862E+02  0.23570222827E+03  0.25070953090E+03  0.00000000000E+00 0.  1.
<scales pt_clust_5="13000.00000" pt_clust_6="13000.00000" pt_clust_7="13000.00000" pt_clust_8="13000.00000" pt_clust_9="85.43845"></scales>
<clustering>
<clus scale="   80.635">  5  6 -1 -1</clus>
<clus scale="   85.438">  1  9  2 -1</clus>
<clus scale="   91.217">  2  5  1 -1</clus>
<clus scale="   92.604">  7  8 -1 -1</clus>
<clus scale="   91.217">  2  5  1 -1</clus>
</clustering>
</event>
<event>
 9    1  0.2333971E-005  0.1059792E+03  0.7546771E-02  0.1272442E+00
          1   -1    0    0  502    0  0.00000000000E+00  0.00000000000E+00  0.20900379570E+03  0.20900379570E+03  0.00000000000E+00 0. -1.
         -2   -1    0    0    0  501 -0.00000000000E+00 -0.00000000000E+00 -0.18321804381E+03  0.18321804381E+03  0.00000000000E+00 0.  1.
        -24    2    1    2    0    0 -0.65694424835E+02 -0.24334271228E+02 -0.47646079673E+02  0.11573175210E+03  0.78840188511E+02 0.  0.
         23    2    1    2    0    0  0.39550406997E+02  0.39914380643E+02  0.15618319566E+03  0.18831958363E+03  0.88958880942E+02 0.  0.
         13    1    3    3    0    0 -0.24110775880E+02  0.25211318020E+02  0.83752978790E+00  0.34894720603E+02  0.00000000000E+00 0. -1.
        -14    1    3    3    0    0 -0.41583648955E+02 -0.49545589247E+02 -0.48483609461E+02  0.80837031494E+02  0.00000000000E+00 0.  1.
        -11    1    4    4    0    0  0.58456598759E+02  0.51819331881E+02  0.14135556361E+03  0.16150483726E+03  0.00000000000E+00 0. -1.
         11    1    4    4    0    0 -0.18906191762E+02 -0.11904951238E+02  0.14827632049E+02  0.26814746374E+02  0.00000000000E+00 0.  1.
         21    1    1    2  502  501  0.26144017838E+02 -0.15580109415E+02 -0.82751364089E+02  0.88170503780E+02  0.00000000000E+00 0.  1.
<scales pt_clust_5="13000.00000" pt_clust_6="13000.00000" pt_clust_7="13000.00000" pt_clust_8="13000.00000" pt_clust_9="30.43435"></scales>
<clustering>
<clus scale="   30.434">  2  9  1 -1</clus>
<clus scale="   78.840">  5  6 -1 -1</clus>
<clus scale="   88.959">  7  8 -1 -1</clus>
<clus scale="   97.641">  2  5  1 -1</clus>
<clus scale="  105.979">  1  5  2 -1</clus>
</clustering>
</event>
<event>
 9    1  0.2333971E-005  0.9855761E+02  0.7546771E-02  0.1290157E+00
          1   -1    0    0  502    0  0.00000000000E+00  0.00000000000E+00  0.10410525390E+03  0.10410525390E+03  0.00000000000E+00 0. -1.
         -2   -1    0    0    0  501 -0.00000000000E+00 -0.00000000000E+00 -0.37202678586E+03  0.37202678586E+03  0.00000000000E+00 0.  1.
         23    2    1    2    0    0 -0.18725487365E+02  0.37209132572E+02 -0.16405503122E+03  0.19366862453E+03  0.94118645526E+02 0.  0.
        -24    2    1    2    0    0  0.30532270758E+02  0.39845850140E+01  0.64644618828E+02  0.10858897801E+03  0.81636651851E+02 0.  0.
         11    1    4    4    0    0  0.11395128257E+01 -0.23887659335E+02  0.63732840596E+02  0.68071974618E+02  0.00000000000E+00 0. -1.
        -12    1    4    4    0    0  0.29392757933E+02  0.27872244350E+02  0.91177823277E+00  0.40517003388E+02  0.00000000000E+00 0.  1.
        -13    1    3    3    0    0 -0.39375541555E+02  0.15118620175E+02 -0.20376418687E+02  0.46842335416E+02  0.00000000000E+00 0.  1.
         13    1    3    3    0    0  0.20650054190E+02  0.22090512397E+02 -0.14367861253E+03  0.14682628912E+03  0.00000000000E+00 0. -1.
         21    1    1    2  502  501 -0.11806783394E+02 -0.41193717586E+02 -0.16851111956E+03  0.17387443722E+03  0.00000000000E+00 0. -1.
<scales pt_clust_5="13000.00000" pt_clust_6="13000.00000" pt_clust_7="13000.00000" pt_clust_8="13000.00000" pt_clust_9="42.85233"></scales>
<clustering>
<clus scale="   42.852">  2  9  1 -1</clus>
<clus scale="   81.637">  5  6 -1 -1</clus>
<clus scale="   86.717">  1  5  2 -1</clus>
<clus scale="   94.119">  7  8 -1 -1</clus>
<clus scale="   86.717">  1  5  2 -1</clus>
</clustering>
</event>
<event>
 9    1  0.2333971E-005  0.1755525E+03  0.7546771E-02  0.1173670E+00
          1   -1    0    0  502    0  0.00000000000E+00  0.00000000000E+00  0.14645091761E+03  0.14645091761E+03  0.00000000000E+00 0. -1.
         -2   -1    0    0    0  501 -0.00000000000E+00 -0.00000000000E+00 -0.29351321244E+03  0.29351321244E+03  0.00000000000E+00 0.  1.
        -24    2    1    2    0    0 -0.14651053058E+03 -0.69738694256E+02 -0.53208378694E+02  0.18865068108E+03  0.80181836220E+02 0.  0.
         23    2    1    2    0    0  0.11137699638E+03  0.86523232408E+02 -0.22263934847E+02  0.16981982121E+03  0.91934671431E+02 0.  0.
         11    1    3    3    0    0 -0.90880504612E+02 -0.48223639411E+01 -0.65213548548E+01  0.91241708564E+02  0.00000000000E+00 0. -1.
        -12    1    3    3    0    0 -0.55630025967E+02 -0.64916330315E+02 -0.46687023839E+02  0.97408972511E+02  0.00000000000E+00 0.  1.
        -13    1    4    4    0    0  0.74590516607E+02  0.86258540244E+02  0.17812540090E+02  0.11541909512E+03  0.00000000000E+00 0. -1.
         13    1    4    4    0    0  0.36786479772E+02  0.26469216386E+00 -0.40076474937E+02  0.54400726092E+02  0.00000000000E+00 0.  1.
         21    1    1    2  502  501  0.35133534200E+02 -0.16784538152E+02 -0.71589981288E+02  0.81493627770E+02  0.00000000000E+00 0.  1.
<scales pt_clust_5="13000.00000" pt_clust_6="13000.00000" pt_clust_7="13000.00000" pt_clust_8="13000.00000" pt_clust_9="38.93695"></scales>
<clustering>
<clus scale="   38.937">  2  9  1 -1</clus>
<clus scale="   80.182">  5  6 -1 -1</clus>
<clus scale="   91.935">  7  8 -1 -1</clus>
<clus scale="  169.693">  2  5  1 -1</clus>
<clus scale="  175.553">  1  5  2 -1</clus>
</clustering>
</event>
<event>
 9    1  0.2333971E-005  0.9478492E+02  0.7546771E-02  0.1298500E+00
          1   -1    0    0  502    0  0.00000000000E+00  0.00000000000E+00  0.17037521566E+03  0.17037521566E+03  0.00000000000E+00 0. -1.
         -2   -1    0    0    0  501 -0.00000000000E+00 -0.00000000000E+00 -0.11565348157E+03  0.11565348157E+03  0.00000000000E+00 0.  1.
         23    2    1    2    0    0 -0.26390493914E+02  0.10020970187E+02 -0.68326790087E+02  0.11767317645E+03  0.91550795733E+02 0.  0.
        -24    2    1    2    0    0  0.11694586912E+01 -0.10577968337E+02  0.11766324506E+03  0.14255993791E+03  0.79783680097E+02 0.  0.
         13    1    4    4    0    0  0.33051370246E+02 -0.11942913251E+02  0.10019751560E+03  0.10618177049E+03  0.00000000000E+00 0. -1.
        -14    1    4    4    0    0 -0.31881911555E+02  0.13649449144E+01  0.17465729464E+02  0.36378167419E+02  0.00000000000E+00 0.  1.
        -13    1    3    3    0    0 -0.38814549805E+02 -0.33047411173E+02 -0.36743837703E+02  0.62839559761E+02  0.00000000000E+00 0. -1.
         13    1    3    3    0    0  0.12424055891E+02  0.43068381360E+02 -0.31582952384E+02  0.54833616688E+02  0.00000000000E+00 0.  1.
         21    1    1    2  502  501  0.25221035223E+02  0.55699815009E+00  0.53852791153E+01  0.25795582874E+02  0.00000000000E+00 0. -1.
<scales pt_clust_5="13000.00000" pt_clust_6="13000.00000" pt_clust_7="13000.00000" pt_clust_8="13000.00000" pt_clust_9="25.22719"></scales>
<clustering>
<clus scale="   25.227">  1  9  2 -1</clus>
<clus scale="   79.784">  5  6 -1 -1</clus>
<clus scale="   83.475">  1  5  2 -1</clus>
<clus scale="   91.551">  7  8 -1 -1</clus>
<clus scale="   25.227">  1  5  2 -1</clus>
</clustering>
</event>
<event>
 9    1  0.2333971E-005  0.1274248E+03  0.7546771E-02  0.1233396E+00
         -2   -1    0    0    0  501 -0.00000000000E+00  0.00000000000E+00  0.56979477135E+02  0.56979477135E+02  0.00000000000E+00 0.  1.
          1   -1    0    0  502    0  0.00000000000E+00 -0.00000000000E+00 -0.53891643299E+03  0.53891643299E+03  0.00000000000E+00 0. -1.
        -24    2    1    2    0    0  0.71108131291E+02  0.37411914207E+02 -0.11967887526E+03  0.16609060736E+03  0.82504781744E+02 0.  0.
         23    2    1    2    0    0 -0.74780478969E+02 -0.58684774381E+02 -0.37994192687E+03  0.40189940489E+03  0.90173394517E+02 0.  0.
         13    1    3    3    0    0  0.51792715622E+02  0.72042290842E+01 -0.11927405850E+03  0.13023320367E+03  0.00000000000E+00 0. -1.
        -14    1    3    3    0    0  0.19315415669E+02  0.30207685123E+02 -0.40481676286E+00  0.35857403693E+02  0.00000000000E+00 0.  1.
        -11    1    4    4    0    0 -0.23421312479E+02 -0.46659009834E+02 -0.69054001091E+02  0.86568332221E+02  0.00000000000E+00 0.  1.
         11    1    4    4    0    0 -0.51359166489E+02 -0.12025764547E+02 -0.31088792578E+03  0.31533107267E+03  0.00000000000E+00 0. -1.
         21    1    1    2  502  501  0.36723476776E+01  0.21272860174E+02  0.17683846268E+02  0.27905897876E+02  0.00000000000E+00 0.  1.
<scales pt_clust_5="13000.00000" pt_clust_6="13000.00000" pt_clust_7="13000.00000" pt_clust_8="13000.00000" pt_clust_9="21.58751"></scales>
<clustering>
<clus scale="   21.588">  1  9  2 -1</clus>
<clus scale="   82.505">  5  6 -1 -1</clus>
<clus scale="   90.173">  7  8 -1 -1</clus>
<clus scale="  122.118">  1  5  2 -1</clus>
<clus scale="  127.425">  2  5  1 -1</clus>
</clustering>
</event>
<event>
 9    1  0.2333971E-005  0.8772002E+02  0.7546771E-02  0.1313064E+00
         -2   -1    0    0    0  501 -0.00000000000E+00  0.00000000000E+00  0.10487422878E+03  0.10487422878E+03  0.00000000000E+00 0.  1.
          1   -1    0    0  502    0  0.00000000000E+00 -0.00000000000E+00 -0.13237088234E+03  0.13237088234E+03  0.00000000000E+00 0. -1.
        -24    2    1    2    0    0  0.19224211784E+02  0.18234388521E+02  0.37958351131E+02  0.92718275683E+02  0.80335415488E+02 0.  0.
         23    2    1    2    0    0  0.97852643663E+01 -0.37152584689E+01 -0.69092178139E+02  0.11188355321E+03  0.87376460528E+02 0.  0.
         11    1    3    3    0    0 -0.85462229160E+01  0.45096253694E+02  0.22304147388E+02  0.51031216075E+02  0.00000000000E+00 0. -1.
        -12    1    3    3    0    0  0.27770434700E+02 -0.26861865173E+02  0.15654203743E+02  0.41687059609E+02  0.00000000000E+00 0.  1.
        -11    1    4    4    0    0  0.27354650565E+02 -0.21929240255E+02  0.32817047688E+01  0.35212754393E+02  0.00000000000E+00 0.  1.
         11    1    4    4    0    0 -0.17569386199E+02  0.18213981786E+02 -0.72373882908E+02  0.76670798816E+02  0.00000000000E+00 0. -1.
         21    1    1    2  502  501 -0.29009476151E+02 -0.14519130052E+02  0.36371734478E+01  0.32643282229E+02  0.00000000000E+00 0. -1.
<scales pt_clust_5="13000.00000" pt_clust_6="13000.00000" pt_clust_7="13000.00000" pt_clust_8="13000.00000" pt_clust_9="32.44002"></scales>
<clustering>
<clus scale="   32.440">  1  9  2 -1</clus>
<clus scale="   80.335">  5  6 -1 -1</clus>
<clus scale="   80.709">  1  5  2 -1</clus>
<clus scale="   87.376">  7  8 -1 -1</clus>
<clus scale="   87.720">  2  5  1 -1</clus>
</clustering>
</event>
<event>
 9    1  0.2333971E-005  0.1198453E+03  0.7546771E-02  0.1248607E+00
          1   -1    0    0  502    0  0.00000000000E+00  0.00000000000E+00  0.27680364998E+03  0.27680364998E+03  0.00000000000E+00 0. -1.
         -2   -1    0    0    0  501 -0.00000000000E+00 -0.00000000000E+00 -0.90460522909E+02  0.90460522909E+02  0.00000000000E+00 0.  1.
        -24    2    1    2    0    0  0.28069692277E+02  0.33730800900E+02  0.31198896434E+02  0.96297630933E+02  0.79838512203E+02 0.  0.
         23    2    1    2    0    0 -0.87626828245E+02 -0.40840625443E+02  0.16104755212E+03  0.21069672153E+03  0.95448293350E+02 0.  0.
         11    1    3    3    0    0  0.33010298109E+02 -0.12652931952E+02  0.34679085435E+02  0.49521868248E+02  0.00000000000E+00 0. -1.
        -12    1    3    3    0    0 -0.49406058320E+01  0.46383732852E+02 -0.34801890013E+01  0.46775762685E+02  0.00000000000E+00 0.  1.
        -11    1    4    4    0    0 -0.84473199355E+02  0.22115375199E+00  0.14221736828E+03  0.16541327080E+03  0.00000000000E+00 0.  1.
         11    1    4    4    0    0 -0.31536288901E+01 -0.41061779195E+02  0.18830183842E+02  0.45283450723E+02  0.00000000000E+00 0. -1.
         21    1    1    2  502  501  0.59557135968E+02  0.71098245428E+01 -0.59033214851E+01  0.60269820427E+02  0.00000000000E+00 0. -1.
<scales pt_clust_5="13000.00000" pt_clust_6="13000.00000" pt_clust_7="13000.00000" pt_clust_8="13000.00000" pt_clust_9="59.98001"></scales>
<clustering>
<clus scale="   59.980">  2  9  1 -1</clus>
<clus scale="   79.839">  5  6 -1 -1</clus>
<clus scale="   95.448">  7  8 -1 -1</clus>
<clus scale="  107.827">  2  5  1 -1</clus>
<clus scale="  119.845">  1  5  2 -1</clus>
</clustering>
</event>
<event>
 9    1  0.2333971E-005  0.1118072E+03  0.7546771E-02  0.1267638E+00
         -2   -1    0    0    0  501 -0.00000000000E+00  0.00000000000E+00  0.21536194839E+03  0.21536194839E+03  0.00000000000E+00 0.  1.
          1   -1    0    0  502    0  0.00000000000E+00 -0.00000000000E+00 -0.15302667024E+03  0.15302667024E+03  0.00000000000E+00 0. -1.
        -24    2    1    2    0    0  0.26881864356E+01  0.47270066617E+02  0.11354932407E+03  0.14660979413E+03  0.79745201705E+02 0.  0.
         23    2    1    2    0    0 -0.43016620314E+02 -0.20986092831E+02 -0.10156573722E+03  0.15211877371E+03  0.10263370120E+03 0.  0.
         11    1    3    3    0    0 -0.38158681844E+02  0.18650848415E+02  0.58987050512E+02  0.72687077770E+02  0.00000000000E+00 0. -1.
        -12    1    3    3    0    0  0.40846868280E+02  0.28619218202E+02  0.54562273555E+02  0.73922716361E+02  0.00000000000E+00 0.  1.
        -11    1    4    4    0    0  0.31792731029E+02  0.56144269619E+01 -0.41398350802E+02  0.52498790324E+02  0.00000000000E+00 0.  1.
         11    1    4    4    0    0 -0.74809351343E+02 -0.26600519793E+02 -0.60167386422E+02  0.99619983389E+02  0.00000000000E+00 0. -1.
         21    1    1    2  502  501  0.40328433878E+02 -0.26283973786E+02  0.50351691316E+02  0.69660050785E+02  0.00000000000E+00 0.  1.
<scales pt_clust_5="13000.00000" pt_clust_6="13000.00000" pt_clust_7="13000.00000" pt_clust_8="13000.00000" pt_clust_9="48.13761"></scales>
<clustering>
<clus scale="   48.138">  1  9  2 -1</clus>
<clus scale="   79.745">  5  6 -1 -1</clus>
<clus scale="   91.249">  1  5  2 -1</clus>
<clus scale="  102.634">  7  8 -1 -1</clus>
<clus scale="  111.807">  2  5  1 -1</clus>
</clustering>
</event>
<event>
 9    1  0.2333971E-005  0.1400770E+03  0.7546771E-02  0.1215255E+00
         -2   -1    0    0    0  501 -0.00000000000E+00  0.00000000000E+00  0.14693297269E+03  0.14693297269E+03  0.00000000000E+00 0.  1.
          1   -1    0    0  502    0  0.00000000000E+00 -0.00000000000E+00 -0.25009529668E+03  0.25009529668E+03  0.00000000000E+00 0. -1.
        -24    2    1    2    0    0  0.51624880684E+02  0.11010528895E+03  0.54256785059E+02  0.15578893408E+03  0.80858458401E+02 0.  0.
         23    2    1    2    0    0 -0.14808173735E+02 -0.10332573875E+03 -0.14853127496E+03  0.20276303342E+03  0.90309566392E+02 0.  0.
         11    1    3    3    0    0  0.16519463778E+02  0.42940971610E+02 -0.19560808853E+02  0.49994449385E+02  0.00000000000E+00 0. -1.
        -12    1    3    3    0    0  0.35105416906E+02  0.67164317339E+02  0.73817593912E+02  0.10579448469E+03  0.00000000000E+00 0.  1.
        -11    1    4    4    0    0 -0.38342304442E+02 -0.66002266012E+02 -0.13752380846E+03  0.15728709204E+03  0.00000000000E+00 0. -1.
         11    1    4    4    0    0  0.23534130707E+02 -0.37323472736E+02 -0.11007466496E+02  0.45475941374E+02  0.00000000000E+00 0.  1.
         21    1    1    2  502  501 -0.36816706950E+02 -0.67795502015E+01 -0.88878340818E+01  0.38476301878E+02  0.00000000000E+00 0. -1.
<scales pt_clust_5="13000.00000" pt_clust_6="13000.00000" pt_clust_7="13000.00000" pt_clust_8="13000.00000" pt_clust_9="37.43571"></scales>
<clustering>
<clus scale="   37.436">  1  9  2 -1</clus>
<clus scale="   80.858">  5  6 -1 -1</clus>
<clus scale="   90.310">  7  8 -1 -1</clus>
<clus scale="  134.178">  1  5  2 -1</clus>
<clus scale="  140.077">  2  5  1 -1</clus>
</clustering>
</event>
<event>
 9    1  0.2333971E-005  0.1272426E+03  0.7546771E-02  0.1236008E+00
         -2   -1    0    0    0  501 -0.00000000000E+00  0.00000000000E+00  0.14242715822E+03  0.14242715822E+03  0.00000000000E+00 0.  1.
          1   -1    0    0  502    0  0.00000000000E+00 -0.00000000000E+00 -0.30974694508E+03  0.30974694508E+03  0.00000000000E+00 0. -1.
         23    2    1    2    0    0  0.23718973556E+02 -0.69465589644E+02  0.16333494256E+02  0.12140340824E+03  0.95309740562E+02 0.  0.
        -24    2    1    2    0    0 -0.70073084762E+01  0.86567770349E+02 -0.24113763429E+03  0.26851143716E+03  0.80049684430E+02 0.  0.
         11    1    4    4    0    0 -0.43635728942E+02  0.49614059710E+02 -0.13668986741E+03  0.15182144649E+03  0.00000000000E+00 0. -1.
        -12    1    4    4    0    0  0.36628420466E+02  0.36953710640E+02 -0.10444776688E+03  0.11668999067E+03  0.00000000000E+00 0.  1.
        -13    1    3    3    0    0  0.24806299701E+02 -0.40322986545E+02  0.55258698394E+02  0.72765510353E+02  0.00000000000E+00 0.  1.
         13    1    3    3    0    0 -0.10873261453E+01 -0.29142603099E+02 -0.38925204137E+02  0.48637897885E+02  0.00000000000E+00 0. -1.
         21    1    1    2  502  501 -0.16711665080E+02 -0.17102180706E+02  0.57484353178E+02  0.62259257906E+02  0.00000000000E+00 0. -1.
<scales pt_clust_5="13000.00000" pt_clust_6="13000.00000" pt_clust_7="13000.00000" pt_clust_8="13000.00000" pt_clust_9="23.91159"></scales>
<clustering>
<clus scale="   23.912">  1  9  2 -1</clus>
<clus scale="   80.050">  5  6 -1 -1</clus>
<clus scale="   95.310">  7  8 -1 -1</clus>
<clus scale="  116.253">  2  5  1 -1</clus>
<clus scale="  116.253">  2  5  1 -1</clus>
</clustering>
</event>
<event>
 9    1  0.2333971E-005  0.2125909E+03  0.7546771E-02  0.1140117E+00
          1   -1    0    0  502    0  0.00000000000E+00  0.00000000000E+00  0.94474046874E+03  0.94474046874E+03  0.00000000000E+00 0. -1.
         -2   -1    0    0    0  501 -0.00000000000E+00 -0.00000000000E+00 -0.11493332541E+03  0.11493332541E+03  0.00000000000E+00 0.  1.
         23    2    1    2    0    0  0.94032753072E+02  0.13374200195E+03  0.16198967170E+02  0.18821153242E+03  0.91826426829E+02 0.  0.
        -24    2    1    2    0    0 -0.12654747969E+03 -0.15020014481E+03  0.80644077687E+03  0.83432132036E+03  0.84681703391E+02 0.  0.
         13    1    4    4    0    0 -0.12054515833E+03 -0.15820846699E+03  0.79300167606E+03  0.81756511206E+03  0.00000000000E+00 0. -1.
        -14    1    4    4    0    0 -0.60023213684E+01  0.80083221820E+01  0.13439100810E+02  0.16756208299E+02  0.00000000000E+00 0.  1.
        -13    1    3    3    0    0  0.10405884384E+03  0.92082920830E+02  0.31918778569E+02  0.14257038864E+03  0.00000000000E+00 0. -1.
         13    1    3    3    0    0 -0.10026090770E+02  0.41659081121E+02 -0.15719811399E+02  0.45641143789E+02  0.00000000000E+00 0.  1.
         21    1    1    2  502  501  0.32514726622E+02  0.16458142855E+02  0.71673992897E+01  0.37140941373E+02  0.00000000000E+00 0. -1.
<scales pt_clust_5="13000.00000" pt_clust_6="13000.00000" pt_clust_7="13000.00000" pt_clust_8="13000.00000" pt_clust_9="36.44280"></scales>
<clustering>
<clus scale="   36.443">  2  9  1 -1</clus>
<clus scale="   84.682">  5  6 -1 -1</clus>
<clus scale="   91.826">  7  8 -1 -1</clus>
<clus scale="  209.604">  1  5  2 -1</clus>
<clus scale="  209.604">  1  5  2 -1</clus>
</clustering>
</event>
<event>
 9    1  0.2333971E-005  0.1056030E+03  0.7546771E-02  0.1273559E+00
          1   -1    0    0  502    0  0.00000000000E+00  0.00000000000E+00  0.31586411830E+02  0.31586411830E+02  0.00000000000E+00 0. -1.
         -2   -1    0    0    0  501 -0.00000000000E+00 -0.00000000000E+00 -0.67150546850E+03  0.67150546850E+03  0.00000000000E+00 0.  1.
        -24    2    1    2    0    0 -0.82409692499E+01  0.16289622978E+02 -0.41025016368E+03  0.41861287540E+03  0.81229780633E+02 0.  0.
         23    2    1    2    0    0  0.10043650631E+02 -0.62901014476E+02 -0.11329081011E+03  0.15910065890E+03  0.91764914142E+02 0.  0.
         13    1    3    3    0    0  0.36391248844E+02  0.65281911244E+01 -0.20868021538E+03  0.21193011245E+03  0.00000000000E+00 0. -1.
        -14    1    3    3    0    0 -0.44632218094E+02  0.97614318539E+01 -0.20156994830E+03  0.20668276295E+03  0.00000000000E+00 0.  1.
        -13    1    4    4    0    0 -0.37030416922E+02 -0.50711969399E+02 -0.69457700593E+02  0.93634009790E+02  0.00000000000E+00 0.  1.
         13    1    4    4    0    0  0.47074067554E+02 -0.12189045077E+02 -0.43833109518E+02  0.65466649112E+02  0.00000000000E+00 0. -1.
         21    1    1    2  502  501 -0.18026813815E+01  0.46611391498E+02 -0.11637808288E+03  0.12537834603E+03  0.00000000000E+00 0.  1.
<scales pt_clust_5="13000.00000" pt_clust_6="13000.00000" pt_clust_7="13000.00000" pt_clust_8="13000.00000" pt_clust_9="46.64624"></scales>
<clustering>
<clus scale="   46.646">  2  9  1 -1</clus>
<clus scale="   81.230">  5  6 -1 -1</clus>
<clus scale="   91.765">  7  8 -1 -1</clus>
<clus scale="   96.589">  2  5  1 -1</clus>
<clus scale="  105.603">  1  5  2 -1</clus>
</clustering>
</event>
<event>
 9    1  0.2333971E-005  0.1540126E+03  0.7546771E-02  0.1226006E+00
          1   -1    0    0  502    0  0.00000000000E+00  0.00000000000E+00  0.22801060554E+03  0.22801060554E+03  0.00000000000E+00 0. -1.
         -2   -1    0    0    0  501 -0.00000000000E+00 -0.00000000000E+00 -0.37113425770E+03  0.37113425770E+03  0.00000000000E+00 0.  1.
        -24    2    1    2    0    0  0.31912535107E+01  0.12986361010E+02 -0.71751290591E+02  0.10788778323E+03  0.79452478866E+02 0.  0.
         23    2    1    2    0    0  0.10667918005E+03 -0.79769567285E+02  0.16259211260E+03  0.22429100729E+03  0.78272789340E+02 0.  0.
         11    1    3    3    0    0  0.28302357158E+02 -0.22574206752E+02 -0.40357327847E+02  0.54215607920E+02  0.00000000000E+00 0. -1.
        -12    1    3    3    0    0 -0.25111103647E+02  0.35560567762E+02 -0.31393962744E+02  0.53672175312E+02  0.00000000000E+00 0.  1.
        -13    1    4    4    0    0  0.79099588872E+02 -0.78313501835E+02  0.16213901456E+03  0.19666928985E+03  0.00000000000E+00 0. -1.
         13    1    4    4    0    0  0.27579591182E+02 -0.14560654499E+01  0.45309803775E+00  0.27621717437E+02  0.00000000000E+00 0.  1.
         21    1    1    2  502  501 -0.10987043356E+03  0.66783206275E+02 -0.23396447416E+03  0.26696607272E+03  0.00000000000E+00 0.  1.
<scales pt_clust_5="13000.00000" pt_clust_6="13000.00000" pt_clust_7="13000.00000" pt_clust_8="13000.00000" pt_clust_9="132.63954"></scales>
<clustering>
<clus scale="   78.273">  7  8 -1 -1</clus>
<clus scale="   79.452">  5  6 -1 -1</clus>
<clus scale="   80.570">  2  5  1 -1</clus>
<clus scale="  132.640">  2  9  1 -1</clus>
<clus scale="  154.013">  1  5  2 -1</clus>
</clustering>
</event>
<event>
 9    1  0.2333971E-005  0.1614960E+03  0.7546771E-02  0.1188673E+00
         -4   -1    0    0    0  501 -0.00000000000E+00  0.00000000000E+00  0.17909561988E+03  0.17909561988E+03  0.00000000000E+00 0.  1.
          3   -1    0    0  502    0  0.00000000000E+00 -0.00000000000E+00 -0.49476905046E+03  0.49476905046E+03  0.00000000000E+00 0. -1.
        -24    2    1    2    0    0 -0.12480884389E+03 -0.10445660314E+02  0.19049011007E+02  0.14928621545E+03  0.78975628964E+02 0.  0.
         23    2    1    2    0    0  0.13216907098E+03  0.32214364313E+02 -0.41245590931E+03  0.44351957863E+03  0.89907235007E+02 0.  0.
         11    1    3    3    0    0 -0.92702510139E+02  0.27028734603E+02  0.24547084345E+02  0.99633665145E+02  0.00000000000E+00 0. -1.
        -12    1    3    3    0    0 -0.32106333755E+02 -0.37474394918E+02 -0.54980733384E+01  0.49652550308E+02  0.00000000000E+00 0.  1.
        -13    1    4    4    0    0  0.78218701534E+02  0.50295786280E+02 -0.33333359296E+03  0.34606230014E+03  0.00000000000E+00 0. -1.
         13    1    4    4    0    0  0.53950369448E+02 -0.18081421966E+02 -0.79122316353E+02  0.97457278481E+02  0.00000000000E+00 0.  1.
         21    1    1    2  502  501 -0.73602270879E+01 -0.21768703999E+02  0.77733467721E+02  0.81058876260E+02  0.00000000000E+00 0.  1.
<scales pt_clust_5="13000.00000" pt_clust_6="13000.00000" pt_clust_7="13000.00000" pt_clust_8="13000.00000" pt_clust_9="22.97933"></scales>
<clustering>
<clus scale="   22.979">  1  9  2 -1</clus>
<clus scale="   78.976">  5  6 -1 -1</clus>
<clus scale="   89.907">  7  8 -1 -1</clus>
<clus scale="  155.675">  1  5  2 -1</clus>
<clus scale="  161.496">  2  5  1 -1</clus>
</clustering>
</event>
<event>
 9    1  0.2333971E-005  0.9817592E+02  0.7546771E-02  0.1289607E+00
         -4   -1    0    0    0  501 -0.00000000000E+00  0.00000000000E+00  0.64450325116E+02  0.64450325116E+02  0.00000000000E+00 0.  1.
          3   -1    0    0  502    0  0.00000000000E+00 -0.00000000000E+00 -0.21864770994E+03  0.21864770994E+03  0.00000000000E+00 0. -1.
        -24    2    1    2    0    0  0.42774644826E+02 -0.21358747180E+02 -0.26664851577E+02  0.96408630671E+02  0.79358323048E+02 0.  0.
         23    2    1    2    0    0 -0.22762775307E+02  0.29238471359E+02 -0.13276364561E+03  0.16455505299E+03  0.89884079369E+02 0.  0.
         13    1    3    3    0    0  0.47535033537E+02 -0.39859819868E+02  0.18767169546E+01  0.62063731115E+02  0.00000000000E+00 0. -1.
        -14    1    3    3    0    0 -0.47603887112E+01  0.18501072688E+02 -0.28541568531E+02  0.34344899556E+02  0.00000000000E+00 0.  1.
        -11    1    4    4    0    0  0.69967818774E+01  0.49151434965E+02 -0.11352630917E+03  0.12390739037E+03  0.00000000000E+00 0.  1.
         11    1    4    4    0    0 -0.29759557184E+02 -0.19912963606E+02 -0.19237336440E+02  0.40647662623E+02  0.00000000000E+00 0. -1.
         21    1    1    2  502  501 -0.20011869520E+02 -0.78797241784E+01  0.52311123626E+01  0.22134351388E+02  0.00000000000E+00 0.  1.
<scales pt_clust_5="13000.00000" pt_clust_6="13000.00000" pt_clust_7="13000.00000" pt_clust_8="13000.00000" pt_clust_9="21.50732"></scales>
<clustering>
<clus scale="   21.507">  1  9  2 -1</clus>
<clus scale="   79.358">  5  6 -1 -1</clus>
<clus scale="   88.640">  1  5  2 -1</clus>
<clus scale="   89.884">  7  8 -1 -1</clus>
<clus scale="   98.176">  2  5  1 -1</clus>
</clustering>
</event>
<event>
 9    1  0.2333971E-005  0.1790589E+03  0.7546771E-02  0.1170268E+00
         -2   -1    0    0    0  501 -0.00000000000E+00  0.00000000000E+00  0.95069762326E+02  0.95069762326E+02  0.00000000000E+00 0.  1.
          1   -1    0    0  502    0  0.00000000000E+00 -0.00000000000E+00 -0.37535386775E+03  0.37535386775E+03  0.00000000000E+00 0. -1.
         23    2    1    2    0    0 -0.10108114881E+03 -0.10725580558E+03 -0.11758380221E+03  0.20991679811E+03  0.92292497574E+02 0.  0.
        -24    2    1    2    0    0  0.12377341959E+03  0.10050565887E+03 -0.15328848788E+03  0.23502966766E+03  0.79500549058E+02 0.  0.
         13    1    4    4    0    0  0.10568560562E+03  0.46456374452E+02 -0.73076603592E+02  0.13663027466E+03  0.00000000000E+00 0. -1.
        -14    1    4    4    0    0  0.18087813972E+02  0.54049284423E+02 -0.80211884291E+02  0.98399392998E+02  0.00000000000E+00 0.  1.
        -13    1    3    3    0    0  0.11680789499E+01 -0.45406753806E+02 -0.65147230515E+02  0.79418507562E+02  0.00000000000E+00 0. -1.
         13    1    3    3    0    0 -0.10224922776E+03 -0.61849051773E+02 -0.52436571698E+02  0.13049829054E+03  0.00000000000E+00 0.  1.
         21    1    1    2  502  501 -0.22692270774E+02  0.67501467043E+01 -0.94118153264E+01  0.25477164308E+02  0.00000000000E+00 0.  1.
<scales pt_clust_5="13000.00000" pt_clust_6="13000.00000" pt_clust_7="13000.00000" pt_clust_8="13000.00000" pt_clust_9="23.67496"></scales>
<clustering>
<clus scale="   23.675">  1  9  2 -1</clus>
<clus scale="   79.501">  5  6 -1 -1</clus>
<clus scale="   92.292">  7  8 -1 -1</clus>
<clus scale="  172.814">  2  5  1 -1</clus>
<clus scale="  172.814">  2  5  1 -1</clus>
</clustering>
</event>
<event>
 9    1  0.2333971E-005  0.1068088E+03  0.7546771E-02  0.1275368E+00
         -2   -1    0    0    0  501 -0.00000000000E+00  0.00000000000E+00  0.30675354893E+02  0.30675354893E+02  0.00000000000E+00 0.  1.
          1   -1    0    0  502    0  0.00000000000E+00 -0.00000000000E+00 -0.66634839632E+03  0.66634839632E+03  0.00000000000E+00 0. -1.
        -24    2    1    2    0    0 -0.33460449630E+02 -0.52537574032E+01 -0.13346267935E+03  0.15895261374E+03  0.79413115925E+02 0.  0.
         23    2    1    2    0    0  0.14405300477E+02  0.54582388381E+02 -0.44918980290E+03  0.46318727914E+03  0.97899063931E+02 0.  0.
         13    1    3    3    0    0  0.49633242389E+01  0.24322717597E+02 -0.10833400992E+02  0.27084899037E+02  0.00000000000E+00 0. -1.
        -14    1    3    3    0    0 -0.38423773869E+02 -0.29576475000E+02 -0.12262927836E+03  0.13186771471E+03  0.00000000000E+00 0.  1.
        -11    1    4    4    0    0  0.14130135580E+02  0.81908071075E+02 -0.37561531962E+03  0.38470178213E+03  0.00000000000E+00 0. -1.
         11    1    4    4    0    0  0.27516489692E+00 -0.27325682694E+02 -0.73574483285E+02  0.78485497011E+02  0.00000000000E+00 0.  1.
         21    1    1    2  502  501  0.19055149153E+02 -0.49328630978E+02 -0.53020559171E+02  0.74883858329E+02  0.00000000000E+00 0.  1.
<scales pt_clust_5="13000.00000" pt_clust_6="13000.00000" pt_clust_7="13000.00000" pt_clust_8="13000.00000" pt_clust_9="52.88112"></scales>
<clustering>
<clus scale="   52.881">  1  9  2 -1</clus>
<clus scale="   79.413">  5  6 -1 -1</clus>
<clus scale="   90.168">  1  5  2 -1</clus>
<clus scale="   97.899">  7  8 -1 -1</clus>
<clus scale="  106.809">  2  5  1 -1</clus>
</clustering>
</event>
<event>
 9    1  0.2333971E-005  0.9618079E+02  0.7546771E-02  0.1293196E+00
         -4   -1    0    0    0  501 -0.00000000000E+00  0.00000000000E+00  0.26451646574E+03  0.26451646574E+03  0.00000000000E+00 0.  1.
          3   -1    0    0  502    0  0.00000000000E+00 -0.00000000000E+00 -0.99074794725E+02  0.99074794725E+02  0.00000000000E+00 0. -1.
         23    2    1    2    0    0 -0.10478326724E+01  0.86590665752E+00  0.18170240970E+03  0.20326098947E+03  0.91090155351E+02 0.  0.
        -24    2    1    2    0    0 -0.34495722793E+02 -0.55910560283E+01 -0.56853461708E+02  0.10616902531E+03  0.82573185891E+02 0.  0.
         13    1    4    4    0    0 -0.89280936629E+01  0.26826848107E+02 -0.58366750232E+02  0.64854207022E+02  0.00000000000E+00 0. -1.
        -14    1    4    4    0    0 -0.25567629130E+02 -0.32417904135E+02  0.15132885240E+01  0.41314818286E+02  0.00000000000E+00 0.  1.
        -11    1    3    3    0    0 -0.28752692773E+02 -0.32592112984E+02  0.60375243288E+02  0.74391754735E+02  0.00000000000E+00 0. -1.
         11    1    3    3    0    0  0.27704860101E+02  0.33458019641E+02  0.12132716641E+03  0.12886923474E+03  0.00000000000E+00 0.  1.
         21    1    1    2  502  501  0.35543555465E+02  0.47251493708E+01  0.40592723016E+02  0.54161245680E+02  0.00000000000E+00 0.  1.
<scales pt_clust_5="13000.00000" pt_clust_6="13000.00000" pt_clust_7="13000.00000" pt_clust_8="13000.00000" pt_clust_9="35.85626"></scales>
<clustering>
<clus scale="   35.856">  1  9  2 -1</clus>
<clus scale="   82.573">  5  6 -1 -1</clus>
<clus scale="   88.157">  2  5  1 -1</clus>
<clus scale="   91.090">  7  8 -1 -1</clus>
<clus scale="   88.157">  2  5  1 -1</clus>
</clustering>
</event>
<event>
 9    1  0.2333971E-005  0.1910521E+03  0.7546771E-02  0.1158598E+00
          3   -1    0    0  502    0  0.00000000000E+00  0.00000000000E+00  0.24791575070E+03  0.24791575070E+03  0.00000000000E+00 0. -1.
         -4   -1    0    0    0  501 -0.00000000000E+00 -0.00000000000E+00 -0.58751951635E+03  0.58751951635E+03  0.00000000000E+00 0.  1.
         23    2    1    2    0    0  0.31315073940E+02  0.18435316902E+03 -0.43567072614E+03  0.48287509965E+03  0.91611437405E+02 0.  0.
        -24    2    1    2    0    0 -0.29810389006E+01 -0.16616222636E+03  0.18247456234E+03  0.25982397384E+03  0.81195809131E+02 0.  0.
         13    1    4    4    0    0 -0.22757364522E+02 -0.13060731159E+03  0.17316470550E+03  0.21808755745E+03  0.00000000000E+00 0. -1.
        -14    1    4    4    0    0  0.19776325621E+02 -0.35554914768E+02  0.93098568369E+01  0.41736416396E+02  0.00000000000E+00 0.  1.
        -13    1    3    3    0    0  0.56199547040E+02  0.15761744966E+03 -0.39008503650E+03  0.42446199504E+03  0.00000000000E+00 0.  1.
         13    1    3    3    0    0 -0.24884473101E+02  0.26735719355E+02 -0.45585689632E+02  0.58413104610E+02  0.00000000000E+00 0. -1.
         21    1    1    2  502  501 -0.28334035039E+02 -0.18190942656E+02 -0.86407601861E+02  0.92736193558E+02  0.00000000000E+00 0. -1.
<scales pt_clust_5="13000.00000" pt_clust_6="13000.00000" pt_clust_7="13000.00000" pt_clust_8="13000.00000" pt_clust_9="33.67088"></scales>
<clustering>
<clus scale="   33.671">  2  9  1 -1</clus>
<clus scale="   81.196">  5  6 -1 -1</clus>
<clus scale="   91.611">  7  8 -1 -1</clus>
<clus scale="  186.282">  1  5  2 -1</clus>
<clus scale="  186.282">  1  5  2 -1</clus>
</clustering>
</event>
<event>
 9    1  0.2333971E-005  0.9673601E+02  0.7546771E-02  0.1292551E+00
         -4   -1    0    0    0  501 -0.00000000000E+00  0.00000000000E+00  0.46399577572E+03  0.46399577572E+03  0.00000000000E+00 0.  1.
          3   -1    0    0  502    0  0.00000000000E+00 -0.00000000000E+00 -0.65886424835E+02  0.65886424835E+02  0.00000000000E+00 0. -1.
        -24    2    1    2    0    0  0.33193782421E+02 -0.19553314921E+02  0.34721367962E+03  0.35880293386E+03  0.81841595268E+02 0.  0.
         23    2    1    2    0    0  0.12750604869E+02 -0.22005503332E+02  0.70735449771E+01  0.95195138907E+02  0.91461791648E+02 0.  0.
         11    1    3    3    0    0 -0.22414794034E+02 -0.43274690070E+01  0.38563699653E+02  0.44814159710E+02  0.00000000000E+00 0. -1.
        -12    1    3    3    0    0  0.55608576454E+02 -0.15225845914E+02  0.30864997997E+03  0.31398877415E+03  0.00000000000E+00 0.  1.
        -13    1    4    4    0    0  0.12422601353E+02  0.22392769022E+02 -0.28491053873E+02  0.38307927113E+02  0.00000000000E+00 0. -1.
         13    1    4    4    0    0  0.32800351533E+00 -0.44398272354E+02  0.35564598850E+02  0.56887211794E+02  0.00000000000E+00 0.  1.
         21    1    1    2  502  501 -0.45944387289E+02  0.41558818253E+02  0.43822126293E+02  0.75884127792E+02  0.00000000000E+00 0. -1.
<scales pt_clust_5="13000.00000" pt_clust_6="13000.00000" pt_clust_7="13000.00000" pt_clust_8="13000.00000" pt_clust_9="61.95177"></scales>
<clustering>
<clus scale="   61.952">  2  9  1 -1</clus>
<clus scale="   81.842">  5  6 -1 -1</clus>
<clus scale="   87.696">  1  5  2 -1</clus>
<clus scale="   91.462">  7  8 -1 -1</clus>
<clus scale="   61.952">  2  5  1 -1</clus>
</clustering>
</event>
<event>
 9    1  0.2333971E-005  0.8981092E+02  0.7546771E-02  0.1308026E+00
         -2   -1    0    0    0  501 -0.00000000000E+00  0.00000000000E+00  0.26679458594E+03  0.26679458594E+03  0.00000000000E+00 0.  1.
          1   -1    0    0  502    0  0.00000000000E+00 -0.00000000000E+00 -0.10821897614E+03  0.10821897614E+03  0.00000000000E+00 0. -1.
        -24    2    1    2    0    0  0.95336990750E+01  0.13239031209E+02  0.16492368743E+03  0.18486487671E+03  0.81908708943E+02 0.  0.
         23    2    1    2    0    0 -0.33165163881E+01  0.10571473448E+02 -0.75017967212E+02  0.11720249131E+03  0.89364272691E+02 0.  0.
         11    1    3    3    0    0  0.40731567150E+02 -0.77797725641E+01  0.11574051870E+03  0.12294491894E+03  0.00000000000E+00 0. -1.
        -12    1    3    3    0    0 -0.31197868075E+02  0.21018803773E+02  0.49183168734E+02  0.61919957778E+02  0.00000000000E+00 0.  1.
        -13    1    4    4    0    0 -0.43473246138E+02 -0.96391335970E+01 -0.30786490982E+02  0.54135423276E+02  0.00000000000E+00 0.  1.
         13    1    4    4    0    0  0.40156729750E+02  0.20210607045E+02 -0.44231476230E+02  0.63067068037E+02  0.00000000000E+00 0. -1.
         21    1    1    2  502  501 -0.62171826869E+01 -0.23810504657E+02  0.68669889579E+02  0.72946194057E+02  0.00000000000E+00 0.  1.
<scales pt_clust_5="13000.00000" pt_clust_6="13000.00000" pt_clust_7="13000.00000" pt_clust_8="13000.00000" pt_clust_9="24.60881"></scales>
<clustering>
<clus scale="   24.609">  1  9  2 -1</clus>
<clus scale="   81.909">  5  6 -1 -1</clus>
<clus scale="   82.396">  1  5  2 -1</clus>
<clus scale="   89.364">  7  8 -1 -1</clus>
<clus scale="   89.811">  2  5  1 -1</clus>
</clustering>
</event>
<event>
 9    1  0.2333971E-005  0.3291402E+03  0.7546771E-02  0.1072002E+00
         -2   -1    0    0    0  501 -0.00000000000E+00  0.00000000000E+00  0.26721919594E+03  0.26721919594E+03  0.00000000000E+00 0.  1.
          1   -1    0    0  502    0  0.00000000000E+00 -0.00000000000E+00 -0.97469508294E+03  0.97469508294E+03  0.00000000000E+00 0. -1.
        -24    2    1    2    0    0  0.21182050440E+03  0.21733648120E+03 -0.53344181390E+02  0.31595550110E+03  0.69851305227E+02 0.  0.
         23    2    1    2    0    0 -0.21167770238E+03 -0.24126994930E+03 -0.75352205601E+03  0.82372730982E+03  0.87821147345E+02 0.  0.
         11    1    3    3    0    0  0.92760123605E+02  0.94713534336E+02  0.11691426084E+02  0.13308562492E+03  0.00000000000E+00 0. -1.
        -12    1    3    3    0    0  0.11906038080E+03  0.12262294686E+03 -0.65035607474E+02  0.18286987618E+03  0.00000000000E+00 0.  1.
        -13    1    4    4    0    0 -0.21047107179E+02 -0.38432927290E+02 -0.19277107538E+03  0.19768853817E+03  0.00000000000E+00 0.  1.
         13    1    4    4    0    0 -0.19063059520E+03 -0.20283702201E+03 -0.56075098063E+03  0.62603877165E+03  0.00000000000E+00 0. -1.
         21    1    1    2  502  501 -0.14280202098E+00  0.23933468105E+02  0.99390350400E+02  0.10223146796E+03  0.00000000000E+00 0.  1.
<scales pt_clust_5="13000.00000" pt_clust_6="13000.00000" pt_clust_7="13000.00000" pt_clust_8="13000.00000" pt_clust_9="23.93389"></scales>
<clustering>
<clus scale="   23.934">  1  9  2 -1</clus>
<clus scale="   69.851">  5  6 -1 -1</clus>
<clus scale="   87.821">  7  8 -1 -1</clus>
<clus scale="  324.808">  1  5  2 -1</clus>
<clus scale="  329.140">  2  5  1 -1</clus>
</clustering>
</event>
<event>
 9    1  0.2333971E-005  0.8978574E+02  0.7546771E-02  0.1306064E+00
         -2   -1    0    0    0  501 -0.00000000000E+00  0.00000000000E+00  0.36429546466E+03  0.36429546466E+03  0.00000000000E+00 0.  1.
          1   -1    0    0  502    0  0.00000000000E+00 -0.00000000000E+00 -0.14340096585E+03  0.14340096585E+03  0.00000000000E+00 0. -1.
        -24    2    1    2    0    0  0.23418103554E+02  0.25401349259E+02  0.26718824998E+03  0.28146840717E+03  0.81493970265E+02 0.  0.
         23    2    1    2    0    0 -0.25741446112E+02 -0.14347273745E+01 -0.11932180466E+03  0.14933268225E+03  0.86010908784E+02 0.  0.
         11    1    3    3    0    0 -0.27420952367E+02  0.14727234157E+02  0.15132151948E+03  0.15448948932E+03  0.00000000000E+00 0. -1.
        -12    1    3    3    0    0  0.50839055921E+02  0.10674115102E+02  0.11586673050E+03  0.12697891785E+03  0.00000000000E+00 0.  1.
        -13    1    4    4    0    0  0.34578153167E+01  0.38465340742E+02 -0.67081124746E+02  0.77404239047E+02  0.00000000000E+00 0.  1.
         13    1    4    4    0    0 -0.29199261429E+02 -0.39900068116E+02 -0.52240679914E+02  0.71928443203E+02  0.00000000000E+00 0. -1.
         21    1    1    2  502  501  0.23233425581E+01 -0.23966621885E+02  0.73028053492E+02  0.76895341094E+02  0.00000000000E+00 0.  1.
<scales pt_clust_5="13000.00000" pt_clust_6="13000.00000" pt_clust_7="13000.00000" pt_clust_8="13000.00000" pt_clust_9="24.07897"></scales>
<clustering>
<clus scale="   24.079">  1  9  2 -1</clus>
<clus scale="   81.494">  5  6 -1 -1</clus>
<clus scale="   85.469">  1  5  2 -1</clus>
<clus scale="   86.011">  7  8 -1 -1</clus>
<clus scale="   89.786">  2  5  1 -1</clus>
</clustering>
</event>
<event>
 9    1  0.2333971E-005  0.1553502E+03  0.7546771E-02  0.1195677E+00
         -2   -1    0    0    0  501 -0.00000000000E+00  0.00000000000E+00  0.77270364989E+02  0.77270364989E+02  0.00000000000E+00 0.  1.
          1   -1    0    0  502    0  0.00000000000E+00 -0.00000000000E+00 -0.10066920215E+04  0.10066920215E+04  0.00000000000E+00 0. -1.
        -24    2    1    2    0    0 -0.10240026846E+03 -0.32053591359E+02 -0.92852946804E+02  0.16361376562E+03  0.81452727819E+02 0.  0.
         23    2    1    2    0    0  0.12598378065E+03  0.30606635324E+02 -0.86726047283E+03  0.88161543033E+03  0.91084357319E+02 0.  0.
         13    1    3    3    0    0 -0.62522104686E+02  0.16337418982E+02 -0.73765470835E+02  0.98067678268E+02  0.00000000000E+00 0. -1.
        -14    1    3    3    0    0 -0.39878163774E+02 -0.48391010340E+02 -0.19087475969E+02  0.65546087348E+02  0.00000000000E+00 0.  1.
        -13    1    4    4    0    0  0.93728046661E+02 -0.22341102089E+02 -0.51288212098E+03  0.52185452148E+03  0.00000000000E+00 0.  1.
         13    1    4    4    0    0  0.32255733987E+02  0.52947737413E+02 -0.35437835185E+03  0.35976090884E+03  0.00000000000E+00 0. -1.
         21    1    1    2  502  501 -0.23583512188E+02  0.14469560343E+01  0.30691763103E+02  0.38733190564E+02  0.00000000000E+00 0.  1.
<scales pt_clust_5="13000.00000" pt_clust_6="13000.00000" pt_clust_7="13000.00000" pt_clust_8="13000.00000" pt_clust_9="23.62786"></scales>
<clustering>
<clus scale="   23.628">  1  9  2 -1</clus>
<clus scale="   81.453">  5  6 -1 -1</clus>
<clus scale="   91.084">  7  8 -1 -1</clus>
<clus scale="  149.906">  1  5  2 -1</clus>
<clus scale="  155.350">  2  5  1 -1</clus>
</clustering>
</event>
<event>
 9    1  0.2333971E-005  0.8949718E+02  0.7546771E-02  0.1309123E+00
         -2   -1    0    0    0  501 -0.00000000000E+00  0.00000000000E+00  0.17553880834E+03  0.17553880834E+03  0.00000000000E+00 0.  1.
          1   -1    0    0  502    0  0.00000000000E+00 -0.00000000000E+00 -0.37262953946E+03  0.37262953946E+03  0.00000000000E+00 0. -1.
        -24    2    1    2    0    0 -0.20554770147E+02 -0.51391674036E+02 -0.49657341725E+02  0.10930976852E+03  0.80119730222E+02 0.  0.
         23    2    1    2    0    0  0.14370077765E+02 -0.13186799143E+02 -0.27842057060E+03  0.29268651883E+03  0.88130547273E+02 0.  0.
         11    1    3    3    0    0  0.61385495821E+01 -0.48460777602E+02 -0.62678805200E+02  0.79465472867E+02  0.00000000000E+00 0. -1.
        -12    1    3    3    0    0 -0.26693319729E+02 -0.29308964345E+01  0.13021463475E+02  0.29844295654E+02  0.00000000000E+00 0.  1.
        -13    1    4    4    0    0 -0.33937136581E+02  0.82066154111E+01 -0.78723936949E+02  0.86119312727E+02  0.00000000000E+00 0.  1.
         13    1    4    4    0    0  0.48307214346E+02 -0.21393414555E+02 -0.19969663365E+03  0.20656720610E+03  0.00000000000E+00 0. -1.
         21    1    1    2  502  501  0.61846923816E+01  0.64578473180E+02  0.13098718120E+03  0.14617206045E+03  0.00000000000E+00 0.  1.
<scales pt_clust_5="13000.00000" pt_clust_6="13000.00000" pt_clust_7="13000.00000" pt_clust_8="13000.00000" pt_clust_9="64.87395"></scales>
<clustering>
<clus scale="   64.874">  1  9  2 -1</clus>
<clus scale="   80.120">  5  6 -1 -1</clus>
<clus scale="   81.621">  1  5  2 -1</clus>
<clus scale="   88.131">  7  8 -1 -1</clus>
<clus scale="   89.497">  2  5  1 -1</clus>
</clustering>
</event>
<event>
 9    1  0.2333971E-005  0.9323369E+02  0.7546771E-02  0.1297954E+00
         -2   -1    0    0    0  501 -0.00000000000E+00  0.00000000000E+00  0.24633057203E+03  0.24633057203E+03  0.00000000000E+00 0.  1.
          1   -1    0    0  502    0  0.00000000000E+00 -0.00000000000E+00 -0.10317773262E+03  0.10317773262E+03  0.00000000000E+00 0. -1.
         23    2    1    2    0    0 -0.50891667412E+01 -0.46595161934E+01  0.18709621654E+03  0.20863856102E+03  0.92073037265E+02 0.  0.
        -24    2    1    2    0    0 -0.12997086418E+02 -0.11197522720E+02 -0.63910893882E+02  0.10960858624E+03  0.87379236956E+02 0.  0.
         11    1    4    4    0    0  0.13078289349E+02 -0.43069232713E+02 -0.47044643329E+02  0.65109130886E+02  0.00000000000E+00 0. -1.
        -12    1    4    4    0    0 -0.26075375768E+02  0.31871709993E+02 -0.16866250553E+02  0.44499455357E+02  0.00000000000E+00 0.  1.
        -11    1    3    3    0    0 -0.55403028174E+01  0.29442140114E+02  0.16568081540E+03  0.16836765474E+03  0.00000000000E+00 0.  1.
         11    1    3    3    0    0  0.45113607617E+00 -0.34101656307E+02  0.21415401135E+02  0.40270906278E+02  0.00000000000E+00 0. -1.
         21    1    1    2  502  501  0.18086253160E+02  0.15857038913E+02  0.19967516745E+02  0.31261157391E+02  0.00000000000E+00 0.  1.
<scales pt_clust_5="13000.00000" pt_clust_6="13000.00000" pt_clust_7="13000.00000" pt_clust_8="13000.00000" pt_clust_9="24.05324"></scales>
<clustering>
<clus scale="   24.053">  1  9  2 -1</clus>
<clus scale="   87.379">  5  6 -1 -1</clus>
<clus scale="   88.601">  2  5  1 -1</clus>
<clus scale="   92.073">  7  8 -1 -1</clus>
<clus scale="   88.601">  2  5  1 -1</clus>
</clustering>
</event>
<event>
 9    1  0.2333971E-005  0.3548086E+03  0.7546771E-02  0.1060659E+00
          1   -1    0    0  502    0  0.00000000000E+00  0.00000000000E+00  0.89627602235E+02  0.89627602235E+02  0.00000000000E+00 0. -1.
         -2   -1    0    0    0  501 -0.00000000000E+00 -0.00000000000E+00 -0.15282765218E+04  0.15282765218E+04  0.00000000000E+00 0.  1.
        -24    2    1    2    0    0 -0.76707753280E+02 -0.21931569864E+03 -0.25158313494E+03  0.35215854723E+03  0.82086012914E+02 0.  0.
         23    2    1    2    0    0 -0.41652667971E+02 -0.29332027403E+02 -0.11156084038E+03  0.15554479943E+03  0.95671578557E+02 0.  0.
         11    1    3    3    0    0 -0.51176604511E+02 -0.12931851925E+03 -0.90650021654E+02  0.16601129689E+03  0.00000000000E+00 0. -1.
        -12    1    3    3    0    0 -0.25531148768E+02 -0.89997179394E+02 -0.16093311328E+03  0.18614725034E+03  0.00000000000E+00 0.  1.
        -11    1    4    4    0    0 -0.21564326151E+02 -0.46440631186E+02 -0.11778594608E+03  0.12843395766E+03  0.00000000000E+00 0.  1.
         11    1    4    4    0    0 -0.20088341820E+02  0.17108603783E+02  0.62251056983E+01  0.27110841769E+02  0.00000000000E+00 0. -1.
         21    1    1    2  502  501  0.11836042125E+03  0.24864772604E+03 -0.10755049442E+04  0.11102007774E+04  0.00000000000E+00 0.  1.
<scales pt_clust_5="13000.00000" pt_clust_6="13000.00000" pt_clust_7="13000.00000" pt_clust_8="13000.00000" pt_clust_9="275.38134"></scales>
<clustering>
<clus scale="   82.086">  5  6 -1 -1</clus>
<clus scale="   95.672">  7  8 -1 -1</clus>
<clus scale="  103.013">  5  7 -1 -1</clus>
<clus scale="  275.381">  2  9  1 -1</clus>
<clus scale="  354.809">  1  5  2 -1</clus>
</clustering>
</event>
<event>
 9    1  0.2333971E-005  0.1160409E+03  0.7546771E-02  0.1254692E+00
         -2   -1    0    0    0  501 -0.00000000000E+00  0.00000000000E+00  0.62267732999E+03  0.62267732999E+03  0.00000000000E+00 0.  1.
          1   -1    0    0  502    0  0.00000000000E+00 -0.00000000000E+00 -0.93542372371E+02  0.93542372371E+02  0.00000000000E+00 0. -1.
        -24    2    1    2    0    0  0.47507032200E+02 -0.47220772866E+02  0.47488941970E+03  0.48604001677E+03  0.78919056373E+02 0.  0.
         23    2    1    2    0    0 -0.23196135595E+02  0.11496275925E+03  0.21565106235E+02  0.15113534976E+03  0.92856574460E+02 0.  0.
         11    1    3    3    0    0  0.54947693957E+02 -0.11100377106E+01  0.30159142673E+03  0.30655810205E+03  0.00000000000E+00 0. -1.
        -12    1    3    3    0    0 -0.74406617564E+01 -0.46110735156E+02  0.17329799297E+03  0.17948191472E+03  0.00000000000E+00 0.  1.
        -11    1    4    4    0    0 -0.18392416506E+02 -0.95523059525E+01  0.16385729021E+02  0.26420061497E+02  0.00000000000E+00 0.  1.
         11    1    4    4    0    0 -0.48037190890E+01  0.12451506520E+03  0.51793772133E+01  0.12471528826E+03  0.00000000000E+00 0. -1.
         21    1    1    2  502  501 -0.24310896605E+02 -0.67741986380E+02  0.32680431692E+02  0.79044335838E+02  0.00000000000E+00 0.  1.
<scales pt_clust_5="13000.00000" pt_clust_6="13000.00000" pt_clust_7="13000.00000" pt_clust_8="13000.00000" pt_clust_9="71.97219"></scales>
<clustering>
<clus scale="   71.972">  2  9  1 -1</clus>
<clus scale="   78.919">  5  6 -1 -1</clus>
<clus scale="   92.857">  7  8 -1 -1</clus>
<clus scale="  105.221">  1  5  2 -1</clus>
<clus scale="   71.972">  2  5  1 -1</clus>
</clustering>
</event>
<event>
 9    1  0.2333971E-005  0.1614698E+03  0.7546771E-02  0.1193606E+00
         -2   -1    0    0    0  501 -0.00000000000E+00  0.00000000000E+00  0.26857676086E+03  0.26857676086E+03  0.00000000000E+00 0.  1.
          1   -1    0    0  502    0  0.00000000000E+00 -0.00000000000E+00 -0.40146493935E+03  0.40146493935E+03  0.00000000000E+00 0. -1.
        -24    2    1    2    0    0  0.71805967752E+02 -0.12770561681E+03 -0.19512199929E+02  0.16715127710E+03  0.78064088549E+02 0.  0.
         23    2    1    2    0    0 -0.73228180441E+02  0.79809719797E+02 -0.28485260979E+03  0.32484471354E+03  0.11247720138E+03 0.  0.
         13    1    3    3    0    0  0.18652034946E+02 -0.85961089266E+02 -0.39855412843E+02  0.96569463125E+02  0.00000000000E+00 0. -1.
        -14    1    3    3    0    0  0.53153932806E+02 -0.41744527546E+02  0.20343212914E+02  0.70581813978E+02  0.00000000000E+00 0.  1.
        -11    1    4    4    0    0 -0.33658089998E+02 -0.23112217882E+02 -0.11785842145E+03  0.12473030563E+03  0.00000000000E+00 0.  1.
         11    1    4    4    0    0 -0.39570090443E+02  0.10292193768E+03 -0.16699418834E+03  0.20011440791E+03  0.00000000000E+00 0. -1.
         21    1    1    2  502  501  0.14222126893E+01  0.47895897015E+02  0.17147663122E+03  0.17804570956E+03  0.00000000000E+00 0.  1.
<scales pt_clust_5="13000.00000" pt_clust_6="13000.00000" pt_clust_7="13000.00000" pt_clust_8="13000.00000" pt_clust_9="47.91701"></scales>
<clustering>
<clus scale="   47.917">  1  9  2 -1</clus>
<clus scale="   78.064">  5  6 -1 -1</clus>
<clus scale="  112.477">  7  8 -1 -1</clus>
<clus scale="  139.697">  1  5  2 -1</clus>
<clus scale="  161.470">  2  5  1 -1</clus>
</clustering>
</event>
<event>
 9    1  0.2333971E-005  0.1812819E+03  0.7546771E-02  0.1168214E+00
         -2   -1    0    0    0  501 -0.00000000000E+00  0.00000000000E+00  0.41605302255E+03  0.41605302255E+03  0.00000000000E+00 0.  1.
          1   -1    0    0  502    0  0.00000000000E+00 -0.00000000000E+00 -0.26972813976E+03  0.26972813976E+03  0.00000000000E+00 0. -1.
        -24    2    1    2    0    0 -0.30922725338E+02  0.16941697965E+03  0.29148038943E+03  0.34778687414E+03  0.79602540581E+02 0.  0.
         23    2    1    2    0    0  0.42110600253E+02 -0.14775703867E+03 -0.20540692559E+03  0.27299771078E+03  0.93436073740E+02 0.  0.
         13    1    3    3    0    0  0.23910543337E+02  0.66293802258E+02  0.83582222525E+02  0.10932781084E+03  0.00000000000E+00 0. -1.
        -14    1    3    3    0    0 -0.54833268675E+02  0.10312317739E+03  0.20789816690E+03  0.23845906330E+03  0.00000000000E+00 0.  1.
        -11    1    4    4    0    0  0.53431806848E+02 -0.58264831625E+02 -0.14270935573E+03  0.16314321561E+03  0.00000000000E+00 0. -1.
         11    1    4    4    0    0 -0.11321206595E+02 -0.89492207049E+02 -0.62697569866E+02  0.10985449517E+03  0.00000000000E+00 0.  1.
         21    1    1    2  502  501 -0.11187874915E+02 -0.21659940971E+02  0.60251418955E+02  0.64996577402E+02  0.00000000000E+00 0.  1.
<scales pt_clust_5="13000.00000" pt_clust_6="13000.00000" pt_clust_7="13000.00000" pt_clust_8="13000.00000" pt_clust_9="24.37871"></scales>
<clustering>
<clus scale="   24.379">  1  9  2 -1</clus>
<clus scale="   79.603">  5  6 -1 -1</clus>
<clus scale="   93.436">  7  8 -1 -1</clus>
<clus scale="  174.555">  1  5  2 -1</clus>
<clus scale="  181.282">  2  5  1 -1</clus>
</clustering>
</event>
<event>
 9    1  0.2333971E-005  0.9733146E+02  0.7546771E-02  0.1307536E+00
          1   -1    0    0  502    0  0.00000000000E+00  0.00000000000E+00  0.26349368462E+03  0.26349368462E+03  0.00000000000E+00 0. -1.
         -2   -1    0    0    0  501 -0.00000000000E+00 -0.00000000000E+00 -0.73406797711E+02  0.73406797711E+02  0.00000000000E+00 0.  1.
        -24    2    1    2    0    0  0.20293934108E+02  0.23825637843E+02 -0.11885509041E+02  0.67789188666E+02  0.58945771643E+02 0.  0.
         23    2    1    2    0    0 -0.25321219734E+00 -0.28815119974E+02  0.22066347705E+03  0.24125663554E+03  0.93177351512E+02 0.  0.
         11    1    3    3    0    0  0.22131392372E+02  0.40349837961E+02  0.20920874720E+01  0.46068262197E+02  0.00000000000E+00 0. -1.
        -12    1    3    3    0    0 -0.18374582638E+01 -0.16524200118E+02 -0.13977596513E+02  0.21720926469E+02  0.00000000000E+00 0.  1.
        -13    1    4    4    0    0  0.44591246962E+02 -0.12402561507E+01  0.11035316565E+03  0.11902831054E+03  0.00000000000E+00 0. -1.
         13    1    4    4    0    0 -0.44844459160E+02 -0.27574863823E+02  0.11031031139E+03  0.12222832500E+03  0.00000000000E+00 0.  1.
         21    1    1    2  502  501 -0.20040721911E+02  0.49894821305E+01 -0.18691081097E+02  0.27854658124E+02  0.00000000000E+00 0.  1.
<scales pt_clust_5="13000.00000" pt_clust_6="13000.00000" pt_clust_7="13000.00000" pt_clust_8="13000.00000" pt_clust_9="20.65249"></scales>
<clustering>
<clus scale="   20.652">  2  9  1 -1</clus>
<clus scale="   58.946">  5  6 -1 -1</clus>
<clus scale="   65.315">  2  5  1 -1</clus>
<clus scale="   93.177">  7  8 -1 -1</clus>
<clus scale="   97.331">  1  5  2 -1</clus>
</clustering>
</event>
<event>
 9    1  0.2333971E-005  0.1035255E+03  0.7546771E-02  0.1278031E+00
         -2   -1    0    0    0  501 -0.00000000000E+00  0.00000000000E+00  0.35994936621E+02  0.35994936621E+02  0.00000000000E+00 0.  1.
          1   -1    0    0  502    0  0.00000000000E+00 -0.00000000000E+00 -0.56920513662E+03  0.56920513662E+03  0.00000000000E+00 0. -1.
        -24    2    1    2    0    0  0.35856075604E+02  0.29644161956E+02 -0.19736120159E+03  0.21822084920E+03  0.80650236418E+02 0.  0.
         23    2    1    2    0    0 -0.20322222959E+02 -0.48286537011E+02 -0.34522922532E+03  0.36096331770E+03  0.91469756247E+02 0.  0.
         13    1    3    3    0    0  0.43574906553E+02 -0.16261080787E+02 -0.95169717907E+02  0.10592672201E+03  0.00000000000E+00 0. -1.
        -14    1    3    3    0    0 -0.77188309495E+01  0.45905242743E+02 -0.10219148369E+03  0.11229412719E+03  0.00000000000E+00 0.  1.
        -13    1    4    4    0    0 -0.60912809035E+01 -0.74936396987E+02 -0.24900983433E+03  0.26011240818E+03  0.00000000000E+00 0. -1.
         13    1    4    4    0    0 -0.14230942055E+02  0.26649859976E+02 -0.96219390997E+02  0.10085090953E+03  0.00000000000E+00 0.  1.
         21    1    1    2  502  501 -0.15533852644E+02  0.18642375055E+02  0.93802269178E+01  0.26015906340E+02  0.00000000000E+00 0.  1.
<scales pt_clust_5="13000.00000" pt_clust_6="13000.00000" pt_clust_7="13000.00000" pt_clust_8="13000.00000" pt_clust_9="24.26600"></scales>
<clustering>
<clus scale="   24.266">  1  9  2 -1</clus>
<clus scale="   80.650">  5  6 -1 -1</clus>
<clus scale="   91.470">  7  8 -1 -1</clus>
<clus scale="   94.102">  1  5  2 -1</clus>
<clus scale="  103.526">  2  5  1 -1</clus>
</clustering>
</event>
<event>
 9    1  0.2333971E-005  0.6206854E+03  0.7546771E-02  0.9863396E-01
          1   -1    0    0  502    0  0.00000000000E+00  0.00000000000E+00  0.14859054077E+04  0.14859054077E+04  0.00000000000E+00 0. -1.
         -2   -1    0    0    0  501 -0.00000000000E+00 -0.00000000000E+00 -0.25363535708E+03  0.25363535708E+03  0.00000000000E+00 0.  1.
        -24    2    1    2    0    0  0.28105746490E+03  0.36852482538E+03  0.65859572636E+03  0.80937707236E+03  0.80864510122E+02 0.  0.
         23    2    1    2    0    0  0.48838207544E+02  0.10453438897E+03  0.17125607843E+03  0.22691649578E+03  0.94073602377E+02 0.  0.
         11    1    3    3    0    0  0.45700263462E+02  0.23215594570E+02  0.54399252775E+02  0.74744609265E+02  0.00000000000E+00 0. -1.
        -12    1    3    3    0    0  0.23535720144E+03  0.34530923081E+03  0.60419647358E+03  0.73463246310E+03  0.00000000000E+00 0.  1.
        -13    1    4    4    0    0 -0.16428010693E+01  0.69611276988E+02  0.36007274193E+02  0.78389747251E+02  0.00000000000E+00 0.  1.
         13    1    4    4    0    0  0.50481008613E+02  0.34923111984E+02  0.13524880424E+03  0.14852674853E+03  0.00000000000E+00 0. -1.
         21    1    1    2  502  501 -0.32989567244E+03 -0.47305921435E+03  0.40241824578E+03  0.70324719659E+03  0.00000000000E+00 0. -1.
<scales pt_clust_5="13000.00000" pt_clust_6="13000.00000" pt_clust_7="13000.00000" pt_clust_8="13000.00000" pt_clust_9="576.72886"></scales>
<clustering>
<clus scale="   80.865">  5  6 -1 -1</clus>
<clus scale="   94.074">  7  8 -1 -1</clus>
<clus scale="   98.396">  5  7 -1 -1</clus>
<clus scale="  576.729">  2  9  1 -1</clus>
<clus scale="  620.685">  1  5  2 -1</clus>
</clustering>
</event>
<event>
 9    1  0.2333971E-005  0.1023519E+03  0.7546771E-02  0.1283345E+00
         -2   -1    0    0    0  501 -0.00000000000E+00  0.00000000000E+00  0.14437093582E+03  0.14437093582E+03  0.00000000000E+00 0.  1.
          1   -1    0    0  502    0  0.00000000000E+00 -0.00000000000E+00 -0.23093736147E+03  0.23093736147E+03  0.00000000000E+00 0. -1.
        -24    2    1    2    0    0  0.33251204025E+01 -0.95793630107E+01  0.43347882828E+02  0.88111541699E+02  0.76038044514E+02 0.  0.
         23    2    1    2    0    0 -0.33092269367E+02  0.39701158443E+02 -0.18777089822E+03  0.21549744810E+03  0.92249442523E+02 0.  0.
         11    1    3    3    0    0  0.34832184529E+02 -0.17087366377E+02  0.39712572573E+02  0.55518893983E+02  0.00000000000E+00 0. -1.
        -12    1    3    3    0    0 -0.31507064127E+02  0.75080033662E+01  0.36353102556E+01  0.32592647715E+02  0.00000000000E+00 0.  1.
        -13    1    4    4    0    0 -0.35036000895E+02  0.61727805815E+02 -0.86758808233E+02  0.11209341718E+03  0.00000000000E+00 0.  1.
         13    1    4    4    0    0  0.19437315283E+01 -0.22026647372E+02 -0.10101208999E+03  0.10340403092E+03  0.00000000000E+00 0. -1.
         21    1    1    2  502  501  0.29767148964E+02 -0.30121795432E+02  0.57856589744E+02  0.71699307488E+02  0.00000000000E+00 0. -1.
<scales pt_clust_5="13000.00000" pt_clust_6="13000.00000" pt_clust_7="13000.00000" pt_clust_8="13000.00000" pt_clust_9="42.34862"></scales>
<clustering>
<clus scale="   42.349">  1  9  2 -1</clus>
<clus scale="   76.038">  5  6 -1 -1</clus>
<clus scale="   88.021">  1  5  2 -1</clus>
<clus scale="   92.249">  7  8 -1 -1</clus>
<clus scale="  102.352">  2  5  1 -1</clus>
</clustering>
</event>
<event>
 9    1  0.2333971E-005  0.1770847E+03  0.7546771E-02  0.1171844E+00
         -4   -1    0    0    0  501 -0.00000000000E+00  0.00000000000E+00  0.17903191550E+03  0.17903191550E+03  0.00000000000E+00 0.  1.
          3   -1    0    0  502    0  0.00000000000E+00 -0.00000000000E+00 -0.20416779138E+03  0.20416779138E+03  0.00000000000E+00 0. -1.
        -24    2    1    2    0    0  0.11424748658E+03  0.79941620907E+02  0.49812000370E+01  0.16186496575E+03  0.82050617557E+02 0.  0.
         23    2    1    2    0    0 -0.14396628549E+03 -0.76998880809E+02 -0.36673437674E+02  0.19075938165E+03  0.91591930076E+02 0.  0.
         13    1    3    3    0    0  0.11649503240E+03  0.50426198714E+02 -0.12389424815E+02  0.12754368639E+03  0.00000000000E+00 0. -1.
        -14    1    3    3    0    0 -0.22475458211E+01  0.29515422192E+02  0.17370624852E+02  0.34321279363E+02  0.00000000000E+00 0.  1.
        -13    1    4    4    0    0 -0.91708836076E+02 -0.84888668685E+02 -0.52565706946E+02  0.13557193748E+03  0.00000000000E+00 0. -1.
         13    1    4    4    0    0 -0.52257449409E+02  0.78897878764E+01  0.15892269272E+02  0.55187444171E+02  0.00000000000E+00 0.  1.
         21    1    1    2  502  501  0.29718798909E+02 -0.29427400978E+01  0.65563617592E+01  0.30575359481E+02  0.00000000000E+00 0. -1.
<scales pt_clust_5="13000.00000" pt_clust_6="13000.00000" pt_clust_7="13000.00000" pt_clust_8="13000.00000" pt_clust_9="29.86414"></scales>
<clustering>
<clus scale="   29.864">  1  9  2 -1</clus>
<clus scale="   82.051">  5  6 -1 -1</clus>
<clus scale="   91.592">  7  8 -1 -1</clus>
<clus scale="  172.343">  1  5  2 -1</clus>
<clus scale="  177.085">  2  5  1 -1</clus>
</clustering>
</event>
<event>
 9    1  0.2333971E-005  0.2415813E+03  0.7546771E-02  0.1118795E+00
         -2   -1    0    0    0  501 -0.00000000000E+00  0.00000000000E+00  0.10603907397E+03  0.10603907397E+03  0.00000000000E+00 0.  1.
          1   -1    0    0  502    0  0.00000000000E+00 -0.00000000000E+00 -0.64764316027E+03  0.64764316027E+03  0.00000000000E+00 0. -1.
        -24    2    1    2    0    0 -0.21273333765E+03 -0.11225825835E+03 -0.24060512198E+03  0.34937791408E+03  0.79477749121E+02 0.  0.
         23    2    1    2    0    0  0.18775151843E+03  0.11192651303E+03 -0.29932779995E+03  0.37926446918E+03  0.80412864421E+02 0.  0.
         13    1    3    3    0    0 -0.50689728320E+01 -0.29055989109E+02 -0.24674238199E+02  0.38454687872E+02  0.00000000000E+00 0. -1.
        -14    1    3    3    0    0 -0.20766436482E+03 -0.83202269244E+02 -0.21593088378E+03  0.31092322621E+03  0.00000000000E+00 0.  1.
        -13    1    4    4    0    0  0.17208255584E+03  0.70002879974E+02 -0.21787615102E+03  0.28632643331E+03  0.00000000000E+00 0.  1.
         13    1    4    4    0    0  0.15668962591E+02  0.41923633056E+02 -0.81451648924E+02  0.92938035861E+02  0.00000000000E+00 0. -1.
         21    1    1    2  502  501  0.24981819223E+02  0.33174532308E+00 -0.16711643673E+01  0.25039850977E+02  0.00000000000E+00 0. -1.
<scales pt_clust_5="13000.00000" pt_clust_6="13000.00000" pt_clust_7="13000.00000" pt_clust_8="13000.00000" pt_clust_9="24.98402"></scales>
<clustering>
<clus scale="   24.984">  1  9  2 -1</clus>
<clus scale="   79.478">  5  6 -1 -1</clus>
<clus scale="   80.413">  7  8 -1 -1</clus>
<clus scale="  241.272">  1  5  2 -1</clus>
<clus scale="  241.581">  2  5  1 -1</clus>
</clustering>
</event>
<event>
 9    1  0.2333971E-005  0.8506105E+02  0.7546771E-02  0.1316326E+00
         -2   -1    0    0    0  501 -0.00000000000E+00  0.00000000000E+00  0.10477287709E+03  0.10477287709E+03  0.00000000000E+00 0.  1.
          1   -1    0    0  502    0  0.00000000000E+00 -0.00000000000E+00 -0.21972086545E+03  0.21972086545E+03  0.00000000000E+00 0. -1.
        -24    2    1    2    0    0  0.13067507209E+02  0.17129836246E+00  0.57834749050E+02  0.10045837067E+03  0.81094000718E+02 0.  0.
         23    2    1    2    0    0  0.10040386464E+02  0.20653021912E+02 -0.17276816208E+03  0.19292866396E+03  0.82736176329E+02 0.  0.
         13    1    3    3    0    0  0.19172627891E+02  0.27439370261E+02 -0.29044647789E+01  0.33599771073E+02  0.00000000000E+00 0. -1.
        -14    1    3    3    0    0 -0.61051206818E+01 -0.27268071898E+02  0.60739213829E+02  0.66858599598E+02  0.00000000000E+00 0.  1.
        -11    1    4    4    0    0  0.22214810368E+02  0.43264690079E+02 -0.15293197797E+03  0.16047903631E+03  0.00000000000E+00 0. -1.
         11    1    4    4    0    0 -0.12174423904E+02 -0.22611668168E+02 -0.19836184106E+02  0.32449627650E+02  0.00000000000E+00 0.  1.
         21    1    1    2  502  501 -0.23107893672E+02 -0.20824320274E+02 -0.14575325828E-01  0.31106707915E+02  0.00000000000E+00 0.  1.
<scales pt_clust_5="13000.00000" pt_clust_6="13000.00000" pt_clust_7="13000.00000" pt_clust_8="13000.00000" pt_clust_9="31.10670"></scales>
<clustering>
<clus scale="   31.107">  1  9  2 -1</clus>
<clus scale="   81.094">  5  6 -1 -1</clus>
<clus scale="   82.736">  7  8 -1 -1</clus>
<clus scale="   83.465">  1  5  2 -1</clus>
<clus scale="   85.061">  2  5  1 -1</clus>
</clustering>
</event>
<event>
 9    1  0.2333971E-005  0.1194689E+03  0.7546771E-02  0.1247486E+00
          1   -1    0    0  502    0  0.00000000000E+00  0.00000000000E+00  0.40745089515E+02  0.40745089515E+02  0.00000000000E+00 0. -1.
         -2   -1    0    0    0  501 -0.00000000000E+00 -0.00000000000E+00 -0.47129317274E+03  0.47129317274E+03  0.00000000000E+00 0.  1.
         23    2    1    2    0    0 -0.60867565639E+02 -0.27573292134E+02 -0.17087251059E+03  0.20509254851E+03  0.91653650190E+02 0.  0.
        -24    2    1    2    0    0  0.82043957569E+02  0.22042081564E+02 -0.12837054189E+03  0.17382905452E+03  0.80749488144E+02 0.  0.
         11    1    4    4    0    0  0.25465622706E+02  0.46325084802E+02 -0.78278935707E+02  0.94456885388E+02  0.00000000000E+00 0. -1.
        -12    1    4    4    0    0  0.56578334863E+02 -0.24283003239E+02 -0.50091606186E+02  0.79372169130E+02  0.00000000000E+00 0.  1.
        -11    1    3    3    0    0 -0.25802891222E+02 -0.15781796913E+02 -0.16486153590E+03  0.16761318661E+03  0.00000000000E+00 0.  1.
         11    1    3    3    0    0 -0.35064674417E+02 -0.11791495221E+02 -0.60109746975E+01  0.37479361898E+02  0.00000000000E+00 0. -1.
         21    1    1    2  502  501 -0.21176391930E+02  0.55312105704E+01 -0.13130503074E+03  0.13311665922E+03  0.00000000000E+00 0.  1.
<scales pt_clust_5="13000.00000" pt_clust_6="13000.00000" pt_clust_7="13000.00000" pt_clust_8="13000.00000" pt_clust_9="21.88684"></scales>
<clustering>
<clus scale="   21.887">  2  9  1 -1</clus>
<clus scale="   80.749">  5  6 -1 -1</clus>
<clus scale="   91.654">  7  8 -1 -1</clus>
<clus scale="  111.323">  1  5  2 -1</clus>
<clus scale="  111.323">  1  5  2 -1</clus>
</clustering>
</event>
<event>
 9    1  0.2333971E-005  0.9393696E+02  0.7546771E-02  0.1298103E+00
         -2   -1    0    0    0  501 -0.00000000000E+00  0.00000000000E+00  0.29932215060E+03  0.29932215060E+03  0.00000000000E+00 0.  1.
          1   -1    0    0  502    0  0.00000000000E+00 -0.00000000000E+00 -0.80340042774E+02  0.80340042774E+02  0.00000000000E+00 0. -1.
        -24    2    1    2    0    0 -0.18653316838E+02 -0.13169115329E+02  0.23960307924E+03  0.25434166934E+03  0.82211175335E+02 0.  0.
         23    2    1    2    0    0  0.46084654099E+01  0.27463653041E+02 -0.35059277861E+02  0.10062120516E+03  0.90110952563E+02 0.  0.
         11    1    3    3    0    0 -0.36886164305E+02 -0.32340053450E+02  0.90793217267E+02  0.10319823873E+03  0.00000000000E+00 0. -1.
        -12    1    3    3    0    0  0.18232847467E+02  0.19170938122E+02  0.14880986198E+03  0.15114343061E+03  0.00000000000E+00 0.  1.
        -11    1    4    4    0    0  0.24941404129E+02 -0.26597889966E+02 -0.11382966126E+02  0.38198079904E+02  0.00000000000E+00 0.  1.
         11    1    4    4    0    0 -0.20332938719E+02  0.54061543007E+02 -0.23676311735E+02  0.62423125255E+02  0.00000000000E+00 0. -1.
         21    1    1    2  502  501  0.14044851428E+02 -0.14294537713E+02  0.14438306439E+02  0.24699318875E+02  0.00000000000E+00 0.  1.
<scales pt_clust_5="13000.00000" pt_clust_6="13000.00000" pt_clust_7="13000.00000" pt_clust_8="13000.00000" pt_clust_9="20.03975"></scales>
<clustering>
<clus scale="   20.040">  1  9  2 -1</clus>
<clus scale="   82.211">  5  6 -1 -1</clus>
<clus scale="   86.388">  1  5  2 -1</clus>
<clus scale="   90.111">  7  8 -1 -1</clus>
<clus scale="   93.937">  2  5  1 -1</clus>
</clustering>
</event>
<event>
 9    1  0.2333971E-005  0.2118916E+03  0.7546771E-02  0.1140917E+00
         -2   -1    0    0    0  501 -0.00000000000E+00  0.00000000000E+00  0.20510416167E+03  0.20510416167E+03  0.00000000000E+00 0.  1.
          1   -1    0    0  502    0  0.00000000000E+00 -0.00000000000E+00 -0.47734326070E+03  0.47734326070E+03  0.00000000000E+00 0. -1.
        -24    2    1    2    0    0 -0.21806005488E+03  0.38256530494E+02  0.69899336789E+01  0.23507259813E+03  0.78717962107E+02 0.  0.
         23    2    1    2    0    0  0.18418851710E+03  0.32833141481E+02 -0.30116926080E+03  0.36562889993E+03  0.89320455693E+02 0.  0.
         11    1    3    3    0    0 -0.58258577375E+02  0.29461834267E+02 -0.28349380518E+02  0.71174074577E+02  0.00000000000E+00 0. -1.
        -12    1    3    3    0    0 -0.15980147750E+03  0.87946962268E+01  0.35339314197E+02  0.16389852355E+03  0.00000000000E+00 0.  1.
        -13    1    4    4    0    0  0.12468419915E+02  0.27877679080E+02 -0.21275363007E+02  0.37219182650E+02  0.00000000000E+00 0.  1.
         13    1    4    4    0    0  0.17172009718E+03  0.49554624011E+01 -0.27989389779E+03  0.32840971728E+03  0.00000000000E+00 0. -1.
         21    1    1    2  502  501  0.33871537777E+02 -0.71089671975E+02  0.21940228089E+02  0.81745924312E+02  0.00000000000E+00 0.  1.
<scales pt_clust_5="13000.00000" pt_clust_6="13000.00000" pt_clust_7="13000.00000" pt_clust_8="13000.00000" pt_clust_9="78.74657"></scales>
<clustering>
<clus scale="   78.718">  5  6 -1 -1</clus>
<clus scale="   78.747">  1  9  2 -1</clus>
<clus scale="   89.320">  7  8 -1 -1</clus>
<clus scale="  207.645">  1  5  2 -1</clus>
<clus scale="  211.892">  2  5  1 -1</clus>
</clustering>
</event>
<event>
 9    1  0.2333971E-005  0.1426866E+03  0.7546771E-02  0.1209936E+00
          1   -1    0    0  502    0  0.00000000000E+00  0.00000000000E+00  0.22631319098E+03  0.22631319098E+03  0.00000000000E+00 0. -1.
         -2   -1    0    0    0  501 -0.00000000000E+00 -0.00000000000E+00 -0.14993545695E+03  0.14993545695E+03  0.00000000000E+00 0.  1.
        -24    2    1    2    0    0 -0.73071835575E+02  0.11446862366E+03 -0.35800216388E+01  0.15907486126E+03  0.82761319294E+02 0.  0.
         23    2    1    2    0    0  0.48247556528E+02 -0.96202695430E+02  0.10921351106E+03  0.17467922011E+03  0.83680664557E+02 0.  0.
         11    1    3    3    0    0  0.15167124899E+02  0.14291312789E+02  0.12984338408E+02  0.24553540332E+02  0.00000000000E+00 0. -1.
        -12    1    3    3    0    0 -0.88238960474E+02  0.10017731088E+03 -0.16564360047E+02  0.13452132093E+03  0.00000000000E+00 0.  1.
        -13    1    4    4    0    0  0.42244831842E+02 -0.25089109920E+02  0.64351315527E+01  0.49553003663E+02  0.00000000000E+00 0.  1.
         13    1    4    4    0    0  0.60027246865E+01 -0.71113585511E+02  0.10277837951E+03  0.12512621645E+03  0.00000000000E+00 0. -1.
         21    1    1    2  502  501  0.24824279047E+02 -0.18265928235E+02 -0.29255755393E+02  0.42494566572E+02  0.00000000000E+00 0.  1.
<scales pt_clust_5="13000.00000" pt_clust_6="13000.00000" pt_clust_7="13000.00000" pt_clust_8="13000.00000" pt_clust_9="30.82027"></scales>
<clustering>
<clus scale="   30.820">  2  9  1 -1</clus>
<clus scale="   82.761">  5  6 -1 -1</clus>
<clus scale="   83.681">  7  8 -1 -1</clus>
<clus scale="  142.149">  2  5  1 -1</clus>
<clus scale="  142.687">  1  5  2 -1</clus>
</clustering>
</event>
<event>
 9    1  0.2333971E-005  0.9915766E+02  0.7546771E-02  0.1285952E+00
         -4   -1    0    0    0  501 -0.00000000000E+00  0.00000000000E+00  0.16193042666E+03  0.16193042666E+03  0.00000000000E+00 0.  1.
          3   -1    0    0  502    0  0.00000000000E+00 -0.00000000000E+00 -0.20280630961E+03  0.20280630961E+03  0.00000000000E+00 0. -1.
         23    2    1    2    0    0  0.82725005154E+01  0.23867621552E+02  0.10639866076E+03  0.14268030002E+03  0.91645487503E+02 0.  0.
        -24    2    1    2    0    0  0.11640789869E+02  0.40336988079E+01 -0.15751177087E+03  0.18628181351E+03  0.98687270542E+02 0.  0.
         11    1    4    4    0    0  0.19657839063E+01 -0.38473509139E+02 -0.12791443312E+03  0.13358958572E+03  0.00000000000E+00 0. -1.
        -12    1    4    4    0    0  0.96750059627E+01  0.42507207947E+02 -0.29597337750E+02  0.52692227792E+02  0.00000000000E+00 0.  1.
        -11    1    3    3    0    0  0.25132614624E+02 -0.27351745825E+02  0.24062161977E+02  0.44257812378E+02  0.00000000000E+00 0. -1.
         11    1    3    3    0    0 -0.16860114109E+02  0.51219367377E+02  0.82336498783E+02  0.98422487644E+02  0.00000000000E+00 0.  1.
         21    1    1    2  502  501 -0.19913290384E+02 -0.27901320360E+02  0.10237227161E+02  0.35774622733E+02  0.00000000000E+00 0. -1.
<scales pt_clust_5="13000.00000" pt_clust_6="13000.00000" pt_clust_7="13000.00000" pt_clust_8="13000.00000" pt_clust_9="34.27861"></scales>
<clustering>
<clus scale="   34.279">  1  9  2 -1</clus>
<clus scale="   91.645">  7  8 -1 -1</clus>
<clus scale="   92.152">  1  7  2 -1</clus>
<clus scale="   98.687">  5  6 -1 -1</clus>
<clus scale="   99.158">  2  5  1 -1</clus>
</clustering>
</event>
<event>
 9    1  0.2333971E-005  0.8304580E+02  0.7546771E-02  0.1322889E+00
          3   -1    0    0  502    0  0.00000000000E+00  0.00000000000E+00  0.45211957124E+02  0.45211957124E+02  0.00000000000E+00 0. -1.
         -4   -1    0    0    0  501 -0.00000000000E+00 -0.00000000000E+00 -0.40482429517E+03  0.40482429517E+03  0.00000000000E+00 0.  1.
        -24    2    1    2    0    0  0.19388348112E+02 -0.22686868104E+02 -0.11762161521E+03  0.14474592948E+03  0.78904611445E+02 0.  0.
         23    2    1    2    0    0  0.58895908452E+01 -0.29278432284E+02 -0.41851938584E+02  0.96975897964E+02  0.82224243051E+02 0.  0.
         11    1    3    3    0    0  0.21570383624E+02 -0.37520924499E+02 -0.23130476706E+02  0.49072601088E+02  0.00000000000E+00 0. -1.
        -12    1    3    3    0    0 -0.21820355115E+01  0.14834056396E+02 -0.94491138508E+02  0.95673328387E+02  0.00000000000E+00 0.  1.
        -13    1    4    4    0    0  0.29259045743E+02 -0.33212379546E+02  0.49279235046E+01  0.44535809670E+02  0.00000000000E+00 0. -1.
         13    1    4    4    0    0 -0.23369454898E+02  0.39339472623E+01 -0.46779862089E+02  0.52440088294E+02  0.00000000000E+00 0.  1.
         21    1    1    2  502  501 -0.25277938957E+02  0.51965300387E+02 -0.20013878425E+03  0.20831442485E+03  0.00000000000E+00 0. -1.
<scales pt_clust_5="13000.00000" pt_clust_6="13000.00000" pt_clust_7="13000.00000" pt_clust_8="13000.00000" pt_clust_9="57.78725"></scales>
<clustering>
<clus scale="   57.787">  2  9  1 -1</clus>
<clus scale="   78.905">  5  6 -1 -1</clus>
<clus scale="   79.760">  2  5  1 -1</clus>
<clus scale="   82.224">  7  8 -1 -1</clus>
<clus scale="   83.046">  1  5  2 -1</clus>
</clustering>
</event>
<event>
 9    1  0.2333971E-005  0.1162766E+03  0.7546771E-02  0.1252294E+00
         -4   -1    0    0    0  501 -0.00000000000E+00  0.00000000000E+00  0.30782991473E+03  0.30782991473E+03  0.00000000000E+00 0.  1.
          3   -1    0    0  502    0  0.00000000000E+00 -0.00000000000E+00 -0.82108053001E+02  0.82108053001E+02  0.00000000000E+00 0. -1.
         23    2    1    2    0    0 -0.50554185290E+02 -0.10379784217E+02  0.17661416705E+03  0.20432202114E+03  0.88833882889E+02 0.  0.
        -24    2    1    2    0    0  0.77438724994E+02  0.24616236387E+02 -0.14646357082E+02  0.11497577274E+03  0.80013732069E+02 0.  0.
         11    1    4    4    0    0  0.51772310190E+02 -0.67640117305E+01 -0.41203200172E+02  0.66511861059E+02  0.00000000000E+00 0. -1.
        -12    1    4    4    0    0  0.25666414803E+02  0.31380248118E+02  0.26556843090E+02  0.48463911684E+02  0.00000000000E+00 0.  1.
        -11    1    3    3    0    0 -0.67997575197E+02  0.73342118265E+01  0.16110367134E+03  0.17501958124E+03  0.00000000000E+00 0.  1.
         11    1    3    3    0    0  0.17443389907E+02 -0.17713996043E+02  0.15510495708E+02  0.29302439905E+02  0.00000000000E+00 0. -1.
         21    1    1    2  502  501 -0.26884539703E+02 -0.14236452171E+02  0.63754051763E+02  0.70640173851E+02  0.00000000000E+00 0. -1.
<scales pt_clust_5="13000.00000" pt_clust_6="13000.00000" pt_clust_7="13000.00000" pt_clust_8="13000.00000" pt_clust_9="30.42129"></scales>
<clustering>
<clus scale="   30.421">  1  9  2 -1</clus>
<clus scale="   80.014">  5  6 -1 -1</clus>
<clus scale="   88.834">  7  8 -1 -1</clus>
<clus scale="  109.686">  2  5  1 -1</clus>
<clus scale="  109.686">  2  5  1 -1</clus>
</clustering>
</event>
<event>
 9    1  0.2333971E-005  0.9514052E+02  0.7546771E-02  0.1295930E+00
         -2   -1    0    0    0  501 -0.00000000000E+00  0.00000000000E+00  0.17046332560E+03  0.17046332560E+03  0.00000000000E+00 0.  1.
          1   -1    0    0  502    0  0.00000000000E+00 -0.00000000000E+00 -0.30154255776E+03  0.30154255776E+03  0.00000000000E+00 0. -1.
         23    2    1    2    0    0  0.57661987653E+02  0.30902074496E+02  0.91214202727E+02  0.14353307402E+03  0.89453169488E+02 0.  0.
        -24    2    1    2    0    0 -0.26731326530E+02 -0.14628866116E+02 -0.26192039821E+03  0.27563513971E+03  0.80273704937E+02 0.  0.
         13    1    4    4    0    0 -0.46820569761E+02 -0.53619846615E+01 -0.23966459663E+03  0.24425403888E+03  0.00000000000E+00 0. -1.
        -14    1    4    4    0    0  0.20089243231E+02 -0.92668814549E+01 -0.22255801584E+02  0.31381100836E+02  0.00000000000E+00 0.  1.
        -13    1    3    3    0    0  0.26533997603E+02 -0.26706734952E+02  0.60381594472E+02  0.71156445046E+02  0.00000000000E+00 0.  1.
         13    1    3    3    0    0  0.31127990050E+02  0.57608809447E+02  0.30832608255E+02  0.72376628978E+02  0.00000000000E+00 0. -1.
         21    1    1    2  502  501 -0.30930661123E+02 -0.16273208379E+02  0.39626963329E+02  0.52837669622E+02  0.00000000000E+00 0.  1.
<scales pt_clust_5="13000.00000" pt_clust_6="13000.00000" pt_clust_7="13000.00000" pt_clust_8="13000.00000" pt_clust_9="34.95029"></scales>
<clustering>
<clus scale="   34.950">  1  9  2 -1</clus>
<clus scale="   80.274">  5  6 -1 -1</clus>
<clus scale="   86.566">  2  5  1 -1</clus>
<clus scale="   89.453">  7  8 -1 -1</clus>
<clus scale="   86.566">  2  5  1 -1</clus>
</clustering>
</event>
<event>
 9    1  0.2333971E-005  0.1938070E+03  0.7546771E-02  0.1156566E+00
          1   -1    0    0  502    0  0.00000000000E+00  0.00000000000E+00  0.31250005561E+03  0.31250005561E+03  0.00000000000E+00 0. -1.
         -2   -1    0    0    0  501 -0.00000000000E+00 -0.00000000000E+00 -0.46742694948E+03  0.46742694948E+03  0.00000000000E+00 0.  1.
        -24    2    1    2    0    0 -0.23313780795E+03 -0.27318854718E+01 -0.34397539656E+03  0.42248089590E+03  0.76225542129E+02 0.  0.
         23    2    1    2    0    0  0.16337302354E+03  0.24414331091E+02  0.20907413208E+03  0.28169467736E+03  0.91395263347E+02 0.  0.
         11    1    3    3    0    0 -0.19439478663E+03  0.25611543387E+02 -0.25851883417E+03  0.32446459259E+03  0.00000000000E+00 0. -1.
        -12    1    3    3    0    0 -0.38743021324E+02 -0.28343428859E+02 -0.85456562386E+02  0.98016303316E+02  0.00000000000E+00 0.  1.
        -11    1    4    4    0    0  0.90137969810E+02  0.52148527509E+02  0.15420804411E+03  0.18607644502E+03  0.00000000000E+00 0. -1.
         11    1    4    4    0    0  0.73235053733E+02 -0.27734196418E+02  0.54866087970E+02  0.95618232337E+02  0.00000000000E+00 0.  1.
         21    1    1    2  502  501  0.69764784408E+02 -0.21682445619E+02 -0.20025629397E+02  0.75751431830E+02  0.00000000000E+00 0. -1.
<scales pt_clust_5="13000.00000" pt_clust_6="13000.00000" pt_clust_7="13000.00000" pt_clust_8="13000.00000" pt_clust_9="73.05651"></scales>
<clustering>
<clus scale="   73.057">  2  9  1 -1</clus>
<clus scale="   76.226">  5  6 -1 -1</clus>
<clus scale="   91.395">  7  8 -1 -1</clus>
<clus scale="  187.132">  2  5  1 -1</clus>
<clus scale="  193.807">  1  5  2 -1</clus>
</clustering>
</event>
<event>
 9    1  0.2333971E-005  0.9181761E+02  0.7546771E-02  0.1303306E+00
          1   -1    0    0  502    0  0.00000000000E+00  0.00000000000E+00  0.41889983819E+03  0.41889983819E+03  0.00000000000E+00 0. -1.
         -2   -1    0    0    0  501 -0.00000000000E+00 -0.00000000000E+00 -0.35401180052E+03  0.35401180052E+03  0.00000000000E+00 0.  1.
        -24    2    1    2    0    0 -0.87123640714E+02  0.25742680854E+02 -0.86245744320E+02  0.14609544336E+03  0.75182017591E+02 0.  0.
         23    2    1    2    0    0  0.12380658055E+02  0.12716876284E+02  0.37588146188E+03  0.38686376129E+03  0.89786952185E+02 0.  0.
         11    1    3    3    0    0 -0.72115107707E+01  0.30990507639E+02 -0.53522101082E+01  0.32265517265E+02  0.00000000000E+00 0. -1.
        -12    1    3    3    0    0 -0.79912129943E+02 -0.52478267851E+01 -0.80893534212E+02  0.11382992610E+03  0.00000000000E+00 0.  1.
        -13    1    4    4    0    0 -0.76936706112E+01  0.49052410093E+02  0.22166525057E+03  0.22715812733E+03  0.00000000000E+00 0. -1.
         13    1    4    4    0    0  0.20074328666E+02 -0.36335533809E+02  0.15421621131E+03  0.15970563396E+03  0.00000000000E+00 0.  1.
         21    1    1    2  502  501  0.74742982659E+02 -0.38459557138E+02 -0.22474767989E+03  0.23995243405E+03  0.00000000000E+00 0. -1.
<scales pt_clust_5="13000.00000" pt_clust_6="13000.00000" pt_clust_7="13000.00000" pt_clust_8="13000.00000" pt_clust_9="84.05743"></scales>
<clustering>
<clus scale="   75.182">  5  6 -1 -1</clus>
<clus scale="   84.057">  2  9  1 -1</clus>
<clus scale="   84.057">  2  5  1 -1</clus>
<clus scale="   89.787">  7  8 -1 -1</clus>
<clus scale="   91.818">  1  5  2 -1</clus>
</clustering>
</event>
<event>
 9    1  0.2333971E-005  0.1214044E+03  0.7546771E-02  0.1243236E+00
          3   -1    0    0  502    0  0.00000000000E+00  0.00000000000E+00  0.20135041672E+03  0.20135041672E+03  0.00000000000E+00 0. -1.
         -4   -1    0    0    0  501 -0.00000000000E+00 -0.00000000000E+00 -0.17024126300E+03  0.17024126300E+03  0.00000000000E+00 0.  1.
        -24    2    1    2    0    0  0.62269798611E+02 -0.11065099596E+03 -0.52418212363E+02  0.15911727142E+03  0.80308569598E+02 0.  0.
         23    2    1    2    0    0 -0.33745954585E+02  0.64249229081E+02  0.10364181799E+03  0.15441129761E+03  0.88512538690E+02 0.  0.
         13    1    3    3    0    0  0.26967172516E+02 -0.85002679669E+02  0.22041827947E+01  0.89205057963E+02  0.00000000000E+00 0. -1.
        -14    1    3    3    0    0  0.35302626095E+02 -0.25648316292E+02 -0.54622395157E+02  0.69912213458E+02  0.00000000000E+00 0.  1.
        -13    1    4    4    0    0  0.79176517106E+01  0.52284036367E+02  0.13788323366E+02  0.54648216152E+02  0.00000000000E+00 0.  1.
         13    1    4    4    0    0 -0.41663606296E+02  0.11965192714E+02  0.89853494620E+02  0.99763081456E+02  0.00000000000E+00 0. -1.
         21    1    1    2  502  501 -0.28523844026E+02  0.46401766880E+02 -0.20114451906E+02  0.58063110691E+02  0.00000000000E+00 0. -1.
<scales pt_clust_5="13000.00000" pt_clust_6="13000.00000" pt_clust_7="13000.00000" pt_clust_8="13000.00000" pt_clust_9="54.46773"></scales>
<clustering>
<clus scale="   54.468">  2  9  1 -1</clus>
<clus scale="   80.309">  5  6 -1 -1</clus>
<clus scale="   88.513">  7  8 -1 -1</clus>
<clus scale="  115.560">  2  5  1 -1</clus>
<clus scale="  121.404">  1  5  2 -1</clus>
</clustering>
</event>
<event>
 9    1  0.2333971E-005  0.1501126E+03  0.7546771E-02  0.1202032E+00
         -2   -1    0    0    0  501 -0.00000000000E+00  0.00000000000E+00  0.78227531816E+02  0.78227531816E+02  0.00000000000E+00 0.  1.
          1   -1    0    0  502    0  0.00000000000E+00 -0.00000000000E+00 -0.60824470882E+03  0.60824470882E+03  0.00000000000E+00 0. -1.
        -24    2    1    2    0    0 -0.10199224515E+03 -0.54184103098E+02 -0.11592810255E+03  0.18287738544E+03  0.81648503028E+02 0.  0.
         23    2    1    2    0    0  0.83414397697E+02  0.90203483950E+02 -0.43277199435E+03  0.45896769184E+03  0.90912665802E+02 0.  0.
         13    1    3    3    0    0 -0.51916805553E+02 -0.16209906313E+02 -0.10615401551E+03  0.11927611148E+03  0.00000000000E+00 0. -1.
        -14    1    3    3    0    0 -0.50075439593E+02 -0.37974196786E+02 -0.97740870424E+01  0.63601273961E+02  0.00000000000E+00 0.  1.
        -13    1    4    4    0    0  0.67695889819E+02  0.42704423425E+02 -0.37069803933E+03  0.37924060653E+03  0.00000000000E+00 0. -1.
         13    1    4    4    0    0  0.15718507877E+02  0.47499060525E+02 -0.62073955015E+02  0.79727085308E+02  0.00000000000E+00 0.  1.
         21    1    1    2  502  501  0.18577847450E+02 -0.36019380852E+02  0.18682919896E+02  0.44627163350E+02  0.00000000000E+00 0.  1.
<scales pt_clust_5="13000.00000" pt_clust_6="13000.00000" pt_clust_7="13000.00000" pt_clust_8="13000.00000" pt_clust_9="40.52817"></scales>
<clustering>
<clus scale="   40.528">  1  9  2 -1</clus>
<clus scale="   81.649">  5  6 -1 -1</clus>
<clus scale="   90.913">  7  8 -1 -1</clus>
<clus scale="  144.690">  1  5  2 -1</clus>
<clus scale="  150.113">  2  5  1 -1</clus>
</clustering>
</event>
<event>
 9    1  0.2333971E-005  0.1141656E+03  0.7546771E-02  0.1261687E+00
          1   -1    0    0  502    0  0.00000000000E+00  0.00000000000E+00  0.32672294097E+03  0.32672294097E+03  0.00000000000E+00 0. -1.
         -2   -1    0    0    0  501 -0.00000000000E+00 -0.00000000000E+00 -0.91428917908E+02  0.91428917908E+02  0.00000000000E+00 0.  1.
         23    2    1    2    0    0 -0.33199576040E+02  0.84688181330E+02  0.22061007129E+00  0.12778902019E+03  0.89753468488E+02 0.  0.
        -24    2    1    2    0    0 -0.86507289467E+01 -0.68341996631E+02  0.22509581512E+03  0.24433895097E+03  0.65482313362E+02 0.  0.
         11    1    4    4    0    0 -0.64052091497E+00 -0.77596972864E+02  0.21465468202E+03  0.22825059251E+03  0.00000000000E+00 0. -1.
        -12    1    4    4    0    0 -0.80102080318E+01  0.92549762338E+01  0.10441133095E+02  0.16088358465E+02  0.00000000000E+00 0.  1.
        -13    1    3    3    0    0  0.25023882911E+02  0.41965396801E+02  0.20182970344E+02  0.52864369253E+02  0.00000000000E+00 0. -1.
         13    1    3    3    0    0 -0.58223458951E+02  0.42722784529E+02 -0.19962360273E+02  0.74924650936E+02  0.00000000000E+00 0.  1.
         21    1    1    2  502  501  0.41850304987E+02 -0.16346184699E+02  0.99775978762E+01  0.46023887723E+02  0.00000000000E+00 0. -1.
<scales pt_clust_5="13000.00000" pt_clust_6="13000.00000" pt_clust_7="13000.00000" pt_clust_8="13000.00000" pt_clust_9="44.92934"></scales>
<clustering>
<clus scale="   44.929">  2  9  1 -1</clus>
<clus scale="   65.482">  5  6 -1 -1</clus>
<clus scale="   89.753">  7  8 -1 -1</clus>
<clus scale="   96.260">  1  5  2 -1</clus>
<clus scale="   96.260">  1  5  2 -1</clus>
</clustering>
</event>
<event>
 9    1  0.2333971E-005  0.9209479E+02  0.7546771E-02  0.1304495E+00
          1   -1    0    0  502    0  0.00000000000E+00  0.00000000000E+00  0.96475173271E+02  0.96475173271E+02  0.00000000000E+00 0. -1.
         -2   -1    0    0    0  501 -0.00000000000E+00 -0.00000000000E+00 -0.33843440108E+03  0.33843440108E+03  0.00000000000E+00 0.  1.
         23    2    1    2    0    0  0.64685221763E+02 -0.32616469062E+02 -0.20594448456E+03  0.23610398788E+03  0.89910791377E+02 0.  0.
        -24    2    1    2    0    0  0.63730459542E+01  0.18507981565E+02  0.42610559147E+02  0.91893169004E+02  0.79028688856E+02 0.  0.
         13    1    4    4    0    0  0.43623945703E+01  0.38325448393E+02  0.55922500072E+02  0.67935237507E+02  0.00000000000E+00 0. -1.
        -14    1    4    4    0    0  0.20106513839E+01 -0.19817466827E+02 -0.13311940924E+02  0.23957931497E+02  0.00000000000E+00 0.  1.
        -13    1    3    3    0    0  0.46628896489E+02 -0.56425092726E+02 -0.88154670577E+02  0.11458311840E+03  0.00000000000E+00 0.  1.
         13    1    3    3    0    0  0.18056325274E+02  0.23808623664E+02 -0.11778981398E+03  0.12152086949E+03  0.00000000000E+00 0. -1.
         21    1    1    2  502  501 -0.71058267717E+02  0.14108487497E+02 -0.78625302398E+02  0.10691241746E+03  0.00000000000E+00 0.  1.
<scales pt_clust_5="13000.00000" pt_clust_6="13000.00000" pt_clust_7="13000.00000" pt_clust_8="13000.00000" pt_clust_9="72.44534"></scales>
<clustering>
<clus scale="   72.445">  2  9  1 -1</clus>
<clus scale="   79.029">  5  6 -1 -1</clus>
<clus scale="   81.505">  1  5  2 -1</clus>
<clus scale="   89.911">  7  8 -1 -1</clus>
<clus scale="   81.505">  1  5  2 -1</clus>
</clustering>
</event>
<event>
 9    1  0.2333971E-005  0.1208289E+03  0.7546771E-02  0.1246693E+00
         -2   -1    0    0    0  501 -0.00000000000E+00  0.00000000000E+00  0.61445671201E+02  0.61445671201E+02  0.00000000000E+00 0.  1.
          1   -1    0    0  502    0  0.00000000000E+00 -0.00000000000E+00 -0.55827098880E+03  0.55827098880E+03  0.00000000000E+00 0. -1.
         23    2    1    2    0    0  0.88844943749E+02 -0.19449519763E+02 -0.80403084057E+02  0.15474684337E+03  0.95969900265E+02 0.  0.
        -24    2    1    2    0    0 -0.66553449324E+02  0.22850779464E+02 -0.42684531088E+03  0.44012791993E+03  0.81019421996E+02 0.  0.
         13    1    4    4    0    0 -0.75703280867E+02  0.41261736449E+02 -0.36069905997E+03  0.37086025602E+03  0.00000000000E+00 0. -1.
        -14    1    4    4    0    0  0.91498315433E+01 -0.18410956985E+02 -0.66146250907E+02  0.69267663909E+02  0.00000000000E+00 0.  1.
        -13    1    3    3    0    0  0.15155431085E+02 -0.24814645830E+02  0.16077446478E+02  0.33225562814E+02  0.00000000000E+00 0.  1.
         13    1    3    3    0    0  0.73689512664E+02  0.53651260675E+01 -0.96480530535E+02  0.12152128055E+03  0.00000000000E+00 0. -1.
         21    1    1    2  502  501 -0.22291494425E+02 -0.34012597012E+01  0.10423077331E+02  0.24841896714E+02  0.00000000000E+00 0.  1.
<scales pt_clust_5="13000.00000" pt_clust_6="13000.00000" pt_clust_7="13000.00000" pt_clust_8="13000.00000" pt_clust_9="22.54949"></scales>
<clustering>
<clus scale="   22.549">  1  9  2 -1</clus>
<clus scale="   81.019">  5  6 -1 -1</clus>
<clus scale="   95.970">  7  8 -1 -1</clus>
<clus scale="  109.332">  2  5  1 -1</clus>
<clus scale="  109.332">  2  5  1 -1</clus>
</clustering>
</event>
<event>
 9    1  0.2333971E-005  0.1239421E+03  0.7546771E-02  0.1241113E+00
         -2   -1    0    0    0  501 -0.00000000000E+00  0.00000000000E+00  0.25560287703E+03  0.25560287703E+03  0.00000000000E+00 0.  1.
          1   -1    0    0  502    0  0.00000000000E+00 -0.00000000000E+00 -0.15528971999E+03  0.15528971999E+03  0.00000000000E+00 0. -1.
         23    2    1    2    0    0  0.73408758007E+02 -0.15808173171E+02  0.15803571860E+03  0.20069760191E+03  0.98313249209E+02 0.  0.
        -24    2    1    2    0    0 -0.65414490728E+02 -0.43994859811E+02 -0.85461437094E+02  0.14378899930E+03  0.84599147758E+02 0.  0.
         13    1    4    4    0    0 -0.11061901975E+02 -0.42008883818E+02 -0.77466906465E+02  0.88815728293E+02  0.00000000000E+00 0. -1.
        -14    1    4    4    0    0 -0.54352588753E+02 -0.19859759924E+01 -0.79945306288E+01  0.54973271003E+02  0.00000000000E+00 0.  1.
        -11    1    3    3    0    0  0.16834762726E+02  0.36864793037E+02  0.27447827221E+02  0.48946965390E+02  0.00000000000E+00 0.  1.
         11    1    3    3    0    0  0.56573995280E+02 -0.52672966208E+02  0.13058789138E+03  0.15175063652E+03  0.00000000000E+00 0. -1.
         21    1    1    2  502  501 -0.79942672785E+01  0.59803032981E+02  0.27738875545E+02  0.66405995811E+02  0.00000000000E+00 0.  1.
<scales pt_clust_5="13000.00000" pt_clust_6="13000.00000" pt_clust_7="13000.00000" pt_clust_8="13000.00000" pt_clust_9="60.33499"></scales>
<clustering>
<clus scale="   60.335">  1  9  2 -1</clus>
<clus scale="   84.599">  5  6 -1 -1</clus>
<clus scale="   98.313">  7  8 -1 -1</clus>
<clus scale="  113.372">  2  5  1 -1</clus>
<clus scale="  113.372">  2  5  1 -1</clus>
</clustering>
</event>
<event>
 9    1  0.2333971E-005  0.1055071E+03  0.7546771E-02  0.1275338E+00
         -2   -1    0    0    0  501 -0.00000000000E+00  0.00000000000E+00  0.93141448852E+02  0.93141448852E+02  0.00000000000E+00 0.  1.
          1   -1    0    0  502    0  0.00000000000E+00 -0.00000000000E+00 -0.33679980083E+03  0.33679980083E+03  0.00000000000E+00 0. -1.
         23    2    1    2    0    0  0.35680711347E-01 -0.77774182031E+02  0.14295952012E+02  0.12049736958E+03  0.90919839239E+02 0.  0.
        -24    2    1    2    0    0  0.14902273458E+02  0.48800008708E+02 -0.26090382974E+03  0.27671247475E+03  0.76781942557E+02 0.  0.
         11    1    4    4    0    0 -0.22013716243E+02  0.46738408436E+02 -0.11288141478E+03  0.12414224232E+03  0.00000000000E+00 0. -1.
        -12    1    4    4    0    0  0.36915989701E+02  0.20616002719E+01 -0.14802241496E+03  0.15257023242E+03  0.00000000000E+00 0.  1.
        -13    1    3    3    0    0  0.40332955252E+02 -0.42994075594E+02  0.28391642860E+02  0.65431821003E+02  0.00000000000E+00 0.  1.
         13    1    3    3    0    0 -0.40297274540E+02 -0.34780106437E+02 -0.14095690848E+02  0.55065548573E+02  0.00000000000E+00 0. -1.
         21    1    1    2  502  501 -0.14937954169E+02  0.28974173323E+02  0.29495257531E+01  0.32731405357E+02  0.00000000000E+00 0. -1.
<scales pt_clust_5="13000.00000" pt_clust_6="13000.00000" pt_clust_7="13000.00000" pt_clust_8="13000.00000" pt_clust_9="32.59824"></scales>
<clustering>
<clus scale="   32.598">  1  9  2 -1</clus>
<clus scale="   76.782">  5  6 -1 -1</clus>
<clus scale="   90.920">  7  8 -1 -1</clus>
<clus scale="   93.599">  2  5  1 -1</clus>
<clus scale="   93.599">  2  5  1 -1</clus>
</clustering>
</event>
<event>
 9    1  0.2333971E-005  0.9641159E+02  0.7546771E-02  0.1292432E+00
         -2   -1    0    0    0  501 -0.00000000000E+00  0.00000000000E+00  0.58406004360E+02  0.58406004360E+02  0.00000000000E+00 0.  1.
          1   -1    0    0  502    0  0.00000000000E+00 -0.00000000000E+00 -0.48930058593E+03  0.48930058593E+03  0.00000000000E+00 0. -1.
        -24    2    1    2    0    0  0.10286033708E+02  0.28306804126E+02  0.43494265765E+01  0.86671318186E+02  0.81153695143E+02 0.  0.
         23    2    1    2    0    0 -0.36276822964E+02 -0.11612132466E+02 -0.40932876061E+03  0.42071364958E+03  0.89437638463E+02 0.  0.
         11    1    3    3    0    0 -0.19099330922E+01  0.26247339162E+02 -0.35929285709E+02  0.44536324826E+02  0.00000000000E+00 0. -1.
        -12    1    3    3    0    0  0.12195966800E+02  0.20594649645E+01  0.40278712285E+02  0.42134993360E+02  0.00000000000E+00 0.  1.
        -11    1    4    4    0    0 -0.42547828766E+02  0.30398295548E+02 -0.17818000171E+03  0.18569460712E+03  0.00000000000E+00 0.  1.
         11    1    4    4    0    0  0.62710058017E+01 -0.42010428014E+02 -0.23114875891E+03  0.23501904246E+03  0.00000000000E+00 0. -1.
         21    1    1    2  502  501  0.25990789256E+02 -0.16694671660E+02 -0.25915247532E+02  0.40321622520E+02  0.00000000000E+00 0. -1.
<scales pt_clust_5="13000.00000" pt_clust_6="13000.00000" pt_clust_7="13000.00000" pt_clust_8="13000.00000" pt_clust_9="30.89067"></scales>
<clustering>
<clus scale="   30.891">  1  9  2 -1</clus>
<clus scale="   81.154">  5  6 -1 -1</clus>
<clus scale="   88.781">  1  5  2 -1</clus>
<clus scale="   89.438">  7  8 -1 -1</clus>
<clus scale="   96.412">  2  5  1 -1</clus>
</clustering>
</event>
<event>
 9    1  0.2333971E-005  0.1410678E+03  0.7546771E-02  0.1214583E+00
          1   -1    0    0  502    0  0.00000000000E+00  0.00000000000E+00  0.30598946638E+03  0.30598946638E+03  0.00000000000E+00 0. -1.
         -2   -1    0    0    0  501 -0.00000000000E+00 -0.00000000000E+00 -0.36446867863E+03  0.36446867863E+03  0.00000000000E+00 0.  1.
        -24    2    1    2    0    0 -0.66252802248E+02  0.82276921350E+02 -0.29829366336E+03  0.32638481957E+03  0.79931315864E+02 0.  0.
         23    2    1    2    0    0  0.82456418421E+02 -0.67852973385E+02  0.27129698270E+03  0.30584039137E+03  0.92375349713E+02 0.  0.
         13    1    3    3    0    0 -0.34610628797E+02  0.82839177952E+01 -0.17887789692E+03  0.18238371892E+03  0.00000000000E+00 0. -1.
        -14    1    3    3    0    0 -0.31642173450E+02  0.73993003555E+02 -0.11941576643E+03  0.14400110065E+03  0.00000000000E+00 0.  1.
        -11    1    4    4    0    0  0.47867481555E+02  0.15570314582E+02  0.84461655376E+02  0.98323454554E+02  0.00000000000E+00 0.  1.
         11    1    4    4    0    0  0.34588936865E+02 -0.83423287966E+02  0.18683532732E+03  0.20751693681E+03  0.00000000000E+00 0. -1.
         21    1    1    2  502  501 -0.16203616173E+02 -0.14423947965E+02 -0.31482531593E+02  0.38232934069E+02  0.00000000000E+00 0.  1.
<scales pt_clust_5="13000.00000" pt_clust_6="13000.00000" pt_clust_7="13000.00000" pt_clust_8="13000.00000" pt_clust_9="21.69349"></scales>
<clustering>
<clus scale="   21.693">  2  9  1 -1</clus>
<clus scale="   79.931">  5  6 -1 -1</clus>
<clus scale="   92.375">  7  8 -1 -1</clus>
<clus scale="  133.251">  2  5  1 -1</clus>
<clus scale="  141.068">  1  5  2 -1</clus>
</clustering>
</event>
<event>
 9    1  0.2333971E-005  0.9320590E+02  0.7546771E-02  0.1301585E+00
         -2   -1    0    0    0  501 -0.00000000000E+00  0.00000000000E+00  0.47503864486E+03  0.47503864486E+03  0.00000000000E+00 0.  1.
          1   -1    0    0  502    0  0.00000000000E+00 -0.00000000000E+00 -0.29897949541E+02  0.29897949541E+02  0.00000000000E+00 0. -1.
         23    2    1    2    0    0 -0.26989323672E+01  0.14924714948E+02  0.29231685294E+03  0.30639067353E+03  0.90532154303E+02 0.  0.
        -24    2    1    2    0    0 -0.22652442150E+02 -0.38510920563E+02  0.10223881272E+03  0.13724464428E+03  0.79919293169E+02 0.  0.
         13    1    4    4    0    0 -0.29860669872E+02 -0.60563473180E+02  0.83731100456E+02  0.10756621715E+03  0.00000000000E+00 0. -1.
        -14    1    4    4    0    0  0.72082277225E+01  0.22052552617E+02  0.18507712260E+02  0.29678427130E+02  0.00000000000E+00 0.  1.
        -11    1    3    3    0    0  0.79267689884E+01 -0.28813323085E+02  0.39140792270E+02  0.49244724320E+02  0.00000000000E+00 0. -1.
         11    1    3    3    0    0 -0.10625701356E+02  0.43738038033E+02  0.25317606067E+03  0.25714594921E+03  0.00000000000E+00 0.  1.
         21    1    1    2  502  501  0.25351374517E+02  0.23586205615E+02  0.50585029667E+02  0.61301276590E+02  0.00000000000E+00 0.  1.
<scales pt_clust_5="13000.00000" pt_clust_6="13000.00000" pt_clust_7="13000.00000" pt_clust_8="13000.00000" pt_clust_9="34.62660"></scales>
<clustering>
<clus scale="   34.627">  2  9  1 -1</clus>
<clus scale="   79.919">  5  6 -1 -1</clus>
<clus scale="   82.936">  2  5  1 -1</clus>
<clus scale="   90.532">  7  8 -1 -1</clus>
<clus scale="   34.627">  2  5  1 -1</clus>
</clustering>
</event>
<event>
 9    1  0.2333971E-005  0.1015355E+03  0.7546771E-02  0.1280883E+00
          1   -1    0    0  502    0  0.00000000000E+00  0.00000000000E+00  0.13757289994E+03  0.13757289994E+03  0.00000000000E+00 0. -1.
         -2   -1    0    0    0  501 -0.00000000000E+00 -0.00000000000E+00 -0.17657105690E+03  0.17657105690E+03  0.00000000000E+00 0.  1.
         23    2    1    2    0    0 -0.18984997629E+01 -0.38511673407E+02 -0.53596997471E+02  0.11131037850E+03  0.89613664890E+02 0.  0.
        -24    2    1    2    0    0  0.32976281858E+02  0.40120160767E+02  0.83180020922E+02  0.12752226393E+03  0.81522692868E+02 0.  0.
         13    1    4    4    0    0  0.59217913708E+02  0.26721237671E+02  0.69171524913E+02  0.94897237606E+02  0.00000000000E+00 0. -1.
        -14    1    4    4    0    0 -0.26241631850E+02  0.13398923096E+02  0.14008496009E+02  0.32625026325E+02  0.00000000000E+00 0.  1.
        -13    1    3    3    0    0  0.23544550252E+02 -0.44431354982E+02 -0.65523206809E+02  0.82594078375E+02  0.00000000000E+00 0.  1.
         13    1    3    3    0    0 -0.25443050015E+02  0.59196815748E+01  0.11926209337E+02  0.28716300130E+02  0.00000000000E+00 0. -1.
         21    1    1    2  502  501 -0.31077782095E+02 -0.16084873603E+01 -0.68581180412E+02  0.75311314411E+02  0.00000000000E+00 0.  1.
<scales pt_clust_5="13000.00000" pt_clust_6="13000.00000" pt_clust_7="13000.00000" pt_clust_8="13000.00000" pt_clust_9="31.11938"></scales>
<clustering>
<clus scale="   31.119">  2  9  1 -1</clus>
<clus scale="   81.523">  5  6 -1 -1</clus>
<clus scale="   89.614">  7  8 -1 -1</clus>
<clus scale="   94.471">  1  5  2 -1</clus>
<clus scale="   94.471">  1  5  2 -1</clus>
</clustering>
</event>
<event>
 9    1  0.2333971E-005  0.1186897E+03  0.7546771E-02  0.1250212E+00
         -2   -1    0    0    0  501 -0.00000000000E+00  0.00000000000E+00  0.46657185297E+02  0.46657185297E+02  0.00000000000E+00 0.  1.
          1   -1    0    0  502    0  0.00000000000E+00 -0.00000000000E+00 -0.48322013482E+03  0.48322013482E+03  0.00000000000E+00 0. -1.
        -24    2    1    2    0    0  0.85046118995E+01  0.51214662993E+02 -0.97050818883E+02  0.13819393845E+03  0.83566937534E+02 0.  0.
         23    2    1    2    0    0 -0.52986987842E+01 -0.75732347789E+02 -0.34489828528E+03  0.36637714907E+03  0.97539343135E+02 0.  0.
         11    1    3    3    0    0  0.34162603726E+02  0.25624566341E+02 -0.99401487363E+01  0.43846418901E+02  0.00000000000E+00 0. -1.
        -12    1    3    3    0    0 -0.25657991827E+02  0.25590096651E+02 -0.87110670147E+02  0.94347519547E+02  0.00000000000E+00 0.  1.
        -11    1    4    4    0    0  0.45920468604E+02 -0.38463011135E+02 -0.15374254445E+03  0.16499958375E+03  0.00000000000E+00 0.  1.
         11    1    4    4    0    0 -0.51219167388E+02 -0.37269336654E+02 -0.19115574083E+03  0.20137756533E+03  0.00000000000E+00 0. -1.
         21    1    1    2  502  501 -0.32059131152E+01  0.24517684796E+02  0.53861546406E+01  0.25306232601E+02  0.00000000000E+00 0.  1.
<scales pt_clust_5="13000.00000" pt_clust_6="13000.00000" pt_clust_7="13000.00000" pt_clust_8="13000.00000" pt_clust_9="24.72640"></scales>
<clustering>
<clus scale="   24.726">  1  9  2 -1</clus>
<clus scale="   83.567">  5  6 -1 -1</clus>
<clus scale="   97.539">  7  8 -1 -1</clus>
<clus scale="  107.502">  1  5  2 -1</clus>
<clus scale="  118.690">  2  5  1 -1</clus>
</clustering>
</event>
<event>
 9    1  0.2333971E-005  0.1650637E+03  0.7546771E-02  0.1184139E+00
          1   -1    0    0  502    0  0.00000000000E+00  0.00000000000E+00  0.43169527305E+03  0.43169527305E+03  0.00000000000E+00 0. -1.
         -2   -1    0    0    0  501 -0.00000000000E+00 -0.00000000000E+00 -0.20475038119E+03  0.20475038119E+03  0.00000000000E+00 0.  1.
         23    2    1    2    0    0 -0.12047169010E+03  0.32171441490E+02 -0.50584273076E+02  0.16111219493E+03  0.88599892267E+02 0.  0.
        -24    2    1    2    0    0  0.14094949773E+03 -0.16564009188E+02  0.35652336337E+03  0.39224906887E+03  0.81297577370E+02 0.  0.
         11    1    4    4    0    0  0.11057001151E+03 -0.18487379692E+02  0.33915467112E+03  0.35720218588E+03  0.00000000000E+00 0. -1.
        -12    1    4    4    0    0  0.30379486213E+02  0.19233705039E+01  0.17368692255E+02  0.35046882990E+02  0.00000000000E+00 0.  1.
        -11    1    3    3    0    0 -0.11914862872E+03  0.46914752368E+01 -0.58028374604E+02  0.13261107769E+03  0.00000000000E+00 0.  1.
         11    1    3    3    0    0 -0.13230613808E+01  0.27479966254E+02  0.74441015277E+01  0.28501117246E+02  0.00000000000E+00 0. -1.
         21    1    1    2  502  501 -0.20477807627E+02 -0.15607432302E+02 -0.78994198441E+02  0.83084390445E+02  0.00000000000E+00 0.  1.
<scales pt_clust_5="13000.00000" pt_clust_6="13000.00000" pt_clust_7="13000.00000" pt_clust_8="13000.00000" pt_clust_9="25.74748"></scales>
<clustering>
<clus scale="   25.747">  2  9  1 -1</clus>
<clus scale="   81.298">  5  6 -1 -1</clus>
<clus scale="   88.600">  7  8 -1 -1</clus>
<clus scale="  161.262">  1  5  2 -1</clus>
<clus scale="  161.262">  1  5  2 -1</clus>
</clustering>
</event>
<event>
 9    1  0.2333971E-005  0.1032678E+03  0.7546771E-02  0.1277211E+00
         -2   -1    0    0    0  501 -0.00000000000E+00  0.00000000000E+00  0.19445887321E+03  0.19445887321E+03  0.00000000000E+00 0.  1.
          1   -1    0    0  502    0  0.00000000000E+00 -0.00000000000E+00 -0.44445042991E+03  0.44445042991E+03  0.00000000000E+00 0. -1.
        -24    2    1    2    0    0 -0.68037101433E+02 -0.25052698553E+02  0.14595379724E+03  0.18213368818E+03  0.81323333452E+02 0.  0.
         23    2    1    2    0    0  0.35832832941E+02  0.36327353071E+02 -0.40783876684E+03  0.42064133739E+03  0.89459524296E+02 0.  0.
         11    1    3    3    0    0 -0.43998484410E+02 -0.38375301883E+02  0.35536668698E+02  0.68347532853E+02  0.00000000000E+00 0. -1.
        -12    1    3    3    0    0 -0.24038617023E+02  0.13322603329E+02  0.11041712854E+03  0.11378615532E+03  0.00000000000E+00 0.  1.
        -11    1    4    4    0    0  0.49350452421E+01  0.60015342480E+02 -0.18884248134E+03  0.19821119738E+03  0.00000000000E+00 0.  1.
         11    1    4    4    0    0  0.30897787699E+02 -0.23687989409E+02 -0.21899628550E+03  0.22243014002E+03  0.00000000000E+00 0. -1.
         21    1    1    2  502  501  0.32204268492E+02 -0.11274654518E+02  0.11893412911E+02  0.36134277553E+02  0.00000000000E+00 0.  1.
<scales pt_clust_5="13000.00000" pt_clust_6="13000.00000" pt_clust_7="13000.00000" pt_clust_8="13000.00000" pt_clust_9="34.12085"></scales>
<clustering>
<clus scale="   34.121">  1  9  2 -1</clus>
<clus scale="   81.323">  5  6 -1 -1</clus>
<clus scale="   89.460">  7  8 -1 -1</clus>
<clus scale="   96.305">  1  5  2 -1</clus>
<clus scale="  103.268">  2  5  1 -1</clus>
</clustering>
</event>
<event>
 9    1  0.2333971E-005  0.1077730E+03  0.7546771E-02  0.1271216E+00
         -2   -1    0    0    0  501 -0.00000000000E+00  0.00000000000E+00  0.32975746476E+03  0.32975746476E+03  0.00000000000E+00 0.  1.
          1   -1    0    0  502    0  0.00000000000E+00 -0.00000000000E+00 -0.82170343604E+02  0.82170343604E+02  0.00000000000E+00 0. -1.
        -24    2    1    2    0    0  0.56575968693E+01 -0.41884668305E+02  0.14258616727E+03  0.16915300899E+03  0.80595232555E+02 0.  0.
         23    2    1    2    0    0 -0.44863413990E+02  0.33518030324E+02 -0.19301531650E+02  0.11216773740E+03  0.95251603234E+02 0.  0.
         13    1    3    3    0    0  0.24775950370E+00 -0.65950074485E+02  0.11045494590E+03  0.12864590465E+03  0.00000000000E+00 0. -1.
        -14    1    3    3    0    0  0.54098373656E+01  0.24065406180E+02  0.32131221380E+02  0.40507104344E+02  0.00000000000E+00 0.  1.
        -11    1    4    4    0    0 -0.36734611715E+02 -0.33833226599E+01  0.31737518738E+02  0.48663627749E+02  0.00000000000E+00 0.  1.
         11    1    4    4    0    0 -0.81288022755E+01  0.36901352984E+02 -0.51039050389E+02  0.63504109655E+02  0.00000000000E+00 0. -1.
         21    1    1    2  502  501  0.39205817121E+02  0.83666379802E+01  0.12430248553E+03  0.13060706197E+03  0.00000000000E+00 0.  1.
<scales pt_clust_5="13000.00000" pt_clust_6="13000.00000" pt_clust_7="13000.00000" pt_clust_8="13000.00000" pt_clust_9="40.08861"></scales>
<clustering>
<clus scale="   40.089">  1  9  2 -1</clus>
<clus scale="   80.595">  5  6 -1 -1</clus>
<clus scale="   95.067">  1  5  2 -1</clus>
<clus scale="   95.252">  7  8 -1 -1</clus>
<clus scale="  107.773">  2  5  1 -1</clus>
</clustering>
</event>
<event>
 9    1  0.2333971E-005  0.1045821E+03  0.7546771E-02  0.1275248E+00
          1   -1    0    0  502    0  0.00000000000E+00  0.00000000000E+00  0.55962191383E+03  0.55962191383E+03  0.00000000000E+00 0. -1.
         -2   -1    0    0    0  501 -0.00000000000E+00 -0.00000000000E+00 -0.35328806601E+02  0.35328806601E+02  0.00000000000E+00 0.  1.
        -24    2    1    2    0    0 -0.29714347056E+02  0.50793737444E+02  0.90606995310E+02  0.13401718271E+03  0.79297108894E+02 0.  0.
         23    2    1    2    0    0 -0.14631040393E+02 -0.55851166425E+02  0.35395100304E+03  0.36955641496E+03  0.89203201452E+02 0.  0.
         11    1    3    3    0    0 -0.23371733495E+02  0.42345729910E+02  0.10532538101E+03  0.11590010636E+03  0.00000000000E+00 0. -1.
        -12    1    3    3    0    0 -0.63426135619E+01  0.84480075335E+01 -0.14718385702E+02  0.18117076357E+02  0.00000000000E+00 0.  1.
        -11    1    4    4    0    0  0.15415865013E+02 -0.54488271130E+02  0.31648391297E+03  0.32151001191E+03  0.00000000000E+00 0. -1.
         11    1    4    4    0    0 -0.30046905407E+02 -0.13628952956E+01  0.37467090064E+02  0.48046403049E+02  0.00000000000E+00 0.  1.
         21    1    1    2  502  501  0.44345387450E+02  0.50574289818E+01  0.79735108885E+02  0.91377122766E+02  0.00000000000E+00 0.  1.
<scales pt_clust_5="13000.00000" pt_clust_6="13000.00000" pt_clust_7="13000.00000" pt_clust_8="13000.00000" pt_clust_9="44.63285"></scales>
<clustering>
<clus scale="   44.633">  2  9  1 -1</clus>
<clus scale="   79.297">  5  6 -1 -1</clus>
<clus scale="   89.203">  7  8 -1 -1</clus>
<clus scale="   96.272">  2  5  1 -1</clus>
<clus scale="  104.582">  1  5  2 -1</clus>
</clustering>
</event>
<event>
 9    1  0.2333971E-005  0.2235224E+03  0.7546771E-02  0.1132076E+00
          1   -1    0    0  502    0  0.00000000000E+00  0.00000000000E+00  0.28941216579E+03  0.28941216579E+03  0.00000000000E+00 0. -1.
         -2   -1    0    0    0  501 -0.00000000000E+00 -0.00000000000E+00 -0.48163619951E+03  0.48163619951E+03  0.00000000000E+00 0.  1.
         23    2    1    2    0    0  0.40708246648E+02  0.11418294596E+03 -0.28089343296E+03  0.31925392850E+03  0.91252636604E+02 0.  0.
        -24    2    1    2    0    0 -0.17223014504E+03 -0.14311946453E+03  0.17191675191E+03  0.29347370667E+03  0.80156365497E+02 0.  0.
         11    1    4    4    0    0 -0.10227219917E+03 -0.11236015938E+03  0.15107384161E+03  0.21426085447E+03  0.00000000000E+00 0. -1.
        -12    1    4    4    0    0 -0.69957945865E+02 -0.30759305155E+02  0.20842910296E+02  0.79212852195E+02  0.00000000000E+00 0.  1.
        -13    1    3    3    0    0  0.53569417708E+02  0.47601414521E+02 -0.80896400048E+02  0.10807314522E+03  0.00000000000E+00 0. -1.
         13    1    3    3    0    0 -0.12861171060E+02  0.66581531443E+02 -0.19999703291E+03  0.21118078327E+03  0.00000000000E+00 0.  1.
         21    1    1    2  502  501  0.13152189839E+03  0.28936518567E+02 -0.83247352668E+02  0.15832073013E+03  0.00000000000E+00 0. -1.
<scales pt_clust_5="13000.00000" pt_clust_6="13000.00000" pt_clust_7="13000.00000" pt_clust_8="13000.00000" pt_clust_9="134.66749"></scales>
<clustering>
<clus scale="   80.156">  5  6 -1 -1</clus>
<clus scale="   91.253">  7  8 -1 -1</clus>
<clus scale="  134.667">  2  9  1 -1</clus>
<clus scale="  219.227">  1  5  2 -1</clus>
<clus scale="  219.227">  1  5  2 -1</clus>
</clustering>
</event>
<event>
 9    1  0.2333971E-005  0.1069476E+03  0.7546771E-02  0.1269097E+00
          1   -1    0    0  502    0  0.00000000000E+00  0.00000000000E+00  0.63318080106E+03  0.63318080106E+03  0.00000000000E+00 0. -1.
         -2   -1    0    0    0  501 -0.00000000000E+00 -0.00000000000E+00 -0.21279979350E+02  0.21279979350E+02  0.00000000000E+00 0.  1.
         23    2    1    2    0    0  0.64461010073E+02  0.30083935602E+02  0.24354535951E+03  0.26828849237E+03  0.87201536678E+02 0.  0.
        -24    2    1    2    0    0 -0.47890357959E+02 -0.17347743359E+02  0.30103844671E+03  0.31568556817E+03  0.80242139576E+02 0.  0.
         13    1    4    4    0    0 -0.52109360950E+02  0.71341104978E+01  0.27385662226E+03  0.27886148997E+03  0.00000000000E+00 0. -1.
        -14    1    4    4    0    0  0.42190029917E+01 -0.24481853856E+02  0.27181824450E+02  0.36824078195E+02  0.00000000000E+00 0.  1.
        -11    1    3    3    0    0  0.77163040243E+02  0.73246836465E+01  0.12635053409E+03  0.14823037217E+03  0.00000000000E+00 0.  1.
         11    1    3    3    0    0 -0.12702030170E+02  0.22759251956E+02  0.11719482542E+03  0.12005812020E+03  0.00000000000E+00 0. -1.
         21    1    1    2  502  501 -0.16570652114E+02 -0.12736192244E+02  0.67317015487E+02  0.70486719873E+02  0.00000000000E+00 0. -1.
<scales pt_clust_5="13000.00000" pt_clust_6="13000.00000" pt_clust_7="13000.00000" pt_clust_8="13000.00000" pt_clust_9="20.89969"></scales>
<clustering>
<clus scale="   20.900">  1  9  2 -1</clus>
<clus scale="   80.242">  5  6 -1 -1</clus>
<clus scale="   87.202">  7  8 -1 -1</clus>
<clus scale="  101.353">  1  5  2 -1</clus>
<clus scale="   20.900">  1  5  2 -1</clus>
</clustering>
</event>
<event>
 9    1  0.2333971E-005  0.2606850E+03  0.7546771E-02  0.1107515E+00
          1   -1    0    0  502    0  0.00000000000E+00  0.00000000000E+00  0.68704500405E+03  0.68704500405E+03  0.00000000000E+00 0. -1.
         -2   -1    0    0    0  501 -0.00000000000E+00 -0.00000000000E+00 -0.48468143439E+03  0.48468143439E+03  0.00000000000E+00 0.  1.
         23    2    1    2    0    0  0.94752124744E+02  0.25836044916E+03  0.27646655089E+03  0.40088034787E+03  0.92429501295E+02 0.  0.
        -24    2    1    2    0    0 -0.81885259509E+02 -0.20789045825E+03  0.30634977803E+03  0.38684468663E+03  0.76648461919E+02 0.  0.
         11    1    4    4    0    0 -0.52745843680E+02 -0.11659126400E+03  0.23421703604E+03  0.26689561038E+03  0.00000000000E+00 0. -1.
        -12    1    4    4    0    0 -0.29139415830E+02 -0.91299194256E+02  0.72132741991E+02  0.11994907625E+03  0.00000000000E+00 0.  1.
        -13    1    3    3    0    0  0.74975004193E+02  0.90748259550E+02  0.14608674372E+03  0.18761085937E+03  0.00000000000E+00 0. -1.
         13    1    3    3    0    0  0.19777120551E+02  0.16761218961E+03  0.13037980718E+03  0.21326948849E+03  0.00000000000E+00 0.  1.
         21    1    1    2  502  501 -0.12866865234E+02 -0.50469990906E+02 -0.38045275926E+03  0.38400140395E+03  0.00000000000E+00 0.  1.
<scales pt_clust_5="13000.00000" pt_clust_6="13000.00000" pt_clust_7="13000.00000" pt_clust_8="13000.00000" pt_clust_9="52.08432"></scales>
<clustering>
<clus scale="   52.084">  2  9  1 -1</clus>
<clus scale="   76.648">  5  6 -1 -1</clus>
<clus scale="   92.430">  7  8 -1 -1</clus>
<clus scale="  255.516">  1  5  2 -1</clus>
<clus scale="  255.516">  1  5  2 -1</clus>
</clustering>
</event>
<event>
 9    1  0.2333971E-005  0.1009830E+03  0.7546771E-02  0.1282719E+00
          1   -1    0    0  502    0  0.00000000000E+00  0.00000000000E+00  0.53171291068E+03  0.53171291068E+03  0.00000000000E+00 0. -1.
         -2   -1    0    0    0  501 -0.00000000000E+00 -0.00000000000E+00 -0.81991768445E+02  0.81991768445E+02  0.00000000000E+00 0.  1.
        -24    2    1    2    0    0  0.54570443503E+02  0.91815712837E+02  0.17030892389E+03  0.21788759310E+03  0.84034607416E+02 0.  0.
         23    2    1    2    0    0  0.43304418520E+01 -0.20469250644E+02  0.28753833287E+03  0.30294262398E+03  0.93049436342E+02 0.  0.
         13    1    3    3    0    0  0.73864512002E+02  0.90043727100E+02  0.14831205400E+03  0.18857439987E+03  0.00000000000E+00 0. -1.
        -14    1    3    3    0    0 -0.19294068499E+02  0.17719857366E+01  0.21996869891E+02  0.29313193236E+02  0.00000000000E+00 0.  1.
        -11    1    4    4    0    0 -0.35667703751E+02 -0.29449150994E+02  0.21210703706E+03  0.21709176114E+03  0.00000000000E+00 0.  1.
         11    1    4    4    0    0  0.39998145603E+02  0.89799003496E+01  0.75431295812E+02  0.85850862837E+02  0.00000000000E+00 0. -1.
         21    1    1    2  502  501 -0.58900885355E+02 -0.71346462193E+02 -0.81261145246E+01  0.92874462046E+02  0.00000000000E+00 0.  1.
<scales pt_clust_5="13000.00000" pt_clust_6="13000.00000" pt_clust_7="13000.00000" pt_clust_8="13000.00000" pt_clust_9="92.51828"></scales>
<clustering>
<clus scale="   84.035">  5  6 -1 -1</clus>
<clus scale="   92.518">  2  9  1 -1</clus>
<clus scale="   92.743">  2  5  1 -1</clus>
<clus scale="   93.049">  7  8 -1 -1</clus>
<clus scale="  100.983">  1  5  2 -1</clus>
</clustering>
</event>
<event>
 9    1  0.2333971E-005  0.1040077E+03  0.7546771E-02  0.1275628E+00
         -2   -1    0    0    0  501 -0.00000000000E+00  0.00000000000E+00  0.35800868439E+02  0.35800868439E+02  0.00000000000E+00 0.  1.
          1   -1    0    0  502    0  0.00000000000E+00 -0.00000000000E+00 -0.44877881291E+03  0.44877881291E+03  0.00000000000E+00 0. -1.
        -24    2    1    2    0    0 -0.42566071628E+01  0.65162042641E+02 -0.12911134255E+03  0.16683369882E+03  0.83063432285E+02 0.  0.
         23    2    1    2    0    0 -0.36654264256E+01 -0.43391761647E+02 -0.27504859709E+03  0.29295765947E+03  0.90973507962E+02 0.  0.
         13    1    3    3    0    0  0.24068646333E+02  0.34933309455E+01 -0.78486511624E+02  0.82168336994E+02  0.00000000000E+00 0. -1.
        -14    1    3    3    0    0 -0.28325253495E+02  0.61668711695E+02 -0.50624830924E+02  0.84665361830E+02  0.00000000000E+00 0.  1.
        -13    1    4    4    0    0  0.33076011610E+02 -0.38475756985E+02 -0.82350106957E+02  0.96726141945E+02  0.00000000000E+00 0. -1.
         13    1    4    4    0    0 -0.36741438036E+02 -0.49160046619E+01 -0.19269849013E+03  0.19623151752E+03  0.00000000000E+00 0.  1.
         21    1    1    2  502  501  0.79220335883E+01 -0.21770280994E+02 -0.88180048353E+01  0.24788323058E+02  0.00000000000E+00 0. -1.
<scales pt_clust_5="13000.00000" pt_clust_6="13000.00000" pt_clust_7="13000.00000" pt_clust_8="13000.00000" pt_clust_9="23.16687"></scales>
<clustering>
<clus scale="   23.167">  1  9  2 -1</clus>
<clus scale="   83.063">  5  6 -1 -1</clus>
<clus scale="   90.974">  7  8 -1 -1</clus>
<clus scale="   97.165">  1  5  2 -1</clus>
<clus scale="  104.008">  2  5  1 -1</clus>
</clustering>
</event>
<event>
 9    1  0.2333971E-005  0.1155739E+03  0.7546771E-02  0.1252670E+00
         -2   -1    0    0    0  501 -0.00000000000E+00  0.00000000000E+00  0.91847671771E+02  0.91847671771E+02  0.00000000000E+00 0.  1.
          1   -1    0    0  502    0  0.00000000000E+00 -0.00000000000E+00 -0.30434524307E+03  0.30434524307E+03  0.00000000000E+00 0. -1.
         23    2    1    2    0    0 -0.69082780422E+02 -0.22102422385E+02 -0.89745050704E+02  0.14623802014E+03  0.89835609767E+02 0.  0.
        -24    2    1    2    0    0  0.72900201854E+02 -0.43444366100E+02 -0.13820678749E+03  0.18250277426E+03  0.83691661046E+02 0.  0.
         11    1    4    4    0    0  0.46467020856E+02 -0.65255483504E+02 -0.11829596270E+03  0.14286846029E+03  0.00000000000E+00 0. -1.
        -12    1    4    4    0    0  0.26433180997E+02  0.21811117404E+02 -0.19910824785E+02  0.39634313967E+02  0.00000000000E+00 0.  1.
        -13    1    3    3    0    0 -0.85345020664E+01 -0.40871543531E+02 -0.66892723884E+02  0.78854025292E+02  0.00000000000E+00 0. -1.
         13    1    3    3    0    0 -0.60548278356E+02  0.18769121146E+02 -0.22852326820E+02  0.67383994847E+02  0.00000000000E+00 0.  1.
         21    1    1    2  502  501 -0.38174214317E+01  0.65546788485E+02  0.15454266893E+02  0.67452120443E+02  0.00000000000E+00 0.  1.
<scales pt_clust_5="13000.00000" pt_clust_6="13000.00000" pt_clust_7="13000.00000" pt_clust_8="13000.00000" pt_clust_9="65.65786"></scales>
<clustering>
<clus scale="   65.658">  1  9  2 -1</clus>
<clus scale="   83.692">  5  6 -1 -1</clus>
<clus scale="   89.836">  7  8 -1 -1</clus>
<clus scale="  110.866">  2  5  1 -1</clus>
<clus scale="  110.866">  2  5  1 -1</clus>
</clustering>
</event>
<event>
 9    1  0.2333971E-005  0.1736675E+03  0.7546771E-02  0.1175778E+00
         -2   -1    0    0    0  501 -0.00000000000E+00  0.00000000000E+00  0.17985415309E+03  0.17985415309E+03  0.00000000000E+00 0.  1.
          1   -1    0    0  502    0  0.00000000000E+00 -0.00000000000E+00 -0.42835190614E+03  0.42835190614E+03  0.00000000000E+00 0. -1.
         23    2    1    2    0    0 -0.12062470063E+03  0.12314535777E+03  0.43551685249E+02  0.19932484291E+03  0.90102975384E+02 0.  0.
        -24    2    1    2    0    0  0.11241726450E+03 -0.91217394661E+02 -0.32394545705E+03  0.36301060645E+03  0.76666725541E+02 0.  0.
         11    1    4    4    0    0  0.78360656786E+02 -0.54956859159E+02 -0.28246294103E+03  0.29823809608E+03  0.00000000000E+00 0. -1.
        -12    1    4    4    0    0  0.34056607714E+02 -0.36260535502E+02 -0.41482516025E+02  0.64772510370E+02  0.00000000000E+00 0.  1.
        -11    1    3    3    0    0 -0.51511335535E+02  0.84233313808E+01  0.39280311391E+02  0.65324674228E+02  0.00000000000E+00 0.  1.
         11    1    3    3    0    0 -0.69113365094E+02  0.11472202639E+03  0.42713738585E+01  0.13400016869E+03  0.00000000000E+00 0. -1.
         21    1    1    2  502  501  0.82074361290E+01 -0.31927963108E+02  0.31896018764E+02  0.45870609862E+02  0.00000000000E+00 0.  1.
<scales pt_clust_5="13000.00000" pt_clust_6="13000.00000" pt_clust_7="13000.00000" pt_clust_8="13000.00000" pt_clust_9="32.96600"></scales>
<clustering>
<clus scale="   32.966">  1  9  2 -1</clus>
<clus scale="   76.667">  5  6 -1 -1</clus>
<clus scale="   90.103">  7  8 -1 -1</clus>
<clus scale="  167.092">  2  5  1 -1</clus>
<clus scale="  167.092">  2  5  1 -1</clus>
</clustering>
</event>
<event>
 9    1  0.2333971E-005  0.1116821E+03  0.7546771E-02  0.1261520E+00
         -4   -1    0    0    0  501 -0.00000000000E+00  0.00000000000E+00  0.39105863452E+02  0.39105863452E+02  0.00000000000E+00 0.  1.
          3   -1    0    0  502    0  0.00000000000E+00 -0.00000000000E+00 -0.52998737714E+03  0.52998737714E+03  0.00000000000E+00 0. -1.
         23    2    1    2    0    0  0.29269618061E+02  0.19958569644E+02 -0.92652003780E+02  0.13412674343E+03  0.90280310458E+02 0.  0.
        -24    2    1    2    0    0 -0.75443445929E+02 -0.23457921169E+02 -0.35248503134E+03  0.36987559794E+03  0.79500144890E+02 0.  0.
         11    1    4    4    0    0 -0.65112336424E+02 -0.38758823326E+02 -0.33805449963E+03  0.34644293536E+03  0.00000000000E+00 0. -1.
        -12    1    4    4    0    0 -0.10331109505E+02  0.15300902157E+02 -0.14430531707E+02  0.23432662584E+02  0.00000000000E+00 0.  1.
        -11    1    3    3    0    0  0.45102854232E+02 -0.23148654128E+02 -0.54387283728E+02  0.74351222445E+02  0.00000000000E+00 0. -1.
         11    1    3    3    0    0 -0.15833236171E+02  0.43107223771E+02 -0.38264720052E+02  0.59775520990E+02  0.00000000000E+00 0.  1.
         21    1    1    2  502  501  0.46173827868E+02  0.34993515259E+01 -0.45744478575E+02  0.65090899220E+02  0.00000000000E+00 0. -1.
<scales pt_clust_5="13000.00000" pt_clust_6="13000.00000" pt_clust_7="13000.00000" pt_clust_8="13000.00000" pt_clust_9="46.30624"></scales>
<clustering>
<clus scale="   46.306">  1  9  2 -1</clus>
<clus scale="   79.500">  5  6 -1 -1</clus>
<clus scale="   90.280">  7  8 -1 -1</clus>
<clus scale="  103.163">  2  5  1 -1</clus>
<clus scale="  103.163">  2  5  1 -1</clus>
</clustering>
</event>
<event>
 9    1  0.2333971E-005  0.9905797E+02  0.7546771E-02  0.1288154E+00
          3   -1    0    0  502    0  0.00000000000E+00  0.00000000000E+00  0.36108495480E+03  0.36108495480E+03  0.00000000000E+00 0. -1.
         -4   -1    0    0    0  501 -0.00000000000E+00 -0.00000000000E+00 -0.57106894393E+02  0.57106894393E+02  0.00000000000E+00 0.  1.
        -24    2    1    2    0    0  0.47894722508E+02  0.34324354837E+02  0.30358906383E+02  0.10290590263E+03  0.78714012858E+02 0.  0.
         23    2    1    2    0    0 -0.16930374020E+02 -0.33678159177E+02  0.26597354765E+03  0.28338510421E+03  0.90245959841E+02 0.  0.
         11    1    3    3    0    0  0.75173331434E+01  0.52451049819E+02  0.24084348484E+02  0.58203769351E+02  0.00000000000E+00 0. -1.
        -12    1    3    3    0    0  0.40377389365E+02 -0.18126694982E+02  0.62745578988E+01  0.44702133279E+02  0.00000000000E+00 0.  1.
        -13    1    4    4    0    0 -0.18856914419E+02  0.24267880501E+02  0.42088877282E+02  0.52115130588E+02  0.00000000000E+00 0.  1.
         13    1    4    4    0    0  0.19265403992E+01 -0.57946039678E+02  0.22388467037E+03  0.23126997362E+03  0.00000000000E+00 0. -1.
         21    1    1    2  502  501 -0.30964348488E+02 -0.64619565977E+00  0.76456063755E+01  0.31900842355E+02  0.00000000000E+00 0.  1.
<scales pt_clust_5="13000.00000" pt_clust_6="13000.00000" pt_clust_7="13000.00000" pt_clust_8="13000.00000" pt_clust_9="30.97109"></scales>
<clustering>
<clus scale="   30.971">  2  9  1 -1</clus>
<clus scale="   78.714">  5  6 -1 -1</clus>
<clus scale="   88.679">  2  5  1 -1</clus>
<clus scale="   90.246">  7  8 -1 -1</clus>
<clus scale="   99.058">  1  5  2 -1</clus>
</clustering>
</event>
<event>
 9    1  0.2333971E-005  0.1105446E+03  0.7546771E-02  0.1264316E+00
          1   -1    0    0  502    0  0.00000000000E+00  0.00000000000E+00  0.28202974422E+03  0.28202974422E+03  0.00000000000E+00 0. -1.
         -2   -1    0    0    0  501 -0.00000000000E+00 -0.00000000000E+00 -0.18634213612E+03  0.18634213612E+03  0.00000000000E+00 0.  1.
         23    2    1    2    0    0  0.41222071323E+01 -0.78022557761E+02 -0.17051364889E+02  0.12126560700E+03  0.91159674665E+02 0.  0.
        -24    2    1    2    0    0 -0.48089319497E+02  0.41244358146E+02  0.21061472825E+03  0.23368049847E+03  0.78957785432E+02 0.  0.
         13    1    4    4    0    0  0.13158060708E+02  0.37613230532E+02  0.85683883213E+02  0.94496653460E+02  0.00000000000E+00 0. -1.
        -14    1    4    4    0    0 -0.61247380206E+02  0.36311276134E+01  0.12493084504E+03  0.13918384501E+03  0.00000000000E+00 0.  1.
        -13    1    3    3    0    0 -0.36833773593E+02 -0.28440678455E+02 -0.30399208231E+02  0.55585168248E+02  0.00000000000E+00 0.  1.
         13    1    3    3    0    0  0.40955980725E+02 -0.49581879306E+02  0.13347843342E+02  0.65680438751E+02  0.00000000000E+00 0. -1.
         21    1    1    2  502  501  0.43967112365E+02  0.36778199615E+02 -0.97875755264E+02  0.11342577487E+03  0.00000000000E+00 0.  1.
<scales pt_clust_5="13000.00000" pt_clust_6="13000.00000" pt_clust_7="13000.00000" pt_clust_8="13000.00000" pt_clust_9="57.32140"></scales>
<clustering>
<clus scale="   57.321">  2  9  1 -1</clus>
<clus scale="   78.958">  5  6 -1 -1</clus>
<clus scale="   91.160">  7  8 -1 -1</clus>
<clus scale="  100.719">  1  5  2 -1</clus>
<clus scale="  100.719">  1  5  2 -1</clus>
</clustering>
</event>
<event>
 9    1  0.2333971E-005  0.1703068E+03  0.7546771E-02  0.1179340E+00
          1   -1    0    0  502    0  0.00000000000E+00  0.00000000000E+00  0.12330617973E+04  0.12330617973E+04  0.00000000000E+00 0. -1.
         -2   -1    0    0    0  501 -0.00000000000E+00 -0.00000000000E+00 -0.31659801178E+02  0.31659801178E+02  0.00000000000E+00 0.  1.
        -24    2    1    2    0    0  0.43783946164E+02  0.11834377369E+03  0.43013562615E+03  0.45501412968E+03  0.78095573564E+02 0.  0.
         23    2    1    2    0    0 -0.77160365526E+02 -0.14086778607E+03  0.72581735784E+03  0.74898737981E+03  0.91508486005E+02 0.  0.
         11    1    3    3    0    0  0.12219598896E+02  0.58628761399E+02  0.32196346529E+03  0.32748606572E+03  0.00000000000E+00 0. -1.
        -12    1    3    3    0    0  0.31564347268E+02  0.59715012292E+02  0.10817216086E+03  0.12752806396E+03  0.00000000000E+00 0.  1.
        -11    1    4    4    0    0 -0.95463156913E+02 -0.97965189564E+02  0.57903318920E+03  0.59497044203E+03  0.00000000000E+00 0. -1.
         11    1    4    4    0    0  0.18302791386E+02 -0.42902596507E+02  0.14678416864E+03  0.15401693778E+03  0.00000000000E+00 0.  1.
         21    1    1    2  502  501  0.33376419362E+02  0.22524012379E+02  0.45449012126E+02  0.60720088985E+02  0.00000000000E+00 0. -1.
<scales pt_clust_5="13000.00000" pt_clust_6="13000.00000" pt_clust_7="13000.00000" pt_clust_8="13000.00000" pt_clust_9="40.26557"></scales>
<clustering>
<clus scale="   40.266">  2  9  1 -1</clus>
<clus scale="   78.096">  5  6 -1 -1</clus>
<clus scale="   91.508">  7  8 -1 -1</clus>
<clus scale="  163.492">  2  5  1 -1</clus>
<clus scale="  170.307">  1  5  2 -1</clus>
</clustering>
</event>
<event>
 9    1  0.2333971E-005  0.1216519E+03  0.7546771E-02  0.1244588E+00
         -2   -1    0    0    0  501 -0.00000000000E+00  0.00000000000E+00  0.52424711020E+02  0.52424711020E+02  0.00000000000E+00 0.  1.
          1   -1    0    0  502    0  0.00000000000E+00 -0.00000000000E+00 -0.64103652985E+03  0.64103652985E+03  0.00000000000E+00 0. -1.
        -24    2    1    2    0    0  0.43020768873E+02  0.42424060522E+02 -0.27998509737E+02  0.10406755127E+03  0.79972190251E+02 0.  0.
         23    2    1    2    0    0 -0.77511993165E+02 -0.28078740410E+02 -0.51788020790E+03  0.53263498367E+03  0.93293040153E+02 0.  0.
         13    1    3    3    0    0  0.58271340063E+02  0.43262683841E+01 -0.10104035260E+02  0.59298880254E+02  0.00000000000E+00 0. -1.
        -14    1    3    3    0    0 -0.15250571190E+02  0.38097792138E+02 -0.17894474477E+02  0.44768671012E+02  0.00000000000E+00 0.  1.
        -11    1    4    4    0    0 -0.90322777851E+02 -0.45478132327E+02 -0.38758267120E+03  0.40055810032E+03  0.00000000000E+00 0. -1.
         11    1    4    4    0    0  0.12810784686E+02  0.17399391917E+02 -0.13029753671E+03  0.13207688335E+03  0.00000000000E+00 0.  1.
         21    1    1    2  502  501  0.34491224293E+02 -0.14345320112E+02 -0.42733101193E+02  0.56758705939E+02  0.00000000000E+00 0.  1.
<scales pt_clust_5="13000.00000" pt_clust_6="13000.00000" pt_clust_7="13000.00000" pt_clust_8="13000.00000" pt_clust_9="37.35549"></scales>
<clustering>
<clus scale="   37.355">  1  9  2 -1</clus>
<clus scale="   79.972">  5  6 -1 -1</clus>
<clus scale="   93.293">  7  8 -1 -1</clus>
<clus scale="  111.764">  1  5  2 -1</clus>
<clus scale="  121.652">  2  5  1 -1</clus>
</clustering>
</event>
<event>
 9    1  0.2333971E-005  0.1009067E+03  0.7546771E-02  0.1284296E+00
         -2   -1    0    0    0  501 -0.00000000000E+00  0.00000000000E+00  0.22544063971E+02  0.22544063971E+02  0.00000000000E+00 0.  1.
          1   -1    0    0  502    0  0.00000000000E+00 -0.00000000000E+00 -0.55749662270E+03  0.55749662270E+03  0.00000000000E+00 0. -1.
         23    2    1    2    0    0  0.13926925439E+02 -0.38332559392E+02 -0.22626155579E+03  0.24788513733E+03  0.92679044650E+02 0.  0.
        -24    2    1    2    0    0  0.15117107306E+02  0.40917090960E+02 -0.25493463267E+03  0.27100014904E+03  0.80911547886E+02 0.  0.
         13    1    4    4    0    0 -0.48173701862E+01  0.62307470164E+02 -0.18156313401E+03  0.19201718550E+03  0.00000000000E+00 0. -1.
        -14    1    4    4    0    0  0.19934477492E+02 -0.21390379204E+02 -0.73371498654E+02  0.78982963544E+02  0.00000000000E+00 0.  1.
        -11    1    3    3    0    0  0.26467517883E+02  0.18742293739E+02 -0.34207541467E+02  0.47137659792E+02  0.00000000000E+00 0.  1.
         11    1    3    3    0    0 -0.12540592444E+02 -0.57074853132E+02 -0.19205401433E+03  0.20074747754E+03  0.00000000000E+00 0. -1.
         21    1    1    2  502  501 -0.29044032745E+02 -0.25845315674E+01 -0.53756370273E+02  0.61155400305E+02  0.00000000000E+00 0. -1.
<scales pt_clust_5="13000.00000" pt_clust_6="13000.00000" pt_clust_7="13000.00000" pt_clust_8="13000.00000" pt_clust_9="29.15880"></scales>
<clustering>
<clus scale="   29.159">  1  9  2 -1</clus>
<clus scale="   80.912">  5  6 -1 -1</clus>
<clus scale="   90.219">  2  5  1 -1</clus>
<clus scale="   92.679">  7  8 -1 -1</clus>
<clus scale="   90.219">  2  5  1 -1</clus>
</clustering>
</event>
<event>
 9    1  0.2333971E-005  0.1128080E+03  0.7546771E-02  0.1262015E+00
         -4   -1    0    0    0  501 -0.00000000000E+00  0.00000000000E+00  0.17578303117E+03  0.17578303117E+03  0.00000000000E+00 0.  1.
          3   -1    0    0  502    0  0.00000000000E+00 -0.00000000000E+00 -0.11625774704E+03  0.11625774704E+03  0.00000000000E+00 0. -1.
         23    2    1    2    0    0 -0.68695097200E+02  0.24676853074E+02  0.34541732238E+02  0.99553604847E+02  0.58222208091E+02 0.  0.
        -24    2    1    2    0    0  0.69705849474E+02 -0.50297429946E+02 -0.39226379247E+02  0.12334709212E+03  0.79290979275E+02 0.  0.
         13    1    4    4    0    0  0.37380664119E+02 -0.69268844521E+02 -0.19953320345E+02  0.81201119845E+02  0.00000000000E+00 0. -1.
        -14    1    4    4    0    0  0.32325185355E+02  0.18971414575E+02 -0.19273058902E+02  0.42145972270E+02  0.00000000000E+00 0.  1.
        -13    1    3    3    0    0 -0.27497130871E+02  0.16268521623E+02 -0.14387797006E+02  0.35039487791E+02  0.00000000000E+00 0. -1.
         13    1    3    3    0    0 -0.41197966329E+02  0.84083314509E+01  0.48929529245E+02  0.64514117056E+02  0.00000000000E+00 0.  1.
         21    1    1    2  502  501 -0.10107522742E+01  0.25620576872E+02  0.64209931139E+02  0.69140081257E+02  0.00000000000E+00 0. -1.
<scales pt_clust_5="13000.00000" pt_clust_6="13000.00000" pt_clust_7="13000.00000" pt_clust_8="13000.00000" pt_clust_9="25.64051"></scales>
<clustering>
<clus scale="   25.641">  1  9  2 -1</clus>
<clus scale="   58.222">  7  8 -1 -1</clus>
<clus scale="   79.291">  5  6 -1 -1</clus>
<clus scale="   99.138">  1  7  2 -1</clus>
<clus scale="  112.808">  2  5  1 -1</clus>
</clustering>
</event>
<event>
 9    1  0.2333971E-005  0.1166214E+03  0.7546771E-02  0.1251062E+00
          1   -1    0    0  502    0  0.00000000000E+00  0.00000000000E+00  0.48545758769E+03  0.48545758769E+03  0.00000000000E+00 0. -1.
         -2   -1    0    0    0  501 -0.00000000000E+00 -0.00000000000E+00 -0.64275346558E+02  0.64275346558E+02  0.00000000000E+00 0.  1.
         23    2    1    2    0    0  0.23577651686E+02 -0.86178291114E+02  0.14633679737E+03  0.19336541066E+03  0.89404251894E+02 0.  0.
        -24    2    1    2    0    0 -0.56185675152E+02  0.46922614725E+02  0.28386989013E+03  0.30454347554E+03  0.82498800653E+02 0.  0.
         11    1    4    4    0    0 -0.73797767795E+02  0.17564784793E+02  0.20386075627E+03  0.21751744791E+03  0.00000000000E+00 0. -1.
        -12    1    4    4    0    0  0.17612092642E+02  0.29357829932E+02  0.80009133858E+02  0.87026027637E+02  0.00000000000E+00 0.  1.
        -11    1    3    3    0    0 -0.27017915624E+02 -0.66013685290E+02  0.73553210489E+02  0.10245901221E+03  0.00000000000E+00 0. -1.
         11    1    3    3    0    0  0.50595567310E+02 -0.20164605824E+02  0.72783586880E+02  0.90906398447E+02  0.00000000000E+00 0.  1.
         21    1    1    2  502  501  0.32608023466E+02  0.39255676389E+02 -0.90244463701E+01  0.51824048041E+02  0.00000000000E+00 0.  1.
<scales pt_clust_5="13000.00000" pt_clust_6="13000.00000" pt_clust_7="13000.00000" pt_clust_8="13000.00000" pt_clust_9="51.03226"></scales>
<clustering>
<clus scale="   51.032">  2  9  1 -1</clus>
<clus scale="   82.499">  5  6 -1 -1</clus>
<clus scale="   89.404">  7  8 -1 -1</clus>
<clus scale="  111.416">  1  5  2 -1</clus>
<clus scale="  111.416">  1  5  2 -1</clus>
</clustering>
</event>
<event>
 9    1  0.2333971E-005  0.9058652E+02  0.7546771E-02  0.1306871E+00
          1   -1    0    0  502    0  0.00000000000E+00  0.00000000000E+00  0.16726145199E+02  0.16726145199E+02  0.00000000000E+00 0. -1.
         -2   -1    0    0    0  501 -0.00000000000E+00 -0.00000000000E+00 -0.11176750446E+04  0.11176750446E+04  0.00000000000E+00 0.  1.
        -24    2    1    2    0    0 -0.19616061642E+02 -0.41120006390E+02 -0.69049811429E+03  0.69661893317E+03  0.80091494028E+02 0.  0.
         23    2    1    2    0    0 -0.12012488433E+02  0.10552192963E+02 -0.16192687754E+03  0.18539586826E+03  0.88857558172E+02 0.  0.
         13    1    3    3    0    0 -0.20301757704E+02 -0.21554454515E+02 -0.72536803442E+02  0.78347582789E+02  0.00000000000E+00 0. -1.
        -14    1    3    3    0    0  0.68569606216E+00 -0.19565551875E+02 -0.61796131084E+03  0.61827135038E+03  0.00000000000E+00 0.  1.
        -11    1    4    4    0    0 -0.91823088801E+00 -0.35713202736E+02 -0.35720690302E+02  0.50519735878E+02  0.00000000000E+00 0.  1.
         11    1    4    4    0    0 -0.11094257545E+02  0.46265395699E+02 -0.12620618724E+03  0.13487613238E+03  0.00000000000E+00 0. -1.
         21    1    1    2  502  501  0.31628550075E+02  0.30567813427E+02 -0.24852390759E+03  0.25238638839E+03  0.00000000000E+00 0.  1.
<scales pt_clust_5="13000.00000" pt_clust_6="13000.00000" pt_clust_7="13000.00000" pt_clust_8="13000.00000" pt_clust_9="43.98587"></scales>
<clustering>
<clus scale="   43.986">  2  9  1 -1</clus>
<clus scale="   80.091">  5  6 -1 -1</clus>
<clus scale="   82.005">  2  5  1 -1</clus>
<clus scale="   88.858">  7  8 -1 -1</clus>
<clus scale="   90.587">  1  5  2 -1</clus>
</clustering>
</event>
<event>
 9    1  0.2333971E-005  0.1177802E+03  0.7546771E-02  0.1250674E+00
         -2   -1    0    0    0  501 -0.00000000000E+00  0.00000000000E+00  0.17461041925E+03  0.17461041925E+03  0.00000000000E+00 0.  1.
          1   -1    0    0  502    0  0.00000000000E+00 -0.00000000000E+00 -0.16535214742E+03  0.16535214742E+03  0.00000000000E+00 0. -1.
         23    2    1    2    0    0  0.36390601312E+02 -0.65672578025E+02 -0.14001611617E+01  0.11844836266E+03  0.91601805642E+02 0.  0.
        -24    2    1    2    0    0  0.84781619185E+01  0.78012096845E+02 -0.67304585499E+02  0.13071936996E+03  0.79999249805E+02 0.  0.
         13    1    4    4    0    0 -0.29094858192E+02  0.10358724250E+02 -0.35494865492E+02  0.47049967243E+02  0.00000000000E+00 0. -1.
        -14    1    4    4    0    0  0.37573020111E+02  0.67653372595E+02 -0.31809720007E+02  0.83669402715E+02  0.00000000000E+00 0.  1.
        -11    1    3    3    0    0 -0.25645609840E+02 -0.43681784380E+02 -0.11274361404E+02  0.51893225143E+02  0.00000000000E+00 0. -1.
         11    1    3    3    0    0  0.62036211152E+02 -0.21990793644E+02  0.98742002425E+01  0.66555137515E+02  0.00000000000E+00 0.  1.
         21    1    1    2  502  501 -0.44868763231E+02 -0.12339518820E+02  0.77963018494E+02  0.90794834056E+02  0.00000000000E+00 0. -1.
<scales pt_clust_5="13000.00000" pt_clust_6="13000.00000" pt_clust_7="13000.00000" pt_clust_8="13000.00000" pt_clust_9="46.53461"></scales>
<clustering>
<clus scale="   46.535">  1  9  2 -1</clus>
<clus scale="   79.999">  5  6 -1 -1</clus>
<clus scale="   91.602">  7  8 -1 -1</clus>
<clus scale="  109.001">  2  5  1 -1</clus>
<clus scale="  109.001">  2  5  1 -1</clus>
</clustering>
</event>
<event>
 9    1  0.2333971E-005  0.1165287E+03  0.7546771E-02  0.1249385E+00
         -4   -1    0    0    0  501 -0.00000000000E+00  0.00000000000E+00  0.54352550774E+02  0.54352550774E+02  0.00000000000E+00 0.  1.
          3   -1    0    0  502    0  0.00000000000E+00 -0.00000000000E+00 -0.48773509985E+03  0.48773509985E+03  0.00000000000E+00 0. -1.
        -24    2    1    2    0    0 -0.44431059305E+02  0.65114819001E+02 -0.13175183106E+03  0.17923576980E+03  0.92481660353E+02 0.  0.
         23    2    1    2    0    0  0.68387648128E+02 -0.23168343681E+02 -0.29101701225E+03  0.31339406356E+03  0.91166304557E+02 0.  0.
         11    1    3    3    0    0 -0.30149339314E+02  0.75628510446E+01 -0.11276808600E+03  0.11697358932E+03  0.00000000000E+00 0. -1.
        -12    1    3    3    0    0 -0.14281719991E+02  0.57551967956E+02 -0.18983745059E+02  0.62262180479E+02  0.00000000000E+00 0.  1.
        -11    1    4    4    0    0  0.56424839158E+02 -0.42990275786E+02 -0.27784482215E+03  0.28675716466E+03  0.00000000000E+00 0. -1.
         11    1    4    4    0    0  0.11962808971E+02  0.19821932105E+02 -0.13172190099E+02  0.26636898897E+02  0.00000000000E+00 0.  1.
         21    1    1    2  502  501 -0.23956588823E+02 -0.41946475319E+02 -0.10613705768E+02  0.49457817278E+02  0.00000000000E+00 0.  1.
<scales pt_clust_5="13000.00000" pt_clust_6="13000.00000" pt_clust_7="13000.00000" pt_clust_8="13000.00000" pt_clust_9="48.30554"></scales>
<clustering>
<clus scale="   48.306">  1  9  2 -1</clus>
<clus scale="   91.166">  7  8 -1 -1</clus>
<clus scale="   92.482">  5  6 -1 -1</clus>
<clus scale="  115.488">  2  7  1 -1</clus>
<clus scale="  115.488">  2  5  1 -1</clus>
</clustering>
</event>
<event>
 9    1  0.2333971E-005  0.1729327E+03  0.7546771E-02  0.1176009E+00
          1   -1    0    0  502    0  0.00000000000E+00  0.00000000000E+00  0.28467108823E+03  0.28467108823E+03  0.00000000000E+00 0. -1.
         -2   -1    0    0    0  501 -0.00000000000E+00 -0.00000000000E+00 -0.26371316381E+03  0.26371316381E+03  0.00000000000E+00 0.  1.
        -24    2    1    2    0    0  0.15039414619E+02  0.14113503431E+03 -0.21654133212E+02  0.16529257454E+03  0.81899034254E+02 0.  0.
         23    2    1    2    0    0 -0.65821025230E+02 -0.13654956247E+03  0.17038488190E+03  0.24552099329E+03  0.90947016402E+02 0.  0.
         13    1    3    3    0    0 -0.80051208499E+01  0.29788611520E+02  0.27587064272E+02  0.41382235939E+02  0.00000000000E+00 0. -1.
        -14    1    3    3    0    0  0.23044535469E+02  0.11134642279E+03 -0.49241197485E+02  0.12391033860E+03  0.00000000000E+00 0.  1.
        -11    1    4    4    0    0 -0.27077963354E+02  0.47361513571E+01  0.12692087114E+02  0.30277653549E+02  0.00000000000E+00 0.  1.
         11    1    4    4    0    0 -0.38743061876E+02 -0.14128571383E+03  0.15769279479E+03  0.21524333974E+03  0.00000000000E+00 0. -1.
         21    1    1    2  502  501  0.50781610611E+02 -0.45854718426E+01 -0.12777282427E+03  0.13757068420E+03  0.00000000000E+00 0. -1.
<scales pt_clust_5="13000.00000" pt_clust_6="13000.00000" pt_clust_7="13000.00000" pt_clust_8="13000.00000" pt_clust_9="50.98822"></scales>
<clustering>
<clus scale="   50.988">  2  9  1 -1</clus>
<clus scale="   81.899">  5  6 -1 -1</clus>
<clus scale="   90.947">  7  8 -1 -1</clus>
<clus scale="  168.350">  2  5  1 -1</clus>
<clus scale="  172.933">  1  5  2 -1</clus>
</clustering>
</event>
<event>
 9    1  0.2333971E-005  0.1018435E+03  0.7546771E-02  0.1281545E+00
          1   -1    0    0  502    0  0.00000000000E+00  0.00000000000E+00  0.70184680021E+02  0.70184680021E+02  0.00000000000E+00 0. -1.
         -2   -1    0    0    0  501 -0.00000000000E+00 -0.00000000000E+00 -0.23890888596E+03  0.23890888596E+03  0.00000000000E+00 0.  1.
        -24    2    1    2    0    0 -0.40822781737E+02  0.19957938461E+02 -0.85415744167E+02  0.12550763329E+03  0.79946843872E+02 0.  0.
         23    2    1    2    0    0  0.49469232981E+02  0.10448689249E+02 -0.10641335421E+02  0.10434052034E+03  0.90649467984E+02 0.  0.
         13    1    3    3    0    0 -0.35194276421E+02  0.50137875276E+02 -0.57136146136E+02  0.83767432963E+02  0.00000000000E+00 0. -1.
        -14    1    3    3    0    0 -0.56285053167E+01 -0.30179936815E+02 -0.28279598031E+02  0.41740200323E+02  0.00000000000E+00 0.  1.
        -13    1    4    4    0    0 -0.40495344407E+01 -0.32321678776E+02 -0.14642842587E+02  0.35714177676E+02  0.00000000000E+00 0.  1.
         13    1    4    4    0    0  0.53518767422E+02  0.42770368024E+02  0.40015071666E+01  0.68626342660E+02  0.00000000000E+00 0. -1.
         21    1    1    2  502  501 -0.86464512437E+01 -0.30406627710E+02 -0.72667126351E+02  0.79245412359E+02  0.00000000000E+00 0.  1.
<scales pt_clust_5="13000.00000" pt_clust_6="13000.00000" pt_clust_7="13000.00000" pt_clust_8="13000.00000" pt_clust_9="31.61209"></scales>
<clustering>
<clus scale="   31.612">  2  9  1 -1</clus>
<clus scale="   79.947">  5  6 -1 -1</clus>
<clus scale="   90.649">  7  8 -1 -1</clus>
<clus scale="   92.446">  2  5  1 -1</clus>
<clus scale="  101.844">  1  5  2 -1</clus>
</clustering>
</event>
<event>
 9    1  0.2333971E-005  0.1245184E+03  0.7546771E-02  0.1238641E+00
          3   -1    0    0  502    0  0.00000000000E+00  0.00000000000E+00  0.40244658312E+03  0.40244658312E+03  0.00000000000E+00 0. -1.
         -4   -1    0    0    0  501 -0.00000000000E+00 -0.00000000000E+00 -0.28906684485E+03  0.28906684485E+03  0.00000000000E+00 0.  1.
        -24    2    1    2    0    0  0.45123444570E+02 -0.67265110949E+02 -0.92413039417E+02  0.14744423871E+03  0.81479526708E+02 0.  0.
         23    2    1    2    0    0  0.34799290186E+02  0.81140706437E+02  0.35347116843E+03  0.37557858782E+03  0.91228306372E+02 0.  0.
         13    1    3    3    0    0  0.33778806981E+02 -0.75327740259E+02 -0.37280465294E+02  0.90582058632E+02  0.00000000000E+00 0. -1.
        -14    1    3    3    0    0  0.11344637590E+02  0.80626293093E+01 -0.55132574123E+02  0.56862180075E+02  0.00000000000E+00 0.  1.
        -11    1    4    4    0    0  0.20240806682E+02 -0.16893297440E+02  0.10008688131E+03  0.10350100272E+03  0.00000000000E+00 0. -1.
         11    1    4    4    0    0  0.14558483504E+02  0.98034003877E+02  0.25338428711E+03  0.27207758510E+03  0.00000000000E+00 0.  1.
         21    1    1    2  502  501 -0.79922734756E+02 -0.13875595488E+02 -0.14767839074E+03  0.16849060144E+03  0.00000000000E+00 0. -1.
<scales pt_clust_5="13000.00000" pt_clust_6="13000.00000" pt_clust_7="13000.00000" pt_clust_8="13000.00000" pt_clust_9="81.11828"></scales>
<clustering>
<clus scale="   81.118">  2  9  1 -1</clus>
<clus scale="   81.480">  5  6 -1 -1</clus>
<clus scale="   91.228">  7  8 -1 -1</clus>
<clus scale="  117.563">  2  5  1 -1</clus>
<clus scale="  124.518">  1  5  2 -1</clus>
</clustering>
</event>
<event>
 9    1  0.2333971E-005  0.9269212E+02  0.7546771E-02  0.1301726E+00
         -2   -1    0    0    0  501 -0.00000000000E+00  0.00000000000E+00  0.48603528990E+03  0.48603528990E+03  0.00000000000E+00 0.  1.
          1   -1    0    0  502    0  0.00000000000E+00 -0.00000000000E+00 -0.10877564010E+03  0.10877564010E+03  0.00000000000E+00 0. -1.
        -24    2    1    2    0    0 -0.29476233827E+02 -0.66911319886E+02  0.95388045079E+02  0.14421442151E+03  0.79705377089E+02 0.  0.
         23    2    1    2    0    0  0.15256987124E+02  0.10388580303E+02 -0.56798626947E+02  0.10694765736E+03  0.88718764279E+02 0.  0.
         13    1    3    3    0    0  0.18053174377E+02 -0.17727257636E+02  0.64271051277E+02  0.69071997225E+02  0.00000000000E+00 0. -1.
        -14    1    3    3    0    0 -0.47529408204E+02 -0.49184062250E+02  0.31116993802E+02  0.75142424281E+02  0.00000000000E+00 0.  1.
        -13    1    4    4    0    0 -0.22339358052E+02  0.37827183972E+02 -0.24577729490E+02  0.50338926809E+02  0.00000000000E+00 0.  1.
         13    1    4    4    0    0  0.37596345175E+02 -0.27438603668E+02 -0.32220897457E+02  0.56608730552E+02  0.00000000000E+00 0. -1.
         21    1    1    2  502  501  0.14219246703E+02  0.56522739583E+02  0.33867023167E+03  0.34364885114E+03  0.00000000000E+00 0.  1.
<scales pt_clust_5="13000.00000" pt_clust_6="13000.00000" pt_clust_7="13000.00000" pt_clust_8="13000.00000" pt_clust_9="58.28385"></scales>
<clustering>
<clus scale="   58.284">  1  9  2 -1</clus>
<clus scale="   79.705">  5  6 -1 -1</clus>
<clus scale="   84.106">  1  5  2 -1</clus>
<clus scale="   88.719">  7  8 -1 -1</clus>
<clus scale="   92.692">  2  5  1 -1</clus>
</clustering>
</event>
<event>
 9    1  0.2333971E-005  0.9656991E+02  0.7546771E-02  0.1288849E+00
          3   -1    0    0  502    0  0.00000000000E+00  0.00000000000E+00  0.12276045302E+03  0.12276045302E+03  0.00000000000E+00 0. -1.
         -4   -1    0    0    0  501 -0.00000000000E+00 -0.00000000000E+00 -0.17829118486E+03  0.17829118486E+03  0.00000000000E+00 0.  1.
        -24    2    1    2    0    0  0.87694358505E+01  0.15876989116E+02 -0.61615350756E+02  0.10213306584E+03  0.79408626108E+02 0.  0.
         23    2    1    2    0    0 -0.68504554079E+02  0.10897684424E+02  0.51704236957E+02  0.11912936825E+03  0.81895328339E+02 0.  0.
         13    1    3    3    0    0  0.26691603056E+02  0.41975677897E+02 -0.35888849349E+02  0.61338476638E+02  0.00000000000E+00 0. -1.
        -14    1    3    3    0    0 -0.17922167205E+02 -0.26098688781E+02 -0.25726501407E+02  0.40794589201E+02  0.00000000000E+00 0.  1.
        -13    1    4    4    0    0 -0.31203329947E+02 -0.10767048028E+02 -0.17667738217E+02  0.37439632700E+02  0.00000000000E+00 0.  1.
         13    1    4    4    0    0 -0.37301224133E+02  0.21664732452E+02  0.69371975173E+02  0.81689735545E+02  0.00000000000E+00 0. -1.
         21    1    1    2  502  501  0.59735118229E+02 -0.26774673540E+02 -0.45619618033E+02  0.79789203797E+02  0.00000000000E+00 0. -1.
<scales pt_clust_5="13000.00000" pt_clust_6="13000.00000" pt_clust_7="13000.00000" pt_clust_8="13000.00000" pt_clust_9="65.46119"></scales>
<clustering>
<clus scale="   65.461">  2  9  1 -1</clus>
<clus scale="   79.409">  5  6 -1 -1</clus>
<clus scale="   81.895">  7  8 -1 -1</clus>
<clus scale="   94.470">  2  5  1 -1</clus>
<clus scale="   96.570">  1  5  2 -1</clus>
</clustering>
</event>
<event>
 9    1  0.2333971E-005  0.1178670E+03  0.7546771E-02  0.1249470E+00
          1   -1    0    0  502    0  0.00000000000E+00  0.00000000000E+00  0.11260376804E+03  0.11260376804E+03  0.00000000000E+00 0. -1.
         -2   -1    0    0    0  501 -0.00000000000E+00 -0.00000000000E+00 -0.26693881236E+03  0.26693881236E+03  0.00000000000E+00 0.  1.
        -24    2    1    2    0    0  0.73431167085E+02  0.28986338459E+01 -0.16356881927E+03  0.19647288210E+03  0.80288831003E+02 0.  0.
         23    2    1    2    0    0 -0.95460212521E+02  0.34465076156E+02  0.24249551108E+02  0.13716981594E+03  0.89033836418E+02 0.  0.
         11    1    3    3    0    0  0.73512407790E+02 -0.15520269863E+02 -0.75556725972E+02  0.10655407883E+03  0.00000000000E+00 0. -1.
        -12    1    3    3    0    0 -0.81240705033E-01  0.18418903709E+02 -0.88012093302E+02  0.89918803269E+02  0.00000000000E+00 0.  1.
        -11    1    4    4    0    0 -0.35243220756E+02  0.49565859296E+02 -0.16367014374E+02  0.62982046462E+02  0.00000000000E+00 0.  1.
         11    1    4    4    0    0 -0.60216991765E+02 -0.15100783140E+02  0.40616565482E+02  0.74187769479E+02  0.00000000000E+00 0. -1.
         21    1    1    2  502  501  0.22029045437E+02 -0.37363710002E+02 -0.15015776155E+02  0.45899882369E+02  0.00000000000E+00 0. -1.
<scales pt_clust_5="13000.00000" pt_clust_6="13000.00000" pt_clust_7="13000.00000" pt_clust_8="13000.00000" pt_clust_9="43.37425"></scales>
<clustering>
<clus scale="   43.374">  1  9  2 -1</clus>
<clus scale="   80.289">  5  6 -1 -1</clus>
<clus scale="   89.034">  7  8 -1 -1</clus>
<clus scale="  111.409">  2  5  1 -1</clus>
<clus scale="   43.374">  1  5  2 -1</clus>
</clustering>
</event>
<event>
 9    1  0.2333971E-005  0.9395951E+02  0.7546771E-02  0.1298510E+00
         -4   -1    0    0    0  501 -0.00000000000E+00  0.00000000000E+00  0.89237688841E+02  0.89237688841E+02  0.00000000000E+00 0.  1.
          3   -1    0    0  502    0  0.00000000000E+00 -0.00000000000E+00 -0.19283754561E+03  0.19283754561E+03  0.00000000000E+00 0. -1.
        -24    2    1    2    0    0 -0.33702774691E+02 -0.28623268154E+02  0.30305567795E+02  0.98162612991E+02  0.82233221074E+02 0.  0.
         23    2    1    2    0    0  0.15349887443E+02  0.11767959147E+02 -0.12828277900E+03  0.15836767959E+03  0.90828115930E+02 0.  0.
         13    1    3    3    0    0 -0.68639383365E+01  0.21724660099E+02 -0.13274281187E+02  0.26368182473E+02  0.00000000000E+00 0. -1.
        -14    1    3    3    0    0 -0.26838836355E+02 -0.50347928252E+02  0.43579848982E+02  0.71794430519E+02  0.00000000000E+00 0.  1.
        -13    1    4    4    0    0 -0.17451968335E+02  0.42923648112E+02 -0.78034682108E+02  0.90754737495E+02  0.00000000000E+00 0. -1.
         13    1    4    4    0    0  0.32801855778E+02 -0.31155688966E+02 -0.50248096892E+02  0.67612942094E+02  0.00000000000E+00 0.  1.
         21    1    1    2  502  501  0.18352887248E+02  0.16855309007E+02 -0.56226455638E+01  0.25544941871E+02  0.00000000000E+00 0.  1.
<scales pt_clust_5="13000.00000" pt_clust_6="13000.00000" pt_clust_7="13000.00000" pt_clust_8="13000.00000" pt_clust_9="24.91847"></scales>
<clustering>
<clus scale="   24.918">  1  9  2 -1</clus>
<clus scale="   82.233">  5  6 -1 -1</clus>
<clus scale="   85.679">  1  5  2 -1</clus>
<clus scale="   90.828">  7  8 -1 -1</clus>
<clus scale="   93.960">  2  5  1 -1</clus>
</clustering>
</event>
<event>
 9    1  0.2333971E-005  0.2939097E+03  0.7546771E-02  0.1117922E+00
          1   -1    0    0  502    0  0.00000000000E+00  0.00000000000E+00  0.45161455577E+03  0.45161455577E+03  0.00000000000E+00 0. -1.
         -2   -1    0    0    0  501 -0.00000000000E+00 -0.00000000000E+00 -0.38390514942E+03  0.38390514942E+03  0.00000000000E+00 0.  1.
         23    2    1    2    0    0  0.46536714914E+02 -0.87030074732E+02 -0.11194878351E+03  0.17688506502E+03  0.94952073996E+02 0.  0.
        -24    2    1    2    0    0 -0.25235760565E+03 -0.12565093853E+03  0.21075689974E+03  0.36103997922E+03  0.80367134572E+02 0.  0.
         13    1    4    4    0    0 -0.47712751301E+02 -0.42047977601E+02  0.14049895091E+02  0.65130166659E+02  0.00000000000E+00 0. -1.
        -14    1    4    4    0    0 -0.20464485435E+03 -0.83602960933E+02  0.19670700465E+03  0.29590981256E+03  0.00000000000E+00 0.  1.
        -13    1    3    3    0    0  0.21127321606E+02 -0.91278368456E+02 -0.42630364423E+02  0.10293421315E+03  0.00000000000E+00 0.  1.
         13    1    3    3    0    0  0.25409393308E+02  0.42482937233E+01 -0.69318419090E+02  0.73950851874E+02  0.00000000000E+00 0. -1.
         21    1    1    2  502  501  0.20582089074E+03  0.21268101327E+03 -0.31098709887E+02  0.29759466095E+03  0.00000000000E+00 0. -1.
<scales pt_clust_5="13000.00000" pt_clust_6="13000.00000" pt_clust_7="13000.00000" pt_clust_8="13000.00000" pt_clust_9="282.70837"></scales>
<clustering>
<clus scale="   80.367">  5  6 -1 -1</clus>
<clus scale="   94.952">  7  8 -1 -1</clus>
<clus scale="  136.952">  2  7  1 -1</clus>
<clus scale="  282.708">  2  9  1 -1</clus>
<clus scale="  293.910">  1  5  2 -1</clus>
</clustering>
</event>
<event>
 9    1  0.2333971E-005  0.9269804E+02  0.7546771E-02  0.1303844E+00
          1   -1    0    0  502    0  0.00000000000E+00  0.00000000000E+00  0.25178137582E+03  0.25178137582E+03  0.00000000000E+00 0. -1.
         -2   -1    0    0    0  501 -0.00000000000E+00 -0.00000000000E+00 -0.17388883670E+03  0.17388883670E+03  0.00000000000E+00 0.  1.
        -24    2    1    2    0    0  0.18169757730E+02  0.21991297267E+02 -0.12541604634E+03  0.15163538493E+03  0.80314058738E+02 0.  0.
         23    2    1    2    0    0  0.58693033606E-01 -0.86817246257E+01  0.22463875899E+03  0.24298007845E+03  0.92202877909E+02 0.  0.
         13    1    3    3    0    0  0.28738417225E+02  0.15638188802E+02 -0.81430417672E+01  0.33715852396E+02  0.00000000000E+00 0. -1.
        -14    1    3    3    0    0 -0.10568659495E+02  0.63531084654E+01 -0.11727300457E+03  0.11791953253E+03  0.00000000000E+00 0.  1.
        -13    1    4    4    0    0  0.18240329532E+01  0.32624443084E+02  0.17661120823E+03  0.17960846376E+03  0.00000000000E+00 0.  1.
         13    1    4    4    0    0 -0.17653399196E+01 -0.41306167709E+02  0.48027550762E+02  0.63371614687E+02  0.00000000000E+00 0. -1.
         21    1    1    2  502  501 -0.18228450764E+02 -0.13309572641E+02 -0.21330173538E+02  0.31054749143E+02  0.00000000000E+00 0.  1.
<scales pt_clust_5="13000.00000" pt_clust_6="13000.00000" pt_clust_7="13000.00000" pt_clust_8="13000.00000" pt_clust_9="22.57036"></scales>
<clustering>
<clus scale="   22.570">  2  9  1 -1</clus>
<clus scale="   80.314">  5  6 -1 -1</clus>
<clus scale="   80.882">  2  5  1 -1</clus>
<clus scale="   92.203">  7  8 -1 -1</clus>
<clus scale="   92.698">  1  5  2 -1</clus>
</clustering>
</event>
<event>
 9    1  0.2333971E-005  0.9181020E+02  0.7546771E-02  0.1304797E+00
          3   -1    0    0  502    0  0.00000000000E+00  0.00000000000E+00  0.52414647150E+03  0.52414647150E+03  0.00000000000E+00 0. -1.
         -4   -1    0    0    0  501 -0.00000000000E+00 -0.00000000000E+00 -0.43475758357E+02  0.43475758357E+02  0.00000000000E+00 0.  1.
        -24    2    1    2    0    0  0.22450248261E+02 -0.24667889845E+02  0.64666867445E+02  0.10798954016E+03  0.79796106438E+02 0.  0.
         23    2    1    2    0    0  0.20322283137E+02  0.10844314689E+02  0.40192912544E+03  0.41252984029E+03  0.90018069842E+02 0.  0.
         13    1    3    3    0    0  0.27411161850E+02 -0.38282424258E+02  0.76129798921E+02  0.89513474320E+02  0.00000000000E+00 0. -1.
        -14    1    3    3    0    0 -0.49609135891E+01  0.13614534413E+02 -0.11462931476E+02  0.18476065841E+02  0.00000000000E+00 0.  1.
        -11    1    4    4    0    0  0.27643562587E+02  0.47545220796E+02  0.25969116718E+03  0.26545096889E+03  0.00000000000E+00 0. -1.
         11    1    4    4    0    0 -0.73212794502E+01 -0.36700906108E+02  0.14223795826E+03  0.14707887140E+03  0.00000000000E+00 0.  1.
         21    1    1    2  502  501 -0.42772531398E+02  0.13823575157E+02  0.14074720261E+02  0.47102849412E+02  0.00000000000E+00 0.  1.
<scales pt_clust_5="13000.00000" pt_clust_6="13000.00000" pt_clust_7="13000.00000" pt_clust_8="13000.00000" pt_clust_9="44.95087"></scales>
<clustering>
<clus scale="   44.951">  2  9  1 -1</clus>
<clus scale="   79.796">  5  6 -1 -1</clus>
<clus scale="   81.812">  2  5  1 -1</clus>
<clus scale="   90.018">  7  8 -1 -1</clus>
<clus scale="   91.810">  1  5  2 -1</clus>
</clustering>
</event>
<event>
 9    1  0.2333971E-005  0.3492895E+03  0.7546771E-02  0.1063301E+00
         -2   -1    0    0    0  501 -0.00000000000E+00  0.00000000000E+00  0.72797780472E+03  0.72797780472E+03  0.00000000000E+00 0.  1.
          1   -1    0    0  502    0  0.00000000000E+00 -0.00000000000E+00 -0.62164813178E+03  0.62164813178E+03  0.00000000000E+00 0. -1.
        -24    2    1    2    0    0 -0.32708756460E+03 -0.21386702762E+03  0.41846928216E+03  0.57829066604E+03  0.81105942403E+02 0.  0.
         23    2    1    2    0    0  0.30560281773E+03  0.12547631024E+03 -0.47398340051E+03  0.58567987449E+03  0.96037829988E+02 0.  0.
         11    1    3    3    0    0 -0.10803640434E+03 -0.11466043803E+03  0.18705048614E+03  0.24455421705E+03  0.00000000000E+00 0. -1.
        -12    1    3    3    0    0 -0.21905116027E+03 -0.99206589595E+02  0.23141879601E+03  0.33373644899E+03  0.00000000000E+00 0.  1.
        -13    1    4    4    0    0  0.77234105262E+02  0.71204676137E+02 -0.10622250929E+03  0.14939355541E+03  0.00000000000E+00 0. -1.
         13    1    4    4    0    0  0.22836871246E+03  0.54271634103E+02 -0.36776089122E+03  0.43628631908E+03  0.00000000000E+00 0.  1.
         21    1    1    2  502  501  0.21484746877E+02  0.88390717384E+02  0.16184379130E+03  0.18565539596E+03  0.00000000000E+00 0.  1.
<scales pt_clust_5="13000.00000" pt_clust_6="13000.00000" pt_clust_7="13000.00000" pt_clust_8="13000.00000" pt_clust_9="90.96435"></scales>
<clustering>
<clus scale="   81.106">  5  6 -1 -1</clus>
<clus scale="   90.964">  1  9  2 -1</clus>
<clus scale="   96.038">  7  8 -1 -1</clus>
<clus scale="  345.482">  1  5  2 -1</clus>
<clus scale="  349.289">  2  5  1 -1</clus>
</clustering>
</event>
<event>
 9    1  0.2333971E-005  0.3725114E+03  0.7546771E-02  0.1076740E+00
          1   -1    0    0  502    0  0.00000000000E+00  0.00000000000E+00  0.91241370569E+03  0.91241370569E+03  0.00000000000E+00 0. -1.
         -2   -1    0    0    0  501 -0.00000000000E+00 -0.00000000000E+00 -0.71028315566E+03  0.71028315566E+03  0.00000000000E+00 0.  1.
        -24    2    1    2    0    0  0.14064751782E+03 -0.11119330139E+03 -0.16399310366E+03  0.25627939272E+03  0.81484443542E+02 0.  0.
         23    2    1    2    0    0  0.32465090491E+03 -0.11658215252E+03  0.67447572349E+03  0.76353665242E+03  0.95294856460E+02 0.  0.
         13    1    3    3    0    0  0.32387313088E+02 -0.13251833572E+02 -0.81266396601E+02  0.88480372731E+02  0.00000000000E+00 0. -1.
        -14    1    3    3    0    0  0.10826020474E+03 -0.97941467814E+02 -0.82726707061E+02  0.16779901999E+03  0.00000000000E+00 0.  1.
        -13    1    4    4    0    0  0.34677122346E+02  0.15204046131E+02  0.95459887737E+02  0.10269496580E+03  0.00000000000E+00 0.  1.
         13    1    4    4    0    0  0.28997378256E+03 -0.13178619865E+03  0.57901583576E+03  0.66084168663E+03  0.00000000000E+00 0. -1.
         21    1    1    2  502  501 -0.46529842273E+03  0.22777545391E+03 -0.30835206980E+03  0.60288081621E+03  0.00000000000E+00 0.  1.
<scales pt_clust_5="13000.00000" pt_clust_6="13000.00000" pt_clust_7="13000.00000" pt_clust_8="13000.00000" pt_clust_9="360.11619"></scales>
<clustering>
<clus scale="   81.484">  5  6 -1 -1</clus>
<clus scale="   95.295">  7  8 -1 -1</clus>
<clus scale="  196.940">  2  5  1 -1</clus>
<clus scale="  360.116">  2  9  1 -1</clus>
<clus scale="  372.511">  1  5  2 -1</clus>
</clustering>
</event>
<event>
 9    1  0.2333971E-005  0.1309361E+03  0.7546771E-02  0.1229192E+00
         -2   -1    0    0    0  501 -0.00000000000E+00  0.00000000000E+00  0.80771103628E+02  0.80771103628E+02  0.00000000000E+00 0.  1.
          1   -1    0    0  502    0  0.00000000000E+00 -0.00000000000E+00 -0.44638481693E+03  0.44638481693E+03  0.00000000000E+00 0. -1.
        -24    2    1    2    0    0 -0.98014972857E+02 -0.31271310791E+02 -0.20167155301E+02  0.13275771129E+03  0.81443636768E+02 0.  0.
         23    2    1    2    0    0  0.77706059158E+02  0.45272618739E+02 -0.34625217235E+03  0.36971749586E+03  0.93341406945E+02 0.  0.
         11    1    3    3    0    0 -0.21129643776E+02 -0.41233700652E+02  0.13464668785E+02  0.48249116272E+02  0.00000000000E+00 0. -1.
        -12    1    3    3    0    0 -0.76885329081E+02  0.99623898612E+01 -0.33631824086E+02  0.84508595013E+02  0.00000000000E+00 0.  1.
        -13    1    4    4    0    0  0.48882800717E+02  0.83670544847E+00 -0.54578226610E+02  0.73273536163E+02  0.00000000000E+00 0.  1.
         13    1    4    4    0    0  0.28823258441E+02  0.44435913291E+02 -0.29167394574E+03  0.29644395970E+03  0.00000000000E+00 0. -1.
         21    1    1    2  502  501  0.20308913699E+02 -0.14001307948E+02  0.80561435366E+00  0.24680713409E+02  0.00000000000E+00 0. -1.
<scales pt_clust_5="13000.00000" pt_clust_6="13000.00000" pt_clust_7="13000.00000" pt_clust_8="13000.00000" pt_clust_9="24.66756"></scales>
<clustering>
<clus scale="   24.668">  1  9  2 -1</clus>
<clus scale="   81.444">  5  6 -1 -1</clus>
<clus scale="   93.341">  7  8 -1 -1</clus>
<clus scale="  122.738">  1  5  2 -1</clus>
<clus scale="  130.936">  2  5  1 -1</clus>
</clustering>
</event>
<event>
 9    1  0.2333971E-005  0.2023013E+03  0.7546771E-02  0.1148996E+00
         -2   -1    0    0    0  501 -0.00000000000E+00  0.00000000000E+00  0.20060254244E+03  0.20060254244E+03  0.00000000000E+00 0.  1.
          1   -1    0    0  502    0  0.00000000000E+00 -0.00000000000E+00 -0.81224006780E+03  0.81224006780E+03  0.00000000000E+00 0. -1.
         23    2    1    2    0    0  0.15109596940E+03 -0.16126904528E+03 -0.46724494571E+03  0.52488726978E+03  0.91384406496E+02 0.  0.
        -24    2    1    2    0    0 -0.89370474513E+02  0.11877453092E+03 -0.28374927339E+03  0.32972731337E+03  0.78179154044E+02 0.  0.
         13    1    4    4    0    0 -0.73057855992E+01  0.41642496964E+02 -0.14491693078E+03  0.15095823556E+03  0.00000000000E+00 0. -1.
        -14    1    4    4    0    0 -0.82064688914E+02  0.77132033958E+02 -0.13883234261E+03  0.17876907782E+03  0.00000000000E+00 0.  1.
        -11    1    3    3    0    0  0.71205040829E+02 -0.98758666891E+02 -0.15824104615E+03  0.19965886109E+03  0.00000000000E+00 0.  1.
         11    1    3    3    0    0  0.79890928571E+02 -0.62510378386E+02 -0.30900389956E+03  0.32522840869E+03  0.00000000000E+00 0. -1.
         21    1    1    2  502  501 -0.61725494887E+02  0.42494514355E+02  0.13935669374E+03  0.15822802710E+03  0.00000000000E+00 0.  1.
<scales pt_clust_5="13000.00000" pt_clust_6="13000.00000" pt_clust_7="13000.00000" pt_clust_8="13000.00000" pt_clust_9="74.93878"></scales>
<clustering>
<clus scale="   74.939">  1  9  2 -1</clus>
<clus scale="   78.179">  5  6 -1 -1</clus>
<clus scale="   91.384">  7  8 -1 -1</clus>
<clus scale="  196.689">  2  5  1 -1</clus>
<clus scale="  196.689">  2  5  1 -1</clus>
</clustering>
</event>
<event>
 9    1  0.2333971E-005  0.1007779E+03  0.7546771E-02  0.1284262E+00
         -2   -1    0    0    0  501 -0.00000000000E+00  0.00000000000E+00  0.14070060742E+03  0.14070060742E+03  0.00000000000E+00 0.  1.
          1   -1    0    0  502    0  0.00000000000E+00 -0.00000000000E+00 -0.27293996411E+03  0.27293996411E+03  0.00000000000E+00 0. -1.
        -24    2    1    2    0    0  0.21680997442E+02 -0.76311972251E+00  0.60129742646E+02  0.10190170313E+03  0.79358195221E+02 0.  0.
         23    2    1    2    0    0 -0.44516218119E+02  0.14160567287E+02 -0.23800544951E+03  0.25897888961E+03  0.90781363314E+02 0.  0.
         13    1    3    3    0    0 -0.23332190825E+02  0.17811850292E+02  0.39018513540E+02  0.48827221285E+02  0.00000000000E+00 0. -1.
        -14    1    3    3    0    0  0.45013188267E+02 -0.18574970015E+02  0.21111229106E+02  0.53074481847E+02  0.00000000000E+00 0.  1.
        -11    1    4    4    0    0  0.14126949219E+01 -0.34423242012E+02 -0.66312597486E+02  0.74728280342E+02  0.00000000000E+00 0.  1.
         11    1    4    4    0    0 -0.45928913041E+02  0.48583809299E+02 -0.17169285203E+03  0.18425060927E+03  0.00000000000E+00 0. -1.
         21    1    1    2  502  501  0.22835220677E+02 -0.13397447565E+02  0.45636350177E+02  0.52759978792E+02  0.00000000000E+00 0.  1.
<scales pt_clust_5="13000.00000" pt_clust_6="13000.00000" pt_clust_7="13000.00000" pt_clust_8="13000.00000" pt_clust_9="26.47525"></scales>
<clustering>
<clus scale="   26.475">  1  9  2 -1</clus>
<clus scale="   79.358">  5  6 -1 -1</clus>
<clus scale="   90.624">  1  5  2 -1</clus>
<clus scale="   90.781">  7  8 -1 -1</clus>
<clus scale="  100.778">  2  5  1 -1</clus>
</clustering>
</event>
<event>
 9    1  0.2333971E-005  0.1001331E+03  0.7546771E-02  0.1285532E+00
         -2   -1    0    0    0  501 -0.00000000000E+00  0.00000000000E+00  0.12715596808E+03  0.12715596808E+03  0.00000000000E+00 0.  1.
          1   -1    0    0  502    0  0.00000000000E+00 -0.00000000000E+00 -0.14934322313E+03  0.14934322313E+03  0.00000000000E+00 0. -1.
         23    2    1    2    0    0 -0.19087409955E+02  0.26715338011E+02  0.31627427353E+01  0.96986284880E+02  0.91204703878E+02 0.  0.
        -24    2    1    2    0    0  0.47710168781E+02 -0.85652151114E+01 -0.74578887960E+02  0.11974524859E+03  0.80170386777E+02 0.  0.
         13    1    4    4    0    0  0.51766896186E+02 -0.31104874990E+02 -0.75672151352E+02  0.96817350094E+02  0.00000000000E+00 0. -1.
        -14    1    4    4    0    0 -0.40567274051E+01  0.22539659879E+02  0.10932633919E+01  0.22927898498E+02  0.00000000000E+00 0.  1.
        -13    1    3    3    0    0  0.14096129724E+02  0.30790790914E+02 -0.33315561417E+02  0.47504739878E+02  0.00000000000E+00 0. -1.
         13    1    3    3    0    0 -0.33183539679E+02 -0.40754529037E+01  0.36478304152E+02  0.49481545003E+02  0.00000000000E+00 0.  1.
         21    1    1    2  502  501 -0.28622758826E+02 -0.18150122899E+02  0.49228890177E+02  0.59767657743E+02  0.00000000000E+00 0.  1.
<scales pt_clust_5="13000.00000" pt_clust_6="13000.00000" pt_clust_7="13000.00000" pt_clust_8="13000.00000" pt_clust_9="33.89232"></scales>
<clustering>
<clus scale="   33.892">  1  9  2 -1</clus>
<clus scale="   80.170">  5  6 -1 -1</clus>
<clus scale="   90.198">  2  5  1 -1</clus>
<clus scale="   91.205">  7  8 -1 -1</clus>
<clus scale="   90.198">  2  5  1 -1</clus>
</clustering>
</event>
<event>
 9    1  0.2333971E-005  0.1560092E+03  0.7546771E-02  0.1193592E+00
          1   -1    0    0  502    0  0.00000000000E+00  0.00000000000E+00  0.21703059187E+03  0.21703059187E+03  0.00000000000E+00 0. -1.
         -2   -1    0    0    0  501 -0.00000000000E+00 -0.00000000000E+00 -0.17022076947E+03  0.17022076947E+03  0.00000000000E+00 0.  1.
        -24    2    1    2    0    0  0.13831621211E+03 -0.51958338758E+02 -0.16667210922E+02  0.16920843069E+03  0.80762946929E+02 0.  0.
         23    2    1    2    0    0 -0.10735384738E+03  0.69571441177E+02  0.88679160054E+02  0.17440766284E+03  0.78670232319E+02 0.  0.
         13    1    3    3    0    0  0.10575526870E+03 -0.17599993219E+02  0.20341159434E+02  0.10912240552E+03  0.00000000000E+00 0. -1.
        -14    1    3    3    0    0  0.32560943406E+02 -0.34358345539E+02 -0.37008370356E+02  0.60086025164E+02  0.00000000000E+00 0.  1.
        -13    1    4    4    0    0 -0.87663011101E+02  0.86398616927E+02  0.81174676205E+02  0.14744101390E+03  0.00000000000E+00 0. -1.
         13    1    4    4    0    0 -0.19690836279E+02 -0.16827175750E+02  0.75044838494E+01  0.26966648938E+02  0.00000000000E+00 0.  1.
         21    1    1    2  502  501 -0.30962364729E+02 -0.17613102419E+02 -0.25202126732E+02  0.43635267826E+02  0.00000000000E+00 0.  1.
<scales pt_clust_5="13000.00000" pt_clust_6="13000.00000" pt_clust_7="13000.00000" pt_clust_8="13000.00000" pt_clust_9="35.62147"></scales>
<clustering>
<clus scale="   35.621">  2  9  1 -1</clus>
<clus scale="   78.670">  7  8 -1 -1</clus>
<clus scale="   80.763">  5  6 -1 -1</clus>
<clus scale="  154.936">  1  7  2 -1</clus>
<clus scale="  154.936">  1  5  2 -1</clus>
</clustering>
</event>
<event>
 9    1  0.2333971E-005  0.1029596E+03  0.7546771E-02  0.1279071E+00
         -2   -1    0    0    0  501 -0.00000000000E+00  0.00000000000E+00  0.18966535177E+03  0.18966535177E+03  0.00000000000E+00 0.  1.
          1   -1    0    0  502    0  0.00000000000E+00 -0.00000000000E+00 -0.16150671347E+03  0.16150671347E+03  0.00000000000E+00 0. -1.
         23    2    1    2    0    0  0.46620207093E+02  0.97468894852E+01  0.13970672055E+03  0.17352594653E+03  0.91240565474E+02 0.  0.
        -24    2    1    2    0    0 -0.52470859568E+02  0.20832584468E+02 -0.10819577643E+03  0.14633202738E+03  0.80743721251E+02 0.  0.
         13    1    4    4    0    0 -0.11368956990E+02  0.27766370000E+02 -0.99269023177E+02  0.10370421134E+03  0.00000000000E+00 0. -1.
        -14    1    4    4    0    0 -0.41101902578E+02 -0.69337855323E+01 -0.89267532507E+01  0.42627816047E+02  0.00000000000E+00 0.  1.
        -13    1    3    3    0    0  0.44262457940E+02 -0.21065739398E+02  0.13321634595E+03  0.14194902391E+03  0.00000000000E+00 0.  1.
         13    1    3    3    0    0  0.23577491526E+01  0.30812628883E+02  0.64903745954E+01  0.31576922620E+02  0.00000000000E+00 0. -1.
         21    1    1    2  502  501  0.58506524753E+01 -0.30579473953E+02 -0.33523058149E+01  0.31314091332E+02  0.00000000000E+00 0. -1.
<scales pt_clust_5="13000.00000" pt_clust_6="13000.00000" pt_clust_7="13000.00000" pt_clust_8="13000.00000" pt_clust_9="31.13413"></scales>
<clustering>
<clus scale="   31.134">  2  9  1 -1</clus>
<clus scale="   80.744">  5  6 -1 -1</clus>
<clus scale="   91.241">  7  8 -1 -1</clus>
<clus scale="   93.784">  2  5  1 -1</clus>
<clus scale="   31.134">  2  5  1 -1</clus>
</clustering>
</event>
<event>
 9    1  0.2333971E-005  0.1095294E+03  0.7546771E-02  0.1266117E+00
         -2   -1    0    0    0  501 -0.00000000000E+00  0.00000000000E+00  0.61752544379E+02  0.61752544379E+02  0.00000000000E+00 0.  1.
          1   -1    0    0  502    0  0.00000000000E+00 -0.00000000000E+00 -0.39404925023E+03  0.39404925023E+03  0.00000000000E+00 0. -1.
        -24    2    1    2    0    0  0.20372948296E+02 -0.34633233191E+02 -0.12410744506E+02  0.90071442064E+02  0.79651241250E+02 0.  0.
         23    2    1    2    0    0 -0.81093797612E+01  0.65826001838E+02 -0.31128873503E+03  0.33112838397E+03  0.91359211670E+02 0.  0.
         13    1    3    3    0    0 -0.35549823914E+01  0.23660002902E+02  0.55255512330E+01  0.24555352849E+02  0.00000000000E+00 0. -1.
        -14    1    3    3    0    0  0.23927930687E+02 -0.58293236093E+02 -0.17936295739E+02  0.65516089215E+02  0.00000000000E+00 0.  1.
        -13    1    4    4    0    0 -0.42054141098E+02  0.92345015150E+01 -0.16706556240E+03  0.17252457489E+03  0.00000000000E+00 0. -1.
         13    1    4    4    0    0  0.33944761337E+02  0.56591500323E+02 -0.14422317263E+03  0.15860380908E+03  0.00000000000E+00 0.  1.
         21    1    1    2  502  501 -0.12263568535E+02 -0.31192768647E+02 -0.85972263200E+01  0.34601968578E+02  0.00000000000E+00 0.  1.
<scales pt_clust_5="13000.00000" pt_clust_6="13000.00000" pt_clust_7="13000.00000" pt_clust_8="13000.00000" pt_clust_9="33.51692"></scales>
<clustering>
<clus scale="   33.517">  1  9  2 -1</clus>
<clus scale="   79.651">  5  6 -1 -1</clus>
<clus scale="   91.359">  7  8 -1 -1</clus>
<clus scale="   99.973">  1  5  2 -1</clus>
<clus scale="  109.529">  2  5  1 -1</clus>
</clustering>
</event>
<event>
 9    1  0.2333971E-005  0.1225842E+03  0.7546771E-02  0.1241807E+00
         -2   -1    0    0    0  501 -0.00000000000E+00  0.00000000000E+00  0.21126001589E+03  0.21126001589E+03  0.00000000000E+00 0.  1.
          1   -1    0    0  502    0  0.00000000000E+00 -0.00000000000E+00 -0.21622126756E+03  0.21622126756E+03  0.00000000000E+00 0. -1.
         23    2    1    2    0    0 -0.60582810699E+02 -0.87047709984E+01  0.93960369434E+02  0.14476776239E+03  0.91559292334E+02 0.  0.
        -24    2    1    2    0    0  0.83917142253E+02  0.10973957318E+02 -0.17059796734E+03  0.20730039989E+03  0.81897953760E+02 0.  0.
         11    1    4    4    0    0  0.26234897720E+02  0.16746282967E+02 -0.13658964537E+03  0.14009082437E+03  0.00000000000E+00 0. -1.
        -12    1    4    4    0    0  0.57682244533E+02 -0.57723256484E+01 -0.34008321975E+02  0.67209575518E+02  0.00000000000E+00 0.  1.
        -13    1    3    3    0    0 -0.85138431847E+02 -0.48606344318E+01  0.72543170035E+02  0.11195842917E+03  0.00000000000E+00 0.  1.
         13    1    3    3    0    0  0.24555621148E+02 -0.38441365666E+01  0.21417199398E+02  0.32809333214E+02  0.00000000000E+00 0. -1.
         21    1    1    2  502  501 -0.23334331554E+02 -0.22691863197E+01  0.71676346232E+02  0.75413121171E+02  0.00000000000E+00 0.  1.
<scales pt_clust_5="13000.00000" pt_clust_6="13000.00000" pt_clust_7="13000.00000" pt_clust_8="13000.00000" pt_clust_9="23.44441"></scales>
<clustering>
<clus scale="   23.444">  1  9  2 -1</clus>
<clus scale="   81.898">  5  6 -1 -1</clus>
<clus scale="   91.559">  7  8 -1 -1</clus>
<clus scale="  115.547">  2  5  1 -1</clus>
<clus scale="  115.547">  2  5  1 -1</clus>
</clustering>
</event>
<event>
 9    1  0.2333971E-005  0.9526827E+02  0.7546771E-02  0.1297254E+00
         -2   -1    0    0    0  501 -0.00000000000E+00  0.00000000000E+00  0.65757558281E+03  0.65757558281E+03  0.00000000000E+00 0.  1.
          1   -1    0    0  502    0  0.00000000000E+00 -0.00000000000E+00 -0.20643180634E+02  0.20643180634E+02  0.00000000000E+00 0. -1.
        -24    2    1    2    0    0 -0.75977625836E+01  0.76524712710E+01  0.31497960282E+03  0.32542179416E+03  0.81061135000E+02 0.  0.
         23    2    1    2    0    0  0.23033041207E+02 -0.43607447466E+02  0.22502791318E+03  0.24827213157E+03  0.92570833105E+02 0.  0.
         13    1    3    3    0    0 -0.41555973674E+02  0.10348424646E+02  0.11827624768E+03  0.12579053862E+03  0.00000000000E+00 0. -1.
        -14    1    3    3    0    0  0.33958211090E+02 -0.26959533753E+01  0.19670335514E+03  0.19963125554E+03  0.00000000000E+00 0.  1.
        -11    1    4    4    0    0 -0.57883913516E+00  0.27215962266E+02  0.89426243354E+02  0.93477786972E+02  0.00000000000E+00 0. -1.
         11    1    4    4    0    0  0.23611880342E+02 -0.70823409733E+02  0.13560166982E+03  0.15479434459E+03  0.00000000000E+00 0.  1.
         21    1    1    2  502  501 -0.15435278624E+02  0.35954976195E+02  0.96924886172E+02  0.10452483771E+03  0.00000000000E+00 0. -1.
<scales pt_clust_5="13000.00000" pt_clust_6="13000.00000" pt_clust_7="13000.00000" pt_clust_8="13000.00000" pt_clust_9="39.12810"></scales>
<clustering>
<clus scale="   39.128">  2  9  1 -1</clus>
<clus scale="   81.061">  5  6 -1 -1</clus>
<clus scale="   84.128">  1  5  2 -1</clus>
<clus scale="   92.571">  7  8 -1 -1</clus>
<clus scale="   39.128">  2  5  1 -1</clus>
</clustering>
</event>
<event>
 9    1  0.2333971E-005  0.1148315E+03  0.7546771E-02  0.1254831E+00
          1   -1    0    0  502    0  0.00000000000E+00  0.00000000000E+00  0.17228833429E+03  0.17228833429E+03  0.00000000000E+00 0. -1.
         -2   -1    0    0    0  501 -0.00000000000E+00 -0.00000000000E+00 -0.28145089002E+03  0.28145089002E+03  0.00000000000E+00 0.  1.
        -24    2    1    2    0    0 -0.39950519985E+02 -0.19829382802E+02 -0.15664137353E+03  0.18261655641E+03  0.82601684632E+02 0.  0.
         23    2    1    2    0    0 -0.36133809370E+02  0.72674802047E+02  0.10597596455E+03  0.16156273140E+03  0.91018306317E+02 0.  0.
         13    1    3    3    0    0  0.23000752582E+02 -0.20570833342E+02 -0.54638168123E+02  0.62749687008E+02  0.00000000000E+00 0. -1.
        -14    1    3    3    0    0 -0.62951272567E+02  0.74145054031E+00 -0.10200320540E+03  0.11986686940E+03  0.00000000000E+00 0.  1.
        -13    1    4    4    0    0 -0.45165629173E+02  0.90786212469E+02  0.83866457079E+02  0.13158895492E+03  0.00000000000E+00 0.  1.
         13    1    4    4    0    0  0.90318198035E+01 -0.18111410422E+02  0.22109507466E+02  0.29973776486E+02  0.00000000000E+00 0. -1.
         21    1    1    2  502  501  0.76084329354E+02 -0.52845419245E+02 -0.58497146743E+02  0.10955993650E+03  0.00000000000E+00 0. -1.
<scales pt_clust_5="13000.00000" pt_clust_6="13000.00000" pt_clust_7="13000.00000" pt_clust_8="13000.00000" pt_clust_9="92.63619"></scales>
<clustering>
<clus scale="   82.602">  5  6 -1 -1</clus>
<clus scale="   91.018">  7  8 -1 -1</clus>
<clus scale="   92.636">  2  9  1 -1</clus>
<clus scale="  108.282">  2  5  1 -1</clus>
<clus scale="  114.831">  1  5  2 -1</clus>
</clustering>
</event>
<event>
 9    1  0.2333971E-005  0.9085853E+02  0.7546771E-02  0.1307673E+00
          3   -1    0    0  502    0  0.00000000000E+00  0.00000000000E+00  0.14835996127E+03  0.14835996127E+03  0.00000000000E+00 0. -1.
         -4   -1    0    0    0  501 -0.00000000000E+00 -0.00000000000E+00 -0.13542849699E+03  0.13542849699E+03  0.00000000000E+00 0.  1.
         23    2    1    2    0    0 -0.42681852520E+01 -0.74962561076E+00 -0.82938243734E+02  0.12256865074E+03  0.90141791231E+02 0.  0.
        -24    2    1    2    0    0  0.42207054331E+02  0.10550890633E+02  0.67396650859E+02  0.11278286328E+03  0.79277417811E+02 0.  0.
         13    1    4    4    0    0  0.36855151700E+02 -0.20231820422E+02  0.41599418455E+01  0.42248477849E+02  0.00000000000E+00 0. -1.
        -14    1    4    4    0    0  0.53519026314E+01  0.30782711054E+02  0.63236709013E+02  0.70534385434E+02  0.00000000000E+00 0.  1.
        -13    1    3    3    0    0 -0.15206302873E+02  0.40176416262E+02 -0.21758593727E+02  0.48154049380E+02  0.00000000000E+00 0.  1.
         13    1    3    3    0    0  0.10938117621E+02 -0.40926041872E+02 -0.61179650007E+02  0.74414601359E+02  0.00000000000E+00 0. -1.
         21    1    1    2  502  501 -0.37938869079E+02 -0.98012650221E+01  0.28473057163E+02  0.48436944240E+02  0.00000000000E+00 0. -1.
<scales pt_clust_5="13000.00000" pt_clust_6="13000.00000" pt_clust_7="13000.00000" pt_clust_8="13000.00000" pt_clust_9="39.18447"></scales>
<clustering>
<clus scale="   39.184">  1  9  2 -1</clus>
<clus scale="   79.277">  5  6 -1 -1</clus>
<clus scale="   80.091">  1  5  2 -1</clus>
<clus scale="   90.142">  7  8 -1 -1</clus>
<clus scale="   39.184">  1  5  2 -1</clus>
</clustering>
</event>
<event>
 9    1  0.3663275E-005  0.1169972E+03  0.7546771E-02  0.1251171E+00
         -2   -1    0    0    0  501 -0.00000000000E+00  0.00000000000E+00  0.40791805736E+03  0.40791805736E+03  0.00000000000E+00 0.  1.
          1   -1    0    0  502    0  0.00000000000E+00 -0.00000000000E+00 -0.17051696767E+03  0.17051696767E+03  0.00000000000E+00 0. -1.
        -24    2    1    2    0    0 -0.51737000181E+02  0.26207543518E+02  0.35450869101E+03  0.36774786894E+03  0.78730747406E+02 0.  0.
         23    2    1    2    0    0  0.73819263953E+02 -0.25654475095E+02 -0.13720714376E+03  0.18082206167E+03  0.88110055419E+02 0.  0.
         13    1    3    3    0    0 -0.36575568672E+02 -0.15516673784E+02  0.76350281192E+02  0.86069186282E+02  0.00000000000E+00 0. -1.
        -14    1    3    3    0    0 -0.15161431509E+02  0.41724217302E+02  0.27815840981E+03  0.28167868266E+03  0.00000000000E+00 0.  1.
        -11    1    4    4    0    0  0.10837949068E+02 -0.40412128384E+02 -0.94390891371E+02  0.10324844616E+03  0.00000000000E+00 0. -1.
         11    1    4    4    0    0  0.62981314885E+02  0.14757653289E+02 -0.42816252389E+02  0.77573615514E+02  0.00000000000E+00 0.  1.
         21    1    1    2  502  501 -0.22082263772E+02 -0.55306842333E+00  0.20099542448E+02  0.29865094418E+02  0.00000000000E+00 0. -1.
<scales pt_clust_5="13000.00000" pt_clust_6="13000.00000" pt_clust_7="13000.00000" pt_clust_8="13000.00000" pt_clust_9="22.08919"></scales>
<clustering>
<clus scale="   22.089">  1  9  2 -1</clus>
<clus scale="   78.731">  5  6 -1 -1</clus>
<clus scale="   88.110">  7  8 -1 -1</clus>
<clus scale="  110.107">  1  5  2 -1</clus>
<clus scale="  116.997">  2  5  1 -1</clus>
</clustering>
</event>
<event>
 9    1  0.2333971E-005  0.1074597E+03  0.7546771E-02  0.1269957E+00
         -2   -1    0    0    0  501 -0.00000000000E+00  0.00000000000E+00  0.19880609861E+03  0.19880609861E+03  0.00000000000E+00 0.  1.
          1   -1    0    0  502    0  0.00000000000E+00 -0.00000000000E+00 -0.69510472246E+02  0.69510472246E+02  0.00000000000E+00 0. -1.
         23    2    1    2    0    0 -0.23549347726E+02  0.45452409423E+02  0.68617726363E+02  0.12552471785E+03  0.91801792573E+02 0.  0.
        -24    2    1    2    0    0  0.48848683743E+02 -0.40288611390E+02  0.54448690820E+02  0.11623014636E+03  0.80841949998E+02 0.  0.
         13    1    4    4    0    0  0.37715015141E+02 -0.39536533424E+01 -0.11920406094E+02  0.39751098391E+02  0.00000000000E+00 0. -1.
        -14    1    4    4    0    0  0.11133668601E+02 -0.36334958048E+02  0.66369096914E+02  0.76479047968E+02  0.00000000000E+00 0.  1.
        -11    1    3    3    0    0 -0.25135842839E+02 -0.18315150640E+02  0.50336572453E+02  0.59169467333E+02  0.00000000000E+00 0. -1.
         11    1    3    3    0    0  0.15864951123E+01  0.63767560062E+02  0.18281153911E+02  0.66355250518E+02  0.00000000000E+00 0.  1.
         21    1    1    2  502  501 -0.25299336016E+02 -0.51637980322E+01  0.62292091832E+01  0.26561706648E+02  0.00000000000E+00 0. -1.
<scales pt_clust_5="13000.00000" pt_clust_6="13000.00000" pt_clust_7="13000.00000" pt_clust_8="13000.00000" pt_clust_9="25.82095"></scales>
<clustering>
<clus scale="   25.821">  2  9  1 -1</clus>
<clus scale="   80.842">  5  6 -1 -1</clus>
<clus scale="   91.802">  7  8 -1 -1</clus>
<clus scale="   98.262">  2  5  1 -1</clus>
<clus scale="   25.821">  2  5  1 -1</clus>
</clustering>
</event>
<event>
 9    1  0.2333971E-005  0.1010619E+03  0.7546771E-02  0.1284599E+00
         -2   -1    0    0    0  501 -0.00000000000E+00  0.00000000000E+00  0.20814622133E+03  0.20814622133E+03  0.00000000000E+00 0.  1.
          1   -1    0    0  502    0  0.00000000000E+00 -0.00000000000E+00 -0.14831802590E+03  0.14831802590E+03  0.00000000000E+00 0. -1.
         23    2    1    2    0    0  0.24597241305E+02  0.42466871824E+02  0.13071814515E+03  0.17227128618E+03  0.10090442552E+03 0.  0.
        -24    2    1    2    0    0  0.89543683520E+01  0.29400897302E+01 -0.87599263492E+02  0.12531423964E+03  0.89113426893E+02 0.  0.
         11    1    4    4    0    0  0.34140880474E+02  0.29930306060E+02 -0.22965359725E+02  0.50880553139E+02  0.00000000000E+00 0. -1.
        -12    1    4    4    0    0 -0.25186512122E+02 -0.26990216330E+02 -0.64633903767E+02  0.74433686504E+02  0.00000000000E+00 0.  1.
        -13    1    3    3    0    0  0.60782728599E+02  0.37415235781E+02  0.10731054954E+03  0.12887976570E+03  0.00000000000E+00 0.  1.
         13    1    3    3    0    0 -0.36185487294E+02  0.50516360436E+01  0.23407595604E+02  0.43391520478E+02  0.00000000000E+00 0. -1.
         21    1    1    2  502  501 -0.33551609657E+02 -0.45406961554E+02  0.16709313777E+02  0.58878721412E+02  0.00000000000E+00 0. -1.
<scales pt_clust_5="13000.00000" pt_clust_6="13000.00000" pt_clust_7="13000.00000" pt_clust_8="13000.00000" pt_clust_9="56.45797"></scales>
<clustering>
<clus scale="   56.458">  1  9  2 -1</clus>
<clus scale="   89.113">  5  6 -1 -1</clus>
<clus scale="   89.292">  2  5  1 -1</clus>
<clus scale="  100.904">  7  8 -1 -1</clus>
<clus scale="   89.292">  2  5  1 -1</clus>
</clustering>
</event>
<event>
 9    1  0.2333971E-005  0.1048278E+03  0.7546771E-02  0.1277253E+00
          1   -1    0    0  502    0  0.00000000000E+00  0.00000000000E+00  0.59242805649E+03  0.59242805649E+03  0.00000000000E+00 0. -1.
         -2   -1    0    0    0  501 -0.00000000000E+00 -0.00000000000E+00 -0.77433741821E+02  0.77433741821E+02  0.00000000000E+00 0.  1.
        -24    2    1    2    0    0 -0.42176072306E+02  0.13620470311E+02 -0.31568319109E+02  0.96356183098E+02  0.79521173049E+02 0.  0.
         23    2    1    2    0    0  0.77493304223E+02 -0.87927337644E+01  0.50083262725E+03  0.51552417501E+03  0.94070878277E+02 0.  0.
         11    1    3    3    0    0  0.87534522247E+01 -0.24006778315E+02 -0.18891931230E+02  0.31778190579E+02  0.00000000000E+00 0. -1.
        -12    1    3    3    0    0 -0.50929524531E+02  0.37627248626E+02 -0.12676387880E+02  0.64577992519E+02  0.00000000000E+00 0.  1.
        -11    1    4    4    0    0  0.43719840755E+02 -0.51578712011E+02  0.28602077264E+03  0.29390418573E+03  0.00000000000E+00 0. -1.
         11    1    4    4    0    0  0.33773463468E+02  0.42785978247E+02  0.21481185460E+03  0.22161998928E+03  0.00000000000E+00 0.  1.
         21    1    1    2  502  501 -0.35317231917E+02 -0.48277365464E+01  0.45730006529E+02  0.57981440199E+02  0.00000000000E+00 0.  1.
<scales pt_clust_5="13000.00000" pt_clust_6="13000.00000" pt_clust_7="13000.00000" pt_clust_8="13000.00000" pt_clust_9="35.64567"></scales>
<clustering>
<clus scale="   35.646">  1  9  2 -1</clus>
<clus scale="   79.521">  5  6 -1 -1</clus>
<clus scale="   91.995">  2  5  1 -1</clus>
<clus scale="   94.071">  7  8 -1 -1</clus>
<clus scale="   35.646">  1  5  2 -1</clus>
</clustering>
</event>
<event>
 9    1  0.2333971E-005  0.9373352E+02  0.7546771E-02  0.1298466E+00
          1   -1    0    0  502    0  0.00000000000E+00  0.00000000000E+00  0.33407518876E+03  0.33407518876E+03  0.00000000000E+00 0. -1.
         -2   -1    0    0    0  501 -0.00000000000E+00 -0.00000000000E+00 -0.79010813805E+02  0.79010813805E+02  0.00000000000E+00 0.  1.
         23    2    1    2    0    0  0.70137492033E+01  0.10514305536E+02  0.11930751613E+01  0.91896819809E+02  0.91015706139E+02 0.  0.
        -24    2    1    2    0    0 -0.24618046104E+02  0.33398149508E+01  0.27618292359E+03  0.28957183815E+03  0.83412466753E+02 0.  0.
         13    1    4    4    0    0 -0.48688213456E+02 -0.11177396099E+02  0.23114863833E+03  0.23648502979E+03  0.00000000000E+00 0. -1.
        -14    1    4    4    0    0  0.24070167352E+02  0.14517211050E+02  0.45034285257E+02  0.53086808358E+02  0.00000000000E+00 0.  1.
        -11    1    3    3    0    0 -0.28722777053E+02  0.10599782338E+02 -0.31164795234E+02  0.43687501294E+02  0.00000000000E+00 0.  1.
         11    1    3    3    0    0  0.35736526257E+02 -0.85476802168E-01  0.32357870396E+02  0.48209318515E+02  0.00000000000E+00 0. -1.
         21    1    1    2  502  501  0.17604296901E+02 -0.13854120487E+02 -0.22311623793E+02  0.31617344609E+02  0.00000000000E+00 0. -1.
<scales pt_clust_5="13000.00000" pt_clust_6="13000.00000" pt_clust_7="13000.00000" pt_clust_8="13000.00000" pt_clust_9="22.40196"></scales>
<clustering>
<clus scale="   22.402">  2  9  1 -1</clus>
<clus scale="   83.412">  5  6 -1 -1</clus>
<clus scale="   86.370">  1  5  2 -1</clus>
<clus scale="   91.016">  7  8 -1 -1</clus>
<clus scale="   86.370">  1  5  2 -1</clus>
</clustering>
</event>
<event>
 9    1  0.2333971E-005  0.1721132E+03  0.7546771E-02  0.1204911E+00
         -2   -1    0    0    0  501 -0.00000000000E+00  0.00000000000E+00  0.44909742100E+03  0.44909742100E+03  0.00000000000E+00 0.  1.
          1   -1    0    0  502    0  0.00000000000E+00 -0.00000000000E+00 -0.11355921416E+03  0.11355921416E+03  0.00000000000E+00 0. -1.
        -24    2    1    2    0    0  0.44113298889E+02  0.11397239089E+02  0.18055471318E+03  0.20183566177E+03  0.77857239332E+02 0.  0.
         23    2    1    2    0    0 -0.15808401561E+03  0.20148169735E+01  0.27622961535E+02  0.18938610919E+03  0.10054578495E+03 0.  0.
         11    1    3    3    0    0  0.11460542874E+02  0.42756613747E+02  0.10155563886E+03  0.11078366236E+03  0.00000000000E+00 0. -1.
        -12    1    3    3    0    0  0.32652756014E+02 -0.31359374659E+02  0.78999074316E+02  0.91051999413E+02  0.00000000000E+00 0.  1.
        -11    1    4    4    0    0 -0.10208421392E+03  0.10719531518E+02  0.65002552881E+02  0.12149661300E+03  0.00000000000E+00 0.  1.
         11    1    4    4    0    0 -0.55999801688E+02 -0.87047145442E+01 -0.37379591346E+02  0.67889496195E+02  0.00000000000E+00 0. -1.
         21    1    1    2  502  501  0.11397071672E+03 -0.13412056062E+02  0.12736053213E+03  0.17143486420E+03  0.00000000000E+00 0.  1.
<scales pt_clust_5="13000.00000" pt_clust_6="13000.00000" pt_clust_7="13000.00000" pt_clust_8="13000.00000" pt_clust_9="139.69077"></scales>
<clustering>
<clus scale="   77.857">  5  6 -1 -1</clus>
<clus scale="   90.209">  1  5  2 -1</clus>
<clus scale="  100.546">  7  8 -1 -1</clus>
<clus scale="  139.691">  1  9  2 -1</clus>
<clus scale="  172.113">  2  5  1 -1</clus>
</clustering>
</event>
<event>
 9    1  0.2333971E-005  0.9939194E+02  0.7546771E-02  0.1283075E+00
          1   -1    0    0  502    0  0.00000000000E+00  0.00000000000E+00  0.20464802677E+03  0.20464802677E+03  0.00000000000E+00 0. -1.
         -2   -1    0    0    0  501 -0.00000000000E+00 -0.00000000000E+00 -0.65230464684E+02  0.65230464684E+02  0.00000000000E+00 0.  1.
         23    2    1    2    0    0  0.40868071917E+02 -0.99240868353E+01  0.59166391321E+02  0.11379875427E+03  0.87640217997E+02 0.  0.
        -24    2    1    2    0    0 -0.51900403595E+02 -0.12641530159E+02  0.84155388391E+02  0.13066001398E+03  0.84477509905E+02 0.  0.
         13    1    4    4    0    0  0.14185731416E+02  0.21209319286E+02  0.18156158438E+02  0.31316390112E+02  0.00000000000E+00 0. -1.
        -14    1    4    4    0    0 -0.66086135011E+02 -0.33850849445E+02  0.65999229952E+02  0.99343623868E+02  0.00000000000E+00 0.  1.
        -11    1    3    3    0    0 -0.20024659614E+02 -0.84106365742E+01  0.46871002718E+02  0.51658655577E+02  0.00000000000E+00 0.  1.
         11    1    3    3    0    0  0.60892731532E+02 -0.15134502611E+01  0.12295388603E+02  0.62140098696E+02  0.00000000000E+00 0. -1.
         21    1    1    2  502  501  0.11032331678E+02  0.22565616994E+02 -0.39042176224E+01  0.25419723205E+02  0.00000000000E+00 0. -1.
<scales pt_clust_5="13000.00000" pt_clust_6="13000.00000" pt_clust_7="13000.00000" pt_clust_8="13000.00000" pt_clust_9="25.11811"></scales>
<clustering>
<clus scale="   25.118">  2  9  1 -1</clus>
<clus scale="   84.478">  5  6 -1 -1</clus>
<clus scale="   87.640">  7  8 -1 -1</clus>
<clus scale="   96.615">  1  5  2 -1</clus>
<clus scale="   96.615">  1  5  2 -1</clus>
</clustering>
</event>
<event>
 9    1  0.2333971E-005  0.1820833E+03  0.7546771E-02  0.1166791E+00
         -2   -1    0    0    0  501 -0.00000000000E+00  0.00000000000E+00  0.81188844828E+02  0.81188844828E+02  0.00000000000E+00 0.  1.
          1   -1    0    0  502    0  0.00000000000E+00 -0.00000000000E+00 -0.92768325534E+03  0.92768325534E+03  0.00000000000E+00 0. -1.
         23    2    1    2    0    0  0.63619083860E+02 -0.13488625335E+03 -0.93995233958E+02  0.19876591522E+03  0.91820999066E+02 0.  0.
        -24    2    1    2    0    0 -0.89398955995E+02  0.13167590633E+03 -0.76165375050E+03  0.78256141485E+03  0.83397929952E+02 0.  0.
         11    1    4    4    0    0 -0.89112112494E+02  0.10346519479E+03 -0.71591881294E+03  0.72882491851E+03  0.00000000000E+00 0. -1.
        -12    1    4    4    0    0 -0.28684350160E+00  0.28210711542E+02 -0.45734937564E+02  0.53736496340E+02  0.00000000000E+00 0.  1.
        -11    1    3    3    0    0  0.30903258640E+02 -0.13544244397E+03 -0.90632104515E+02  0.16587297969E+03  0.00000000000E+00 0.  1.
         11    1    3    3    0    0  0.32715825221E+02  0.55619061262E+00 -0.33631294427E+01  0.32892935526E+02  0.00000000000E+00 0. -1.
         21    1    1    2  502  501  0.25779872135E+02  0.32103470257E+01  0.91545739534E+01  0.27544770095E+02  0.00000000000E+00 0.  1.
<scales pt_clust_5="13000.00000" pt_clust_6="13000.00000" pt_clust_7="13000.00000" pt_clust_8="13000.00000" pt_clust_9="25.97899"></scales>
<clustering>
<clus scale="   25.979">  1  9  2 -1</clus>
<clus scale="   83.398">  5  6 -1 -1</clus>
<clus scale="   91.821">  7  8 -1 -1</clus>
<clus scale="  177.984">  2  5  1 -1</clus>
<clus scale="  177.984">  2  5  1 -1</clus>
</clustering>
</event>
<event>
 9    1  0.2333971E-005  0.1535572E+03  0.7546771E-02  0.1198086E+00
          1   -1    0    0  502    0  0.00000000000E+00  0.00000000000E+00  0.60385740391E+03  0.60385740391E+03  0.00000000000E+00 0. -1.
         -2   -1    0    0    0  501 -0.00000000000E+00 -0.00000000000E+00 -0.16670471329E+03  0.16670471329E+03  0.00000000000E+00 0.  1.
         23    2    1    2    0    0 -0.61210541069E+02 -0.12769787079E+03  0.55526380880E+01  0.16850275162E+03  0.91152997604E+02 0.  0.
        -24    2    1    2    0    0  0.25041126107E+02  0.11912786479E+03  0.50185191411E+03  0.52257983591E+03  0.80098907860E+02 0.  0.
         11    1    4    4    0    0  0.49604837801E+02  0.72153198324E+02  0.37521102306E+03  0.38529214342E+03  0.00000000000E+00 0. -1.
        -12    1    4    4    0    0 -0.24563711695E+02  0.46974666465E+02  0.12664089105E+03  0.13728769249E+03  0.00000000000E+00 0.  1.
        -11    1    3    3    0    0 -0.16883090227E+02 -0.84040494259E+02 -0.36751944400E+02  0.93266011109E+02  0.00000000000E+00 0.  1.
         11    1    3    3    0    0 -0.44327450842E+02 -0.43657376534E+02  0.42304582488E+02  0.75236740516E+02  0.00000000000E+00 0. -1.
         21    1    1    2  502  501  0.36169414963E+02  0.85700060036E+01 -0.70251861577E+02  0.79479529671E+02  0.00000000000E+00 0. -1.
<scales pt_clust_5="13000.00000" pt_clust_6="13000.00000" pt_clust_7="13000.00000" pt_clust_8="13000.00000" pt_clust_9="37.17084"></scales>
<clustering>
<clus scale="   37.171">  2  9  1 -1</clus>
<clus scale="   80.099">  5  6 -1 -1</clus>
<clus scale="   91.153">  7  8 -1 -1</clus>
<clus scale="  147.264">  1  5  2 -1</clus>
<clus scale="  147.264">  1  5  2 -1</clus>
</clustering>
</event>
<event>
 9    1  0.2333971E-005  0.2039342E+03  0.7546771E-02  0.1147657E+00
          1   -1    0    0  502    0  0.00000000000E+00  0.00000000000E+00  0.51004804726E+03  0.51004804726E+03  0.00000000000E+00 0. -1.
         -2   -1    0    0    0  501 -0.00000000000E+00 -0.00000000000E+00 -0.50427202041E+03  0.50427202041E+03  0.00000000000E+00 0.  1.
         23    2    1    2    0    0 -0.19513848607E+03  0.90745362441E+02 -0.22688477137E+03  0.32637148388E+03  0.93423211570E+02 0.  0.
        -24    2    1    2    0    0  0.15836095969E+03 -0.82857536420E+02  0.43767725398E+03  0.47951022029E+03  0.80156770217E+02 0.  0.
         11    1    4    4    0    0  0.13986133489E+03 -0.75333653033E+02  0.42948660248E+03  0.45792476891E+03  0.00000000000E+00 0. -1.
        -12    1    4    4    0    0  0.18499624801E+02 -0.75238833874E+01  0.81906515051E+01  0.21585451375E+02  0.00000000000E+00 0.  1.
        -11    1    3    3    0    0 -0.12630239949E+03  0.97453346803E+02 -0.12242299335E+03  0.20108913501E+03  0.00000000000E+00 0.  1.
         11    1    3    3    0    0 -0.68836086581E+02 -0.67079843623E+01 -0.10446177802E+03  0.12528234887E+03  0.00000000000E+00 0. -1.
         21    1    1    2  502  501  0.36777526383E+02 -0.78878260204E+01 -0.20501645576E+03  0.20843836350E+03  0.00000000000E+00 0.  1.
<scales pt_clust_5="13000.00000" pt_clust_6="13000.00000" pt_clust_7="13000.00000" pt_clust_8="13000.00000" pt_clust_9="37.61388"></scales>
<clustering>
<clus scale="   37.614">  2  9  1 -1</clus>
<clus scale="   80.157">  5  6 -1 -1</clus>
<clus scale="   93.423">  7  8 -1 -1</clus>
<clus scale="  198.208">  1  5  2 -1</clus>
<clus scale="  198.208">  1  5  2 -1</clus>
</clustering>
</event>
<event>
 9    1  0.2333971E-005  0.1024435E+03  0.7546771E-02  0.1280506E+00
          1   -1    0    0  502    0  0.00000000000E+00  0.00000000000E+00  0.40181501914E+03  0.40181501914E+03  0.00000000000E+00 0. -1.
         -2   -1    0    0    0  501 -0.00000000000E+00 -0.00000000000E+00 -0.86878821755E+02  0.86878821755E+02  0.00000000000E+00 0.  1.
        -24    2    1    2    0    0 -0.11079262089E+02  0.80341861521E+01 -0.38070741080E+02  0.90025622488E+02  0.80423461642E+02 0.  0.
         23    2    1    2    0    0  0.50086015222E+02  0.53158834400E+01  0.33960847551E+03  0.35531767103E+03  0.91541592574E+02 0.  0.
         11    1    3    3    0    0 -0.11192727368E+02 -0.20794013533E+02  0.16155629823E+02  0.28612453927E+02  0.00000000000E+00 0. -1.
        -12    1    3    3    0    0  0.11346527851E+00  0.28828199685E+02 -0.54226370903E+02  0.61413168562E+02  0.00000000000E+00 0.  1.
        -13    1    4    4    0    0 -0.69799419078E+01  0.36099708375E+02  0.16530849275E+03  0.16934818071E+03  0.00000000000E+00 0.  1.
         13    1    4    4    0    0  0.57065957130E+02 -0.30783824935E+02  0.17429998276E+03  0.18596949033E+03  0.00000000000E+00 0. -1.
         21    1    1    2  502  501 -0.39006753133E+02 -0.13350069592E+02  0.13398462953E+02  0.43350547374E+02  0.00000000000E+00 0.  1.
<scales pt_clust_5="13000.00000" pt_clust_6="13000.00000" pt_clust_7="13000.00000" pt_clust_8="13000.00000" pt_clust_9="41.22804"></scales>
<clustering>
<clus scale="   41.228">  2  9  1 -1</clus>
<clus scale="   80.423">  5  6 -1 -1</clus>
<clus scale="   91.542">  7  8 -1 -1</clus>
<clus scale="   92.643">  2  5  1 -1</clus>
<clus scale="  102.443">  1  5  2 -1</clus>
</clustering>
</event>
<event>
 9    1  0.2333971E-005  0.1681671E+03  0.7546771E-02  0.1193855E+00
         -2   -1    0    0    0  501 -0.00000000000E+00  0.00000000000E+00  0.29300116300E+02  0.29300116300E+02  0.00000000000E+00 0.  1.
          1   -1    0    0  502    0  0.00000000000E+00 -0.00000000000E+00 -0.19076137039E+04  0.19076137039E+04  0.00000000000E+00 0. -1.
         23    2    1    2    0    0  0.39732566263E+02  0.71943667704E+02 -0.28757806850E+03  0.31277464965E+03  0.91500097484E+02 0.  0.
        -24    2    1    2    0    0  0.79935336801E+02 -0.14499823636E+03 -0.10206091394E+04  0.10370263485E+04  0.79790258572E+02 0.  0.
         11    1    4    4    0    0  0.92498595150E+02 -0.14386352314E+03 -0.96029783059E+03  0.97540997884E+03  0.00000000000E+00 0. -1.
        -12    1    4    4    0    0 -0.12563258349E+02 -0.11347132129E+01 -0.60311308850E+02  0.61616369656E+02  0.00000000000E+00 0.  1.
        -13    1    3    3    0    0  0.14781728160E+02  0.89438053457E+02 -0.18940180540E+03  0.20997787689E+03  0.00000000000E+00 0.  1.
         13    1    3    3    0    0  0.24950838103E+02 -0.17494385753E+02 -0.98176263094E+02  0.10279677276E+03  0.00000000000E+00 0. -1.
         21    1    1    2  502  501 -0.11966790306E+03  0.73054568651E+02 -0.57012637971E+03  0.58711282209E+03  0.00000000000E+00 0.  1.
<scales pt_clust_5="13000.00000" pt_clust_6="13000.00000" pt_clust_7="13000.00000" pt_clust_8="13000.00000" pt_clust_9="148.03277"></scales>
<clustering>
<clus scale="   79.790">  5  6 -1 -1</clus>
<clus scale="   91.500">  7  8 -1 -1</clus>
<clus scale="  122.991">  1  7  2 -1</clus>
<clus scale="  148.033">  1  9  2 -1</clus>
<clus scale="  168.167">  2  5  1 -1</clus>
</clustering>
</event>
<event>
 9    1  0.2333971E-005  0.1526296E+03  0.7546771E-02  0.1199235E+00
         -2   -1    0    0    0  501 -0.00000000000E+00  0.00000000000E+00  0.41364085552E+02  0.41364085552E+02  0.00000000000E+00 0.  1.
          1   -1    0    0  502    0  0.00000000000E+00 -0.00000000000E+00 -0.69039159615E+03  0.69039159615E+03  0.00000000000E+00 0. -1.
        -24    2    1    2    0    0 -0.42513329946E+02  0.11343414825E+03 -0.29375233017E+03  0.32760452649E+03  0.79747132122E+02 0.  0.
         23    2    1    2    0    0  0.71726947159E+02 -0.10362753738E+03 -0.32820997811E+03  0.36313737432E+03  0.90904023222E+02 0.  0.
         11    1    3    3    0    0 -0.51462679619E+02  0.73804332429E+02 -0.25885634604E+03  0.27404761404E+03  0.00000000000E+00 0. -1.
        -12    1    3    3    0    0  0.89493496737E+01  0.39629815825E+02 -0.34895984128E+02  0.53556912441E+02  0.00000000000E+00 0.  1.
        -13    1    4    4    0    0  0.55195648016E+02 -0.56239473035E+02 -0.28870552229E+03  0.29926629695E+03  0.00000000000E+00 0.  1.
         13    1    4    4    0    0  0.16531299143E+02 -0.47388064350E+02 -0.39504455820E+02  0.63871077366E+02  0.00000000000E+00 0. -1.
         21    1    1    2  502  501 -0.29213617213E+02 -0.98066108689E+01 -0.27065202318E+02  0.41013780903E+02  0.00000000000E+00 0.  1.
<scales pt_clust_5="13000.00000" pt_clust_6="13000.00000" pt_clust_7="13000.00000" pt_clust_8="13000.00000" pt_clust_9="30.81566"></scales>
<clustering>
<clus scale="   30.816">  1  9  2 -1</clus>
<clus scale="   79.747">  5  6 -1 -1</clus>
<clus scale="   90.904">  7  8 -1 -1</clus>
<clus scale="  146.260">  1  5  2 -1</clus>
<clus scale="  152.630">  2  5  1 -1</clus>
</clustering>
</event>
<event>
 9    1  0.2333971E-005  0.1657309E+03  0.7546771E-02  0.1183973E+00
         -2   -1    0    0    0  501 -0.00000000000E+00  0.00000000000E+00  0.17888844866E+03  0.17888844866E+03  0.00000000000E+00 0.  1.
          1   -1    0    0  502    0  0.00000000000E+00 -0.00000000000E+00 -0.22835712692E+03  0.22835712692E+03  0.00000000000E+00 0. -1.
         23    2    1    2    0    0  0.13776734691E+03  0.60247595045E+02  0.66526257894E+02  0.18770866027E+03  0.90549343276E+02 0.  0.
        -24    2    1    2    0    0 -0.12984004553E+03 -0.38760258455E+02 -0.11815213597E+03  0.19653254068E+03  0.79399730812E+02 0.  0.
         13    1    4    4    0    0 -0.10572435955E+03 -0.13861138777E+02 -0.45296837600E+02  0.11585152078E+03  0.00000000000E+00 0. -1.
        -14    1    4    4    0    0 -0.24115685976E+02 -0.24899119678E+02 -0.72855298371E+02  0.80681019897E+02  0.00000000000E+00 0.  1.
        -11    1    3    3    0    0  0.11638512805E+03  0.34623283849E+02  0.97074131751E+01  0.12181339699E+03  0.00000000000E+00 0.  1.
         11    1    3    3    0    0  0.21382218862E+02  0.25624311197E+02  0.56818844719E+02  0.65895263282E+02  0.00000000000E+00 0. -1.
         21    1    1    2  502  501 -0.79273013846E+01 -0.21487336590E+02  0.21571998248E+01  0.23004374629E+02  0.00000000000E+00 0. -1.
<scales pt_clust_5="13000.00000" pt_clust_6="13000.00000" pt_clust_7="13000.00000" pt_clust_8="13000.00000" pt_clust_9="22.90301"></scales>
<clustering>
<clus scale="   22.903">  1  9  2 -1</clus>
<clus scale="   79.400">  5  6 -1 -1</clus>
<clus scale="   90.549">  7  8 -1 -1</clus>
<clus scale="  159.912">  2  5  1 -1</clus>
<clus scale="  159.912">  2  5  1 -1</clus>
</clustering>
</event>
<event>
 9    1  0.2333971E-005  0.9929433E+02  0.7546771E-02  0.1285813E+00
         -2   -1    0    0    0  501 -0.00000000000E+00  0.00000000000E+00  0.12297108644E+03  0.12297108644E+03  0.00000000000E+00 0.  1.
          1   -1    0    0  502    0  0.00000000000E+00 -0.00000000000E+00 -0.19378081996E+03  0.19378081996E+03  0.00000000000E+00 0. -1.
        -24    2    1    2    0    0 -0.26668405973E+01  0.42471702399E+02  0.63812658555E+02  0.11226012940E+03  0.81971481119E+02 0.  0.
         23    2    1    2    0    0 -0.23548303576E+02 -0.35927425614E+02 -0.14459936990E+03  0.17568897456E+03  0.90068504449E+02 0.  0.
         13    1    3    3    0    0  0.29250485299E+02  0.21871279716E+01 -0.12348644758E+01  0.29358121691E+02  0.00000000000E+00 0. -1.
        -14    1    3    3    0    0 -0.31917325896E+02  0.40284574427E+02  0.65047523031E+02  0.82902007705E+02  0.00000000000E+00 0.  1.
        -13    1    4    4    0    0 -0.53221351097E+02 -0.20682319055E+02 -0.12391266931E+03  0.13643540651E+03  0.00000000000E+00 0. -1.
         13    1    4    4    0    0  0.29673047521E+02 -0.15245106559E+02 -0.20686700586E+02  0.39253568046E+02  0.00000000000E+00 0.  1.
         21    1    1    2  502  501  0.26215144173E+02 -0.65442767852E+01  0.99769778192E+01  0.28802802452E+02  0.00000000000E+00 0.  1.
<scales pt_clust_5="13000.00000" pt_clust_6="13000.00000" pt_clust_7="13000.00000" pt_clust_8="13000.00000" pt_clust_9="27.01965"></scales>
<clustering>
<clus scale="   27.020">  1  9  2 -1</clus>
<clus scale="   81.971">  5  6 -1 -1</clus>
<clus scale="   90.069">  7  8 -1 -1</clus>
<clus scale="   92.013">  1  5  2 -1</clus>
<clus scale="   99.294">  2  5  1 -1</clus>
</clustering>
</event>
<event>
 9    1  0.2333971E-005  0.9563494E+02  0.7546771E-02  0.1302758E+00
         -2   -1    0    0    0  501 -0.00000000000E+00  0.00000000000E+00  0.12188414649E+03  0.12188414649E+03  0.00000000000E+00 0.  1.
          1   -1    0    0  502    0  0.00000000000E+00 -0.00000000000E+00 -0.19825975048E+03  0.19825975048E+03  0.00000000000E+00 0. -1.
        -24    2    1    2    0    0 -0.42773732188E+02  0.49598655916E+02 -0.37803920422E+02  0.10245566894E+03  0.69126036078E+02 0.  0.
         23    2    1    2    0    0  0.54397868242E+01 -0.78990239505E+01 -0.99353613530E+02  0.13506180495E+03  0.90986618657E+02 0.  0.
         13    1    3    3    0    0 -0.49580313585E+02  0.61937752214E+02 -0.24395103998E+02  0.83003697168E+02  0.00000000000E+00 0. -1.
        -14    1    3    3    0    0  0.68065813969E+01 -0.12339096298E+02 -0.13408816424E+02  0.19451971767E+02  0.00000000000E+00 0.  1.
        -13    1    4    4    0    0 -0.12795436490E+01 -0.44258879173E+02 -0.22256244131E+02  0.49556291431E+02  0.00000000000E+00 0.  1.
         13    1    4    4    0    0  0.67193304732E+01  0.36359855222E+02 -0.77097369399E+02  0.85505513518E+02  0.00000000000E+00 0. -1.
         21    1    1    2  502  501  0.37333945364E+02 -0.41699631966E+02  0.60781929960E+02  0.82626423087E+02  0.00000000000E+00 0.  1.
<scales pt_clust_5="13000.00000" pt_clust_6="13000.00000" pt_clust_7="13000.00000" pt_clust_8="13000.00000" pt_clust_9="55.97037"></scales>
<clustering>
<clus scale="   55.970">  1  9  2 -1</clus>
<clus scale="   69.126">  5  6 -1 -1</clus>
<clus scale="   75.139">  1  5  2 -1</clus>
<clus scale="   90.987">  7  8 -1 -1</clus>
<clus scale="   95.635">  2  5  1 -1</clus>
</clustering>
</event>
<event>
 9    1  0.2333971E-005  0.2841492E+03  0.7546771E-02  0.1135063E+00
         -2   -1    0    0    0  501 -0.00000000000E+00  0.00000000000E+00  0.20421070894E+03  0.20421070894E+03  0.00000000000E+00 0.  1.
          1   -1    0    0  502    0  0.00000000000E+00 -0.00000000000E+00 -0.85264035690E+03  0.85264035690E+03  0.00000000000E+00 0. -1.
        -24    2    1    2    0    0 -0.50273176011E+02  0.33231365272E+02  0.49696436338E+02  0.11096432769E+03  0.78813897070E+02 0.  0.
         23    2    1    2    0    0 -0.24268931870E+03 -0.91373582491E+02 -0.54450061977E+03  0.61001723360E+03  0.91612572091E+02 0.  0.
         13    1    3    3    0    0 -0.29667795568E+02 -0.13180006196E+02 -0.86685444082E+01  0.33601105925E+02  0.00000000000E+00 0. -1.
        -14    1    3    3    0    0 -0.20605380443E+02  0.46411371467E+02  0.58364980746E+02  0.77363221767E+02  0.00000000000E+00 0.  1.
        -13    1    4    4    0    0 -0.30203913733E+02  0.18381513342E+02 -0.83382763232E+02  0.90569540364E+02  0.00000000000E+00 0.  1.
         13    1    4    4    0    0 -0.21248540497E+03 -0.10975509583E+03 -0.46111785654E+03  0.51944769323E+03  0.00000000000E+00 0. -1.
         21    1    1    2  502  501  0.29296249472E+03  0.58142217219E+02 -0.15362546453E+03  0.33586950455E+03  0.00000000000E+00 0.  1.
<scales pt_clust_5="13000.00000" pt_clust_6="13000.00000" pt_clust_7="13000.00000" pt_clust_8="13000.00000" pt_clust_9="268.97567"></scales>
<clustering>
<clus scale="   78.814">  5  6 -1 -1</clus>
<clus scale="   91.613">  7  8 -1 -1</clus>
<clus scale="   99.214">  1  5  2 -1</clus>
<clus scale="  268.976">  1  9  2 -1</clus>
<clus scale="  284.149">  2  5  1 -1</clus>
</clustering>
</event>
<event>
 9    1  0.2333971E-005  0.1120911E+03  0.7546771E-02  0.1260437E+00
          1   -1    0    0  502    0  0.00000000000E+00  0.00000000000E+00  0.55319011053E+03  0.55319011053E+03  0.00000000000E+00 0. -1.
         -2   -1    0    0    0  501 -0.00000000000E+00 -0.00000000000E+00 -0.39237466453E+02  0.39237466453E+02  0.00000000000E+00 0.  1.
         23    2    1    2    0    0  0.72522611719E+02 -0.64535919231E+02  0.17838830001E+03  0.22260179056E+03  0.91130442205E+02 0.  0.
        -24    2    1    2    0    0 -0.42755872929E+02  0.32937081812E+02  0.29385149453E+03  0.30962190714E+03  0.81265666287E+02 0.  0.
         13    1    4    4    0    0 -0.11867297707E+02  0.50436005008E+02  0.23699079737E+03  0.24258866707E+03  0.00000000000E+00 0. -1.
        -14    1    4    4    0    0 -0.30888575221E+02 -0.17498923196E+02  0.56860697161E+02  0.67033240067E+02  0.00000000000E+00 0.  1.
        -11    1    3    3    0    0  0.45508834018E+02 -0.21430799954E+02  0.16126283817E+03  0.16892612627E+03  0.00000000000E+00 0. -1.
         11    1    3    3    0    0  0.27013777702E+02 -0.43105119278E+02  0.17125461838E+02  0.53675664288E+02  0.00000000000E+00 0.  1.
         21    1    1    2  502  501 -0.29766738791E+02  0.31598837419E+02  0.41712849540E+02  0.60203879287E+02  0.00000000000E+00 0.  1.
<scales pt_clust_5="13000.00000" pt_clust_6="13000.00000" pt_clust_7="13000.00000" pt_clust_8="13000.00000" pt_clust_9="43.41135"></scales>
<clustering>
<clus scale="   43.411">  2  9  1 -1</clus>
<clus scale="   81.266">  5  6 -1 -1</clus>
<clus scale="   91.130">  7  8 -1 -1</clus>
<clus scale="  104.229">  1  5  2 -1</clus>
<clus scale="  104.229">  1  5  2 -1</clus>
</clustering>
</event>
<event>
 9    1  0.2333971E-005  0.1364846E+03  0.7546771E-02  0.1220472E+00
          1   -1    0    0  502    0  0.00000000000E+00  0.00000000000E+00  0.57534019144E+03  0.57534019144E+03  0.00000000000E+00 0. -1.
         -2   -1    0    0    0  501 -0.00000000000E+00 -0.00000000000E+00 -0.63625152263E+02  0.63625152263E+02  0.00000000000E+00 0.  1.
        -24    2    1    2    0    0 -0.12258282355E+03  0.13449077016E+01  0.90393852900E+02  0.17253542076E+03  0.81049770939E+02 0.  0.
         23    2    1    2    0    0  0.96176160749E+02 -0.61246263912E+01  0.41899643977E+03  0.43949366489E+03  0.91155361851E+02 0.  0.
         13    1    3    3    0    0 -0.62977722038E+02 -0.34617812737E+02  0.69202466865E+02  0.99767569139E+02  0.00000000000E+00 0. -1.
        -14    1    3    3    0    0 -0.59605101515E+02  0.35962720439E+02  0.21191386035E+02  0.72767851624E+02  0.00000000000E+00 0.  1.
        -11    1    4    4    0    0  0.90482124622E+02  0.27036321933E+02  0.25136252202E+03  0.26851647074E+03  0.00000000000E+00 0.  1.
         11    1    4    4    0    0  0.56940361274E+01 -0.33160948324E+02  0.16763391775E+03  0.17097719415E+03  0.00000000000E+00 0. -1.
         21    1    1    2  502  501  0.26406662804E+02  0.47797186896E+01  0.23247465032E+01  0.26936258045E+02  0.00000000000E+00 0. -1.
<scales pt_clust_5="13000.00000" pt_clust_6="13000.00000" pt_clust_7="13000.00000" pt_clust_8="13000.00000" pt_clust_9="26.83575"></scales>
<clustering>
<clus scale="   26.836">  2  9  1 -1</clus>
<clus scale="   81.050">  5  6 -1 -1</clus>
<clus scale="   91.155">  7  8 -1 -1</clus>
<clus scale="  129.953">  2  5  1 -1</clus>
<clus scale="  136.485">  1  5  2 -1</clus>
</clustering>
</event>
<event>
 9    1  0.2333971E-005  0.1192494E+03  0.7546771E-02  0.1250409E+00
         -2   -1    0    0    0  501 -0.00000000000E+00  0.00000000000E+00  0.17740337650E+03  0.17740337650E+03  0.00000000000E+00 0.  1.
          1   -1    0    0  502    0  0.00000000000E+00 -0.00000000000E+00 -0.16180717001E+03  0.16180717001E+03  0.00000000000E+00 0. -1.
         23    2    1    2    0    0  0.20164438149E+02 -0.64773951952E+01  0.61985948994E+02  0.11833929522E+03  0.98556429047E+02 0.  0.
        -24    2    1    2    0    0 -0.72258044387E+02  0.37883358048E+02 -0.89792255554E+02  0.14614604501E+03  0.81484007755E+02 0.  0.
         11    1    4    4    0    0 -0.15225621636E+02  0.47123168461E+02 -0.68597397103E+02  0.84605055696E+02  0.00000000000E+00 0. -1.
        -12    1    4    4    0    0 -0.57032422752E+02 -0.92398104131E+01 -0.21194858451E+02  0.61540989317E+02  0.00000000000E+00 0.  1.
        -13    1    3    3    0    0 -0.36567808974E+02  0.90970259813E+01  0.41470639354E+02  0.56033690431E+02  0.00000000000E+00 0. -1.
         13    1    3    3    0    0  0.56732247124E+02 -0.15574421176E+02  0.20515309640E+02  0.62305604791E+02  0.00000000000E+00 0.  1.
         21    1    1    2  502  501  0.52093606238E+02 -0.31405962852E+02  0.43402513054E+02  0.74725206275E+02  0.00000000000E+00 0.  1.
<scales pt_clust_5="13000.00000" pt_clust_6="13000.00000" pt_clust_7="13000.00000" pt_clust_8="13000.00000" pt_clust_9="60.82827"></scales>
<clustering>
<clus scale="   60.828">  1  9  2 -1</clus>
<clus scale="   81.484">  5  6 -1 -1</clus>
<clus scale="   98.556">  7  8 -1 -1</clus>
<clus scale="  105.578">  2  5  1 -1</clus>
<clus scale="  105.578">  2  5  1 -1</clus>
</clustering>
</event>
<event>
 9    1  0.2333971E-005  0.1350264E+03  0.7546771E-02  0.1231790E+00
          1   -1    0    0  502    0  0.00000000000E+00  0.00000000000E+00  0.63375908323E+03  0.63375908323E+03  0.00000000000E+00 0. -1.
         -2   -1    0    0    0  501 -0.00000000000E+00 -0.00000000000E+00 -0.60624938230E+02  0.60624938230E+02  0.00000000000E+00 0.  1.
        -24    2    1    2    0    0  0.12293424589E+02 -0.90839114268E+02  0.10367783352E+03  0.15991074140E+03  0.80121651772E+02 0.  0.
         23    2    1    2    0    0 -0.29215602459E+02 -0.45655119134E+02  0.28705558371E+03  0.30602840411E+03  0.91184070172E+02 0.  0.
         11    1    3    3    0    0  0.24430984532E+02  0.12705502661E+01  0.41316157142E+02  0.48015748918E+02  0.00000000000E+00 0. -1.
        -12    1    3    3    0    0 -0.12137559943E+02 -0.92109664534E+02  0.62361676379E+02  0.11189499248E+03  0.00000000000E+00 0.  1.
        -13    1    4    4    0    0  0.27558040564E+02  0.72231701105E+01  0.78310699270E+02  0.83331779090E+02  0.00000000000E+00 0. -1.
         13    1    4    4    0    0 -0.56773643023E+02 -0.52878289245E+02  0.20874488444E+03  0.22269662502E+03  0.00000000000E+00 0.  1.
         21    1    1    2  502  501  0.16922177870E+02  0.13649423340E+03  0.18240072777E+03  0.22844487594E+03  0.00000000000E+00 0. -1.
<scales pt_clust_5="13000.00000" pt_clust_6="13000.00000" pt_clust_7="13000.00000" pt_clust_8="13000.00000" pt_clust_9="108.68599"></scales>
<clustering>
<clus scale="   80.122">  5  6 -1 -1</clus>
<clus scale="   91.184">  7  8 -1 -1</clus>
<clus scale="  106.078">  1  7  2 -1</clus>
<clus scale="  108.686">  1  9  2 -1</clus>
<clus scale="  106.078">  1  5  2 -1</clus>
</clustering>
</event>
<event>
 9    1  0.2333971E-005  0.1204816E+03  0.7546771E-02  0.1247114E+00
          1   -1    0    0  502    0  0.00000000000E+00  0.00000000000E+00  0.46398987411E+03  0.46398987411E+03  0.00000000000E+00 0. -1.
         -2   -1    0    0    0  501 -0.00000000000E+00 -0.00000000000E+00 -0.62618192917E+02  0.62618192917E+02  0.00000000000E+00 0.  1.
        -24    2    1    2    0    0  0.98169261739E+02 -0.31347665865E+02  0.63257427069E+02  0.14189106160E+03  0.74240764934E+02 0.  0.
         23    2    1    2    0    0 -0.64237371255E+02  0.38640857351E+02  0.32848395394E+03  0.34869886395E+03  0.89831141580E+02 0.  0.
         13    1    3    3    0    0  0.31424988771E+02  0.91733037742E+01  0.54154933159E+02  0.63280614780E+02  0.00000000000E+00 0. -1.
        -14    1    3    3    0    0  0.66744272968E+02 -0.40520969639E+02  0.91024939104E+01  0.78610446824E+02  0.00000000000E+00 0.  1.
        -13    1    4    4    0    0 -0.33388744305E+02  0.60065666221E+02  0.13370774330E+03  0.15033447084E+03  0.00000000000E+00 0.  1.
         13    1    4    4    0    0 -0.30848626950E+02 -0.21424808870E+02  0.19477621064E+03  0.19836439310E+03  0.00000000000E+00 0. -1.
         21    1    1    2  502  501 -0.33931890484E+02 -0.72931914865E+01  0.96303001816E+01  0.36018141477E+02  0.00000000000E+00 0. -1.
<scales pt_clust_5="13000.00000" pt_clust_6="13000.00000" pt_clust_7="13000.00000" pt_clust_8="13000.00000" pt_clust_9="34.70683"></scales>
<clustering>
<clus scale="   34.707">  2  9  1 -1</clus>
<clus scale="   74.241">  5  6 -1 -1</clus>
<clus scale="   89.831">  7  8 -1 -1</clus>
<clus scale="  109.352">  2  5  1 -1</clus>
<clus scale="  120.482">  1  5  2 -1</clus>
</clustering>
</event>
<event>
 9    1  0.2333971E-005  0.9788012E+02  0.7546771E-02  0.1290136E+00
         -2   -1    0    0    0  501 -0.00000000000E+00  0.00000000000E+00  0.13947189439E+03  0.13947189439E+03  0.00000000000E+00 0.  1.
          1   -1    0    0  502    0  0.00000000000E+00 -0.00000000000E+00 -0.13632688473E+03  0.13632688473E+03  0.00000000000E+00 0. -1.
        -24    2    1    2    0    0  0.38554245324E+01  0.36570477233E+02  0.61891096287E+02  0.10856480702E+03  0.81262201669E+02 0.  0.
         23    2    1    2    0    0  0.38577033091E+02 -0.15992892116E+02 -0.65061325273E+02  0.11965422107E+03  0.91324676253E+02 0.  0.
         13    1    3    3    0    0 -0.18546648517E+02  0.56129994345E+02  0.45577300194E+02  0.74644790370E+02  0.00000000000E+00 0. -1.
        -14    1    3    3    0    0  0.22402073050E+02 -0.19559517111E+02  0.16313796093E+02  0.33920016650E+02  0.00000000000E+00 0.  1.
        -13    1    4    4    0    0  0.66699902998E+02 -0.20809845547E+02 -0.34781068994E+02  0.78049019801E+02  0.00000000000E+00 0.  1.
         13    1    4    4    0    0 -0.28122869906E+02  0.48169534312E+01 -0.30280256279E+02  0.41605201267E+02  0.00000000000E+00 0. -1.
         21    1    1    2  502  501 -0.42432457624E+02 -0.20577585118E+02  0.63152386372E+01  0.47579751033E+02  0.00000000000E+00 0. -1.
<scales pt_clust_5="13000.00000" pt_clust_6="13000.00000" pt_clust_7="13000.00000" pt_clust_8="13000.00000" pt_clust_9="47.15878"></scales>
<clustering>
<clus scale="   47.159">  1  9  2 -1</clus>
<clus scale="   81.262">  5  6 -1 -1</clus>
<clus scale="   88.566">  1  5  2 -1</clus>
<clus scale="   91.325">  7  8 -1 -1</clus>
<clus scale="   97.880">  2  5  1 -1</clus>
</clustering>
</event>
<event>
 9    1  0.2333971E-005  0.1745441E+03  0.7546771E-02  0.1175069E+00
         -2   -1    0    0    0  501 -0.00000000000E+00  0.00000000000E+00  0.73720493253E+02  0.73720493253E+02  0.00000000000E+00 0.  1.
          1   -1    0    0  502    0  0.00000000000E+00 -0.00000000000E+00 -0.76556318127E+03  0.76556318127E+03  0.00000000000E+00 0. -1.
        -24    2    1    2    0    0 -0.10259950455E+03  0.76611853802E+02 -0.50258644920E+02  0.15877586211E+03  0.79295703041E+02 0.  0.
         23    2    1    2    0    0  0.10330662826E+03 -0.11193385250E+03 -0.59926970164E+03  0.62538388740E+03  0.93698370036E+02 0.  0.
         13    1    3    3    0    0 -0.38746094010E+02 -0.55090786358E+01  0.74167303842E+01  0.39832369224E+02  0.00000000000E+00 0. -1.
        -14    1    3    3    0    0 -0.63853410544E+02  0.82120932438E+02 -0.57675375304E+02  0.11894349288E+03  0.00000000000E+00 0.  1.
        -13    1    4    4    0    0  0.28015280462E+02 -0.78765343954E+02 -0.18483401346E+03  0.20286066124E+03  0.00000000000E+00 0.  1.
         13    1    4    4    0    0  0.75291347794E+02 -0.33168508541E+02 -0.41443568818E+03  0.42252322616E+03  0.00000000000E+00 0. -1.
         21    1    1    2  502  501 -0.70712370224E+00  0.35321998694E+02 -0.42314341455E+02  0.55123925009E+02  0.00000000000E+00 0. -1.
<scales pt_clust_5="13000.00000" pt_clust_6="13000.00000" pt_clust_7="13000.00000" pt_clust_8="13000.00000" pt_clust_9="35.32908"></scales>
<clustering>
<clus scale="   35.329">  1  9  2 -1</clus>
<clus scale="   79.296">  5  6 -1 -1</clus>
<clus scale="   93.698">  7  8 -1 -1</clus>
<clus scale="  167.255">  1  5  2 -1</clus>
<clus scale="  174.544">  2  5  1 -1</clus>
</clustering>
</event>
<event>
 9    1  0.2333971E-005  0.2004578E+03  0.7546771E-02  0.1150233E+00
          1   -1    0    0  502    0  0.00000000000E+00  0.00000000000E+00  0.10208719556E+04  0.10208719556E+04  0.00000000000E+00 0. -1.
         -2   -1    0    0    0  501 -0.00000000000E+00 -0.00000000000E+00 -0.44354894765E+02  0.44354894765E+02  0.00000000000E+00 0.  1.
         23    2    1    2    0    0  0.16959438880E+03 -0.82598693408E+02  0.47156919528E+03  0.51605134928E+03  0.91360211771E+02 0.  0.
        -24    2    1    2    0    0 -0.14956248047E+03  0.81608862050E+02  0.48645992347E+03  0.52189801733E+03  0.81886149135E+02 0.  0.
         13    1    4    4    0    0 -0.11670969724E+03  0.53958265670E+02  0.44100894029E+03  0.45937080151E+03  0.00000000000E+00 0. -1.
        -14    1    4    4    0    0 -0.32852783229E+02  0.27650596380E+02  0.45450983179E+02  0.62527215819E+02  0.00000000000E+00 0.  1.
        -13    1    3    3    0    0  0.13426635053E+03 -0.85692209582E+02  0.28822346191E+03  0.32930741209E+03  0.00000000000E+00 0. -1.
         13    1    3    3    0    0  0.35328038272E+02  0.30935161746E+01  0.18334573337E+03  0.18674393719E+03  0.00000000000E+00 0.  1.
         21    1    1    2  502  501 -0.20031908324E+02  0.98983135754E+00  0.18487942077E+02  0.27277483744E+02  0.00000000000E+00 0. -1.
<scales pt_clust_5="13000.00000" pt_clust_6="13000.00000" pt_clust_7="13000.00000" pt_clust_8="13000.00000" pt_clust_9="20.05635"></scales>
<clustering>
<clus scale="   20.056">  2  9  1 -1</clus>
<clus scale="   81.886">  5  6 -1 -1</clus>
<clus scale="   91.360">  7  8 -1 -1</clus>
<clus scale="  196.321">  1  5  2 -1</clus>
<clus scale="  196.321">  1  5  2 -1</clus>
</clustering>
</event>
<event>
 9    1  0.2333971E-005  0.1227700E+03  0.7546771E-02  0.1242407E+00
         -2   -1    0    0    0  501 -0.00000000000E+00  0.00000000000E+00  0.62391705805E+02  0.62391705805E+02  0.00000000000E+00 0.  1.
          1   -1    0    0  502    0  0.00000000000E+00 -0.00000000000E+00 -0.53040953913E+03  0.53040953913E+03  0.00000000000E+00 0. -1.
        -24    2    1    2    0    0  0.43524579161E+01  0.89181464505E+02 -0.31264303076E+02  0.12399216257E+03  0.80151869794E+02 0.  0.
         23    2    1    2    0    0 -0.28511009533E+02 -0.74315482384E+02 -0.41626916969E+03  0.43381991163E+03  0.92650016263E+02 0.  0.
         13    1    3    3    0    0  0.24074948526E+02 -0.18543684945E+01 -0.17527120910E+02  0.29836920023E+02  0.00000000000E+00 0. -1.
        -14    1    3    3    0    0 -0.19722490610E+02  0.91035832999E+02 -0.13737182165E+02  0.94155242550E+02  0.00000000000E+00 0.  1.
        -13    1    4    4    0    0 -0.54348375089E+02 -0.64088609708E+02 -0.37335695182E+03  0.38269636691E+03  0.00000000000E+00 0. -1.
         13    1    4    4    0    0  0.25837365557E+02 -0.10226872676E+02 -0.42912217861E+02  0.51123544727E+02  0.00000000000E+00 0.  1.
         21    1    1    2  502  501  0.24158551616E+02 -0.14865982120E+02 -0.20484360568E+02  0.34989170732E+02  0.00000000000E+00 0. -1.
<scales pt_clust_5="13000.00000" pt_clust_6="13000.00000" pt_clust_7="13000.00000" pt_clust_8="13000.00000" pt_clust_9="28.36605"></scales>
<clustering>
<clus scale="   28.366">  1  9  2 -1</clus>
<clus scale="   80.152">  5  6 -1 -1</clus>
<clus scale="   92.650">  7  8 -1 -1</clus>
<clus scale="  113.634">  1  5  2 -1</clus>
<clus scale="  122.770">  2  5  1 -1</clus>
</clustering>
</event>
<event>
 9    1  0.2333971E-005  0.1131855E+03  0.7546771E-02  0.1258223E+00
          1   -1    0    0  502    0  0.00000000000E+00  0.00000000000E+00  0.14452015320E+03  0.14452015320E+03  0.00000000000E+00 0. -1.
         -2   -1    0    0    0  501 -0.00000000000E+00 -0.00000000000E+00 -0.20878847031E+03  0.20878847031E+03  0.00000000000E+00 0.  1.
         23    2    1    2    0    0 -0.57155272436E+02 -0.23753573224E+02 -0.37317265735E+02  0.11604335403E+03  0.90788348842E+02 0.  0.
        -24    2    1    2    0    0  0.51116884801E+02  0.49063171985E+02  0.75437922292E+02  0.13162181325E+03  0.81322142419E+02 0.  0.
         13    1    4    4    0    0  0.25358962146E+02  0.52569466517E+02  0.85688695841E+02  0.10367824442E+03  0.00000000000E+00 0. -1.
        -14    1    4    4    0    0  0.25757922656E+02 -0.35062945323E+01 -0.10250773549E+02  0.27943568835E+02  0.00000000000E+00 0.  1.
        -13    1    3    3    0    0 -0.30048189026E+02 -0.55761017204E+02 -0.58565123611E+01  0.63611975605E+02  0.00000000000E+00 0.  1.
         13    1    3    3    0    0 -0.27107083411E+02  0.32007443980E+02 -0.31460753373E+02  0.52431378429E+02  0.00000000000E+00 0. -1.
         21    1    1    2  502  501  0.60383876352E+01 -0.25309598761E+02 -0.10238897366E+03  0.10564345622E+03  0.00000000000E+00 0.  1.
<scales pt_clust_5="13000.00000" pt_clust_6="13000.00000" pt_clust_7="13000.00000" pt_clust_8="13000.00000" pt_clust_9="26.01995"></scales>
<clustering>
<clus scale="   26.020">  2  9  1 -1</clus>
<clus scale="   81.322">  5  6 -1 -1</clus>
<clus scale="   90.788">  7  8 -1 -1</clus>
<clus scale="  105.744">  1  5  2 -1</clus>
<clus scale="  105.744">  1  5  2 -1</clus>
</clustering>
</event>
<event>
 9    1  0.2333971E-005  0.9677878E+02  0.7546771E-02  0.1293367E+00
          1   -1    0    0  502    0  0.00000000000E+00  0.00000000000E+00  0.15061336597E+03  0.15061336597E+03  0.00000000000E+00 0. -1.
         -2   -1    0    0    0  501 -0.00000000000E+00 -0.00000000000E+00 -0.16461817320E+03  0.16461817320E+03  0.00000000000E+00 0.  1.
        -24    2    1    2    0    0  0.14164429793E+02  0.18753720485E+02 -0.56543096478E+02  0.10100336759E+03  0.80325745573E+02 0.  0.
         23    2    1    2    0    0  0.93002882076E+01 -0.34083722863E+02  0.10625168620E+03  0.14462214516E+03  0.91531134186E+02 0.  0.
         13    1    3    3    0    0  0.32422558854E+02  0.37536162249E+02 -0.55994251637E+02  0.74803355643E+02  0.00000000000E+00 0. -1.
        -14    1    3    3    0    0 -0.18258129061E+02 -0.18782441763E+02 -0.54884484055E+00  0.26200011948E+02  0.00000000000E+00 0.  1.
        -13    1    4    4    0    0 -0.11754903890E+02 -0.56518527068E+02  0.36272399087E+02  0.68177772059E+02  0.00000000000E+00 0.  1.
         13    1    4    4    0    0  0.21055192097E+02  0.22434804205E+02  0.69979287113E+02  0.76444373101E+02  0.00000000000E+00 0. -1.
         21    1    1    2  502  501 -0.23464718001E+02  0.15330002378E+02 -0.63713396946E+02  0.69606026421E+02  0.00000000000E+00 0.  1.
<scales pt_clust_5="13000.00000" pt_clust_6="13000.00000" pt_clust_7="13000.00000" pt_clust_8="13000.00000" pt_clust_9="28.02859"></scales>
<clustering>
<clus scale="   28.029">  2  9  1 -1</clus>
<clus scale="   80.326">  5  6 -1 -1</clus>
<clus scale="   86.258">  2  5  1 -1</clus>
<clus scale="   91.531">  7  8 -1 -1</clus>
<clus scale="   96.779">  1  5  2 -1</clus>
</clustering>
</event>
<event>
 9    1  0.2333971E-005  0.1074604E+03  0.7546771E-02  0.1270043E+00
         -2   -1    0    0    0  501 -0.00000000000E+00  0.00000000000E+00  0.54753733688E+03  0.54753733688E+03  0.00000000000E+00 0.  1.
          1   -1    0    0  502    0  0.00000000000E+00 -0.00000000000E+00 -0.37069018918E+02  0.37069018918E+02  0.00000000000E+00 0. -1.
         23    2    1    2    0    0 -0.56018356705E+02  0.53751541015E+02  0.30796279522E+03  0.33030669608E+03  0.90742194092E+02 0.  0.
        -24    2    1    2    0    0  0.44085773366E+02 -0.27713506403E+02  0.68083798536E+02  0.11686034318E+03  0.79431368703E+02 0.  0.
         11    1    4    4    0    0  0.37215263453E+02  0.22591023085E+02  0.38383177241E+02  0.58039628299E+02  0.00000000000E+00 0. -1.
        -12    1    4    4    0    0  0.68705099131E+01 -0.50304529489E+02  0.29700621295E+02  0.58820714878E+02  0.00000000000E+00 0.  1.
        -13    1    3    3    0    0  0.17486902020E+02  0.29826810200E+02  0.48421793483E+02  0.59498743122E+02  0.00000000000E+00 0. -1.
         13    1    3    3    0    0 -0.73505258725E+02  0.23924730815E+02  0.25954100173E+03  0.27080795296E+03  0.00000000000E+00 0.  1.
         21    1    1    2  502  501  0.11932583339E+02 -0.26038034611E+02  0.13442172421E+03  0.13743931654E+03  0.00000000000E+00 0. -1.
<scales pt_clust_5="13000.00000" pt_clust_6="13000.00000" pt_clust_7="13000.00000" pt_clust_8="13000.00000" pt_clust_9="28.64203"></scales>
<clustering>
<clus scale="   28.642">  1  9  2 -1</clus>
<clus scale="   79.431">  5  6 -1 -1</clus>
<clus scale="   90.742">  7  8 -1 -1</clus>
<clus scale="   98.097">  2  5  1 -1</clus>
<clus scale="   98.097">  2  5  1 -1</clus>
</clustering>
</event>
<event>
 9    1  0.2333971E-005  0.1146051E+03  0.7546771E-02  0.1257603E+00
          3   -1    0    0  502    0  0.00000000000E+00  0.00000000000E+00  0.16426887826E+03  0.16426887826E+03  0.00000000000E+00 0. -1.
         -4   -1    0    0    0  501 -0.00000000000E+00 -0.00000000000E+00 -0.32010012086E+03  0.32010012086E+03  0.00000000000E+00 0.  1.
        -24    2    1    2    0    0 -0.23897327393E+02 -0.60399765155E+02 -0.24193849108E+03  0.26227004138E+03  0.77666770566E+02 0.  0.
         23    2    1    2    0    0 -0.66233657586E+01  0.95928631286E+02  0.11275192710E+02  0.13381730841E+03  0.92378410818E+02 0.  0.
         13    1    3    3    0    0 -0.30176607136E+02 -0.58209125603E+02 -0.24592567849E+03  0.25451595090E+03  0.00000000000E+00 0. -1.
        -14    1    3    3    0    0  0.62792797430E+01 -0.21906395526E+01  0.39871874071E+01  0.77540904792E+01  0.00000000000E+00 0.  1.
        -11    1    4    4    0    0 -0.30725301420E+02  0.10160762246E+03 -0.10516614413E+01  0.10615676654E+03  0.00000000000E+00 0.  1.
         11    1    4    4    0    0  0.24101935661E+02 -0.56789911776E+01  0.12326854151E+02  0.27660541873E+02  0.00000000000E+00 0. -1.
         21    1    1    2  502  501  0.30520693151E+02 -0.35528866131E+02  0.74832055772E+02  0.88281649339E+02  0.00000000000E+00 0. -1.
<scales pt_clust_5="13000.00000" pt_clust_6="13000.00000" pt_clust_7="13000.00000" pt_clust_8="13000.00000" pt_clust_9="46.83816"></scales>
<clustering>
<clus scale="   46.838">  1  9  2 -1</clus>
<clus scale="   77.667">  5  6 -1 -1</clus>
<clus scale="   92.378">  7  8 -1 -1</clus>
<clus scale="  103.115">  2  5  1 -1</clus>
<clus scale="   46.838">  1  5  2 -1</clus>
</clustering>
</event>
<event>
 9    1  0.2333971E-005  0.9205343E+02  0.7546771E-02  0.1305456E+00
          1   -1    0    0  502    0  0.00000000000E+00  0.00000000000E+00  0.23559918213E+03  0.23559918213E+03  0.00000000000E+00 0. -1.
         -2   -1    0    0    0  501 -0.00000000000E+00 -0.00000000000E+00 -0.69592345602E+02  0.69592345602E+02  0.00000000000E+00 0.  1.
        -24    2    1    2    0    0 -0.11077610244E+02  0.32567878069E+02 -0.20545680058E+01  0.87012819816E+02  0.79897618437E+02 0.  0.
         23    2    1    2    0    0 -0.63954406935E+00  0.70193545810E+00  0.15580189041E+03  0.18083613323E+03  0.91796384991E+02 0.  0.
         11    1    3    3    0    0 -0.39495326882E+02  0.33447591832E+02  0.14966397754E+02  0.53875925112E+02  0.00000000000E+00 0. -1.
        -12    1    3    3    0    0  0.28417716638E+02 -0.87971376255E+00 -0.17020965760E+02  0.33136894704E+02  0.00000000000E+00 0.  1.
        -13    1    4    4    0    0 -0.15740645451E+02 -0.42288049727E+02  0.91570361652E+02  0.10208417214E+03  0.00000000000E+00 0.  1.
         13    1    4    4    0    0  0.15101101381E+02  0.42989985185E+02  0.64231528756E+02  0.78751961090E+02  0.00000000000E+00 0. -1.
         21    1    1    2  502  501  0.11717154314E+02 -0.33269813527E+02  0.12259514123E+02  0.37342574682E+02  0.00000000000E+00 0.  1.
<scales pt_clust_5="13000.00000" pt_clust_6="13000.00000" pt_clust_7="13000.00000" pt_clust_8="13000.00000" pt_clust_9="35.27283"></scales>
<clustering>
<clus scale="   35.273">  2  9  1 -1</clus>
<clus scale="   79.898">  5  6 -1 -1</clus>
<clus scale="   80.193">  2  5  1 -1</clus>
<clus scale="   91.796">  7  8 -1 -1</clus>
<clus scale="   92.053">  1  5  2 -1</clus>
</clustering>
</event>
<event>
 9    1  0.5797848E-005  0.9524525E+02  0.7546771E-02  0.1296226E+00
          1   -1    0    0  502    0  0.00000000000E+00  0.00000000000E+00  0.21196892012E+03  0.21196892012E+03  0.00000000000E+00 0. -1.
         -2   -1    0    0    0  501 -0.00000000000E+00 -0.00000000000E+00 -0.72052572530E+03  0.72052572530E+03  0.00000000000E+00 0.  1.
        -24    2    1    2    0    0  0.36598191522E+02 -0.24759454768E+02 -0.60583225926E+03  0.61274254662E+03  0.80425393133E+02 0.  0.
         23    2    1    2    0    0  0.43388730638E+01  0.29785272298E+02  0.19314977191E+03  0.21538262569E+03  0.90425951996E+02 0.  0.
         11    1    3    3    0    0  0.17042831348E+02  0.28915474510E+02 -0.18088239951E+03  0.18397012045E+03  0.00000000000E+00 0. -1.
        -12    1    3    3    0    0  0.19555360174E+02 -0.53674929278E+02 -0.42494985974E+03  0.42877242617E+03  0.00000000000E+00 0.  1.
        -11    1    4    4    0    0  0.20902310835E+02 -0.26461486628E+02  0.46456541245E+02  0.57404939659E+02  0.00000000000E+00 0.  1.
         11    1    4    4    0    0 -0.16563437771E+02  0.56246758926E+02  0.14669323066E+03  0.15797768603E+03  0.00000000000E+00 0. -1.
         21    1    1    2  502  501 -0.40937064586E+02 -0.50258175293E+01 -0.95874317833E+02  0.10436947312E+03  0.00000000000E+00 0.  1.
<scales pt_clust_5="13000.00000" pt_clust_6="13000.00000" pt_clust_7="13000.00000" pt_clust_8="13000.00000" pt_clust_9="41.24442"></scales>
<clustering>
<clus scale="   41.244">  2  9  1 -1</clus>
<clus scale="   80.425">  5  6 -1 -1</clus>
<clus scale="   85.808">  2  5  1 -1</clus>
<clus scale="   90.426">  7  8 -1 -1</clus>
<clus scale="   95.245">  1  5  2 -1</clus>
</clustering>
</event>
<event>
 9    1  0.2333971E-005  0.9924736E+02  0.7546771E-02  0.1287973E+00
         -2   -1    0    0    0  501 -0.00000000000E+00  0.00000000000E+00  0.13715937954E+03  0.13715937954E+03  0.00000000000E+00 0.  1.
          1   -1    0    0  502    0  0.00000000000E+00 -0.00000000000E+00 -0.10286065122E+03  0.10286065122E+03  0.00000000000E+00 0. -1.
        -24    2    1    2    0    0  0.19007645900E+02 -0.81062760199E+01  0.61444275277E+02  0.10271468498E+03  0.79673742425E+02 0.  0.
         23    2    1    2    0    0 -0.43772839412E+02  0.14790690758E+02 -0.38186566593E+02  0.10937865023E+03  0.91491252337E+02 0.  0.
         13    1    3    3    0    0 -0.29014642410E+02 -0.13984375548E+02  0.35053501063E+02  0.47604203285E+02  0.00000000000E+00 0. -1.
        -14    1    3    3    0    0  0.48022288310E+02  0.58780995286E+01  0.26390774214E+02  0.55110481691E+02  0.00000000000E+00 0.  1.
        -11    1    4    4    0    0 -0.59646624072E+02 -0.20586617227E+02 -0.29438503815E+02  0.69628687183E+02  0.00000000000E+00 0. -1.
         11    1    4    4    0    0  0.15873784660E+02  0.35377307984E+02 -0.87480627782E+01  0.39749963044E+02  0.00000000000E+00 0.  1.
         21    1    1    2  502  501  0.24765193512E+02 -0.66844147377E+01  0.11041019635E+02  0.27926695556E+02  0.00000000000E+00 0.  1.
<scales pt_clust_5="13000.00000" pt_clust_6="13000.00000" pt_clust_7="13000.00000" pt_clust_8="13000.00000" pt_clust_9="25.65144"></scales>
<clustering>
<clus scale="   25.651">  1  9  2 -1</clus>
<clus scale="   79.674">  5  6 -1 -1</clus>
<clus scale="   88.472">  1  5  2 -1</clus>
<clus scale="   91.491">  7  8 -1 -1</clus>
<clus scale="   99.247">  2  5  1 -1</clus>
</clustering>
</event>
<event>
 9    1  0.2333971E-005  0.2868314E+03  0.7546771E-02  0.1093536E+00
          1   -1    0    0  502    0  0.00000000000E+00  0.00000000000E+00  0.10936788114E+04  0.10936788114E+04  0.00000000000E+00 0. -1.
         -2   -1    0    0    0  501 -0.00000000000E+00 -0.00000000000E+00 -0.10340162020E+03  0.10340162020E+03  0.00000000000E+00 0.  1.
         23    2    1    2    0    0  0.16408140645E+03  0.18967170101E+03  0.32800410414E+03  0.42674713450E+03  0.10783488471E+03 0.  0.
        -24    2    1    2    0    0 -0.18711281245E+03 -0.20081644647E+03  0.68151892094E+03  0.73831684610E+03  0.72837324818E+02 0.  0.
         11    1    4    4    0    0 -0.16843055069E+03 -0.17788485079E+03  0.52917154915E+03  0.58312468562E+03  0.00000000000E+00 0. -1.
        -12    1    4    4    0    0 -0.18682261755E+02 -0.22931595675E+02  0.15234737179E+03  0.15519216049E+03  0.00000000000E+00 0.  1.
        -13    1    3    3    0    0 -0.15993787238E+02  0.18475332684E+02  0.26279403105E+02  0.35885180444E+02  0.00000000000E+00 0.  1.
         13    1    3    3    0    0  0.18007519369E+03  0.17119636833E+03  0.30172470104E+03  0.39086195405E+03  0.00000000000E+00 0. -1.
         21    1    1    2  502  501  0.23031405997E+02  0.11144745457E+02 -0.19245833875E+02  0.32016451007E+02  0.00000000000E+00 0.  1.
<scales pt_clust_5="13000.00000" pt_clust_6="13000.00000" pt_clust_7="13000.00000" pt_clust_8="13000.00000" pt_clust_9="25.58615"></scales>
<clustering>
<clus scale="   25.586">  2  9  1 -1</clus>
<clus scale="   72.837">  5  6 -1 -1</clus>
<clus scale="  107.835">  7  8 -1 -1</clus>
<clus scale="  275.589">  1  5  2 -1</clus>
<clus scale="  275.589">  1  5  2 -1</clus>
</clustering>
</event>
<event>
 9    1  0.2333971E-005  0.1374311E+03  0.7546771E-02  0.1219349E+00
         -2   -1    0    0    0  501 -0.00000000000E+00  0.00000000000E+00  0.54661036883E+02  0.54661036883E+02  0.00000000000E+00 0.  1.
          1   -1    0    0  502    0  0.00000000000E+00 -0.00000000000E+00 -0.64899476554E+03  0.64899476554E+03  0.00000000000E+00 0. -1.
        -24    2    1    2    0    0 -0.39655730510E+02  0.11256918165E+03 -0.13032949721E+03  0.19379650596E+03  0.79541877398E+02 0.  0.
         23    2    1    2    0    0  0.27802347026E+02 -0.94503241552E+02 -0.46894679711E+03  0.48769378617E+03  0.90720986477E+02 0.  0.
         13    1    3    3    0    0 -0.38885971441E+02  0.44910426837E+02 -0.16975907501E+02  0.61783870461E+02  0.00000000000E+00 0. -1.
        -14    1    3    3    0    0 -0.76975906844E+00  0.67658754813E+02 -0.11335358971E+03  0.13201263550E+03  0.00000000000E+00 0.  1.
        -13    1    4    4    0    0  0.15284684290E+02  0.15555810914E+02 -0.54542473636E+02  0.58740839774E+02  0.00000000000E+00 0. -1.
         13    1    4    4    0    0  0.12517662736E+02 -0.11005905247E+03 -0.41440432347E+03  0.42895294639E+03  0.00000000000E+00 0.  1.
         21    1    1    2  502  501  0.11853383484E+02 -0.18065940097E+02  0.49425656529E+01  0.22165510300E+02  0.00000000000E+00 0. -1.
<scales pt_clust_5="13000.00000" pt_clust_6="13000.00000" pt_clust_7="13000.00000" pt_clust_8="13000.00000" pt_clust_9="21.60743"></scales>
<clustering>
<clus scale="   21.607">  1  9  2 -1</clus>
<clus scale="   79.542">  5  6 -1 -1</clus>
<clus scale="   90.721">  7  8 -1 -1</clus>
<clus scale="  130.322">  1  5  2 -1</clus>
<clus scale="  137.431">  2  5  1 -1</clus>
</clustering>
</event>
<event>
 9    1  0.2333971E-005  0.9576504E+02  0.7546771E-02  0.1296237E+00
         -2   -1    0    0    0  501 -0.00000000000E+00  0.00000000000E+00  0.18379568214E+03  0.18379568214E+03  0.00000000000E+00 0.  1.
          1   -1    0    0  502    0  0.00000000000E+00 -0.00000000000E+00 -0.12077677714E+03  0.12077677714E+03  0.00000000000E+00 0. -1.
        -24    2    1    2    0    0  0.12997488311E+02  0.36269850814E+02  0.51377471012E+02  0.10027484592E+03  0.77012748398E+02 0.  0.
         23    2    1    2    0    0 -0.30088129986E+02 -0.18481019221E+02 -0.70104291351E+02  0.11891086865E+03  0.89321550479E+02 0.  0.
         13    1    3    3    0    0 -0.33724970938E-02  0.54842913953E+02  0.14069901087E+02  0.56618966246E+02  0.00000000000E+00 0. -1.
        -14    1    3    3    0    0  0.13000860808E+02 -0.18573063139E+02  0.37307569925E+02  0.43655879671E+02  0.00000000000E+00 0.  1.
        -13    1    4    4    0    0 -0.41825309977E+02 -0.48109787301E+02 -0.41332446997E+02  0.75975518186E+02  0.00000000000E+00 0.  1.
         13    1    4    4    0    0  0.11737179991E+02  0.29628768080E+02 -0.28771844354E+02  0.42935350465E+02  0.00000000000E+00 0. -1.
         21    1    1    2  502  501  0.17090641676E+02 -0.17788831593E+02  0.81745725336E+02  0.85386744715E+02  0.00000000000E+00 0.  1.
<scales pt_clust_5="13000.00000" pt_clust_6="13000.00000" pt_clust_7="13000.00000" pt_clust_8="13000.00000" pt_clust_9="24.66845"></scales>
<clustering>
<clus scale="   24.668">  1  9  2 -1</clus>
<clus scale="   77.013">  5  6 -1 -1</clus>
<clus scale="   84.401">  1  5  2 -1</clus>
<clus scale="   89.322">  7  8 -1 -1</clus>
<clus scale="   95.765">  2  5  1 -1</clus>
</clustering>
</event>
<event>
 9    1  0.2333971E-005  0.9086129E+02  0.7546771E-02  0.1313375E+00
          1   -1    0    0  502    0  0.00000000000E+00  0.00000000000E+00  0.17417612783E+03  0.17417612783E+03  0.00000000000E+00 0. -1.
         -2   -1    0    0    0  501 -0.00000000000E+00 -0.00000000000E+00 -0.81641915372E+02  0.81641915372E+02  0.00000000000E+00 0.  1.
        -24    2    1    2    0    0 -0.18017215619E+02 -0.16540479768E+01 -0.17853328881E+02  0.76234357374E+02  0.71871969214E+02 0.  0.
         23    2    1    2    0    0 -0.15630106009E+02 -0.22727473364E+01  0.11290795603E+03  0.14561436931E+03  0.90586270597E+02 0.  0.
         13    1    3    3    0    0  0.34175221207E+01 -0.32335239176E+02 -0.20948930528E+02  0.38679514478E+02  0.00000000000E+00 0. -1.
        -14    1    3    3    0    0 -0.21434737740E+02  0.30681191199E+02  0.30956016473E+01  0.37554842896E+02  0.00000000000E+00 0.  1.
        -13    1    4    4    0    0  0.97021760842E+01 -0.37449662524E+02  0.21051275225E+02  0.44042770491E+02  0.00000000000E+00 0.  1.
         13    1    4    4    0    0 -0.25332282093E+02  0.35176915188E+02  0.91856680810E+02  0.10157159882E+03  0.00000000000E+00 0. -1.
         21    1    1    2  502  501  0.33647321628E+02  0.39267953132E+01 -0.25204146952E+01  0.33969316514E+02  0.00000000000E+00 0.  1.
<scales pt_clust_5="13000.00000" pt_clust_6="13000.00000" pt_clust_7="13000.00000" pt_clust_8="13000.00000" pt_clust_9="33.87568"></scales>
<clustering>
<clus scale="   33.876">  2  9  1 -1</clus>
<clus scale="   71.872">  5  6 -1 -1</clus>
<clus scale="   72.218">  2  5  1 -1</clus>
<clus scale="   90.586">  7  8 -1 -1</clus>
<clus scale="   90.861">  1  5  2 -1</clus>
</clustering>
</event>
<event>
 9    1  0.2333971E-005  0.9062398E+02  0.7546771E-02  0.1309139E+00
         -2   -1    0    0    0  501 -0.00000000000E+00  0.00000000000E+00  0.13692495759E+03  0.13692495759E+03  0.00000000000E+00 0.  1.
          1   -1    0    0  502    0  0.00000000000E+00 -0.00000000000E+00 -0.23493775561E+03  0.23493775561E+03  0.00000000000E+00 0. -1.
        -24    2    1    2    0    0 -0.17580577505E+02 -0.49508221724E+00  0.79779193833E+02  0.11295734017E+03  0.78008455430E+02 0.  0.
         23    2    1    2    0    0 -0.91542193106E+01  0.74383566532E+01 -0.20242641268E+03  0.22189438669E+03  0.90119572875E+02 0.  0.
         13    1    3    3    0    0 -0.43221112165E+02  0.29307460867E+01  0.19786617235E+02  0.47625245731E+02  0.00000000000E+00 0. -1.
        -14    1    3    3    0    0  0.25640534660E+02 -0.34258283039E+01  0.59992576599E+02  0.65332094442E+02  0.00000000000E+00 0.  1.
        -11    1    4    4    0    0 -0.33012043927E+02  0.35166862242E+02 -0.73772534465E+02  0.88141307487E+02  0.00000000000E+00 0.  1.
         11    1    4    4    0    0  0.23857824617E+02 -0.27728505589E+02 -0.12865387821E+03  0.13375307920E+03  0.00000000000E+00 0. -1.
         21    1    1    2  502  501  0.26734796816E+02 -0.69432744360E+01  0.24634420814E+02  0.37010986335E+02  0.00000000000E+00 0.  1.
<scales pt_clust_5="13000.00000" pt_clust_6="13000.00000" pt_clust_7="13000.00000" pt_clust_8="13000.00000" pt_clust_9="27.62170"></scales>
<clustering>
<clus scale="   27.622">  1  9  2 -1</clus>
<clus scale="   78.008">  5  6 -1 -1</clus>
<clus scale="   78.591">  1  5  2 -1</clus>
<clus scale="   90.120">  7  8 -1 -1</clus>
<clus scale="   90.624">  2  5  1 -1</clus>
</clustering>
</event>
<event>
 9    1  0.2333971E-005  0.1424264E+03  0.7546771E-02  0.1212168E+00
          3   -1    0    0  502    0  0.00000000000E+00  0.00000000000E+00  0.67719929440E+03  0.67719929440E+03  0.00000000000E+00 0. -1.
         -4   -1    0    0    0  501 -0.00000000000E+00 -0.00000000000E+00 -0.81978185862E+02  0.81978185862E+02  0.00000000000E+00 0.  1.
         23    2    1    2    0    0 -0.54967024657E+02  0.69140202570E+02 -0.87082243946E+00  0.12684691761E+03  0.91036480407E+02 0.  0.
        -24    2    1    2    0    0  0.76352881095E+02 -0.82243221282E+02  0.59065644300E+03  0.60666758378E+03  0.81097556400E+02 0.  0.
         13    1    4    4    0    0  0.83716101344E+02 -0.35940949077E+02  0.36570563071E+03  0.37688293378E+03  0.00000000000E+00 0. -1.
        -14    1    4    4    0    0 -0.73632202496E+01 -0.46302272205E+02  0.22495081229E+03  0.22978465000E+03  0.00000000000E+00 0.  1.
        -11    1    3    3    0    0  0.45864098897E+01  0.37367613664E+02  0.34127598502E+02  0.50814040246E+02  0.00000000000E+00 0. -1.
         11    1    3    3    0    0 -0.59553434546E+02  0.31772588906E+02 -0.34998420942E+02  0.76032877366E+02  0.00000000000E+00 0.  1.
         21    1    1    2  502  501 -0.21385856438E+02  0.13103018712E+02  0.54354879775E+01  0.25662978871E+02  0.00000000000E+00 0.  1.
<scales pt_clust_5="13000.00000" pt_clust_6="13000.00000" pt_clust_7="13000.00000" pt_clust_8="13000.00000" pt_clust_9="25.08075"></scales>
<clustering>
<clus scale="   25.081">  2  9  1 -1</clus>
<clus scale="   81.098">  5  6 -1 -1</clus>
<clus scale="   91.036">  7  8 -1 -1</clus>
<clus scale="  136.288">  1  5  2 -1</clus>
<clus scale="  136.288">  1  5  2 -1</clus>
</clustering>
</event>
<event>
 9    1  0.2333971E-005  0.2286075E+03  0.7546771E-02  0.1128198E+00
          1   -1    0    0  502    0  0.00000000000E+00  0.00000000000E+00  0.51769046416E+03  0.51769046416E+03  0.00000000000E+00 0. -1.
         -2   -1    0    0    0  501 -0.00000000000E+00 -0.00000000000E+00 -0.17635931384E+03  0.17635931384E+03  0.00000000000E+00 0.  1.
        -24    2    1    2    0    0  0.19141217965E+03  0.11288204499E+03 -0.34216726877E+02  0.23917158405E+03  0.81555402146E+02 0.  0.
         23    2    1    2    0    0 -0.18677614647E+03 -0.90206660224E+02  0.36517034476E+03  0.42951367035E+03  0.90055770979E+02 0.  0.
         11    1    3    3    0    0  0.47474471522E+02  0.94798773312E+01  0.22089781722E+02  0.53213268806E+02  0.00000000000E+00 0. -1.
        -12    1    3    3    0    0  0.14393770812E+03  0.10340216766E+03 -0.56306508599E+02  0.18595831524E+03  0.00000000000E+00 0.  1.
        -13    1    4    4    0    0 -0.18001371776E+03 -0.54788583107E+02  0.28381398453E+03  0.34052474981E+03  0.00000000000E+00 0. -1.
         13    1    4    4    0    0 -0.67624287144E+01 -0.35418077117E+02  0.81356360232E+02  0.88988920540E+02  0.00000000000E+00 0.  1.
         21    1    1    2  502  501 -0.46360331735E+01 -0.22675384763E+02  0.10377532438E+02  0.25364523596E+02  0.00000000000E+00 0.  1.
<scales pt_clust_5="13000.00000" pt_clust_6="13000.00000" pt_clust_7="13000.00000" pt_clust_8="13000.00000" pt_clust_9="23.14446"></scales>
<clustering>
<clus scale="   23.144">  2  9  1 -1</clus>
<clus scale="   81.555">  5  6 -1 -1</clus>
<clus scale="   90.056">  7  8 -1 -1</clus>
<clus scale="  225.394">  2  5  1 -1</clus>
<clus scale="  228.607">  1  5  2 -1</clus>
</clustering>
</event>
<event>
 9    1  0.2333971E-005  0.1301768E+03  0.7546771E-02  0.1228320E+00
         -2   -1    0    0    0  501 -0.00000000000E+00  0.00000000000E+00  0.15947796805E+03  0.15947796805E+03  0.00000000000E+00 0.  1.
          1   -1    0    0  502    0  0.00000000000E+00 -0.00000000000E+00 -0.34770337937E+03  0.34770337937E+03  0.00000000000E+00 0. -1.
         23    2    1    2    0    0  0.72166996536E+02  0.77341749637E+02  0.10726279087E+03  0.16839340698E+03  0.75241023255E+02 0.  0.
        -24    2    1    2    0    0 -0.40516747872E+02 -0.60256689917E+02 -0.27895522607E+03  0.29920288259E+03  0.80211416016E+02 0.  0.
         11    1    4    4    0    0 -0.36915336312E+02 -0.56594239219E+02 -0.28404528750E+03  0.29197153170E+03  0.00000000000E+00 0. -1.
        -12    1    4    4    0    0 -0.36014115599E+01 -0.36624506988E+01  0.50900614329E+01  0.72313508928E+01  0.00000000000E+00 0.  1.
        -11    1    3    3    0    0  0.20436330844E+02  0.12924147921E+02  0.76506249147E+02  0.80236421757E+02  0.00000000000E+00 0.  1.
         11    1    3    3    0    0  0.51730665691E+02  0.64417601716E+02  0.30756541728E+02  0.88156985218E+02  0.00000000000E+00 0. -1.
         21    1    1    2  502  501 -0.31650248664E+02 -0.17085059719E+02 -0.16532976129E+02  0.39585057860E+02  0.00000000000E+00 0.  1.
<scales pt_clust_5="13000.00000" pt_clust_6="13000.00000" pt_clust_7="13000.00000" pt_clust_8="13000.00000" pt_clust_9="35.96717"></scales>
<clustering>
<clus scale="   35.967">  2  9  1 -1</clus>
<clus scale="   75.241">  7  8 -1 -1</clus>
<clus scale="   80.211">  5  6 -1 -1</clus>
<clus scale="  127.174">  1  7  2 -1</clus>
<clus scale="   35.967">  2  5  1 -1</clus>
</clustering>
</event>
<event>
 9    1  0.2333971E-005  0.9631723E+02  0.7546771E-02  0.1296873E+00
          1   -1    0    0  502    0  0.00000000000E+00  0.00000000000E+00  0.11903805412E+03  0.11903805412E+03  0.00000000000E+00 0. -1.
         -2   -1    0    0    0  501 -0.00000000000E+00 -0.00000000000E+00 -0.18918938130E+03  0.18918938130E+03  0.00000000000E+00 0.  1.
        -24    2    1    2    0    0  0.31353582378E+02 -0.25559905519E+02 -0.40747386027E+02  0.94236361215E+02  0.74724737597E+02 0.  0.
         23    2    1    2    0    0 -0.29243693601E+02 -0.34452905195E+02  0.51461359204E+02  0.11326776070E+03  0.90217059532E+02 0.  0.
         13    1    3    3    0    0  0.25184518261E+02  0.23512028204E+02 -0.24121167841E+02  0.42058366211E+02  0.00000000000E+00 0. -1.
        -14    1    3    3    0    0  0.61690641165E+01 -0.49071933723E+02 -0.16626218186E+02  0.52177995004E+02  0.00000000000E+00 0.  1.
        -13    1    4    4    0    0 -0.29830863306E+01  0.30487409847E+02  0.19145919498E+02  0.36124052883E+02  0.00000000000E+00 0.  1.
         13    1    4    4    0    0 -0.26260607270E+02 -0.64940315043E+02  0.32315439706E+02  0.77143707815E+02  0.00000000000E+00 0. -1.
         21    1    1    2  502  501 -0.21098887773E+01  0.60012810715E+02 -0.80865300356E+02  0.10072331350E+03  0.00000000000E+00 0.  1.
<scales pt_clust_5="13000.00000" pt_clust_6="13000.00000" pt_clust_7="13000.00000" pt_clust_8="13000.00000" pt_clust_9="60.04989"></scales>
<clustering>
<clus scale="   60.050">  2  9  1 -1</clus>
<clus scale="   74.725">  5  6 -1 -1</clus>
<clus scale="   81.986">  2  5  1 -1</clus>
<clus scale="   90.217">  7  8 -1 -1</clus>
<clus scale="   96.317">  1  5  2 -1</clus>
</clustering>
</event>
<event>
 9    1  0.2333971E-005  0.3046721E+03  0.7546771E-02  0.1083230E+00
          1   -1    0    0  502    0  0.00000000000E+00  0.00000000000E+00  0.22133957283E+04  0.22133957283E+04  0.00000000000E+00 0. -1.
         -2   -1    0    0    0  501 -0.00000000000E+00 -0.00000000000E+00 -0.75275811180E+02  0.75275811180E+02  0.00000000000E+00 0.  1.
        -24    2    1    2    0    0  0.91015800278E+02  0.33566286583E+03  0.65388238318E+03  0.74522364808E+03  0.82720488551E+02 0.  0.
         23    2    1    2    0    0 -0.25633236114E+02 -0.27174340630E+03  0.13544202778E+04  0.13846615665E+04  0.91278819936E+02 0.  0.
         11    1    3    3    0    0  0.49754721976E+02  0.94856576225E+02  0.26665592299E+03  0.28736507039E+03  0.00000000000E+00 0. -1.
        -12    1    3    3    0    0  0.41261078302E+02  0.24080628961E+03  0.38722646018E+03  0.45785857769E+03  0.00000000000E+00 0.  1.
        -13    1    4    4    0    0  0.31364875969E+02 -0.56772545307E+02  0.27147399160E+03  0.27911468156E+03  0.00000000000E+00 0.  1.
         13    1    4    4    0    0 -0.56998112083E+02 -0.21497086100E+03  0.10829462862E+04  0.11055468849E+04  0.00000000000E+00 0. -1.
         21    1    1    2  502  501 -0.65382564164E+02 -0.63919459530E+02  0.12981725610E+03  0.15878632493E+03  0.00000000000E+00 0.  1.
<scales pt_clust_5="13000.00000" pt_clust_6="13000.00000" pt_clust_7="13000.00000" pt_clust_8="13000.00000" pt_clust_9="91.43619"></scales>
<clustering>
<clus scale="   82.720">  5  6 -1 -1</clus>
<clus scale="   91.279">  7  8 -1 -1</clus>
<clus scale="   91.436">  2  9  1 -1</clus>
<clus scale="  302.218">  2  5  1 -1</clus>
<clus scale="  304.672">  1  5  2 -1</clus>
</clustering>
</event>
<event>
 9    1  0.2333971E-005  0.1823805E+03  0.7546771E-02  0.1166773E+00
         -2   -1    0    0    0  501 -0.00000000000E+00  0.00000000000E+00  0.55109828446E+03  0.55109828446E+03  0.00000000000E+00 0.  1.
          1   -1    0    0  502    0  0.00000000000E+00 -0.00000000000E+00 -0.15760609730E+03  0.15760609730E+03  0.00000000000E+00 0. -1.
        -24    2    1    2    0    0  0.14963750593E+03 -0.47989866189E+02  0.45217096515E+03  0.48524643252E+03  0.79442483001E+02 0.  0.
         23    2    1    2    0    0 -0.15481340178E+03  0.68128177032E+02 -0.63643237063E+02  0.20208068760E+03  0.90429557112E+02 0.  0.
         13    1    3    3    0    0  0.85149898280E+02 -0.10705362107E+02  0.13916851686E+03  0.16350225087E+03  0.00000000000E+00 0. -1.
        -14    1    3    3    0    0  0.64487607649E+02 -0.37284504082E+02  0.31300244830E+03  0.32174418165E+03  0.00000000000E+00 0.  1.
        -11    1    4    4    0    0 -0.40213393275E+02  0.41724346575E+01  0.21353834089E+02  0.45722121998E+02  0.00000000000E+00 0.  1.
         11    1    4    4    0    0 -0.11460000850E+03  0.63955742374E+02 -0.84997071152E+02  0.15635856560E+03  0.00000000000E+00 0. -1.
         21    1    1    2  502  501  0.51758958512E+01 -0.20138310842E+02  0.49644590664E+01  0.21377261641E+02  0.00000000000E+00 0.  1.
<scales pt_clust_5="13000.00000" pt_clust_6="13000.00000" pt_clust_7="13000.00000" pt_clust_8="13000.00000" pt_clust_9="20.79282"></scales>
<clustering>
<clus scale="   20.793">  2  9  1 -1</clus>
<clus scale="   79.442">  5  6 -1 -1</clus>
<clus scale="   90.430">  7  8 -1 -1</clus>
<clus scale="  177.190">  1  5  2 -1</clus>
<clus scale="   20.793">  2  5  1 -1</clus>
</clustering>
</event>
<event>
 9    1  0.2333971E-005  0.1238698E+03  0.7546771E-02  0.1242474E+00
         -2   -1    0    0    0  501 -0.00000000000E+00  0.00000000000E+00  0.20361345265E+03  0.20361345265E+03  0.00000000000E+00 0.  1.
          1   -1    0    0  502    0  0.00000000000E+00 -0.00000000000E+00 -0.18246577911E+03  0.18246577911E+03  0.00000000000E+00 0. -1.
         23    2    1    2    0    0 -0.53830214849E+02 -0.32476561488E+02  0.10984814466E+03  0.15922289395E+03  0.96606914847E+02 0.  0.
        -24    2    1    2    0    0  0.79921178724E+02  0.10113060367E+02 -0.13073677601E+03  0.17256162805E+03  0.78713036237E+02 0.  0.
         11    1    4    4    0    0  0.19426105830E+02  0.11165264974E+02 -0.10404693478E+03  0.10643214443E+03  0.00000000000E+00 0. -1.
        -12    1    4    4    0    0  0.60495072895E+02 -0.10522046064E+01 -0.26689841230E+02  0.66129483621E+02  0.00000000000E+00 0.  1.
        -13    1    3    3    0    0  0.98230591739E+01  0.19594397077E+02  0.58003302235E+02  0.62006579961E+02  0.00000000000E+00 0. -1.
         13    1    3    3    0    0 -0.63653274023E+02 -0.52070958565E+02  0.51844842423E+02  0.97216313989E+02  0.00000000000E+00 0.  1.
         21    1    1    2  502  501 -0.26090963875E+02  0.22363501121E+02  0.42036304899E+02  0.54294709760E+02  0.00000000000E+00 0.  1.
<scales pt_clust_5="13000.00000" pt_clust_6="13000.00000" pt_clust_7="13000.00000" pt_clust_8="13000.00000" pt_clust_9="34.36371"></scales>
<clustering>
<clus scale="   34.364">  1  9  2 -1</clus>
<clus scale="   78.713">  5  6 -1 -1</clus>
<clus scale="   96.607">  7  8 -1 -1</clus>
<clus scale="  110.483">  2  5  1 -1</clus>
<clus scale="  110.483">  2  5  1 -1</clus>
</clustering>
</event>
<event>
 9    1  0.2333971E-005  0.1108334E+03  0.7546771E-02  0.1263635E+00
          1   -1    0    0  502    0  0.00000000000E+00  0.00000000000E+00  0.26191974721E+03  0.26191974721E+03  0.00000000000E+00 0. -1.
         -2   -1    0    0    0  501 -0.00000000000E+00 -0.00000000000E+00 -0.11354358643E+03  0.11354358643E+03  0.00000000000E+00 0.  1.
        -24    2    1    2    0    0  0.42380233700E+02 -0.71552935683E+02 -0.60298085806E+00  0.11587728326E+03  0.80692467901E+02 0.  0.
         23    2    1    2    0    0 -0.37752214541E+02  0.41322758371E+02  0.18382546492E+03  0.21322282758E+03  0.92408725718E+02 0.  0.
         13    1    3    3    0    0 -0.18960888269E+02 -0.33831193485E+02 -0.16476215383E+02  0.42137045577E+02  0.00000000000E+00 0. -1.
        -14    1    3    3    0    0  0.61341121969E+02 -0.37721742198E+02  0.15873234525E+02  0.73740237680E+02  0.00000000000E+00 0.  1.
        -11    1    4    4    0    0 -0.43070698898E+02 -0.61781957540E+01  0.31890615315E+02  0.53946886394E+02  0.00000000000E+00 0.  1.
         11    1    4    4    0    0  0.53184843570E+01  0.47500954125E+02  0.15193484960E+03  0.15927594119E+03  0.00000000000E+00 0. -1.
         21    1    1    2  502  501 -0.46280191584E+01  0.30230177312E+02 -0.34846323278E+02  0.46363222792E+02  0.00000000000E+00 0. -1.
<scales pt_clust_5="13000.00000" pt_clust_6="13000.00000" pt_clust_7="13000.00000" pt_clust_8="13000.00000" pt_clust_9="30.58238"></scales>
<clustering>
<clus scale="   30.582">  2  9  1 -1</clus>
<clus scale="   80.692">  5  6 -1 -1</clus>
<clus scale="   92.409">  7  8 -1 -1</clus>
<clus scale="  101.272">  2  5  1 -1</clus>
<clus scale="  110.833">  1  5  2 -1</clus>
</clustering>
</event>
<event>
 9    1  0.2333971E-005  0.8970809E+02  0.7546771E-02  0.1310785E+00
         -2   -1    0    0    0  501 -0.00000000000E+00  0.00000000000E+00  0.39452545652E+03  0.39452545652E+03  0.00000000000E+00 0.  1.
          1   -1    0    0  502    0  0.00000000000E+00 -0.00000000000E+00 -0.10585490943E+03  0.10585490943E+03  0.00000000000E+00 0. -1.
        -24    2    1    2    0    0 -0.69405099549E+01 -0.29914050784E+02  0.33675575039E+03  0.34713876276E+03  0.78472059211E+02 0.  0.
         23    2    1    2    0    0 -0.50570131257E+01  0.97534650964E+00 -0.71017689826E+02  0.11441779472E+03  0.89562239800E+02 0.  0.
         13    1    3    3    0    0 -0.79139012197E+01 -0.49505377503E+02  0.12806818700E+03  0.13753135190E+03  0.00000000000E+00 0. -1.
        -14    1    3    3    0    0  0.97339126479E+00  0.19591326719E+02  0.20868756339E+03  0.20960741086E+03  0.00000000000E+00 0.  1.
        -13    1    4    4    0    0 -0.20904336971E+02  0.39288830848E+02 -0.20315956442E+02  0.48921790848E+02  0.00000000000E+00 0. -1.
         13    1    4    4    0    0  0.15847323845E+02 -0.38313484338E+02 -0.50701733384E+02  0.65496003873E+02  0.00000000000E+00 0.  1.
         21    1    1    2  502  501  0.11997523081E+02  0.28938704275E+02  0.22932486528E+02  0.38823808463E+02  0.00000000000E+00 0. -1.
<scales pt_clust_5="13000.00000" pt_clust_6="13000.00000" pt_clust_7="13000.00000" pt_clust_8="13000.00000" pt_clust_9="31.32713"></scales>
<clustering>
<clus scale="   31.327">  1  9  2 -1</clus>
<clus scale="   78.472">  5  6 -1 -1</clus>
<clus scale="   78.638">  1  5  2 -1</clus>
<clus scale="   89.562">  7  8 -1 -1</clus>
<clus scale="   89.708">  2  5  1 -1</clus>
</clustering>
</event>
<event>
 9    1  0.2333971E-005  0.1028480E+03  0.7546771E-02  0.1279207E+00
          3   -1    0    0  502    0  0.00000000000E+00  0.00000000000E+00  0.56169123232E+03  0.56169123232E+03  0.00000000000E+00 0. -1.
         -4   -1    0    0    0  501 -0.00000000000E+00 -0.00000000000E+00 -0.34976456734E+02  0.34976456734E+02  0.00000000000E+00 0.  1.
        -24    2    1    2    0    0 -0.26145460423E+02  0.15993276773E+02  0.49696472858E+02  0.99842880874E+02  0.80990687391E+02 0.  0.
         23    2    1    2    0    0  0.33331126793E+02 -0.39768992402E+02  0.43923843310E+03  0.45161156892E+03  0.91269224304E+02 0.  0.
         13    1    3    3    0    0 -0.39134186577E+02  0.23356039724E+02  0.64395626124E+02  0.78890974227E+02  0.00000000000E+00 0. -1.
        -14    1    3    3    0    0  0.12988726155E+02 -0.73627629510E+01 -0.14699153266E+02  0.20951906647E+02  0.00000000000E+00 0.  1.
        -11    1    4    4    0    0  0.16873227873E+02  0.27279053479E+02  0.88266668186E+02  0.93914095269E+02  0.00000000000E+00 0.  1.
         11    1    4    4    0    0  0.16457898920E+02 -0.67048045880E+02  0.35097176491E+03  0.35769747365E+03  0.00000000000E+00 0. -1.
         21    1    1    2  502  501 -0.71856663702E+01  0.23775715628E+02  0.37779869630E+02  0.45213239257E+02  0.00000000000E+00 0. -1.
<scales pt_clust_5="13000.00000" pt_clust_6="13000.00000" pt_clust_7="13000.00000" pt_clust_8="13000.00000" pt_clust_9="24.83784"></scales>
<clustering>
<clus scale="   24.838">  2  9  1 -1</clus>
<clus scale="   80.991">  5  6 -1 -1</clus>
<clus scale="   91.269">  7  8 -1 -1</clus>
<clus scale="   93.846">  2  5  1 -1</clus>
<clus scale="  102.848">  1  5  2 -1</clus>
</clustering>
</event>
<event>
 9    1  0.2333971E-005  0.1017787E+03  0.7546771E-02  0.1285514E+00
         -2   -1    0    0    0  501 -0.00000000000E+00  0.00000000000E+00  0.77656365859E+02  0.77656365859E+02  0.00000000000E+00 0.  1.
          1   -1    0    0  502    0  0.00000000000E+00 -0.00000000000E+00 -0.58739194609E+03  0.58739194609E+03  0.00000000000E+00 0. -1.
         23    2    1    2    0    0 -0.22827767463E+02  0.94528137579E+01  0.20383632060E+02  0.10439106939E+03  0.99355625188E+02 0.  0.
        -24    2    1    2    0    0  0.14325604443E+02  0.63232601406E+02 -0.36806594435E+03  0.38284633737E+03  0.83037303832E+02 0.  0.
         11    1    4    4    0    0  0.46876020624E+02  0.53686314034E+02 -0.25898398556E+03  0.26861177636E+03  0.00000000000E+00 0. -1.
        -12    1    4    4    0    0 -0.32550416181E+02  0.95462873717E+01 -0.10908195879E+03  0.11423456101E+03  0.00000000000E+00 0.  1.
        -11    1    3    3    0    0  0.13544683940E+02  0.44664561445E+02  0.26049749834E+02  0.53450640581E+02  0.00000000000E+00 0. -1.
         11    1    3    3    0    0 -0.36372451403E+02 -0.35211747687E+02 -0.56661177745E+01  0.50940428806E+02  0.00000000000E+00 0.  1.
         21    1    1    2  502  501  0.85021630205E+01 -0.72685415164E+02 -0.16205326795E+03  0.17781090520E+03  0.00000000000E+00 0.  1.
<scales pt_clust_5="13000.00000" pt_clust_6="13000.00000" pt_clust_7="13000.00000" pt_clust_8="13000.00000" pt_clust_9="73.18098"></scales>
<clustering>
<clus scale="   73.181">  2  9  1 -1</clus>
<clus scale="   83.037">  5  6 -1 -1</clus>
<clus scale="   85.922">  2  5  1 -1</clus>
<clus scale="   99.356">  7  8 -1 -1</clus>
<clus scale="   73.181">  2  5  1 -1</clus>
</clustering>
</event>
<event>
 9    1  0.2333971E-005  0.9757119E+02  0.7546771E-02  0.1291544E+00
          1   -1    0    0  502    0  0.00000000000E+00  0.00000000000E+00  0.24329734651E+03  0.24329734651E+03  0.00000000000E+00 0. -1.
         -2   -1    0    0    0  501 -0.00000000000E+00 -0.00000000000E+00 -0.14011527513E+03  0.14011527513E+03  0.00000000000E+00 0.  1.
        -24    2    1    2    0    0  0.46973526331E+02  0.18290735863E+02 -0.46572862111E+02  0.10584706461E+03  0.80582295872E+02 0.  0.
         23    2    1    2    0    0  0.37484788678E+01  0.42137692798E+02  0.16847783921E+03  0.19648002193E+03  0.91814925064E+02 0.  0.
         13    1    3    3    0    0  0.48808467200E+02  0.39316932587E+02 -0.54741940236E+02  0.83215188994E+02  0.00000000000E+00 0. -1.
        -14    1    3    3    0    0 -0.18349408696E+01 -0.21026196724E+02  0.81690781253E+01  0.22631875620E+02  0.00000000000E+00 0.  1.
        -11    1    4    4    0    0  0.18255643405E+02  0.22212433807E+02  0.16939330555E+03  0.17181604319E+03  0.00000000000E+00 0. -1.
         11    1    4    4    0    0 -0.14507164537E+02  0.19925258990E+02 -0.91546633996E+00  0.24663978741E+02  0.00000000000E+00 0.  1.
         21    1    1    2  502  501 -0.50722005198E+02 -0.60428428661E+02 -0.18722905720E+02  0.81085535087E+02  0.00000000000E+00 0.  1.
<scales pt_clust_5="13000.00000" pt_clust_6="13000.00000" pt_clust_7="13000.00000" pt_clust_8="13000.00000" pt_clust_9="78.89434"></scales>
<clustering>
<clus scale="   78.894">  2  9  1 -1</clus>
<clus scale="   80.582">  5  6 -1 -1</clus>
<clus scale="   87.084">  2  5  1 -1</clus>
<clus scale="   91.815">  7  8 -1 -1</clus>
<clus scale="   97.571">  1  5  2 -1</clus>
</clustering>
</event>
<event>
 9    1  0.2333971E-005  0.1002575E+03  0.7546771E-02  0.1283606E+00
         -2   -1    0    0    0  501 -0.00000000000E+00  0.00000000000E+00  0.41065934937E+02  0.41065934937E+02  0.00000000000E+00 0.  1.
          1   -1    0    0  502    0  0.00000000000E+00 -0.00000000000E+00 -0.34941500652E+03  0.34941500652E+03  0.00000000000E+00 0. -1.
         23    2    1    2    0    0 -0.42068246495E+01  0.33988259142E+02 -0.68171265864E+02  0.12021033372E+03  0.92899427931E+02 0.  0.
        -24    2    1    2    0    0 -0.21071200295E+02 -0.35374265176E+02 -0.21324548791E+03  0.23330779805E+03  0.85226500552E+02 0.  0.
         11    1    4    4    0    0  0.32659518390E+02 -0.14179421177E+02 -0.63367904330E+02  0.72685565455E+02  0.00000000000E+00 0. -1.
        -12    1    4    4    0    0 -0.53730718685E+02 -0.21194843999E+02 -0.14987758358E+03  0.16062223259E+03  0.00000000000E+00 0.  1.
        -13    1    3    3    0    0 -0.37072346762E+02  0.26387616657E+01  0.13232929454E+01  0.37189690262E+02  0.00000000000E+00 0.  1.
         13    1    3    3    0    0  0.32865522112E+02  0.31349497477E+02 -0.69494558810E+02  0.83020643456E+02  0.00000000000E+00 0. -1.
         21    1    1    2  502  501  0.25278024944E+02  0.13860060335E+01 -0.26932317807E+02  0.36962809691E+02  0.00000000000E+00 0. -1.
<scales pt_clust_5="13000.00000" pt_clust_6="13000.00000" pt_clust_7="13000.00000" pt_clust_8="13000.00000" pt_clust_9="25.31599"></scales>
<clustering>
<clus scale="   25.316">  1  9  2 -1</clus>
<clus scale="   85.227">  5  6 -1 -1</clus>
<clus scale="   92.899">  7  8 -1 -1</clus>
<clus scale="   93.192">  2  5  1 -1</clus>
<clus scale="   93.192">  2  5  1 -1</clus>
</clustering>
</event>
<event>
 9    1  0.2333971E-005  0.1173181E+03  0.7546771E-02  0.1250702E+00
         -4   -1    0    0    0  501 -0.00000000000E+00  0.00000000000E+00  0.16556499514E+03  0.16556499514E+03  0.00000000000E+00 0.  1.
          3   -1    0    0  502    0  0.00000000000E+00 -0.00000000000E+00 -0.19682029549E+03  0.19682029549E+03  0.00000000000E+00 0. -1.
         23    2    1    2    0    0 -0.14975541201E+02 -0.19458495748E+02  0.27425103613E+02  0.96171515085E+02  0.88847758072E+02 0.  0.
        -24    2    1    2    0    0  0.26436688164E+02  0.99192166878E+02 -0.11054339641E+03  0.17040883732E+03  0.79254936102E+02 0.  0.
         11    1    4    4    0    0  0.30126794691E+02  0.95547422582E+02 -0.12198171852E+03  0.15784952763E+03  0.00000000000E+00 0. -1.
        -12    1    4    4    0    0 -0.36901065270E+01  0.36447442959E+01  0.11438322111E+02  0.12559309690E+02  0.00000000000E+00 0.  1.
        -13    1    3    3    0    0  0.26647805426E+02 -0.19176122415E+02  0.40876013678E+02  0.52427833248E+02  0.00000000000E+00 0.  1.
         13    1    3    3    0    0 -0.41623346626E+02 -0.28237333357E+00 -0.13450910065E+02  0.43743681837E+02  0.00000000000E+00 0. -1.
         21    1    1    2  502  501 -0.11461146964E+02 -0.79733671129E+02  0.51862992443E+02  0.95804938216E+02  0.00000000000E+00 0.  1.
<scales pt_clust_5="13000.00000" pt_clust_6="13000.00000" pt_clust_7="13000.00000" pt_clust_8="13000.00000" pt_clust_9="80.55319"></scales>
<clustering>
<clus scale="   79.255">  5  6 -1 -1</clus>
<clus scale="   80.553">  1  9  2 -1</clus>
<clus scale="   88.848">  7  8 -1 -1</clus>
<clus scale="  110.231">  2  5  1 -1</clus>
<clus scale="  110.231">  2  5  1 -1</clus>
</clustering>
</event>
<event>
 9    1  0.3269887E-005  0.1272531E+03  0.7546771E-02  0.1234172E+00
          3   -1    0    0  502    0  0.00000000000E+00  0.00000000000E+00  0.14475724697E+03  0.14475724697E+03  0.00000000000E+00 0. -1.
         -4   -1    0    0    0  501 -0.00000000000E+00 -0.00000000000E+00 -0.67000064694E+03  0.67000064694E+03  0.00000000000E+00 0.  1.
        -24    2    1    2    0    0  0.23857564823E+02  0.34472258078E+02 -0.56181176748E+03  0.56911093532E+03  0.80605673791E+02 0.  0.
         23    2    1    2    0    0 -0.61627089849E+02 -0.68980054022E+02  0.10057667561E+03  0.16370558620E+03  0.90153786504E+02 0.  0.
         11    1    3    3    0    0 -0.25627025219E+02  0.27255616794E+01 -0.88948544752E+02  0.92606785504E+02  0.00000000000E+00 0. -1.
        -12    1    3    3    0    0  0.49484590042E+02  0.31746696398E+02 -0.47286322273E+03  0.47650414982E+03  0.00000000000E+00 0.  1.
        -13    1    4    4    0    0  0.18856555872E+02 -0.36557576244E+02  0.43376765172E+02  0.59779342895E+02  0.00000000000E+00 0.  1.
         13    1    4    4    0    0 -0.80483645722E+02 -0.32422477778E+02  0.57199910440E+02  0.10392624331E+03  0.00000000000E+00 0. -1.
         21    1    1    2  502  501  0.37769525026E+02  0.34507795944E+02 -0.64008308099E+02  0.81941372379E+02  0.00000000000E+00 0. -1.
<scales pt_clust_5="13000.00000" pt_clust_6="13000.00000" pt_clust_7="13000.00000" pt_clust_8="13000.00000" pt_clust_9="51.15980"></scales>
<clustering>
<clus scale="   51.160">  2  9  1 -1</clus>
<clus scale="   80.606">  5  6 -1 -1</clus>
<clus scale="   90.154">  7  8 -1 -1</clus>
<clus scale="  120.677">  2  5  1 -1</clus>
<clus scale="  127.253">  1  5  2 -1</clus>
</clustering>
</event>
<event>
 9    1  0.2333971E-005  0.1033869E+03  0.7546771E-02  0.1278199E+00
         -4   -1    0    0    0  501 -0.00000000000E+00  0.00000000000E+00  0.11881327782E+03  0.11881327782E+03  0.00000000000E+00 0.  1.
          3   -1    0    0  502    0  0.00000000000E+00 -0.00000000000E+00 -0.14491508706E+03  0.14491508706E+03  0.00000000000E+00 0. -1.
        -24    2    1    2    0    0 -0.22624532493E+02  0.13317365851E+02 -0.37609505505E+01  0.86311332466E+02  0.82135739233E+02 0.  0.
         23    2    1    2    0    0  0.58456303393E+02 -0.22366368791E+02 -0.58153709206E+02  0.12595480819E+03  0.92549262306E+02 0.  0.
         13    1    3    3    0    0  0.25909986919E+01  0.43215139301E+02 -0.14663775412E+02  0.45708728361E+02  0.00000000000E+00 0. -1.
        -14    1    3    3    0    0 -0.25215531185E+02 -0.29897773450E+02  0.10902824861E+02  0.40602604105E+02  0.00000000000E+00 0.  1.
        -11    1    4    4    0    0  0.40220152521E+02 -0.58625848138E+02 -0.35329696696E+02  0.79390416345E+02  0.00000000000E+00 0.  1.
         11    1    4    4    0    0  0.18236150872E+02  0.36259479348E+02 -0.22824012510E+02  0.46564391849E+02  0.00000000000E+00 0. -1.
         21    1    1    2  502  501 -0.35831770900E+02  0.90490029398E+01  0.35812850513E+02  0.51462224222E+02  0.00000000000E+00 0.  1.
<scales pt_clust_5="13000.00000" pt_clust_6="13000.00000" pt_clust_7="13000.00000" pt_clust_8="13000.00000" pt_clust_9="36.95673"></scales>
<clustering>
<clus scale="   36.957">  1  9  2 -1</clus>
<clus scale="   82.136">  5  6 -1 -1</clus>
<clus scale="   92.549">  7  8 -1 -1</clus>
<clus scale="   94.179">  1  5  2 -1</clus>
<clus scale="  103.387">  2  5  1 -1</clus>
</clustering>
</event>
<event>
 9    1  0.2333971E-005  0.1058998E+03  0.7546771E-02  0.1273351E+00
         -2   -1    0    0    0  501 -0.00000000000E+00  0.00000000000E+00  0.11993330658E+03  0.11993330658E+03  0.00000000000E+00 0.  1.
          1   -1    0    0  502    0  0.00000000000E+00 -0.00000000000E+00 -0.39865901287E+03  0.39865901287E+03  0.00000000000E+00 0. -1.
        -24    2    1    2    0    0 -0.84077247258E+01 -0.64693856089E+02 -0.81323567351E+02  0.13110629338E+03  0.79494356444E+02 0.  0.
         23    2    1    2    0    0  0.20397907681E+02  0.46324767373E+02 -0.28172186631E+03  0.30035965617E+03  0.91031062784E+02 0.  0.
         11    1    3    3    0    0 -0.10580199075E+02 -0.83031950717E+02 -0.60528029760E+02  0.10329514916E+03  0.00000000000E+00 0. -1.
        -12    1    3    3    0    0  0.21724743488E+01  0.18338094628E+02 -0.20795537591E+02  0.27811144225E+02  0.00000000000E+00 0.  1.
        -11    1    4    4    0    0  0.41423101663E+02  0.42980660190E+02 -0.26903279995E+03  0.27557550318E+03  0.00000000000E+00 0. -1.
         11    1    4    4    0    0 -0.21025193982E+02  0.33441071823E+01 -0.12689066357E+02  0.24784152998E+02  0.00000000000E+00 0.  1.
         21    1    1    2  502  501 -0.11990182955E+02  0.18369088716E+02  0.84319727373E+02  0.87126369899E+02  0.00000000000E+00 0.  1.
<scales pt_clust_5="13000.00000" pt_clust_6="13000.00000" pt_clust_7="13000.00000" pt_clust_8="13000.00000" pt_clust_9="21.93600"></scales>
<clustering>
<clus scale="   21.936">  1  9  2 -1</clus>
<clus scale="   79.494">  5  6 -1 -1</clus>
<clus scale="   91.031">  7  8 -1 -1</clus>
<clus scale="   96.164">  1  5  2 -1</clus>
<clus scale="  105.900">  2  5  1 -1</clus>
</clustering>
</event>
<event>
 9    1  0.2333971E-005  0.1195932E+03  0.7546771E-02  0.1247079E+00
          1   -1    0    0  502    0  0.00000000000E+00  0.00000000000E+00  0.86768470031E+02  0.86768470031E+02  0.00000000000E+00 0. -1.
         -2   -1    0    0    0  501 -0.00000000000E+00 -0.00000000000E+00 -0.35467700381E+03  0.35467700381E+03  0.00000000000E+00 0.  1.
        -24    2    1    2    0    0 -0.46856847529E+02 -0.67780497574E+02 -0.25916712458E+03  0.28359060088E+03  0.80413123523E+02 0.  0.
         23    2    1    2    0    0  0.24995734202E+02  0.73282184781E+02  0.20324721694E+02  0.12107149624E+03  0.90830322878E+02 0.  0.
         13    1    3    3    0    0  0.11825472066E+02 -0.53217441552E+02 -0.11550716172E+03  0.12772565241E+03  0.00000000000E+00 0. -1.
        -14    1    3    3    0    0 -0.58682319595E+02 -0.14563056021E+02 -0.14365996286E+03  0.15586494847E+03  0.00000000000E+00 0.  1.
        -11    1    4    4    0    0  0.29474072422E+02  0.47252509547E+02 -0.30717193234E+02  0.63600837760E+02  0.00000000000E+00 0.  1.
         11    1    4    4    0    0 -0.44783382205E+01  0.26029675233E+02  0.51041914928E+02  0.57470658475E+02  0.00000000000E+00 0. -1.
         21    1    1    2  502  501  0.21861113328E+02 -0.55016872069E+01 -0.29066130899E+02  0.36783376728E+02  0.00000000000E+00 0.  1.
<scales pt_clust_5="13000.00000" pt_clust_6="13000.00000" pt_clust_7="13000.00000" pt_clust_8="13000.00000" pt_clust_9="22.54278"></scales>
<clustering>
<clus scale="   22.543">  2  9  1 -1</clus>
<clus scale="   80.413">  5  6 -1 -1</clus>
<clus scale="   90.830">  7  8 -1 -1</clus>
<clus scale="  111.887">  2  5  1 -1</clus>
<clus scale="  119.593">  1  5  2 -1</clus>
</clustering>
</event>
<event>
 9    1  0.2333971E-005  0.1058097E+03  0.7546771E-02  0.1272877E+00
          3   -1    0    0  502    0  0.00000000000E+00  0.00000000000E+00  0.13392835166E+04  0.13392835166E+04  0.00000000000E+00 0. -1.
         -4   -1    0    0    0  501 -0.00000000000E+00 -0.00000000000E+00 -0.12006076056E+02  0.12006076056E+02  0.00000000000E+00 0.  1.
         23    2    1    2    0    0 -0.69182436601E+02 -0.14616967257E+02  0.50831184057E+03  0.52111324187E+03  0.90433502212E+02 0.  0.
        -24    2    1    2    0    0  0.40836398624E+02 -0.17635651480E+02  0.50321681842E+03  0.51152132990E+03  0.80301164033E+02 0.  0.
         13    1    4    4    0    0  0.45836449880E+02  0.22681094304E+02  0.27376914766E+03  0.27850486242E+03  0.00000000000E+00 0. -1.
        -14    1    4    4    0    0 -0.50000512554E+01 -0.40316745783E+02  0.22944767076E+03  0.23301646749E+03  0.00000000000E+00 0.  1.
        -11    1    3    3    0    0  0.30063922422E+01 -0.35715162907E+02  0.10782952221E+03  0.11363017696E+03  0.00000000000E+00 0.  1.
         11    1    3    3    0    0 -0.72188828843E+02  0.21098195650E+02  0.40048231836E+03  0.40748306491E+03  0.00000000000E+00 0. -1.
         21    1    1    2  502  501  0.28346037977E+02  0.32252618737E+02  0.31574878151E+03  0.31865502084E+03  0.00000000000E+00 0. -1.
<scales pt_clust_5="13000.00000" pt_clust_6="13000.00000" pt_clust_7="13000.00000" pt_clust_8="13000.00000" pt_clust_9="42.93867"></scales>
<clustering>
<clus scale="   42.939">  1  9  2 -1</clus>
<clus scale="   80.301">  5  6 -1 -1</clus>
<clus scale="   90.434">  7  8 -1 -1</clus>
<clus scale="   97.292">  1  5  2 -1</clus>
<clus scale="   42.939">  1  5  2 -1</clus>
</clustering>
</event>
<event>
 9    1  0.2333971E-005  0.9447748E+02  0.7546771E-02  0.1298521E+00
         -2   -1    0    0    0  501 -0.00000000000E+00  0.00000000000E+00  0.44469892317E+02  0.44469892317E+02  0.00000000000E+00 0.  1.
          1   -1    0    0  502    0  0.00000000000E+00 -0.00000000000E+00 -0.41896188006E+03  0.41896188006E+03  0.00000000000E+00 0. -1.
        -24    2    1    2    0    0 -0.13442821759E+02  0.59901985997E+01 -0.34405776696E+02  0.91165592292E+02  0.83131316673E+02 0.  0.
         23    2    1    2    0    0  0.46889315862E+01  0.16441356369E+02 -0.33424380139E+03  0.34748838757E+03  0.93471687962E+02 0.  0.
         11    1    3    3    0    0 -0.28256675421E+02  0.38373615263E+02 -0.27071398662E+02  0.54807250248E+02  0.00000000000E+00 0. -1.
        -12    1    3    3    0    0  0.14813853662E+02 -0.32383416663E+02 -0.73343780339E+01  0.36358342044E+02  0.00000000000E+00 0.  1.
        -13    1    4    4    0    0  0.22313249012E+02  0.44895199756E+02 -0.27420510198E+03  0.27875060178E+03  0.00000000000E+00 0. -1.
         13    1    4    4    0    0 -0.17624317425E+02 -0.28453843387E+02 -0.60038699413E+02  0.68737785791E+02  0.00000000000E+00 0.  1.
         21    1    1    2  502  501  0.87538901731E+01 -0.22431554968E+02 -0.58424096626E+01  0.24777792519E+02  0.00000000000E+00 0.  1.
<scales pt_clust_5="13000.00000" pt_clust_6="13000.00000" pt_clust_7="13000.00000" pt_clust_8="13000.00000" pt_clust_9="24.07915"></scales>
<clustering>
<clus scale="   24.079">  1  9  2 -1</clus>
<clus scale="   83.131">  5  6 -1 -1</clus>
<clus scale="   84.261">  1  5  2 -1</clus>
<clus scale="   93.472">  7  8 -1 -1</clus>
<clus scale="   94.477">  2  5  1 -1</clus>
</clustering>
</event>
<event>
 9    1  0.2333971E-005  0.1052870E+03  0.7546771E-02  0.1274412E+00
          1   -1    0    0  502    0  0.00000000000E+00  0.00000000000E+00  0.30295605685E+03  0.30295605685E+03  0.00000000000E+00 0. -1.
         -2   -1    0    0    0  501 -0.00000000000E+00 -0.00000000000E+00 -0.53557295154E+02  0.53557295154E+02  0.00000000000E+00 0.  1.
        -24    2    1    2    0    0  0.69016578474E+02  0.22924148219E+02  0.59535678173E+02  0.12357364709E+03  0.80231817908E+02 0.  0.
         23    2    1    2    0    0 -0.42567399025E+02 -0.98868923703E+01  0.16841055130E+03  0.19647410095E+03  0.91270063297E+02 0.  0.
         11    1    3    3    0    0  0.85021922932E+02  0.18092849745E+02  0.61866000543E+02  0.10669339536E+03  0.00000000000E+00 0. -1.
        -12    1    3    3    0    0 -0.16005344458E+02  0.48312984745E+01 -0.23303223697E+01  0.16880251731E+02  0.00000000000E+00 0.  1.
        -13    1    4    4    0    0  0.17265644748E+01 -0.42449598665E+02  0.10042796092E+03  0.10904459999E+03  0.00000000000E+00 0.  1.
         13    1    4    4    0    0 -0.44293963500E+02  0.32562706295E+02  0.67982590377E+02  0.87429500960E+02  0.00000000000E+00 0. -1.
         21    1    1    2  502  501 -0.26449179449E+02 -0.13037255849E+02  0.21452532227E+02  0.36465603965E+02  0.00000000000E+00 0.  1.
<scales pt_clust_5="13000.00000" pt_clust_6="13000.00000" pt_clust_7="13000.00000" pt_clust_8="13000.00000" pt_clust_9="29.48778"></scales>
<clustering>
<clus scale="   29.488">  2  9  1 -1</clus>
<clus scale="   80.232">  5  6 -1 -1</clus>
<clus scale="   91.270">  7  8 -1 -1</clus>
<clus scale="   95.876">  2  5  1 -1</clus>
<clus scale="  105.287">  1  5  2 -1</clus>
</clustering>
</event>
<event>
 9    1  0.2333971E-005  0.1023937E+03  0.7546771E-02  0.1280075E+00
         -2   -1    0    0    0  501 -0.00000000000E+00  0.00000000000E+00  0.37028896640E+02  0.37028896640E+02  0.00000000000E+00 0.  1.
          1   -1    0    0  502    0  0.00000000000E+00 -0.00000000000E+00 -0.97182850603E+03  0.97182850603E+03  0.00000000000E+00 0. -1.
         23    2    1    2    0    0 -0.37110249343E+02 -0.17078764149E+02 -0.54610309548E+02  0.11468257894E+03  0.92200613947E+02 0.  0.
        -24    2    1    2    0    0  0.65483379203E+02  0.42473648113E+02 -0.75024924893E+03  0.75877042402E+03  0.82258963729E+02 0.  0.
         13    1    4    4    0    0  0.78512074538E+02  0.30506730716E+02 -0.43831254663E+03  0.44633249378E+03  0.00000000000E+00 0. -1.
        -14    1    4    4    0    0 -0.13028695335E+02  0.11966917397E+02 -0.31193670230E+03  0.31243793024E+03  0.00000000000E+00 0.  1.
        -11    1    3    3    0    0  0.87091209844E+01 -0.45331996838E+02 -0.17818854787E+02  0.49480807507E+02  0.00000000000E+00 0. -1.
         11    1    3    3    0    0 -0.45819370328E+02  0.28253232689E+02 -0.36791454761E+02  0.65201771433E+02  0.00000000000E+00 0.  1.
         21    1    1    2  502  501 -0.28373129859E+02 -0.25394883964E+02 -0.12994005091E+03  0.13540439971E+03  0.00000000000E+00 0.  1.
<scales pt_clust_5="13000.00000" pt_clust_6="13000.00000" pt_clust_7="13000.00000" pt_clust_8="13000.00000" pt_clust_9="38.07801"></scales>
<clustering>
<clus scale="   38.078">  2  9  1 -1</clus>
<clus scale="   82.259">  5  6 -1 -1</clus>
<clus scale="   92.201">  7  8 -1 -1</clus>
<clus scale="   93.542">  2  5  1 -1</clus>
<clus scale="   38.078">  2  5  1 -1</clus>
</clustering>
</event>
<event>
 9    1  0.2333971E-005  0.1043636E+03  0.7546771E-02  0.1276341E+00
         -4   -1    0    0    0  501 -0.00000000000E+00  0.00000000000E+00  0.21399726687E+03  0.21399726687E+03  0.00000000000E+00 0.  1.
          3   -1    0    0  502    0  0.00000000000E+00 -0.00000000000E+00 -0.95689167618E+02  0.95689167618E+02  0.00000000000E+00 0. -1.
         23    2    1    2    0    0  0.27141781581E+02  0.17219557468E+01  0.12677729903E+03  0.15785019578E+03  0.90025325979E+02 0.  0.
        -24    2    1    2    0    0 -0.58373813344E+02 -0.60311947442E+01 -0.41048877659E+02  0.10649922558E+03  0.78823837122E+02 0.  0.
         13    1    4    4    0    0 -0.61396066526E+02 -0.17096289684E+02 -0.57906057378E+02  0.86109648629E+02  0.00000000000E+00 0. -1.
        -14    1    4    4    0    0  0.30222531823E+01  0.11065094940E+02  0.16857179720E+02  0.20389576956E+02  0.00000000000E+00 0.  1.
        -13    1    3    3    0    0  0.12865814392E+02  0.41113088212E+02  0.30300187276E+02  0.52667984120E+02  0.00000000000E+00 0.  1.
         13    1    3    3    0    0  0.14275967189E+02 -0.39391132465E+02  0.96477111758E+02  0.10518221166E+03  0.00000000000E+00 0. -1.
         21    1    1    2  502  501  0.31232031762E+02  0.43092389974E+01  0.32579677880E+02  0.45337013130E+02  0.00000000000E+00 0.  1.
<scales pt_clust_5="13000.00000" pt_clust_6="13000.00000" pt_clust_7="13000.00000" pt_clust_8="13000.00000" pt_clust_9="31.52791"></scales>
<clustering>
<clus scale="   31.528">  1  9  2 -1</clus>
<clus scale="   78.824">  5  6 -1 -1</clus>
<clus scale="   90.025">  7  8 -1 -1</clus>
<clus scale="   94.870">  2  5  1 -1</clus>
<clus scale="   94.870">  2  5  1 -1</clus>
</clustering>
</event>
<event>
 9    1  0.2333971E-005  0.1240772E+03  0.7546771E-02  0.1238861E+00
          1   -1    0    0  502    0  0.00000000000E+00  0.00000000000E+00  0.22581238294E+03  0.22581238294E+03  0.00000000000E+00 0. -1.
         -2   -1    0    0    0  501 -0.00000000000E+00 -0.00000000000E+00 -0.99275422193E+02  0.99275422193E+02  0.00000000000E+00 0.  1.
         23    2    1    2    0    0 -0.16729777577E+02 -0.97616510709E+02  0.84528459593E+01  0.13458158755E+03  0.90729733168E+02 0.  0.
        -24    2    1    2    0    0  0.40735377859E+01  0.79528753659E+02  0.12264192279E+03  0.16796467872E+03  0.82641852009E+02 0.  0.
         11    1    4    4    0    0 -0.19687087801E+02  0.86872029435E+02  0.10369308507E+03  0.13669889106E+03  0.00000000000E+00 0. -1.
        -12    1    4    4    0    0  0.23760625587E+02 -0.73432757766E+01  0.18948837721E+02  0.31265787666E+02  0.00000000000E+00 0.  1.
        -11    1    3    3    0    0 -0.43058193176E+02 -0.93171841110E+02 -0.84383661309E+01  0.10298643599E+03  0.00000000000E+00 0.  1.
         11    1    3    3    0    0  0.26328415600E+02 -0.44446695995E+01  0.16891212090E+02  0.31595151554E+02  0.00000000000E+00 0. -1.
         21    1    1    2  502  501  0.12656239791E+02  0.18087757051E+02 -0.45578080017E+01  0.22541538868E+02  0.00000000000E+00 0. -1.
<scales pt_clust_5="13000.00000" pt_clust_6="13000.00000" pt_clust_7="13000.00000" pt_clust_8="13000.00000" pt_clust_9="22.07595"></scales>
<clustering>
<clus scale="   22.076">  2  9  1 -1</clus>
<clus scale="   82.642">  5  6 -1 -1</clus>
<clus scale="   90.730">  7  8 -1 -1</clus>
<clus scale="  118.292">  1  5  2 -1</clus>
<clus scale="  118.292">  1  5  2 -1</clus>
</clustering>
</event>
<event>
 9    1  0.2333971E-005  0.9771376E+02  0.7546771E-02  0.1291465E+00
         -2   -1    0    0    0  501 -0.00000000000E+00  0.00000000000E+00  0.12395105183E+03  0.12395105183E+03  0.00000000000E+00 0.  1.
          1   -1    0    0  502    0  0.00000000000E+00 -0.00000000000E+00 -0.46904731894E+03  0.46904731894E+03  0.00000000000E+00 0. -1.
        -24    2    1    2    0    0 -0.35411905020E+02 -0.51089808836E+02 -0.85939005556E+02  0.13271758060E+03  0.79776387118E+02 0.  0.
         23    2    1    2    0    0  0.14202005574E+02  0.22610669675E+02 -0.34999871059E+03  0.36274571921E+03  0.91500929189E+02 0.  0.
         13    1    3    3    0    0 -0.38624118495E+02 -0.28507933898E+02 -0.96348365864E+02  0.10764540134E+03  0.00000000000E+00 0. -1.
        -14    1    3    3    0    0  0.32122134751E+01 -0.22581874938E+02  0.10409360308E+02  0.25072179266E+02  0.00000000000E+00 0.  1.
        -13    1    4    4    0    0  0.47197495900E+02  0.15855703479E+02 -0.28721625060E+03  0.29149988261E+03  0.00000000000E+00 0. -1.
         13    1    4    4    0    0 -0.32995490326E+02  0.67549661954E+01 -0.62782459992E+02  0.71245836599E+02  0.00000000000E+00 0.  1.
         21    1    1    2  502  501  0.21209899447E+02  0.28479139161E+02  0.90841449038E+02  0.97535070950E+02  0.00000000000E+00 0.  1.
<scales pt_clust_5="13000.00000" pt_clust_6="13000.00000" pt_clust_7="13000.00000" pt_clust_8="13000.00000" pt_clust_9="35.50945"></scales>
<clustering>
<clus scale="   35.509">  1  9  2 -1</clus>
<clus scale="   79.776">  5  6 -1 -1</clus>
<clus scale="   86.832">  1  5  2 -1</clus>
<clus scale="   91.501">  7  8 -1 -1</clus>
<clus scale="   97.714">  2  5  1 -1</clus>
</clustering>
</event>
<event>
 9    1  0.2333971E-005  0.1404713E+03  0.7546771E-02  0.1214737E+00
          1   -1    0    0  502    0  0.00000000000E+00  0.00000000000E+00  0.46081497870E+03  0.46081497870E+03  0.00000000000E+00 0. -1.
         -2   -1    0    0    0  501 -0.00000000000E+00 -0.00000000000E+00 -0.15009584884E+03  0.15009584884E+03  0.00000000000E+00 0.  1.
        -24    2    1    2    0    0  0.66183741675E+02  0.23079881600E+02 -0.62742034396E+02  0.12362386243E+03  0.80208028812E+02 0.  0.
         23    2    1    2    0    0 -0.84644903638E+02 -0.76159457029E+02  0.39974706019E+03  0.42524501032E+03  0.89836429496E+02 0.  0.
         11    1    3    3    0    0  0.10243851788E+02  0.44573908185E+02 -0.34975777394E+02  0.57576686208E+02  0.00000000000E+00 0. -1.
        -12    1    3    3    0    0  0.55939889887E+02 -0.21494026585E+02 -0.27766257002E+02  0.66047176225E+02  0.00000000000E+00 0.  1.
        -11    1    4    4    0    0 -0.52821798638E+02 -0.76392758845E+02  0.37070088657E+03  0.38215853166E+03  0.00000000000E+00 0. -1.
         11    1    4    4    0    0 -0.31823105000E+02  0.23330181683E+00  0.29046173623E+02  0.43086478664E+02  0.00000000000E+00 0.  1.
         21    1    1    2  502  501  0.18461161962E+02  0.53079575429E+02 -0.26285895937E+02  0.62041954788E+02  0.00000000000E+00 0.  1.
<scales pt_clust_5="13000.00000" pt_clust_6="13000.00000" pt_clust_7="13000.00000" pt_clust_8="13000.00000" pt_clust_9="56.19836"></scales>
<clustering>
<clus scale="   56.198">  2  9  1 -1</clus>
<clus scale="   80.208">  5  6 -1 -1</clus>
<clus scale="   89.836">  7  8 -1 -1</clus>
<clus scale="  134.517">  2  5  1 -1</clus>
<clus scale="  140.471">  1  5  2 -1</clus>
</clustering>
</event>
<event>
 9    1  0.2333971E-005  0.1252836E+03  0.7546771E-02  0.1238132E+00
         -2   -1    0    0    0  501 -0.00000000000E+00  0.00000000000E+00  0.22782448714E+03  0.22782448714E+03  0.00000000000E+00 0.  1.
          1   -1    0    0  502    0  0.00000000000E+00 -0.00000000000E+00 -0.50062069194E+03  0.50062069194E+03  0.00000000000E+00 0. -1.
         23    2    1    2    0    0  0.30154789429E+02  0.77940388057E+02  0.12053600935E+03  0.17360293126E+03  0.92871054559E+02 0.  0.
        -24    2    1    2    0    0 -0.51515354867E+02 -0.66698129108E+02 -0.46488729780E+03  0.47932541436E+03  0.80809535223E+02 0.  0.
         11    1    4    4    0    0 -0.64514347785E+02 -0.19261060208E+02 -0.25316072178E+03  0.26196076149E+03  0.00000000000E+00 0. -1.
        -12    1    4    4    0    0  0.12998992918E+02 -0.47437068900E+02 -0.21172657602E+03  0.21736465287E+03  0.00000000000E+00 0.  1.
        -11    1    3    3    0    0  0.25849322817E+02 -0.12523529946E+02  0.93659256200E+01  0.30211700633E+02  0.00000000000E+00 0. -1.
         11    1    3    3    0    0  0.43054666117E+01  0.90463918003E+02  0.11117008373E+03  0.14339123063E+03  0.00000000000E+00 0.  1.
         21    1    1    2  502  501  0.21360565438E+02 -0.11242258950E+02  0.71555083638E+02  0.75516833465E+02  0.00000000000E+00 0.  1.
<scales pt_clust_5="13000.00000" pt_clust_6="13000.00000" pt_clust_7="13000.00000" pt_clust_8="13000.00000" pt_clust_9="24.13840"></scales>
<clustering>
<clus scale="   24.138">  1  9  2 -1</clus>
<clus scale="   80.810">  5  6 -1 -1</clus>
<clus scale="   92.871">  7  8 -1 -1</clus>
<clus scale="  116.624">  2  5  1 -1</clus>
<clus scale="  116.624">  2  5  1 -1</clus>
</clustering>
</event>
<event>
 9    1  0.2333971E-005  0.1069655E+03  0.7546771E-02  0.1267891E+00
          1   -1    0    0  502    0  0.00000000000E+00  0.00000000000E+00  0.31158118999E+03  0.31158118999E+03  0.00000000000E+00 0. -1.
         -2   -1    0    0    0  501 -0.00000000000E+00 -0.00000000000E+00 -0.51763837747E+02  0.51763837747E+02  0.00000000000E+00 0.  1.
        -24    2    1    2    0    0 -0.38931268228E+02 -0.23354117424E+02  0.37448462684E+02  0.10332238250E+03  0.84923900772E+02 0.  0.
         23    2    1    2    0    0  0.51258494801E+02  0.41081637118E+02  0.20240892417E+03  0.23061812708E+03  0.88883146642E+02 0.  0.
         13    1    3    3    0    0 -0.55194735517E+02 -0.43156673831E+02  0.22167974615E+02  0.73487253476E+02  0.00000000000E+00 0. -1.
        -14    1    3    3    0    0  0.16263467289E+02  0.19802556407E+02  0.15280488069E+02  0.29835129028E+02  0.00000000000E+00 0.  1.
        -11    1    4    4    0    0 -0.44519538808E+00  0.42246296758E+02  0.33348894060E+02  0.53824683220E+02  0.00000000000E+00 0.  1.
         11    1    4    4    0    0  0.51703690189E+02 -0.11646596404E+01  0.16906003011E+03  0.17679344386E+03  0.00000000000E+00 0. -1.
         21    1    1    2  502  501 -0.12327226573E+02 -0.17727519694E+02  0.19959965393E+02  0.29404518156E+02  0.00000000000E+00 0.  1.
<scales pt_clust_5="13000.00000" pt_clust_6="13000.00000" pt_clust_7="13000.00000" pt_clust_8="13000.00000" pt_clust_9="21.59225"></scales>
<clustering>
<clus scale="   21.592">  2  9  1 -1</clus>
<clus scale="   84.924">  5  6 -1 -1</clus>
<clus scale="   88.883">  7  8 -1 -1</clus>
<clus scale="  103.699">  2  5  1 -1</clus>
<clus scale="  106.966">  1  5  2 -1</clus>
</clustering>
</event>
<event>
 9    1  0.2333971E-005  0.9585182E+02  0.7546771E-02  0.1297851E+00
          1   -1    0    0  502    0  0.00000000000E+00  0.00000000000E+00  0.10397830369E+03  0.10397830369E+03  0.00000000000E+00 0. -1.
         -2   -1    0    0    0  501 -0.00000000000E+00 -0.00000000000E+00 -0.12151424128E+03  0.12151424128E+03  0.00000000000E+00 0.  1.
         23    2    1    2    0    0  0.35897255146E+02  0.14205366139E+00 -0.35449824636E+02  0.10680811322E+03  0.94141647937E+02 0.  0.
        -24    2    1    2    0    0 -0.70900077782E+01  0.13139094876E+02  0.27405649571E+02  0.85573406956E+02  0.79679572822E+02 0.  0.
         11    1    4    4    0    0 -0.78001403128E+01  0.37261996465E+02 -0.11519206551E+02  0.39774246555E+02  0.00000000000E+00 0. -1.
        -12    1    4    4    0    0  0.71013253458E+00 -0.24122901589E+02  0.38924856122E+02  0.45799160400E+02  0.00000000000E+00 0.  1.
        -11    1    3    3    0    0 -0.89135605816E+01 -0.29925000749E+02 -0.42122967099E+02  0.52433782901E+02  0.00000000000E+00 0.  1.
         11    1    3    3    0    0  0.44810815727E+02  0.30067054411E+02  0.66731424633E+01  0.54374330317E+02  0.00000000000E+00 0. -1.
         21    1    1    2  502  501 -0.28807247368E+02 -0.13281148538E+02 -0.94917625237E+01  0.33111024798E+02  0.00000000000E+00 0. -1.
<scales pt_clust_5="13000.00000" pt_clust_6="13000.00000" pt_clust_7="13000.00000" pt_clust_8="13000.00000" pt_clust_9="31.72139"></scales>
<clustering>
<clus scale="   31.721">  2  9  1 -1</clus>
<clus scale="   79.680">  5  6 -1 -1</clus>
<clus scale="   81.693">  1  5  2 -1</clus>
<clus scale="   94.142">  7  8 -1 -1</clus>
<clus scale="   81.693">  1  5  2 -1</clus>
</clustering>
</event>
<event>
 9    1  0.2333971E-005  0.3925118E+03  0.7546771E-02  0.1080175E+00
         -2   -1    0    0    0  501 -0.00000000000E+00  0.00000000000E+00  0.64009683677E+03  0.64009683677E+03  0.00000000000E+00 0.  1.
          1   -1    0    0  502    0  0.00000000000E+00 -0.00000000000E+00 -0.83771900787E+03  0.83771900787E+03  0.00000000000E+00 0. -1.
         23    2    1    2    0    0  0.37096901545E+03 -0.20415551444E+02  0.42262500380E+03  0.56837466116E+03  0.80019100534E+02 0.  0.
        -24    2    1    2    0    0  0.12437169016E+03 -0.20190354432E+02 -0.72080722687E+02  0.16951029916E+03  0.87533669026E+02 0.  0.
         11    1    4    4    0    0  0.81413028203E+02 -0.54895199659E+02 -0.46737400692E+02  0.10874717803E+03  0.00000000000E+00 0. -1.
        -12    1    4    4    0    0  0.42958661959E+02  0.34704845227E+02 -0.25343321995E+02  0.60763121128E+02  0.00000000000E+00 0.  1.
        -13    1    3    3    0    0  0.26923766297E+03 -0.42012533713E+02  0.33888459960E+03  0.43485255432E+03  0.00000000000E+00 0.  1.
         13    1    3    3    0    0  0.10173135248E+03  0.21596982270E+02  0.83740404195E+02  0.13352210684E+03  0.00000000000E+00 0. -1.
         21    1    1    2  502  501 -0.49534070561E+03  0.40605905876E+02 -0.54816645221E+03  0.73993088431E+03  0.00000000000E+00 0. -1.
<scales pt_clust_5="13000.00000" pt_clust_6="13000.00000" pt_clust_7="13000.00000" pt_clust_8="13000.00000" pt_clust_9="384.26872"></scales>
<clustering>
<clus scale="   80.019">  7  8 -1 -1</clus>
<clus scale="   87.534">  5  6 -1 -1</clus>
<clus scale="  153.421">  2  5  1 -1</clus>
<clus scale="  384.269">  2  9  1 -1</clus>
<clus scale="  153.421">  2  5  1 -1</clus>
</clustering>
</event>
<event>
 9    1  0.2333971E-005  0.1488907E+03  0.7546771E-02  0.1206813E+00
          3   -1    0    0  502    0  0.00000000000E+00  0.00000000000E+00  0.30146772928E+03  0.30146772928E+03  0.00000000000E+00 0. -1.
         -4   -1    0    0    0  501 -0.00000000000E+00 -0.00000000000E+00 -0.10705810700E+03  0.10705810700E+03  0.00000000000E+00 0.  1.
        -24    2    1    2    0    0  0.10216683321E+03  0.38675033627E+02  0.33528781093E+02  0.14016527573E+03  0.81168376375E+02 0.  0.
         23    2    1    2    0    0 -0.10833509777E+03  0.11264826009E+02  0.15735402994E+03  0.21791776655E+03  0.10423278049E+03 0.  0.
         11    1    3    3    0    0  0.44222136658E+02  0.56525419071E+02  0.19323420211E+01  0.71794528464E+02  0.00000000000E+00 0. -1.
        -12    1    3    3    0    0  0.57944696554E+02 -0.17850385443E+02  0.31596439072E+02  0.68370747263E+02  0.00000000000E+00 0.  1.
        -13    1    4    4    0    0 -0.12463719036E+03  0.22870408408E+02  0.11520298577E+03  0.17125773773E+03  0.00000000000E+00 0. -1.
         13    1    4    4    0    0  0.16302092590E+02 -0.11605582399E+02  0.42151044166E+02  0.46660028824E+02  0.00000000000E+00 0.  1.
         21    1    1    2  502  501  0.61682645565E+01 -0.49939859637E+02  0.35268112459E+01  0.50442793992E+02  0.00000000000E+00 0.  1.
<scales pt_clust_5="13000.00000" pt_clust_6="13000.00000" pt_clust_7="13000.00000" pt_clust_8="13000.00000" pt_clust_9="50.31935"></scales>
<clustering>
<clus scale="   50.319">  2  9  1 -1</clus>
<clus scale="   81.168">  5  6 -1 -1</clus>
<clus scale="  104.233">  7  8 -1 -1</clus>
<clus scale="  133.762">  2  5  1 -1</clus>
<clus scale="  148.891">  1  5  2 -1</clus>
</clustering>
</event>
<event>
 9    1  0.2333971E-005  0.1028016E+03  0.7546771E-02  0.1287139E+00
          1   -1    0    0  502    0  0.00000000000E+00  0.00000000000E+00  0.34162404209E+03  0.34162404209E+03  0.00000000000E+00 0. -1.
         -2   -1    0    0    0  501 -0.00000000000E+00 -0.00000000000E+00 -0.49830711983E+02  0.49830711983E+02  0.00000000000E+00 0.  1.
         23    2    1    2    0    0  0.12423188614E+02 -0.29793708997E+02  0.54474943046E+02  0.11873412042E+03  0.10044038640E+03 0.  0.
        -24    2    1    2    0    0 -0.23412187788E+02 -0.94776733274E+00  0.22246620805E+03  0.23685444218E+03  0.77844616091E+02 0.  0.
         11    1    4    4    0    0  0.19585971619E+02  0.15133188192E+02  0.29525915700E+02  0.38527955656E+02  0.00000000000E+00 0. -1.
        -12    1    4    4    0    0 -0.42998159407E+02 -0.16080955525E+02  0.19294029235E+03  0.19832648652E+03  0.00000000000E+00 0.  1.
        -13    1    3    3    0    0  0.34849534554E+02 -0.42286159691E+02 -0.39296488139E+01  0.54936795500E+02  0.00000000000E+00 0. -1.
         13    1    3    3    0    0 -0.22426345940E+02  0.12492450694E+02  0.58404591860E+02  0.63797324919E+02  0.00000000000E+00 0.  1.
         21    1    1    2  502  501  0.10988999174E+02  0.30741476330E+02  0.14852179011E+02  0.35866191478E+02  0.00000000000E+00 0.  1.
<scales pt_clust_5="13000.00000" pt_clust_6="13000.00000" pt_clust_7="13000.00000" pt_clust_8="13000.00000" pt_clust_9="32.64654"></scales>
<clustering>
<clus scale="   32.647">  2  9  1 -1</clus>
<clus scale="   77.845">  5  6 -1 -1</clus>
<clus scale="   80.868">  1  5  2 -1</clus>
<clus scale="  100.440">  7  8 -1 -1</clus>
<clus scale="   80.868">  1  5  2 -1</clus>
</clustering>
</event>
<event>
 9    1  0.2333971E-005  0.9189332E+02  0.7546771E-02  0.1299618E+00
         -4   -1    0    0    0  501 -0.00000000000E+00  0.00000000000E+00  0.35009619227E+03  0.35009619227E+03  0.00000000000E+00 0.  1.
          3   -1    0    0  502    0  0.00000000000E+00 -0.00000000000E+00 -0.17564904992E+03  0.17564904992E+03  0.00000000000E+00 0. -1.
         23    2    1    2    0    0  0.37572781505E+02 -0.23615420814E+02  0.14831777891E+03  0.17953702911E+03  0.90917431068E+02 0.  0.
        -24    2    1    2    0    0  0.20666812366E+01 -0.16279740189E+02 -0.14237621962E+03  0.16856519352E+03  0.88735198427E+02 0.  0.
         13    1    4    4    0    0  0.16018375673E+02 -0.46714796611E+02 -0.11555750254E+03  0.12566780405E+03  0.00000000000E+00 0. -1.
        -14    1    4    4    0    0 -0.13951694436E+02  0.30435056423E+02 -0.26818717078E+02  0.42897389464E+02  0.00000000000E+00 0.  1.
        -11    1    3    3    0    0 -0.28559971469E+02 -0.55651374499E+01  0.67862678403E+02  0.73837563916E+02  0.00000000000E+00 0.  1.
         11    1    3    3    0    0  0.66132752974E+02 -0.18050283364E+02  0.80455100506E+02  0.10569946520E+03  0.00000000000E+00 0. -1.
         21    1    1    2  502  501 -0.39639462742E+02  0.39895161002E+02  0.16850558306E+03  0.17764301956E+03  0.00000000000E+00 0.  1.
<scales pt_clust_5="13000.00000" pt_clust_6="13000.00000" pt_clust_7="13000.00000" pt_clust_8="13000.00000" pt_clust_9="56.23976"></scales>
<clustering>
<clus scale="   56.240">  1  9  2 -1</clus>
<clus scale="   88.735">  5  6 -1 -1</clus>
<clus scale="   89.735">  2  5  1 -1</clus>
<clus scale="   90.917">  7  8 -1 -1</clus>
<clus scale="   89.735">  2  5  1 -1</clus>
</clustering>
</event>
<event>
 9    1  0.2333971E-005  0.9544684E+02  0.7546771E-02  0.1295142E+00
          1   -1    0    0  502    0  0.00000000000E+00  0.00000000000E+00  0.21709641800E+03  0.21709641800E+03  0.00000000000E+00 0. -1.
         -2   -1    0    0    0  501 -0.00000000000E+00 -0.00000000000E+00 -0.62428272761E+02  0.62428272761E+02  0.00000000000E+00 0.  1.
        -24    2    1    2    0    0 -0.10299714806E+02  0.11953062495E+02  0.20793783859E+01  0.82424671862E+02  0.80873622950E+02 0.  0.
         23    2    1    2    0    0  0.19152021763E+02 -0.33268321289E+02  0.14017510467E+03  0.17089309987E+03  0.89898890293E+02 0.  0.
         11    1    3    3    0    0 -0.38159900357E+02  0.14254922575E+00  0.23981328188E+02  0.45069972456E+02  0.00000000000E+00 0. -1.
        -12    1    3    3    0    0  0.27860185550E+02  0.11810513269E+02 -0.21901949802E+02  0.37354699406E+02  0.00000000000E+00 0.  1.
        -13    1    4    4    0    0 -0.19098403241E+02 -0.84542648637E+01 -0.25697145303E+01  0.21043455836E+02  0.00000000000E+00 0. -1.
         13    1    4    4    0    0  0.38250425005E+02 -0.24814056425E+02  0.14274481920E+03  0.14984964404E+03  0.00000000000E+00 0.  1.
         21    1    1    2  502  501 -0.88523069569E+01  0.21315258793E+02  0.12413662178E+02  0.26206919021E+02  0.00000000000E+00 0. -1.
<scales pt_clust_5="13000.00000" pt_clust_6="13000.00000" pt_clust_7="13000.00000" pt_clust_8="13000.00000" pt_clust_9="23.08037"></scales>
<clustering>
<clus scale="   23.080">  2  9  1 -1</clus>
<clus scale="   80.874">  5  6 -1 -1</clus>
<clus scale="   86.999">  2  5  1 -1</clus>
<clus scale="   89.899">  7  8 -1 -1</clus>
<clus scale="   95.447">  1  5  2 -1</clus>
</clustering>
</event>
<event>
 9    1  0.2333971E-005  0.1024677E+03  0.7546771E-02  0.1280066E+00
         -2   -1    0    0    0  501 -0.00000000000E+00  0.00000000000E+00  0.11572658982E+03  0.11572658982E+03  0.00000000000E+00 0.  1.
          1   -1    0    0  502    0  0.00000000000E+00 -0.00000000000E+00 -0.17277994705E+03  0.17277994705E+03  0.00000000000E+00 0. -1.
        -24    2    1    2    0    0 -0.41772043236E+02 -0.36870582161E+02  0.52304170114E+02  0.11111998844E+03  0.80669586548E+02 0.  0.
         23    2    1    2    0    0  0.16233808940E+02  0.20177123355E+01 -0.93010644217E+02  0.13118974623E+03  0.91061308268E+02 0.  0.
         11    1    3    3    0    0  0.48392314846E+01 -0.28208453432E+02 -0.12162426500E+02  0.31097582298E+02  0.00000000000E+00 0. -1.
        -12    1    3    3    0    0 -0.46611274720E+02 -0.86621287296E+01  0.64466596615E+02  0.80022406139E+02  0.00000000000E+00 0.  1.
        -13    1    4    4    0    0 -0.31348277976E+02  0.16050552381E+02 -0.14005562886E+02  0.37901062723E+02  0.00000000000E+00 0.  1.
         13    1    4    4    0    0  0.47582086916E+02 -0.14032840045E+02 -0.79005081331E+02  0.93288683511E+02  0.00000000000E+00 0. -1.
         21    1    1    2  502  501  0.25538234295E+02  0.34852869826E+02 -0.16346883126E+02  0.46196802205E+02  0.00000000000E+00 0. -1.
<scales pt_clust_5="13000.00000" pt_clust_6="13000.00000" pt_clust_7="13000.00000" pt_clust_8="13000.00000" pt_clust_9="43.20792"></scales>
<clustering>
<clus scale="   43.208">  2  9  1 -1</clus>
<clus scale="   80.670">  5  6 -1 -1</clus>
<clus scale="   91.061">  7  8 -1 -1</clus>
<clus scale="   93.354">  1  5  2 -1</clus>
<clus scale="   43.208">  2  5  1 -1</clus>
</clustering>
</event>
<event>
 9    1  0.2333971E-005  0.1255224E+03  0.7546771E-02  0.1236910E+00
          1   -1    0    0  502    0  0.00000000000E+00  0.00000000000E+00  0.37544434550E+03  0.37544434550E+03  0.00000000000E+00 0. -1.
         -2   -1    0    0    0  501 -0.00000000000E+00 -0.00000000000E+00 -0.67611700097E+02  0.67611700097E+02  0.00000000000E+00 0.  1.
         23    2    1    2    0    0 -0.91931063312E+02 -0.32164606424E+02  0.73044886677E+02  0.15223869168E+03  0.91406681744E+02 0.  0.
        -24    2    1    2    0    0  0.58921678525E+02  0.60394445126E+02  0.21019617071E+03  0.24090453514E+03  0.82056758800E+02 0.  0.
         11    1    4    4    0    0  0.49231789407E+02 -0.65188892000E+01  0.79030620219E+02  0.93338651891E+02  0.00000000000E+00 0. -1.
        -12    1    4    4    0    0  0.96898891183E+01  0.66913334326E+02  0.13116555049E+03  0.14756588325E+03  0.00000000000E+00 0.  1.
        -13    1    3    3    0    0 -0.35210026759E+02 -0.31879680567E+02 -0.12940970577E+02  0.49229348329E+02  0.00000000000E+00 0.  1.
         13    1    3    3    0    0 -0.56721036553E+02 -0.28492585615E+00  0.85985857254E+02  0.10300934335E+03  0.00000000000E+00 0. -1.
         21    1    1    2  502  501  0.33009384787E+02 -0.28229838702E+02  0.24591588010E+02  0.49912818774E+02  0.00000000000E+00 0. -1.
<scales pt_clust_5="13000.00000" pt_clust_6="13000.00000" pt_clust_7="13000.00000" pt_clust_8="13000.00000" pt_clust_9="43.43436"></scales>
<clustering>
<clus scale="   43.434">  2  9  1 -1</clus>
<clus scale="   82.057">  5  6 -1 -1</clus>
<clus scale="   91.407">  7  8 -1 -1</clus>
<clus scale="  118.886">  1  5  2 -1</clus>
<clus scale="  118.886">  1  5  2 -1</clus>
</clustering>
</event>
<event>
 9    1  0.2333971E-005  0.1056885E+03  0.7546771E-02  0.1273231E+00
         -4   -1    0    0    0  501 -0.00000000000E+00  0.00000000000E+00  0.89026104777E+02  0.89026104777E+02  0.00000000000E+00 0.  1.
          3   -1    0    0  502    0  0.00000000000E+00 -0.00000000000E+00 -0.39464244944E+03  0.39464244944E+03  0.00000000000E+00 0. -1.
        -24    2    1    2    0    0  0.25100997351E+02  0.61628040279E+01  0.79515293736E+01  0.85216790664E+02  0.80812340458E+02 0.  0.
         23    2    1    2    0    0 -0.49670786673E+02  0.34297867174E+02 -0.33056210153E+03  0.34815718899E+03  0.91096621967E+02 0.  0.
         13    1    3    3    0    0 -0.15555804552E+02  0.28106930202E+02 -0.12785698302E+02  0.34575376523E+02  0.00000000000E+00 0. -1.
        -14    1    3    3    0    0  0.40656801903E+02 -0.21944126174E+02  0.20737227675E+02  0.50641414141E+02  0.00000000000E+00 0.  1.
        -11    1    4    4    0    0 -0.33894241756E+02 -0.22414233198E+02 -0.21114551647E+03  0.21502010743E+03  0.00000000000E+00 0.  1.
         11    1    4    4    0    0 -0.15776544918E+02  0.56712100371E+02 -0.11941658507E+03  0.13313708156E+03  0.00000000000E+00 0. -1.
         21    1    1    2  502  501  0.24569789323E+02 -0.40460671202E+02  0.16994227502E+02  0.50294574557E+02  0.00000000000E+00 0.  1.
<scales pt_clust_5="13000.00000" pt_clust_6="13000.00000" pt_clust_7="13000.00000" pt_clust_8="13000.00000" pt_clust_9="47.33646"></scales>
<clustering>
<clus scale="   47.336">  1  9  2 -1</clus>
<clus scale="   80.812">  5  6 -1 -1</clus>
<clus scale="   91.097">  7  8 -1 -1</clus>
<clus scale="   96.964">  1  5  2 -1</clus>
<clus scale="  105.688">  2  5  1 -1</clus>
</clustering>
</event>
<event>
 9    1  0.2333971E-005  0.1080002E+03  0.7546771E-02  0.1266922E+00
         -2   -1    0    0    0  501 -0.00000000000E+00  0.00000000000E+00  0.42104904612E+03  0.42104904612E+03  0.00000000000E+00 0.  1.
          1   -1    0    0  502    0  0.00000000000E+00 -0.00000000000E+00 -0.12590640254E+03  0.12590640254E+03  0.00000000000E+00 0. -1.
         23    2    1    2    0    0 -0.15232186793E+02  0.51416056642E+02  0.32358692257E+03  0.33878756007E+03  0.84810872003E+02 0.  0.
        -24    2    1    2    0    0 -0.32577722441E+02 -0.60782247837E+02 -0.84405727596E+02  0.13397087592E+03  0.77897876040E+02 0.  0.
         13    1    4    4    0    0  0.12191554733E+02 -0.57507765858E+02 -0.53361936985E+02  0.79393157511E+02  0.00000000000E+00 0. -1.
        -14    1    4    4    0    0 -0.44769277174E+02 -0.32744819787E+01 -0.31043790611E+02  0.54577718407E+02  0.00000000000E+00 0.  1.
        -11    1    3    3    0    0 -0.32956037273E+02 -0.10928974765E+02  0.13409438665E+03  0.13851659616E+03  0.00000000000E+00 0. -1.
         11    1    3    3    0    0  0.17723850481E+02  0.62345031407E+02  0.18949253592E+03  0.20027096391E+03  0.00000000000E+00 0.  1.
         21    1    1    2  502  501  0.47809909234E+02  0.93661911946E+01  0.55961448610E+02  0.74197012668E+02  0.00000000000E+00 0.  1.
<scales pt_clust_5="13000.00000" pt_clust_6="13000.00000" pt_clust_7="13000.00000" pt_clust_8="13000.00000" pt_clust_9="48.71871"></scales>
<clustering>
<clus scale="   48.719">  1  9  2 -1</clus>
<clus scale="   77.898">  5  6 -1 -1</clus>
<clus scale="   84.811">  7  8 -1 -1</clus>
<clus scale="  102.661">  2  5  1 -1</clus>
<clus scale="  102.661">  2  5  1 -1</clus>
</clustering>
</event>
<event>
 9    1  0.2333971E-005  0.1102298E+03  0.7546771E-02  0.1265746E+00
         -2   -1    0    0    0  501 -0.00000000000E+00  0.00000000000E+00  0.26700285457E+03  0.26700285457E+03  0.00000000000E+00 0.  1.
          1   -1    0    0  502    0  0.00000000000E+00 -0.00000000000E+00 -0.85852308684E+02  0.85852308684E+02  0.00000000000E+00 0. -1.
         23    2    1    2    0    0  0.14478533289E+02  0.17237258446E+02  0.14946832843E+03  0.17757773086E+03  0.93200420012E+02 0.  0.
        -24    2    1    2    0    0 -0.62112956162E+02 -0.31007663452E+02 -0.15823616507E+02  0.10660817758E+03  0.79343696477E+02 0.  0.
         11    1    4    4    0    0 -0.55184549959E+02  0.60192537039E+01 -0.33670149607E+02  0.64924917742E+02  0.00000000000E+00 0. -1.
        -12    1    4    4    0    0 -0.69284062035E+01 -0.37026917156E+02  0.17846533100E+02  0.41683259833E+02  0.00000000000E+00 0.  1.
        -11    1    3    3    0    0 -0.30168430956E+01 -0.37903658434E+02  0.60337638451E+02  0.71319136834E+02  0.00000000000E+00 0. -1.
         11    1    3    3    0    0  0.17495376385E+02  0.55140916880E+02  0.89130689975E+02  0.10625859403E+03  0.00000000000E+00 0.  1.
         21    1    1    2  502  501  0.47634422873E+02  0.13770405006E+02  0.47505833969E+02  0.68669254820E+02  0.00000000000E+00 0.  1.
<scales pt_clust_5="13000.00000" pt_clust_6="13000.00000" pt_clust_7="13000.00000" pt_clust_8="13000.00000" pt_clust_9="49.58490"></scales>
<clustering>
<clus scale="   49.585">  1  9  2 -1</clus>
<clus scale="   79.344">  5  6 -1 -1</clus>
<clus scale="   93.200">  7  8 -1 -1</clus>
<clus scale="   98.791">  2  5  1 -1</clus>
<clus scale="   98.791">  2  5  1 -1</clus>
</clustering>
</event>
<event>
 9    1  0.2333971E-005  0.9799400E+02  0.7546771E-02  0.1291667E+00
          1   -1    0    0  502    0  0.00000000000E+00  0.00000000000E+00  0.89664229892E+02  0.89664229892E+02  0.00000000000E+00 0. -1.
         -2   -1    0    0    0  501 -0.00000000000E+00 -0.00000000000E+00 -0.16783506924E+03  0.16783506924E+03  0.00000000000E+00 0.  1.
        -24    2    1    2    0    0 -0.10379234609E+02  0.11650378347E+02 -0.53905355523E+02  0.97058974485E+02  0.79190891820E+02 0.  0.
         23    2    1    2    0    0  0.42205458926E+02 -0.11015209359E+02  0.21859835164E+02  0.10439697495E+03  0.92294313931E+02 0.  0.
         13    1    3    3    0    0  0.26450559667E+02 -0.99578320199E+01  0.34896713693E-01  0.28262904008E+02  0.00000000000E+00 0. -1.
        -14    1    3    3    0    0 -0.36829794275E+02  0.21608210367E+02 -0.53940252237E+02  0.68796070476E+02  0.00000000000E+00 0.  1.
        -13    1    4    4    0    0 -0.22222432142E+02 -0.12158252430E+02 -0.15709323827E+02  0.29806751711E+02  0.00000000000E+00 0.  1.
         13    1    4    4    0    0  0.64427891068E+02  0.11430430708E+01  0.37569158991E+02  0.74590223235E+02  0.00000000000E+00 0. -1.
         21    1    1    2  502  501 -0.31826224317E+02 -0.63516898842E+00 -0.46125318990E+02  0.56043349702E+02  0.00000000000E+00 0.  1.
<scales pt_clust_5="13000.00000" pt_clust_6="13000.00000" pt_clust_7="13000.00000" pt_clust_8="13000.00000" pt_clust_9="31.83256"></scales>
<clustering>
<clus scale="   31.833">  2  9  1 -1</clus>
<clus scale="   79.191">  5  6 -1 -1</clus>
<clus scale="   85.766">  2  5  1 -1</clus>
<clus scale="   92.294">  7  8 -1 -1</clus>
<clus scale="   97.994">  1  5  2 -1</clus>
</clustering>
</event>
<event>
 9    1  0.2333971E-005  0.9347245E+02  0.7546771E-02  0.1300239E+00
         -2   -1    0    0    0  501 -0.00000000000E+00  0.00000000000E+00  0.78730425002E+02  0.78730425002E+02  0.00000000000E+00 0.  1.
          1   -1    0    0  502    0  0.00000000000E+00 -0.00000000000E+00 -0.23721515371E+03  0.23721515371E+03  0.00000000000E+00 0. -1.
        -24    2    1    2    0    0 -0.30946223503E+01  0.26255103567E+02  0.29816571586E+02  0.90443213564E+02  0.81191377546E+02 0.  0.
         23    2    1    2    0    0 -0.59228772952E+00  0.93681485129E-01 -0.17159872939E+03  0.19408855203E+03  0.90685624665E+02 0.  0.
         11    1    3    3    0    0  0.18170186295E+02  0.47054686798E+02  0.32246313572E+01  0.50544015145E+02  0.00000000000E+00 0. -1.
        -12    1    3    3    0    0 -0.21264808645E+02 -0.20799583231E+02  0.26591940229E+02  0.39899198419E+02  0.00000000000E+00 0.  1.
        -11    1    4    4    0    0 -0.37156388036E+00 -0.45293952727E+02 -0.84804833201E+02  0.96143330230E+02  0.00000000000E+00 0.  1.
         11    1    4    4    0    0 -0.22072384916E+00  0.45387634212E+02 -0.86793896191E+02  0.97945221805E+02  0.00000000000E+00 0. -1.
         21    1    1    2  502  501  0.36869100798E+01 -0.26348785052E+02 -0.16702570903E+02  0.31413813115E+02  0.00000000000E+00 0.  1.
<scales pt_clust_5="13000.00000" pt_clust_6="13000.00000" pt_clust_7="13000.00000" pt_clust_8="13000.00000" pt_clust_9="26.60548"></scales>
<clustering>
<clus scale="   26.605">  2  9  1 -1</clus>
<clus scale="   81.191">  5  6 -1 -1</clus>
<clus scale="   84.293">  1  5  2 -1</clus>
<clus scale="   90.686">  7  8 -1 -1</clus>
<clus scale="   26.605">  2  5  1 -1</clus>
</clustering>
</event>
<event>
 9    1  0.2333971E-005  0.1700754E+03  0.7546771E-02  0.1180251E+00
         -2   -1    0    0    0  501 -0.00000000000E+00  0.00000000000E+00  0.96899140678E+02  0.96899140678E+02  0.00000000000E+00 0.  1.
          1   -1    0    0  502    0  0.00000000000E+00 -0.00000000000E+00 -0.78330733182E+03  0.78330733182E+03  0.00000000000E+00 0. -1.
         23    2    1    2    0    0 -0.62039652651E+01  0.67157423295E+02 -0.28072693139E+02  0.12196411883E+03  0.97665559404E+02 0.  0.
        -24    2    1    2    0    0  0.37550605712E+02 -0.15324407661E+03 -0.64097176490E+03  0.66499524661E+03  0.80498941648E+02 0.  0.
         13    1    4    4    0    0  0.29932214936E+02 -0.16084067856E+03 -0.62229548324E+03  0.64344178434E+03  0.00000000000E+00 0. -1.
        -14    1    4    4    0    0  0.76183907754E+01  0.75966019493E+01 -0.18676281658E+02  0.21553462268E+02  0.00000000000E+00 0.  1.
        -13    1    3    3    0    0  0.17547217297E+02  0.67713199705E+02 -0.52824850187E+02  0.87655273922E+02  0.00000000000E+00 0.  1.
         13    1    3    3    0    0 -0.23751182562E+02 -0.55577640994E+00  0.24752157048E+02  0.34308844909E+02  0.00000000000E+00 0. -1.
         21    1    1    2  502  501 -0.31346640447E+02  0.86086653319E+02 -0.17363733099E+02  0.93247107055E+02  0.00000000000E+00 0.  1.
<scales pt_clust_5="13000.00000" pt_clust_6="13000.00000" pt_clust_7="13000.00000" pt_clust_8="13000.00000" pt_clust_9="91.61618"></scales>
<clustering>
<clus scale="   80.499">  5  6 -1 -1</clus>
<clus scale="   91.616">  1  9  2 -1</clus>
<clus scale="   97.666">  7  8 -1 -1</clus>
<clus scale="  160.833">  2  5  1 -1</clus>
<clus scale="  160.833">  2  5  1 -1</clus>
</clustering>
</event>
<event>
 9    1  0.2333971E-005  0.1244186E+03  0.7546771E-02  0.1236012E+00
          1   -1    0    0  502    0  0.00000000000E+00  0.00000000000E+00  0.36834584336E+03  0.36834584336E+03  0.00000000000E+00 0. -1.
         -2   -1    0    0    0  501 -0.00000000000E+00 -0.00000000000E+00 -0.11293613904E+03  0.11293613904E+03  0.00000000000E+00 0.  1.
        -24    2    1    2    0    0 -0.68980648713E+02  0.33561054838E+02  0.12756515484E+03  0.17537991025E+03  0.92739257555E+02 0.  0.
         23    2    1    2    0    0  0.91039211474E+02 -0.36872063848E+01  0.19191506676E+03  0.23184764488E+03  0.92845054108E+02 0.  0.
         13    1    3    3    0    0 -0.10848287084E+01  0.45592733800E+02  0.78377590009E+02  0.90680322256E+02  0.00000000000E+00 0. -1.
        -14    1    3    3    0    0 -0.67895820005E+02 -0.12031678963E+02  0.49187564832E+02  0.84699587997E+02  0.00000000000E+00 0.  1.
        -13    1    4    4    0    0  0.86961575449E+02 -0.34099450670E+02  0.10962765917E+03  0.14402538594E+03  0.00000000000E+00 0.  1.
         13    1    4    4    0    0  0.40776360250E+01  0.30412244285E+02  0.82287407588E+02  0.87822258941E+02  0.00000000000E+00 0. -1.
         21    1    1    2  502  501 -0.22058562761E+02 -0.29873848453E+02 -0.64070517284E+02  0.74054427265E+02  0.00000000000E+00 0.  1.
<scales pt_clust_5="13000.00000" pt_clust_6="13000.00000" pt_clust_7="13000.00000" pt_clust_8="13000.00000" pt_clust_9="37.13525"></scales>
<clustering>
<clus scale="   37.135">  2  9  1 -1</clus>
<clus scale="   92.739">  5  6 -1 -1</clus>
<clus scale="   92.845">  7  8 -1 -1</clus>
<clus scale="  124.340">  2  5  1 -1</clus>
<clus scale="  124.419">  1  5  2 -1</clus>
</clustering>
</event>
<event>
 9    1  0.2333971E-005  0.1645724E+03  0.7546771E-02  0.1204299E+00
          1   -1    0    0  502    0  0.00000000000E+00  0.00000000000E+00  0.14243236470E+03  0.14243236470E+03  0.00000000000E+00 0. -1.
         -2   -1    0    0    0  501 -0.00000000000E+00 -0.00000000000E+00 -0.12304277814E+04  0.12304277814E+04  0.00000000000E+00 0.  1.
         23    2    1    2    0    0  0.10511714977E+02 -0.49121142890E+02 -0.48492222042E+03  0.49606615798E+03  0.91698911685E+02 0.  0.
        -24    2    1    2    0    0 -0.85199016932E+02 -0.11257201191E+03  0.72633006978E+02  0.17800808206E+03  0.80498405094E+02 0.  0.
         11    1    4    4    0    0 -0.80907213112E+02 -0.67225560318E+02  0.79619644324E+02  0.13192627053E+03  0.00000000000E+00 0. -1.
        -12    1    4    4    0    0 -0.42918038196E+01 -0.45346451594E+02 -0.69866373458E+01  0.46081811527E+02  0.00000000000E+00 0.  1.
        -11    1    3    3    0    0  0.50359105712E+02 -0.37690697533E+02 -0.30712360776E+03  0.31349886547E+03  0.00000000000E+00 0.  1.
         11    1    3    3    0    0 -0.39847390735E+02 -0.11430445357E+02 -0.17779861266E+03  0.18256729251E+03  0.00000000000E+00 0. -1.
         21    1    1    2  502  501  0.74687301954E+02  0.16169315480E+03 -0.67570620331E+03  0.69878590611E+03  0.00000000000E+00 0.  1.
<scales pt_clust_5="13000.00000" pt_clust_6="13000.00000" pt_clust_7="13000.00000" pt_clust_8="13000.00000" pt_clust_9="143.54118"></scales>
<clustering>
<clus scale="   80.498">  5  6 -1 -1</clus>
<clus scale="   91.699">  7  8 -1 -1</clus>
<clus scale="  104.557">  2  7  1 -1</clus>
<clus scale="  143.541">  2  9  1 -1</clus>
<clus scale="  164.572">  1  5  2 -1</clus>
</clustering>
</event>
<event>
 9    1  0.2333971E-005  0.1045363E+03  0.7546771E-02  0.1275768E+00
         -2   -1    0    0    0  501 -0.00000000000E+00  0.00000000000E+00  0.20213266833E+03  0.20213266833E+03  0.00000000000E+00 0.  1.
          1   -1    0    0  502    0  0.00000000000E+00 -0.00000000000E+00 -0.13875980197E+03  0.13875980197E+03  0.00000000000E+00 0. -1.
        -24    2    1    2    0    0 -0.96255157379E+02 -0.27667935848E+02  0.10473431919E+03  0.16539718591E+03  0.79726918258E+02 0.  0.
         23    2    1    2    0    0  0.42530220360E+02  0.31687737296E+00 -0.54467702390E+02  0.11380068953E+03  0.90415409521E+02 0.  0.
         11    1    3    3    0    0 -0.52963199211E+02  0.14797025429E+02  0.14836111046E+02  0.56957551064E+02  0.00000000000E+00 0. -1.
        -12    1    3    3    0    0 -0.43291958168E+02 -0.42464961277E+02  0.89898208145E+02  0.10843963485E+03  0.00000000000E+00 0.  1.
        -11    1    4    4    0    0  0.19809200140E+02  0.45329109185E+02 -0.25600589102E+02  0.55700293645E+02  0.00000000000E+00 0.  1.
         11    1    4    4    0    0  0.22721020219E+02 -0.45012231812E+02 -0.28867113287E+02  0.58100395886E+02  0.00000000000E+00 0. -1.
         21    1    1    2  502  501  0.53724937020E+02  0.27351058475E+02  0.13106249555E+02  0.61694594859E+02  0.00000000000E+00 0.  1.
<scales pt_clust_5="13000.00000" pt_clust_6="13000.00000" pt_clust_7="13000.00000" pt_clust_8="13000.00000" pt_clust_9="60.28639"></scales>
<clustering>
<clus scale="   60.286">  1  9  2 -1</clus>
<clus scale="   79.727">  5  6 -1 -1</clus>
<clus scale="   90.415">  7  8 -1 -1</clus>
<clus scale="   95.443">  1  5  2 -1</clus>
<clus scale="  104.536">  2  5  1 -1</clus>
</clustering>
</event>
<event>
 9    1  0.2333971E-005  0.1309960E+03  0.7546771E-02  0.1228032E+00
          1   -1    0    0  502    0  0.00000000000E+00  0.00000000000E+00  0.30814575424E+03  0.30814575424E+03  0.00000000000E+00 0. -1.
         -2   -1    0    0    0  501 -0.00000000000E+00 -0.00000000000E+00 -0.14549140205E+03  0.14549140205E+03  0.00000000000E+00 0.  1.
        -24    2    1    2    0    0 -0.10761648173E+03  0.38355834561E+02  0.18733780558E-01  0.14063274158E+03  0.82006648924E+02 0.  0.
         23    2    1    2    0    0  0.62574887468E+02 -0.68360558477E+02  0.20630655834E+03  0.24346176832E+03  0.90124658788E+02 0.  0.
         13    1    3    3    0    0 -0.85709669290E+01  0.27500949991E+02  0.24741945318E+02  0.37972721559E+02  0.00000000000E+00 0. -1.
        -14    1    3    3    0    0 -0.99045514806E+02  0.10854884570E+02 -0.24723211537E+02  0.10266002002E+03  0.00000000000E+00 0.  1.
        -11    1    4    4    0    0 -0.22337065743E+02 -0.42881553855E+01  0.41023605496E+02  0.46907024960E+02  0.00000000000E+00 0.  1.
         11    1    4    4    0    0  0.84911953212E+02 -0.64072403092E+02  0.16528295285E+03  0.19655474336E+03  0.00000000000E+00 0. -1.
         21    1    1    2  502  501  0.45041594266E+02  0.30004723916E+02 -0.43670939934E+02  0.69542646384E+02  0.00000000000E+00 0. -1.
<scales pt_clust_5="13000.00000" pt_clust_6="13000.00000" pt_clust_7="13000.00000" pt_clust_8="13000.00000" pt_clust_9="54.12050"></scales>
<clustering>
<clus scale="   54.121">  2  9  1 -1</clus>
<clus scale="   82.007">  5  6 -1 -1</clus>
<clus scale="   90.125">  7  8 -1 -1</clus>
<clus scale="  125.549">  2  5  1 -1</clus>
<clus scale="  130.996">  1  5  2 -1</clus>
</clustering>
</event>
<event>
 9    1  0.2333971E-005  0.9495679E+02  0.7546771E-02  0.1301138E+00
          3   -1    0    0  502    0  0.00000000000E+00  0.00000000000E+00  0.77823629176E+02  0.77823629176E+02  0.00000000000E+00 0. -1.
         -4   -1    0    0    0  501 -0.00000000000E+00 -0.00000000000E+00 -0.18366869960E+03  0.18366869960E+03  0.00000000000E+00 0.  1.
        -24    2    1    2    0    0 -0.63216733065E+01 -0.71407320151E+01 -0.11527779971E+03  0.13830951072E+03  0.75826090763E+02 0.  0.
         23    2    1    2    0    0  0.26506566831E+02  0.45476731662E+01  0.22881167088E+02  0.98789901876E+02  0.92263847140E+02 0.  0.
         13    1    3    3    0    0  0.28326696351E+02 -0.18957456426E+02 -0.29619280998E+02  0.45156269633E+02  0.00000000000E+00 0. -1.
        -14    1    3    3    0    0 -0.34648369657E+02  0.11816724410E+02 -0.85658518716E+02  0.93153241083E+02  0.00000000000E+00 0.  1.
        -11    1    4    4    0    0 -0.20208016735E+02 -0.25741074408E+02 -0.98887573641E+01  0.34187049803E+02  0.00000000000E+00 0.  1.
         11    1    4    4    0    0  0.46714583566E+02  0.30288747575E+02  0.32769924452E+02  0.64602852073E+02  0.00000000000E+00 0. -1.
         21    1    1    2  502  501 -0.20184893524E+02  0.25930588489E+01 -0.13448437798E+02  0.24392916184E+02  0.00000000000E+00 0. -1.
<scales pt_clust_5="13000.00000" pt_clust_6="13000.00000" pt_clust_7="13000.00000" pt_clust_8="13000.00000" pt_clust_9="20.35077"></scales>
<clustering>
<clus scale="   20.351">  2  9  1 -1</clus>
<clus scale="   75.826">  5  6 -1 -1</clus>
<clus scale="   79.081">  2  5  1 -1</clus>
<clus scale="   92.264">  7  8 -1 -1</clus>
<clus scale="   94.957">  1  5  2 -1</clus>
</clustering>
</event>
<event>
 9    1  0.2333971E-005  0.1054147E+03  0.7546771E-02  0.1273424E+00
         -2   -1    0    0    0  501 -0.00000000000E+00  0.00000000000E+00  0.66794334186E+02  0.66794334186E+02  0.00000000000E+00 0.  1.
          1   -1    0    0  502    0  0.00000000000E+00 -0.00000000000E+00 -0.36034450596E+03  0.36034450596E+03  0.00000000000E+00 0. -1.
        -24    2    1    2    0    0 -0.34589173796E+01  0.32932039412E+02 -0.18214948357E+02  0.88334630471E+02  0.79841964326E+02 0.  0.
         23    2    1    2    0    0  0.62312996912E+01 -0.61835636785E+02 -0.28740200367E+03  0.30736043080E+03  0.89487695420E+02 0.  0.
         13    1    3    3    0    0  0.37788764733E+02  0.11459157308E+02 -0.12838487510E+02  0.41522641870E+02  0.00000000000E+00 0. -1.
        -14    1    3    3    0    0 -0.41247682113E+02  0.21472882104E+02 -0.53764608471E+01  0.46811988601E+02  0.00000000000E+00 0.  1.
        -13    1    4    4    0    0  0.41279215195E+02 -0.43194087586E+01 -0.11583754285E+03  0.12304863767E+03  0.00000000000E+00 0.  1.
         13    1    4    4    0    0 -0.35047915504E+02 -0.57516228027E+02 -0.17156446082E+03  0.18431179312E+03  0.00000000000E+00 0. -1.
         21    1    1    2  502  501 -0.27723823116E+01  0.28903597373E+02  0.12066780252E+02  0.31443778883E+02  0.00000000000E+00 0.  1.
<scales pt_clust_5="13000.00000" pt_clust_6="13000.00000" pt_clust_7="13000.00000" pt_clust_8="13000.00000" pt_clust_9="29.03625"></scales>
<clustering>
<clus scale="   29.036">  1  9  2 -1</clus>
<clus scale="   79.842">  5  6 -1 -1</clus>
<clus scale="   89.488">  7  8 -1 -1</clus>
<clus scale="   97.360">  1  5  2 -1</clus>
<clus scale="  105.415">  2  5  1 -1</clus>
</clustering>
</event>
<event>
 9    1  0.2333971E-005  0.1166213E+03  0.7546771E-02  0.1252315E+00
          1   -1    0    0  502    0  0.00000000000E+00  0.00000000000E+00  0.10352245506E+03  0.10352245506E+03  0.00000000000E+00 0. -1.
         -2   -1    0    0    0  501 -0.00000000000E+00 -0.00000000000E+00 -0.39904328445E+03  0.39904328445E+03  0.00000000000E+00 0.  1.
         23    2    1    2    0    0 -0.26106072450E+02 -0.44164297466E+02 -0.24212208878E+03  0.26568130952E+03  0.96599379740E+02 0.  0.
        -24    2    1    2    0    0 -0.24201033115E+02  0.65541593806E+02  0.48268207774E+02  0.12145496207E+03  0.86833734272E+02 0.  0.
         11    1    4    4    0    0 -0.35073413496E+02  0.16761573935E+01  0.44329064537E+02  0.56551037131E+02  0.00000000000E+00 0. -1.
        -12    1    4    4    0    0  0.10872380380E+02  0.63865436413E+02  0.39391432377E+01  0.64903924941E+02  0.00000000000E+00 0.  1.
        -11    1    3    3    0    0 -0.28401587328E+02  0.50580008404E+01 -0.13575549429E+02  0.31883053140E+02  0.00000000000E+00 0. -1.
         11    1    3    3    0    0  0.22955148781E+01 -0.49222298306E+02 -0.22854653935E+03  0.23379825638E+03  0.00000000000E+00 0.  1.
         21    1    1    2  502  501  0.50307105565E+02 -0.21377296340E+02 -0.10166694838E+03  0.11542946791E+03  0.00000000000E+00 0.  1.
<scales pt_clust_5="13000.00000" pt_clust_6="13000.00000" pt_clust_7="13000.00000" pt_clust_8="13000.00000" pt_clust_9="54.66071"></scales>
<clustering>
<clus scale="   54.661">  2  9  1 -1</clus>
<clus scale="   86.834">  5  6 -1 -1</clus>
<clus scale="   96.599">  7  8 -1 -1</clus>
<clus scale="  108.670">  1  5  2 -1</clus>
<clus scale="  108.670">  1  5  2 -1</clus>
</clustering>
</event>
<event>
 9    1  0.2333971E-005  0.1408357E+03  0.7546771E-02  0.1214614E+00
         -2   -1    0    0    0  501 -0.00000000000E+00  0.00000000000E+00  0.56099758518E+02  0.56099758518E+02  0.00000000000E+00 0.  1.
          1   -1    0    0  502    0  0.00000000000E+00 -0.00000000000E+00 -0.53463283064E+03  0.53463283064E+03  0.00000000000E+00 0. -1.
         23    2    1    2    0    0 -0.12610636963E+03  0.22077396006E+02 -0.20755391976E+03  0.26057701234E+03  0.91823318817E+02 0.  0.
        -24    2    1    2    0    0  0.86944592313E+02 -0.41921033669E+02 -0.25332659419E+03  0.28283721285E+03  0.80658480368E+02 0.  0.
         11    1    4    4    0    0  0.23696682336E+02 -0.36899895587E+02 -0.18273369129E+03  0.18792215670E+03  0.00000000000E+00 0. -1.
        -12    1    4    4    0    0  0.63247909977E+02 -0.50211380822E+01 -0.70592902897E+02  0.94915056147E+02  0.00000000000E+00 0.  1.
        -13    1    3    3    0    0 -0.14051040055E+02  0.31686850151E+02 -0.15399802641E+02  0.37929436069E+02  0.00000000000E+00 0.  1.
         13    1    3    3    0    0 -0.11205532957E+03 -0.96094541452E+01 -0.19215411712E+03  0.22264757627E+03  0.00000000000E+00 0. -1.
         21    1    1    2  502  501  0.39161777316E+02  0.19843637663E+02 -0.17652558180E+02  0.47318363968E+02  0.00000000000E+00 0.  1.
<scales pt_clust_5="13000.00000" pt_clust_6="13000.00000" pt_clust_7="13000.00000" pt_clust_8="13000.00000" pt_clust_9="43.90233"></scales>
<clustering>
<clus scale="   43.902">  1  9  2 -1</clus>
<clus scale="   80.658">  5  6 -1 -1</clus>
<clus scale="   91.823">  7  8 -1 -1</clus>
<clus scale="  133.824">  2  5  1 -1</clus>
<clus scale="  133.824">  2  5  1 -1</clus>
</clustering>
</event>
<event>
 9    1  0.2333971E-005  0.1237128E+03  0.7546771E-02  0.1238304E+00
          1   -1    0    0  502    0  0.00000000000E+00  0.00000000000E+00  0.64087108666E+03  0.64087108666E+03  0.00000000000E+00 0. -1.
         -2   -1    0    0    0  501 -0.00000000000E+00 -0.00000000000E+00 -0.72900641096E+02  0.72900641096E+02  0.00000000000E+00 0.  1.
        -24    2    1    2    0    0 -0.93353742710E+02  0.96495312092E+02  0.14720579390E+03  0.21603030836E+03  0.83506178434E+02 0.  0.
         23    2    1    2    0    0  0.31351634853E+02 -0.70793342448E+02  0.41405810324E+03  0.43028898864E+03  0.87805914066E+02 0.  0.
         13    1    3    3    0    0 -0.91399533255E+02  0.89178793741E+02  0.15780706876E+03  0.20300197754E+03  0.00000000000E+00 0. -1.
        -14    1    3    3    0    0 -0.19542094549E+01  0.73165183504E+01 -0.10601274858E+02  0.13028330821E+02  0.00000000000E+00 0.  1.
        -11    1    4    4    0    0  0.60282124354E+02 -0.43073956966E+02  0.31131465242E+03  0.32000955157E+03  0.00000000000E+00 0. -1.
         11    1    4    4    0    0 -0.28930489501E+02 -0.27719385482E+02  0.10274345082E+03  0.11027943707E+03  0.00000000000E+00 0.  1.
         21    1    1    2  502  501  0.62002107857E+02 -0.25701969644E+02  0.67065484110E+01  0.67452430748E+02  0.00000000000E+00 0.  1.
<scales pt_clust_5="13000.00000" pt_clust_6="13000.00000" pt_clust_7="13000.00000" pt_clust_8="13000.00000" pt_clust_9="67.11820"></scales>
<clustering>
<clus scale="   67.118">  2  9  1 -1</clus>
<clus scale="   83.506">  5  6 -1 -1</clus>
<clus scale="   87.806">  7  8 -1 -1</clus>
<clus scale="  120.699">  2  5  1 -1</clus>
<clus scale="  123.713">  1  5  2 -1</clus>
</clustering>
</event>
<event>
 9    1  0.2333971E-005  0.1268462E+03  0.7546771E-02  0.1232629E+00
         -2   -1    0    0    0  501 -0.00000000000E+00  0.00000000000E+00  0.27636259342E+02  0.27636259342E+02  0.00000000000E+00 0.  1.
          1   -1    0    0  502    0  0.00000000000E+00 -0.00000000000E+00 -0.96969580346E+03  0.96969580346E+03  0.00000000000E+00 0. -1.
         23    2    1    2    0    0 -0.70254174205E+02  0.40987366715E+02 -0.19122244808E+03  0.22486598943E+03  0.85924823695E+02 0.  0.
        -24    2    1    2    0    0  0.58483661962E+02 -0.81090655330E+02 -0.65471863586E+03  0.66765396958E+03  0.84316652273E+02 0.  0.
         13    1    4    4    0    0  0.80004378073E+02 -0.57358556840E+02 -0.47341158054E+03  0.48353823959E+03  0.00000000000E+00 0. -1.
        -14    1    4    4    0    0 -0.21520716112E+02 -0.23732098490E+02 -0.18130705532E+03  0.18411572999E+03  0.00000000000E+00 0.  1.
        -13    1    3    3    0    0 -0.20029271234E+02  0.36805256111E+01  0.32093681151E+01  0.20615965140E+02  0.00000000000E+00 0.  1.
         13    1    3    3    0    0 -0.50224902971E+02  0.37306841104E+02 -0.19443181620E+03  0.20425002429E+03  0.00000000000E+00 0. -1.
         21    1    1    2  502  501  0.11770512243E+02  0.40103288614E+02 -0.96118460173E+02  0.10481210380E+03  0.00000000000E+00 0. -1.
<scales pt_clust_5="13000.00000" pt_clust_6="13000.00000" pt_clust_7="13000.00000" pt_clust_8="13000.00000" pt_clust_9="41.79496"></scales>
<clustering>
<clus scale="   41.795">  1  9  2 -1</clus>
<clus scale="   84.317">  5  6 -1 -1</clus>
<clus scale="   85.925">  7  8 -1 -1</clus>
<clus scale="  125.762">  2  5  1 -1</clus>
<clus scale="  125.762">  2  5  1 -1</clus>
</clustering>
</event>
<event>
 9    1  0.2333971E-005  0.1050088E+03  0.7546771E-02  0.1270582E+00
          1   -1    0    0  502    0  0.00000000000E+00  0.00000000000E+00  0.69835481283E+03  0.69835481283E+03  0.00000000000E+00 0. -1.
         -2   -1    0    0    0  501 -0.00000000000E+00 -0.00000000000E+00 -0.34422445893E+02  0.34422445893E+02  0.00000000000E+00 0.  1.
        -24    2    1    2    0    0 -0.40196872314E+02  0.31184826007E+02  0.15557888524E+03  0.18243480134E+03  0.80556720968E+02 0.  0.
         23    2    1    2    0    0  0.10626954135E+03  0.58917538757E+01  0.30085902681E+03  0.32944832169E+03  0.81805345015E+02 0.  0.
         11    1    3    3    0    0 -0.70920632910E+01  0.39877864094E+02  0.13826929702E+03  0.14407963043E+03  0.00000000000E+00 0. -1.
        -12    1    3    3    0    0 -0.33104809023E+02 -0.86930380869E+01  0.17309588217E+02  0.38355170915E+02  0.00000000000E+00 0.  1.
        -13    1    4    4    0    0  0.24879826325E+02 -0.29428286720E+02  0.14573555621E+03  0.15074442664E+03  0.00000000000E+00 0.  1.
         13    1    4    4    0    0  0.81389715025E+02  0.35320040595E+02  0.15512347060E+03  0.17870389506E+03  0.00000000000E+00 0. -1.
         21    1    1    2  502  501 -0.66072669036E+02 -0.37076579882E+02  0.20749445489E+03  0.22089413569E+03  0.00000000000E+00 0.  1.
<scales pt_clust_5="13000.00000" pt_clust_6="13000.00000" pt_clust_7="13000.00000" pt_clust_8="13000.00000" pt_clust_9="75.76457"></scales>
<clustering>
<clus scale="   75.765">  1  9  2 -1</clus>
<clus scale="   80.557">  5  6 -1 -1</clus>
<clus scale="   81.805">  7  8 -1 -1</clus>
<clus scale="  104.039">  2  5  1 -1</clus>
<clus scale="   75.765">  1  5  2 -1</clus>
</clustering>
</event>
<event>
 9    1  0.2333971E-005  0.3697011E+03  0.7546771E-02  0.1054910E+00
          3   -1    0    0  502    0  0.00000000000E+00  0.00000000000E+00  0.85820463822E+03  0.85820463822E+03  0.00000000000E+00 0. -1.
         -4   -1    0    0    0  501 -0.00000000000E+00 -0.00000000000E+00 -0.25803680200E+03  0.25803680200E+03  0.00000000000E+00 0.  1.
        -24    2    1    2    0    0 -0.11954078636E+03  0.36465194203E+03  0.15235734239E+03  0.42052392672E+03  0.79790818617E+02 0.  0.
         23    2    1    2    0    0  0.12713376434E+03 -0.32595610967E+03  0.50869991207E+03  0.62317413330E+03  0.84616903775E+02 0.  0.
         11    1    3    3    0    0  0.10991692521E+02  0.22368219652E+02  0.37655426888E+01  0.25205830012E+02  0.00000000000E+00 0. -1.
        -12    1    3    3    0    0 -0.13053247888E+03  0.34228372238E+03  0.14859179970E+03  0.39531809671E+03  0.00000000000E+00 0.  1.
        -13    1    4    4    0    0  0.22255782929E+02 -0.15870532309E+02  0.16083669314E+02  0.31715581158E+02  0.00000000000E+00 0.  1.
         13    1    4    4    0    0  0.10487798141E+03 -0.31008557736E+03  0.49261624276E+03  0.59145855214E+03  0.00000000000E+00 0. -1.
         21    1    1    2  502  501 -0.75929779871E+01 -0.38695832358E+02 -0.60889418245E+02  0.72543380200E+02  0.00000000000E+00 0.  1.
<scales pt_clust_5="13000.00000" pt_clust_6="13000.00000" pt_clust_7="13000.00000" pt_clust_8="13000.00000" pt_clust_9="39.43375"></scales>
<clustering>
<clus scale="   39.434">  2  9  1 -1</clus>
<clus scale="   79.791">  5  6 -1 -1</clus>
<clus scale="   84.617">  7  8 -1 -1</clus>
<clus scale="  368.626">  2  5  1 -1</clus>
<clus scale="  369.701">  1  5  2 -1</clus>
</clustering>
</event>
<event>
 9    1  0.2333971E-005  0.3148556E+03  0.7546771E-02  0.1078625E+00
         -2   -1    0    0    0  501 -0.00000000000E+00  0.00000000000E+00  0.20118285121E+03  0.20118285121E+03  0.00000000000E+00 0.  1.
          1   -1    0    0  502    0  0.00000000000E+00 -0.00000000000E+00 -0.16805100035E+04  0.16805100035E+04  0.00000000000E+00 0. -1.
         23    2    1    2    0    0 -0.16611440416E+02 -0.30388649363E+03 -0.79651955824E+02  0.32893653647E+03  0.96082620654E+02 0.  0.
        -24    2    1    2    0    0 -0.49562423710E+01  0.29929782287E+03 -0.14579610888E+04  0.14904388560E+04  0.78445497158E+02 0.  0.
         11    1    4    4    0    0 -0.15102136978E+02  0.26469895445E+03 -0.13692130641E+04  0.13946462010E+04  0.00000000000E+00 0. -1.
        -12    1    4    4    0    0  0.10145894607E+02  0.34598868419E+02 -0.88748024664E+02  0.95792655016E+02  0.00000000000E+00 0.  1.
        -13    1    3    3    0    0  0.14327996326E+01 -0.21997566662E+03 -0.98558101403E+02  0.24104988316E+03  0.00000000000E+00 0. -1.
         13    1    3    3    0    0 -0.18044240049E+02 -0.83910827014E+02  0.18906145578E+02  0.87886653309E+02  0.00000000000E+00 0.  1.
         21    1    1    2  502  501  0.21567682787E+02  0.45886707645E+01  0.58285892379E+02  0.62317462165E+02  0.00000000000E+00 0.  1.
<scales pt_clust_5="13000.00000" pt_clust_6="13000.00000" pt_clust_7="13000.00000" pt_clust_8="13000.00000" pt_clust_9="22.05042"></scales>
<clustering>
<clus scale="   22.050">  1  9  2 -1</clus>
<clus scale="   78.445">  5  6 -1 -1</clus>
<clus scale="   96.083">  7  8 -1 -1</clus>
<clus scale="  309.929">  2  5  1 -1</clus>
<clus scale="  309.929">  2  5  1 -1</clus>
</clustering>
</event>
<event>
 9    1  0.2333971E-005  0.1021399E+03  0.7546771E-02  0.1278836E+00
         -2   -1    0    0    0  501 -0.00000000000E+00  0.00000000000E+00  0.10772941578E+03  0.10772941578E+03  0.00000000000E+00 0.  1.
          1   -1    0    0  502    0  0.00000000000E+00 -0.00000000000E+00 -0.22443005316E+03  0.22443005316E+03  0.00000000000E+00 0. -1.
        -24    2    1    2    0    0  0.19937158811E+02  0.27651296392E+02  0.96524572117E+01  0.91222665162E+02  0.84061407408E+02 0.  0.
         23    2    1    2    0    0 -0.17047056558E+01 -0.52919164623E+02 -0.16239242489E+03  0.19329521647E+03  0.90489762079E+02 0.  0.
         11    1    3    3    0    0  0.12518359484E+02 -0.29546232555E+02  0.97793972373E+01  0.33545875941E+02  0.00000000000E+00 0. -1.
        -12    1    3    3    0    0  0.74187993268E+01  0.57197528947E+02 -0.12694002562E+00  0.57676789221E+02  0.00000000000E+00 0.  1.
        -13    1    4    4    0    0  0.25491662130E+02  0.78030461147E+01 -0.12798117478E+02  0.29572016803E+02  0.00000000000E+00 0.  1.
         13    1    4    4    0    0 -0.27196367786E+02 -0.60722210737E+02 -0.14959430742E+03  0.16372319967E+03  0.00000000000E+00 0. -1.
         21    1    1    2  502  501 -0.18232453155E+02  0.25267868230E+02  0.36039330300E+02  0.47641587310E+02  0.00000000000E+00 0.  1.
<scales pt_clust_5="13000.00000" pt_clust_6="13000.00000" pt_clust_7="13000.00000" pt_clust_8="13000.00000" pt_clust_9="31.15907"></scales>
<clustering>
<clus scale="   31.159">  1  9  2 -1</clus>
<clus scale="   84.061">  5  6 -1 -1</clus>
<clus scale="   90.490">  7  8 -1 -1</clus>
<clus scale="   96.491">  1  5  2 -1</clus>
<clus scale="  102.140">  2  5  1 -1</clus>
</clustering>
</event>
<event>
 9    1  0.2333971E-005  0.2215819E+03  0.7546771E-02  0.1133321E+00
          3   -1    0    0  502    0  0.00000000000E+00  0.00000000000E+00  0.23930593414E+03  0.23930593414E+03  0.00000000000E+00 0. -1.
         -4   -1    0    0    0  501 -0.00000000000E+00 -0.00000000000E+00 -0.38078293928E+03  0.38078293928E+03  0.00000000000E+00 0.  1.
        -24    2    1    2    0    0  0.80997326271E+02  0.20767604337E+03 -0.24677751487E+03  0.34196143620E+03  0.79677952733E+02 0.  0.
         23    2    1    2    0    0 -0.81234855958E+02 -0.18164253366E+03  0.11965003189E+03  0.24840019661E+03  0.88280324457E+02 0.  0.
         13    1    3    3    0    0  0.70960629913E+02  0.76905156337E+02 -0.12464958618E+03  0.16274929617E+03  0.00000000000E+00 0. -1.
        -14    1    3    3    0    0  0.10036696358E+02  0.13077088703E+03 -0.12212792869E+03  0.17921214003E+03  0.00000000000E+00 0.  1.
        -13    1    4    4    0    0 -0.74223066031E+01 -0.60844581982E+02 -0.26076419307E+01  0.61351068355E+02  0.00000000000E+00 0.  1.
         13    1    4    4    0    0 -0.73812549355E+02 -0.12079795168E+03  0.12225767382E+03  0.18704912825E+03  0.00000000000E+00 0. -1.
         21    1    1    2  502  501  0.23752968737E+00 -0.26033509711E+02 -0.14349522156E+02  0.29727240610E+02  0.00000000000E+00 0. -1.
<scales pt_clust_5="13000.00000" pt_clust_6="13000.00000" pt_clust_7="13000.00000" pt_clust_8="13000.00000" pt_clust_9="26.03459"></scales>
<clustering>
<clus scale="   26.035">  2  9  1 -1</clus>
<clus scale="   79.678">  5  6 -1 -1</clus>
<clus scale="   88.280">  7  8 -1 -1</clus>
<clus scale="  218.297">  2  5  1 -1</clus>
<clus scale="  221.582">  1  5  2 -1</clus>
</clustering>
</event>
<event>
 9    1  0.2333971E-005  0.1118757E+03  0.7546771E-02  0.1264227E+00
          1   -1    0    0  502    0  0.00000000000E+00  0.00000000000E+00  0.71514147257E+03  0.71514147257E+03  0.00000000000E+00 0. -1.
         -2   -1    0    0    0  501 -0.00000000000E+00 -0.00000000000E+00 -0.25027032017E+02  0.25027032017E+02  0.00000000000E+00 0.  1.
        -24    2    1    2    0    0  0.26272793062E+02  0.24884144256E+02  0.15652322731E+03  0.17979228720E+03  0.80723389167E+02 0.  0.
         23    2    1    2    0    0 -0.38684539999E+02 -0.52437198929E+02  0.50597942221E+03  0.51944171741E+03  0.97766909660E+02 0.  0.
         13    1    3    3    0    0 -0.59265482864E+01  0.31172537220E+02  0.13904434565E+03  0.14261900683E+03  0.00000000000E+00 0. -1.
        -14    1    3    3    0    0  0.32199341348E+02 -0.62883929636E+01  0.17478881653E+02  0.37173280366E+02  0.00000000000E+00 0.  1.
        -13    1    4    4    0    0 -0.43123158744E+02 -0.75022680762E+02  0.45947838611E+03  0.46755576860E+03  0.00000000000E+00 0.  1.
         13    1    4    4    0    0  0.44386187446E+01  0.22585481833E+02  0.46501036094E+02  0.51885948809E+02  0.00000000000E+00 0. -1.
         21    1    1    2  502  501  0.12411746937E+02  0.27553054673E+02  0.27611791036E+02  0.40934499973E+02  0.00000000000E+00 0. -1.
<scales pt_clust_5="13000.00000" pt_clust_6="13000.00000" pt_clust_7="13000.00000" pt_clust_8="13000.00000" pt_clust_9="30.21957"></scales>
<clustering>
<clus scale="   30.220">  2  9  1 -1</clus>
<clus scale="   80.723">  5  6 -1 -1</clus>
<clus scale="   97.335">  2  5  1 -1</clus>
<clus scale="   97.767">  7  8 -1 -1</clus>
<clus scale="  111.876">  1  5  2 -1</clus>
</clustering>
</event>
<event>
 9    1  0.2333971E-005  0.1319080E+03  0.7546771E-02  0.1227300E+00
          1   -1    0    0  502    0  0.00000000000E+00  0.00000000000E+00  0.18241378425E+03  0.18241378425E+03  0.00000000000E+00 0. -1.
         -2   -1    0    0    0  501 -0.00000000000E+00 -0.00000000000E+00 -0.15730307796E+03  0.15730307796E+03  0.00000000000E+00 0.  1.
         23    2    1    2    0    0 -0.42744012902E+02 -0.92607567914E+02 -0.81178542656E+02  0.15945507645E+03  0.91830024193E+02 0.  0.
        -24    2    1    2    0    0  0.23503461616E+02  0.67716104289E+02  0.10134324150E+03  0.14841454467E+03  0.81354415886E+02 0.  0.
         13    1    4    4    0    0  0.78087523639E+01  0.56914199562E+02  0.11251201925E+03  0.12632955791E+03  0.00000000000E+00 0. -1.
        -14    1    4    4    0    0  0.15694709252E+02  0.10801904727E+02 -0.11168777745E+02  0.22084986768E+02  0.00000000000E+00 0.  1.
        -13    1    3    3    0    0 -0.21405175894E+02 -0.44067122864E+02 -0.93013460934E+02  0.10512657508E+03  0.00000000000E+00 0.  1.
         13    1    3    3    0    0 -0.21338837008E+02 -0.48540445050E+02  0.11834918278E+02  0.54328501370E+02  0.00000000000E+00 0. -1.
         21    1    1    2  502  501  0.19240551286E+02  0.24891463625E+02  0.49460074493E+01  0.31847241087E+02  0.00000000000E+00 0. -1.
<scales pt_clust_5="13000.00000" pt_clust_6="13000.00000" pt_clust_7="13000.00000" pt_clust_8="13000.00000" pt_clust_9="31.46083"></scales>
<clustering>
<clus scale="   31.461">  1  9  2 -1</clus>
<clus scale="   81.354">  5  6 -1 -1</clus>
<clus scale="   91.830">  7  8 -1 -1</clus>
<clus scale="  124.842">  1  5  2 -1</clus>
<clus scale="   31.461">  1  5  2 -1</clus>
</clustering>
</event>
<event>
 9    1  0.2333971E-005  0.9902488E+02  0.7546771E-02  0.1287691E+00
          1   -1    0    0  502    0  0.00000000000E+00  0.00000000000E+00  0.40242989243E+03  0.40242989243E+03  0.00000000000E+00 0. -1.
         -2   -1    0    0    0  501 -0.00000000000E+00 -0.00000000000E+00 -0.82227546509E+02  0.82227546509E+02  0.00000000000E+00 0.  1.
        -24    2    1    2    0    0  0.16959052298E+02 -0.15181295220E+02 -0.50138443939E+01  0.85685372262E+02  0.82454612998E+02 0.  0.
         23    2    1    2    0    0 -0.31089486001E+02 -0.24834877555E+02  0.33952644528E+03  0.35418650385E+03  0.92663613070E+02 0.  0.
         13    1    3    3    0    0  0.28701635598E+02 -0.36580166079E+02  0.20108204146E+02  0.50657993549E+02  0.00000000000E+00 0. -1.
        -14    1    3    3    0    0 -0.11742583301E+02  0.21398870859E+02 -0.25122048540E+02  0.35027378713E+02  0.00000000000E+00 0.  1.
        -13    1    4    4    0    0  0.18508033869E+02  0.22126100450E+02  0.14950029872E+03  0.15225784366E+03  0.00000000000E+00 0.  1.
         13    1    4    4    0    0 -0.49597519869E+02 -0.46960978005E+02  0.19002614656E+03  0.20192866020E+03  0.00000000000E+00 0. -1.
         21    1    1    2  502  501  0.14130433703E+02  0.40016172776E+02 -0.14310254962E+02  0.44785562822E+02  0.00000000000E+00 0.  1.
<scales pt_clust_5="13000.00000" pt_clust_6="13000.00000" pt_clust_7="13000.00000" pt_clust_8="13000.00000" pt_clust_9="42.43776"></scales>
<clustering>
<clus scale="   42.438">  2  9  1 -1</clus>
<clus scale="   82.455">  5  6 -1 -1</clus>
<clus scale="   89.544">  2  5  1 -1</clus>
<clus scale="   92.664">  7  8 -1 -1</clus>
<clus scale="   99.025">  1  5  2 -1</clus>
</clustering>
</event>
<event>
 9    1  0.2333971E-005  0.1094864E+03  0.7546771E-02  0.1264736E+00
         -2   -1    0    0    0  501 -0.00000000000E+00  0.00000000000E+00  0.18204207980E+03  0.18204207980E+03  0.00000000000E+00 0.  1.
          1   -1    0    0  502    0  0.00000000000E+00 -0.00000000000E+00 -0.15792418168E+03  0.15792418168E+03  0.00000000000E+00 0. -1.
        -24    2    1    2    0    0 -0.41947066088E+02 -0.71088206929E+02  0.28946012901E+01  0.11615175031E+03  0.81668603918E+02 0.  0.
         23    2    1    2    0    0  0.35716953736E+02  0.39890708473E+02 -0.70864505798E+02  0.12638627295E+03  0.89915195604E+02 0.  0.
         13    1    3    3    0    0  0.79171315979E+01 -0.43173709049E+02  0.29734283385E+02  0.53016768425E+02  0.00000000000E+00 0. -1.
        -14    1    3    3    0    0 -0.49864197686E+02 -0.27914497880E+02 -0.26839682095E+02  0.63134981886E+02  0.00000000000E+00 0.  1.
        -11    1    4    4    0    0 -0.11239329646E+02  0.20587591427E+02  0.14130295340E+02  0.27383146241E+02  0.00000000000E+00 0.  1.
         11    1    4    4    0    0  0.46956283382E+02  0.19303117045E+02 -0.84994801138E+02  0.99003126704E+02  0.00000000000E+00 0. -1.
         21    1    1    2  502  501  0.62301123521E+01  0.31197498456E+02  0.92087802625E+02  0.97428238218E+02  0.00000000000E+00 0.  1.
<scales pt_clust_5="13000.00000" pt_clust_6="13000.00000" pt_clust_7="13000.00000" pt_clust_8="13000.00000" pt_clust_9="31.81349"></scales>
<clustering>
<clus scale="   31.813">  1  9  2 -1</clus>
<clus scale="   81.669">  5  6 -1 -1</clus>
<clus scale="   89.915">  7  8 -1 -1</clus>
<clus scale="  102.822">  1  5  2 -1</clus>
<clus scale="  109.486">  2  5  1 -1</clus>
</clustering>
</event>
<event>
 9    1  0.2333971E-005  0.1329106E+03  0.7546771E-02  0.1224542E+00
         -2   -1    0    0    0  501 -0.00000000000E+00  0.00000000000E+00  0.24101782561E+03  0.24101782561E+03  0.00000000000E+00 0.  1.
          1   -1    0    0  502    0  0.00000000000E+00 -0.00000000000E+00 -0.90298057372E+02  0.90298057372E+02  0.00000000000E+00 0. -1.
        -24    2    1    2    0    0  0.32515119491E+02  0.10260439712E+03  0.85136289154E+02  0.15919624797E+03  0.80686816349E+02 0.  0.
         23    2    1    2    0    0 -0.54983454265E+01 -0.97187607754E+02  0.45065556692E+02  0.13776511817E+03  0.86444551484E+02 0.  0.
         13    1    3    3    0    0  0.55694920148E+02  0.54116218206E+02  0.66728247849E+02  0.10238724659E+03  0.00000000000E+00 0. -1.
        -14    1    3    3    0    0 -0.23179800657E+02  0.48488178918E+02  0.18408041306E+02  0.56809001382E+02  0.00000000000E+00 0.  1.
        -13    1    4    4    0    0  0.31741227076E+02 -0.13629025248E+02 -0.25430808313E+01  0.34637019006E+02  0.00000000000E+00 0. -1.
         13    1    4    4    0    0 -0.37239572502E+02 -0.83558582506E+02  0.47608637523E+02  0.10312809916E+03  0.00000000000E+00 0.  1.
         21    1    1    2  502  501 -0.27016774065E+02 -0.54167893701E+01  0.20517922390E+02  0.34354516837E+02  0.00000000000E+00 0.  1.
<scales pt_clust_5="13000.00000" pt_clust_6="13000.00000" pt_clust_7="13000.00000" pt_clust_8="13000.00000" pt_clust_9="27.55445"></scales>
<clustering>
<clus scale="   27.554">  1  9  2 -1</clus>
<clus scale="   80.687">  5  6 -1 -1</clus>
<clus scale="   86.445">  7  8 -1 -1</clus>
<clus scale="  129.240">  1  5  2 -1</clus>
<clus scale="  132.911">  2  5  1 -1</clus>
</clustering>
</event>
<event>
 9    1  0.2333971E-005  0.1413526E+03  0.7546771E-02  0.1213829E+00
          1   -1    0    0  502    0  0.00000000000E+00  0.00000000000E+00  0.50629964434E+03  0.50629964434E+03  0.00000000000E+00 0. -1.
         -2   -1    0    0    0  501 -0.00000000000E+00 -0.00000000000E+00 -0.73315380009E+02  0.73315380009E+02  0.00000000000E+00 0.  1.
        -24    2    1    2    0    0  0.39050367410E+02 -0.89066564403E+02  0.21049230578E+02  0.12823979150E+03  0.80898639826E+02 0.  0.
         23    2    1    2    0    0 -0.27588481008E+02  0.10665329180E+03  0.40442862205E+03  0.42908142122E+03  0.91718628256E+02 0.  0.
         13    1    3    3    0    0 -0.33789609863E+01 -0.82621720265E+02  0.65879966056E+01  0.82952804269E+02  0.00000000000E+00 0. -1.
        -14    1    3    3    0    0  0.42429328396E+02 -0.64448441382E+01  0.14461233972E+02  0.45286987227E+02  0.00000000000E+00 0.  1.
        -13    1    4    4    0    0  0.28939406113E+00  0.10513702350E+03  0.37057262629E+03  0.38519858361E+03  0.00000000000E+00 0. -1.
         13    1    4    4    0    0 -0.27877875070E+02  0.15162682986E+01  0.33855995755E+02  0.43882837608E+02  0.00000000000E+00 0.  1.
         21    1    1    2  502  501 -0.11461886401E+02 -0.17586727400E+02  0.75064117096E+01  0.22293811636E+02  0.00000000000E+00 0.  1.
<scales pt_clust_5="13000.00000" pt_clust_6="13000.00000" pt_clust_7="13000.00000" pt_clust_8="13000.00000" pt_clust_9="20.99209"></scales>
<clustering>
<clus scale="   20.992">  2  9  1 -1</clus>
<clus scale="   80.899">  5  6 -1 -1</clus>
<clus scale="   91.719">  7  8 -1 -1</clus>
<clus scale="  134.584">  2  5  1 -1</clus>
<clus scale="  141.353">  1  5  2 -1</clus>
</clustering>
</event>
<event>
 9    1  0.2333971E-005  0.1063633E+03  0.7546771E-02  0.1269143E+00
          1   -1    0    0  502    0  0.00000000000E+00  0.00000000000E+00  0.23434764116E+03  0.23434764116E+03  0.00000000000E+00 0. -1.
         -2   -1    0    0    0  501 -0.00000000000E+00 -0.00000000000E+00 -0.37873268883E+03  0.37873268883E+03  0.00000000000E+00 0.  1.
        -24    2    1    2    0    0  0.99576361438E+02 -0.10063686070E+01 -0.97988441605E+02  0.16566385618E+03  0.89029849039E+02 0.  0.
         23    2    1    2    0    0 -0.36536355952E+02 -0.32429466343E+02  0.18090389096E+03  0.20917811986E+03  0.92966082350E+02 0.  0.
         11    1    3    3    0    0 -0.12325321763E+02  0.16183188595E+02 -0.15973333376E+02  0.25864193953E+02  0.00000000000E+00 0. -1.
        -12    1    3    3    0    0  0.11190168320E+03 -0.17189557202E+02 -0.82015108228E+02  0.13979966222E+03  0.00000000000E+00 0.  1.
        -13    1    4    4    0    0 -0.55909776365E+02 -0.13397388129E+02  0.17077491653E+03  0.18019285562E+03  0.00000000000E+00 0. -1.
         13    1    4    4    0    0  0.19373420413E+02 -0.19032078214E+02  0.10128974435E+02  0.28985264235E+02  0.00000000000E+00 0.  1.
         21    1    1    2  502  501 -0.63040005486E+02  0.33435834950E+02 -0.22730049703E+03  0.23823835396E+03  0.00000000000E+00 0.  1.
<scales pt_clust_5="13000.00000" pt_clust_6="13000.00000" pt_clust_7="13000.00000" pt_clust_8="13000.00000" pt_clust_9="71.35823"></scales>
<clustering>
<clus scale="   71.358">  2  9  1 -1</clus>
<clus scale="   89.030">  5  6 -1 -1</clus>
<clus scale="   92.966">  7  8 -1 -1</clus>
<clus scale="  102.941">  2  5  1 -1</clus>
<clus scale="  106.363">  1  5  2 -1</clus>
</clustering>
</event>
<event>
 9    1  0.2333971E-005  0.9955831E+02  0.7546771E-02  0.1283691E+00
         -2   -1    0    0    0  501 -0.00000000000E+00  0.00000000000E+00  0.37024167767E+03  0.37024167767E+03  0.00000000000E+00 0.  1.
          1   -1    0    0  502    0  0.00000000000E+00 -0.00000000000E+00 -0.64888605847E+02  0.64888605847E+02  0.00000000000E+00 0. -1.
         23    2    1    2    0    0  0.47203467164E+02 -0.22191060075E+02  0.26737573656E+03  0.28593339516E+03  0.86876415126E+02 0.  0.
        -24    2    1    2    0    0 -0.20072557675E+02  0.45694933069E+02 -0.16953066514E+01  0.95695142484E+02  0.81631805998E+02 0.  0.
         13    1    4    4    0    0  0.16908560999E+02  0.52056311268E+02 -0.13470382462E+02  0.56366747126E+02  0.00000000000E+00 0. -1.
        -14    1    4    4    0    0 -0.36981118675E+02 -0.63613781993E+01  0.11775075811E+02  0.39328395357E+02  0.00000000000E+00 0.  1.
        -13    1    3    3    0    0  0.31063924752E+02 -0.43118410736E+02  0.24675418712E+03  0.25241195222E+03  0.00000000000E+00 0.  1.
         13    1    3    3    0    0  0.16139542412E+02  0.20927350661E+02  0.20621549446E+02  0.33521442936E+02  0.00000000000E+00 0. -1.
         21    1    1    2  502  501 -0.27130909489E+02 -0.23503872994E+02  0.39672641913E+02  0.53501745876E+02  0.00000000000E+00 0. -1.
<scales pt_clust_5="13000.00000" pt_clust_6="13000.00000" pt_clust_7="13000.00000" pt_clust_8="13000.00000" pt_clust_9="35.89594"></scales>
<clustering>
<clus scale="   35.896">  1  9  2 -1</clus>
<clus scale="   81.632">  5  6 -1 -1</clus>
<clus scale="   86.876">  7  8 -1 -1</clus>
<clus scale="   95.016">  2  5  1 -1</clus>
<clus scale="   95.016">  2  5  1 -1</clus>
</clustering>
</event>
<event>
 9    1  0.2333971E-005  0.1011839E+03  0.7546771E-02  0.1283159E+00
          1   -1    0    0  502    0  0.00000000000E+00  0.00000000000E+00  0.49749377608E+03  0.49749377608E+03  0.00000000000E+00 0. -1.
         -2   -1    0    0    0  501 -0.00000000000E+00 -0.00000000000E+00 -0.39928759017E+02  0.39928759017E+02  0.00000000000E+00 0.  1.
         23    2    1    2    0    0 -0.46388106216E+02  0.25809879513E+01  0.10496932380E+03  0.14589805537E+03  0.90050906295E+02 0.  0.
        -24    2    1    2    0    0  0.37816885140E+02 -0.29505575049E+02  0.35130062871E+03  0.36323885770E+03  0.78928070100E+02 0.  0.
         13    1    4    4    0    0  0.10543246705E+02 -0.54386723980E+02  0.21619832686E+03  0.22318331553E+03  0.00000000000E+00 0. -1.
        -14    1    4    4    0    0  0.27273638435E+02  0.24881148930E+02  0.13510230185E+03  0.14005554217E+03  0.00000000000E+00 0.  1.
        -11    1    3    3    0    0 -0.30851177712E+02  0.39152700762E+02  0.23191879371E+02  0.54978108479E+02  0.00000000000E+00 0.  1.
         11    1    3    3    0    0 -0.15536928504E+02 -0.36571712811E+02  0.81777444428E+02  0.90919946890E+02  0.00000000000E+00 0. -1.
         21    1    1    2  502  501  0.85712210753E+01  0.26924587098E+02  0.12950645490E+01  0.28285622025E+02  0.00000000000E+00 0.  1.
<scales pt_clust_5="13000.00000" pt_clust_6="13000.00000" pt_clust_7="13000.00000" pt_clust_8="13000.00000" pt_clust_9="28.25596"></scales>
<clustering>
<clus scale="   28.256">  2  9  1 -1</clus>
<clus scale="   78.928">  5  6 -1 -1</clus>
<clus scale="   90.051">  7  8 -1 -1</clus>
<clus scale="   91.426">  1  5  2 -1</clus>
<clus scale="   91.426">  1  5  2 -1</clus>
</clustering>
</event>
<event>
 9    1  0.2333971E-005  0.9232859E+02  0.7546771E-02  0.1304342E+00
         -2   -1    0    0    0  501 -0.00000000000E+00  0.00000000000E+00  0.55852011412E+02  0.55852011412E+02  0.00000000000E+00 0.  1.
          1   -1    0    0  502    0  0.00000000000E+00 -0.00000000000E+00 -0.29328579300E+03  0.29328579300E+03  0.00000000000E+00 0. -1.
        -24    2    1    2    0    0 -0.10503285009E+01  0.18749479452E+02 -0.35513782381E+02  0.89724645408E+02  0.80228655012E+02 0.  0.
         23    2    1    2    0    0  0.14766073786E+02  0.87614224571E+00 -0.21353314731E+03  0.23280203530E+03  0.91550958906E+02 0.  0.
         13    1    3    3    0    0  0.69940188893E+01 -0.28398345096E+02 -0.29462659048E+02  0.41514221451E+02  0.00000000000E+00 0. -1.
        -14    1    3    3    0    0 -0.80443473902E+01  0.47147824549E+02 -0.60511233325E+01  0.48210423958E+02  0.00000000000E+00 0.  1.
        -13    1    4    4    0    0  0.26438800700E+02 -0.39594483302E+02 -0.14223441571E+03  0.14999120741E+03  0.00000000000E+00 0. -1.
         13    1    4    4    0    0 -0.11672726914E+02  0.40470625547E+02 -0.71298731610E+02  0.82810827885E+02  0.00000000000E+00 0.  1.
         21    1    1    2  502  501 -0.13715745285E+02 -0.19625621698E+02  0.11613148109E+02  0.26611123704E+02  0.00000000000E+00 0. -1.
<scales pt_clust_5="13000.00000" pt_clust_6="13000.00000" pt_clust_7="13000.00000" pt_clust_8="13000.00000" pt_clust_9="23.94341"></scales>
<clustering>
<clus scale="   23.943">  1  9  2 -1</clus>
<clus scale="   80.229">  5  6 -1 -1</clus>
<clus scale="   81.115">  1  5  2 -1</clus>
<clus scale="   91.551">  7  8 -1 -1</clus>
<clus scale="   92.329">  2  5  1 -1</clus>
</clustering>
</event>
<event>
 9    1  0.2333971E-005  0.1250899E+03  0.7546771E-02  0.1238276E+00
          1   -1    0    0  502    0  0.00000000000E+00  0.00000000000E+00  0.48923460164E+03  0.48923460164E+03  0.00000000000E+00 0. -1.
         -2   -1    0    0    0  501 -0.00000000000E+00 -0.00000000000E+00 -0.77731186404E+02  0.77731186404E+02  0.00000000000E+00 0.  1.
        -24    2    1    2    0    0  0.22815921612E+02 -0.85217411296E+02 -0.88712419787E+01  0.11908655659E+03  0.79500538113E+02 0.  0.
         23    2    1    2    0    0 -0.40657434740E+02  0.75238119463E+02  0.39971561979E+03  0.41881547939E+03  0.91214184519E+02 0.  0.
         11    1    3    3    0    0  0.49441302570E+02 -0.73395375703E+02 -0.13725743772E+02  0.89552887259E+02  0.00000000000E+00 0. -1.
        -12    1    3    3    0    0 -0.26625380958E+02 -0.11822035593E+02  0.48545017929E+01  0.29533669335E+02  0.00000000000E+00 0.  1.
        -11    1    4    4    0    0  0.19472457376E+02  0.30922859372E+02  0.54542677322E+02  0.65652901516E+02  0.00000000000E+00 0.  1.
         11    1    4    4    0    0 -0.60129892117E+02  0.44315260092E+02  0.34517294246E+03  0.35316257788E+03  0.00000000000E+00 0. -1.
         21    1    1    2  502  501  0.17841513128E+02  0.99792918324E+01  0.20659037430E+02  0.29063752058E+02  0.00000000000E+00 0. -1.
<scales pt_clust_5="13000.00000" pt_clust_6="13000.00000" pt_clust_7="13000.00000" pt_clust_8="13000.00000" pt_clust_9="20.44275"></scales>
<clustering>
<clus scale="   20.443">  2  9  1 -1</clus>
<clus scale="   79.501">  5  6 -1 -1</clus>
<clus scale="   91.214">  7  8 -1 -1</clus>
<clus scale="  116.824">  2  5  1 -1</clus>
<clus scale="  125.090">  1  5  2 -1</clus>
</clustering>
</event>
<event>
 9    1  0.2333971E-005  0.9532925E+02  0.7546771E-02  0.1294439E+00
          1   -1    0    0  502    0  0.00000000000E+00  0.00000000000E+00  0.29524910930E+03  0.29524910930E+03  0.00000000000E+00 0. -1.
         -2   -1    0    0    0  501 -0.00000000000E+00 -0.00000000000E+00 -0.12132975114E+03  0.12132975114E+03  0.00000000000E+00 0.  1.
        -24    2    1    2    0    0 -0.13977900036E+01  0.37860935120E+02 -0.60922513259E+02  0.10975261435E+03  0.83058289834E+02 0.  0.
         23    2    1    2    0    0 -0.27539403046E+02 -0.15570162030E+02  0.24968330653E+03  0.26739899786E+03  0.90330625095E+02 0.  0.
         13    1    3    3    0    0 -0.39809730900E+02  0.18706220978E+02 -0.47596370247E+02  0.64808578431E+02  0.00000000000E+00 0. -1.
        -14    1    3    3    0    0  0.38411940896E+02  0.19154714142E+02 -0.13326143012E+02  0.44944035921E+02  0.00000000000E+00 0.  1.
        -13    1    4    4    0    0  0.30259078382E+02 -0.12077386454E+01  0.45104577957E+02  0.54327648669E+02  0.00000000000E+00 0.  1.
         13    1    4    4    0    0 -0.57798481429E+02 -0.14362423385E+02  0.20457872857E+03  0.21307134919E+03  0.00000000000E+00 0. -1.
         21    1    1    2  502  501  0.28937193050E+02 -0.22290773090E+02 -0.14841435115E+02  0.39427248228E+02  0.00000000000E+00 0. -1.
<scales pt_clust_5="13000.00000" pt_clust_6="13000.00000" pt_clust_7="13000.00000" pt_clust_8="13000.00000" pt_clust_9="36.52725"></scales>
<clustering>
<clus scale="   36.527">  2  9  1 -1</clus>
<clus scale="   83.058">  5  6 -1 -1</clus>
<clus scale="   88.469">  2  5  1 -1</clus>
<clus scale="   90.331">  7  8 -1 -1</clus>
<clus scale="   95.329">  1  5  2 -1</clus>
</clustering>
</event>
<event>
 9    1  0.2333971E-005  0.1229555E+03  0.7546771E-02  0.1242832E+00
         -2   -1    0    0    0  501 -0.00000000000E+00  0.00000000000E+00  0.78732758452E+02  0.78732758452E+02  0.00000000000E+00 0.  1.
          1   -1    0    0  502    0  0.00000000000E+00 -0.00000000000E+00 -0.80358497315E+03  0.80358497315E+03  0.00000000000E+00 0. -1.
        -24    2    1    2    0    0 -0.96350503952E+02  0.57651373579E+02 -0.35868645725E+03  0.38398205468E+03  0.78607526449E+02 0.  0.
         23    2    1    2    0    0  0.13340173360E+02 -0.69706762902E+02 -0.39310989939E+03  0.41023326956E+03  0.93375314919E+02 0.  0.
         11    1    3    3    0    0 -0.42469164299E+02 -0.14354684322E+02 -0.88244455461E+02  0.98978638089E+02  0.00000000000E+00 0. -1.
        -12    1    3    3    0    0 -0.53881339653E+02  0.72006057901E+02 -0.27044200179E+03  0.28500341660E+03  0.00000000000E+00 0.  1.
        -11    1    4    4    0    0 -0.35958737588E+02 -0.40282191442E+02 -0.12703423030E+03  0.13803398648E+03  0.00000000000E+00 0.  1.
         11    1    4    4    0    0  0.49298910948E+02 -0.29424571459E+02 -0.26607566910E+03  0.27219928308E+03  0.00000000000E+00 0. -1.
         21    1    1    2  502  501  0.83010330591E+02  0.12055389323E+02  0.26944141949E+02  0.88102407356E+02  0.00000000000E+00 0.  1.
<scales pt_clust_5="13000.00000" pt_clust_6="13000.00000" pt_clust_7="13000.00000" pt_clust_8="13000.00000" pt_clust_9="83.88115"></scales>
<clustering>
<clus scale="   78.608">  5  6 -1 -1</clus>
<clus scale="   83.881">  1  9  2 -1</clus>
<clus scale="   93.375">  7  8 -1 -1</clus>
<clus scale="  112.153">  1  5  2 -1</clus>
<clus scale="  122.956">  2  5  1 -1</clus>
</clustering>
</event>
<event>
 9    1  0.2333971E-005  0.1104719E+03  0.7546771E-02  0.1265461E+00
          1   -1    0    0  502    0  0.00000000000E+00  0.00000000000E+00  0.19294747633E+03  0.19294747633E+03  0.00000000000E+00 0. -1.
         -2   -1    0    0    0  501 -0.00000000000E+00 -0.00000000000E+00 -0.17712184772E+03  0.17712184772E+03  0.00000000000E+00 0.  1.
         23    2    1    2    0    0 -0.58314775790E+02 -0.27129437787E+02 -0.15471485066E+01  0.11285666012E+03  0.92723312037E+02 0.  0.
        -24    2    1    2    0    0  0.34146554448E+02 -0.80666345179E+02  0.67463010897E+02  0.13591523910E+03  0.79048389964E+02 0.  0.
         11    1    4    4    0    0  0.12240096405E+01 -0.83886410313E+02  0.56162310852E+02  0.10095857168E+03  0.00000000000E+00 0. -1.
        -12    1    4    4    0    0  0.32922544807E+02  0.32200651335E+01  0.11300700045E+02  0.34956667426E+02  0.00000000000E+00 0.  1.
        -11    1    3    3    0    0 -0.27390370821E+02  0.33043380239E+02 -0.11600162502E+02  0.44459657685E+02  0.00000000000E+00 0.  1.
         11    1    3    3    0    0 -0.30924404969E+02 -0.60172818026E+02  0.10053013995E+02  0.68397002437E+02  0.00000000000E+00 0. -1.
         21    1    1    2  502  501  0.24168221342E+02  0.10779578297E+03 -0.50090233779E+02  0.12129742482E+03  0.00000000000E+00 0.  1.
<scales pt_clust_5="13000.00000" pt_clust_6="13000.00000" pt_clust_7="13000.00000" pt_clust_8="13000.00000" pt_clust_9="110.47187"></scales>
<clustering>
<clus scale="   79.048">  5  6 -1 -1</clus>
<clus scale="   92.723">  7  8 -1 -1</clus>
<clus scale="  110.472">  2  9  1 -1</clus>
<clus scale="   98.689">  1  5  2 -1</clus>
<clus scale="   98.689">  1  5  2 -1</clus>
</clustering>
</event>
<event>
 9    1  0.2333971E-005  0.1319048E+03  0.7546771E-02  0.1240527E+00
          1   -1    0    0  502    0  0.00000000000E+00  0.00000000000E+00  0.19104849312E+03  0.19104849312E+03  0.00000000000E+00 0. -1.
         -2   -1    0    0    0  501 -0.00000000000E+00 -0.00000000000E+00 -0.13460936545E+03  0.13460936545E+03  0.00000000000E+00 0.  1.
        -24    2    1    2    0    0 -0.13423120082E+02  0.59646434382E+02 -0.29424483254E+02  0.10535036293E+03  0.80591696021E+02 0.  0.
         23    2    1    2    0    0 -0.47054187014E+01 -0.46828864869E+02  0.12147464596E+03  0.17834227406E+03  0.12179816729E+03 0.  0.
         13    1    3    3    0    0 -0.33041887769E+02  0.68763817774E+02 -0.33524583649E+02  0.83331426791E+02  0.00000000000E+00 0. -1.
        -14    1    3    3    0    0  0.19618767687E+02 -0.91173833912E+01  0.41001003955E+01  0.22018936139E+02  0.00000000000E+00 0.  1.
        -13    1    4    4    0    0 -0.15831881829E+01 -0.75294675455E+02  0.27620363577E+02  0.80216451685E+02  0.00000000000E+00 0.  1.
         13    1    4    4    0    0 -0.31222305185E+01  0.28465810586E+02  0.93854282380E+02  0.98125822375E+02  0.00000000000E+00 0. -1.
         21    1    1    2  502  501  0.18128538784E+02 -0.12817569513E+02 -0.35611035026E+02  0.41965221581E+02  0.00000000000E+00 0.  1.
<scales pt_clust_5="13000.00000" pt_clust_6="13000.00000" pt_clust_7="13000.00000" pt_clust_8="13000.00000" pt_clust_9="22.20212"></scales>
<clustering>
<clus scale="   22.202">  2  9  1 -1</clus>
<clus scale="   80.592">  5  6 -1 -1</clus>
<clus scale="   95.179">  2  5  1 -1</clus>
<clus scale="  121.798">  7  8 -1 -1</clus>
<clus scale="  131.905">  1  5  2 -1</clus>
</clustering>
</event>
<event>
 9    1  0.2333971E-005  0.9808355E+02  0.7546771E-02  0.1286436E+00
          1   -1    0    0  502    0  0.00000000000E+00  0.00000000000E+00  0.16697793493E+03  0.16697793493E+03  0.00000000000E+00 0. -1.
         -2   -1    0    0    0  501 -0.00000000000E+00 -0.00000000000E+00 -0.85880730607E+02  0.85880730607E+02  0.00000000000E+00 0.  1.
        -24    2    1    2    0    0  0.55057274167E+02  0.18619196811E+02  0.10518009224E+02  0.10189094244E+03  0.83025042636E+02 0.  0.
         23    2    1    2    0    0 -0.39181863318E+02 -0.61886036350E-01  0.80104311724E+02  0.12475455276E+03  0.87245489479E+02 0.  0.
         13    1    3    3    0    0 -0.96020186203E+01  0.32939042382E+02 -0.24871735433E+01  0.34400077135E+02  0.00000000000E+00 0. -1.
        -14    1    3    3    0    0  0.64659292787E+02 -0.14319845571E+02  0.13005182767E+02  0.67490865306E+02  0.00000000000E+00 0.  1.
        -11    1    4    4    0    0  0.22149332237E+02  0.26237773740E+01  0.53279675063E+02  0.57759855445E+02  0.00000000000E+00 0.  1.
         11    1    4    4    0    0 -0.61331195555E+02 -0.26856634104E+01  0.26824636661E+02  0.66994697314E+02  0.00000000000E+00 0. -1.
         21    1    1    2  502  501 -0.15875410848E+02 -0.18557310774E+02 -0.95251166198E+01  0.26213170342E+02  0.00000000000E+00 0. -1.
<scales pt_clust_5="13000.00000" pt_clust_6="13000.00000" pt_clust_7="13000.00000" pt_clust_8="13000.00000" pt_clust_9="24.42135"></scales>
<clustering>
<clus scale="   24.421">  2  9  1 -1</clus>
<clus scale="   83.025">  5  6 -1 -1</clus>
<clus scale="   87.245">  7  8 -1 -1</clus>
<clus scale="   94.349">  2  5  1 -1</clus>
<clus scale="   98.084">  1  5  2 -1</clus>
</clustering>
</event>
<event>
 9    1  0.2333971E-005  0.1051709E+03  0.7546771E-02  0.1278151E+00
          1   -1    0    0  502    0  0.00000000000E+00  0.00000000000E+00  0.55043353709E+03  0.55043353709E+03  0.00000000000E+00 0. -1.
         -2   -1    0    0    0  501 -0.00000000000E+00 -0.00000000000E+00 -0.87712697797E+02  0.87712697797E+02  0.00000000000E+00 0.  1.
         23    2    1    2    0    0 -0.33424555188E+02 -0.71873695352E+01  0.14246427289E+02  0.10486564766E+03  0.98107003823E+02 0.  0.
        -24    2    1    2    0    0  0.14979853557E+02 -0.38021021191E+02  0.47087664371E+03  0.47956033410E+03  0.81137576903E+02 0.  0.
         11    1    4    4    0    0  0.47893092901E+02 -0.24349375694E+02  0.32379768985E+03  0.32822489911E+03  0.00000000000E+00 0. -1.
        -12    1    4    4    0    0 -0.32913239345E+02 -0.13671645496E+02  0.14707895386E+03  0.15133543499E+03  0.00000000000E+00 0.  1.
        -13    1    3    3    0    0 -0.13659262728E+02  0.42742962647E+02  0.23053671624E+02  0.50448073199E+02  0.00000000000E+00 0.  1.
         13    1    3    3    0    0 -0.19765292460E+02 -0.49930332182E+02 -0.88072443349E+01  0.54417574465E+02  0.00000000000E+00 0. -1.
         21    1    1    2  502  501  0.18444701631E+02  0.45208390726E+02 -0.22402231706E+02  0.53720253124E+02  0.00000000000E+00 0.  1.
<scales pt_clust_5="13000.00000" pt_clust_6="13000.00000" pt_clust_7="13000.00000" pt_clust_8="13000.00000" pt_clust_9="48.82628"></scales>
<clustering>
<clus scale="   48.826">  2  9  1 -1</clus>
<clus scale="   81.138">  5  6 -1 -1</clus>
<clus scale="   89.550">  1  5  2 -1</clus>
<clus scale="   98.107">  7  8 -1 -1</clus>
<clus scale="   89.550">  1  5  2 -1</clus>
</clustering>
</event>
<event>
 9    1  0.2333971E-005  0.1062368E+03  0.7546771E-02  0.1272230E+00
         -2   -1    0    0    0  501 -0.00000000000E+00  0.00000000000E+00  0.66676534252E+03  0.66676534252E+03  0.00000000000E+00 0.  1.
          1   -1    0    0  502    0  0.00000000000E+00 -0.00000000000E+00 -0.24025888459E+02  0.24025888459E+02  0.00000000000E+00 0. -1.
        -24    2    1    2    0    0  0.50483974132E+02  0.30482858016E+02  0.22436698771E+03  0.24502765951E+03  0.78868070038E+02 0.  0.
         23    2    1    2    0    0 -0.28084883369E+02 -0.52207978708E+02  0.21878255436E+03  0.24374913361E+03  0.89629238141E+02 0.  0.
         11    1    3    3    0    0  0.23141469716E+02 -0.38651363842E+00  0.75813860826E+01  0.24354761923E+02  0.00000000000E+00 0. -1.
        -12    1    3    3    0    0  0.27342504416E+02  0.30869371655E+02  0.21678560163E+03  0.22067289759E+03  0.00000000000E+00 0.  1.
        -11    1    4    4    0    0  0.29622527803E+01 -0.60468439872E+02  0.74822071351E+02  0.96247335149E+02  0.00000000000E+00 0. -1.
         11    1    4    4    0    0 -0.31047136149E+02  0.82604611639E+01  0.14396048301E+03  0.14750179846E+03  0.00000000000E+00 0.  1.
         21    1    1    2  502  501 -0.22399090764E+02  0.21725120691E+02  0.19958991199E+03  0.20201443786E+03  0.00000000000E+00 0.  1.
<scales pt_clust_5="13000.00000" pt_clust_6="13000.00000" pt_clust_7="13000.00000" pt_clust_8="13000.00000" pt_clust_9="31.20417"></scales>
<clustering>
<clus scale="   31.204">  1  9  2 -1</clus>
<clus scale="   78.868">  5  6 -1 -1</clus>
<clus scale="   89.629">  7  8 -1 -1</clus>
<clus scale="   97.329">  1  5  2 -1</clus>
<clus scale="  106.237">  2  5  1 -1</clus>
</clustering>
</event>
<event>
 9    1  0.2333971E-005  0.9076516E+02  0.7546771E-02  0.1307059E+00
          1   -1    0    0  502    0  0.00000000000E+00  0.00000000000E+00  0.94860587021E+02  0.94860587021E+02  0.00000000000E+00 0. -1.
         -2   -1    0    0    0  501 -0.00000000000E+00 -0.00000000000E+00 -0.16864562322E+03  0.16864562322E+03  0.00000000000E+00 0.  1.
        -24    2    1    2    0    0  0.69941052958E+00 -0.10790553998E+02 -0.95059583752E+02  0.12545122818E+03  0.81146540022E+02 0.  0.
         23    2    1    2    0    0 -0.77285689972E+01 -0.27311437147E+02  0.27261238224E+02  0.98850246848E+02  0.90678281935E+02 0.  0.
         13    1    3    3    0    0  0.30119521516E+02  0.22043342128E+02 -0.50194572605E+02  0.62550696459E+02  0.00000000000E+00 0. -1.
        -14    1    3    3    0    0 -0.29420110987E+02 -0.32833896126E+02 -0.44865011147E+02  0.62900531719E+02  0.00000000000E+00 0.  1.
        -11    1    4    4    0    0  0.77185812458E+01 -0.47229260831E+02 -0.14558877714E+02  0.50021400374E+02  0.00000000000E+00 0.  1.
         11    1    4    4    0    0 -0.15447150243E+02  0.19917823683E+02  0.41820115938E+02  0.48828846474E+02  0.00000000000E+00 0. -1.
         21    1    1    2  502  501  0.70291584676E+01  0.38101991145E+02 -0.59866906701E+01  0.39204735214E+02  0.00000000000E+00 0. -1.
<scales pt_clust_5="13000.00000" pt_clust_6="13000.00000" pt_clust_7="13000.00000" pt_clust_8="13000.00000" pt_clust_9="38.74495"></scales>
<clustering>
<clus scale="   38.745">  1  9  2 -1</clus>
<clus scale="   81.147">  5  6 -1 -1</clus>
<clus scale="   81.244">  2  5  1 -1</clus>
<clus scale="   90.678">  7  8 -1 -1</clus>
<clus scale="   38.745">  1  5  2 -1</clus>
</clustering>
</event>
<event>
 9    1  0.2333971E-005  0.1326568E+03  0.7546771E-02  0.1226234E+00
         -4   -1    0    0    0  501 -0.00000000000E+00  0.00000000000E+00  0.22795107277E+03  0.22795107277E+03  0.00000000000E+00 0.  1.
          3   -1    0    0  502    0  0.00000000000E+00 -0.00000000000E+00 -0.15104747858E+03  0.15104747858E+03  0.00000000000E+00 0. -1.
        -24    2    1    2    0    0  0.68943137064E+02 -0.11408025649E+02  0.73598517378E+02  0.12948115035E+03  0.80407259235E+02 0.  0.
         23    2    1    2    0    0 -0.10227449895E+03  0.33225605939E+02 -0.76433398376E+02  0.16038148837E+03  0.91192891163E+02 0.  0.
         13    1    3    3    0    0  0.30900422349E+02  0.19791995521E+02 -0.47127279239E+01  0.36996878146E+02  0.00000000000E+00 0. -1.
        -14    1    3    3    0    0  0.38042714715E+02 -0.31200021170E+02  0.78311245302E+02  0.92484272202E+02  0.00000000000E+00 0.  1.
        -13    1    4    4    0    0 -0.13860643366E+02  0.30139718512E+02  0.12015056446E+02  0.35282880380E+02  0.00000000000E+00 0.  1.
         13    1    4    4    0    0 -0.88413855581E+02  0.30858874268E+01 -0.88448454822E+02  0.12509860799E+03  0.00000000000E+00 0. -1.
         21    1    1    2  502  501  0.33331361884E+02 -0.21817580290E+02  0.79738475192E+02  0.89135912632E+02  0.00000000000E+00 0. -1.
<scales pt_clust_5="13000.00000" pt_clust_6="13000.00000" pt_clust_7="13000.00000" pt_clust_8="13000.00000" pt_clust_9="39.83700"></scales>
<clustering>
<clus scale="   39.837">  1  9  2 -1</clus>
<clus scale="   80.407">  5  6 -1 -1</clus>
<clus scale="   91.193">  7  8 -1 -1</clus>
<clus scale="  125.487">  1  5  2 -1</clus>
<clus scale="  132.657">  2  5  1 -1</clus>
</clustering>
</event>
<event>
 9    1  0.2333971E-005  0.1073064E+03  0.7546771E-02  0.1269007E+00
         -2   -1    0    0    0  501 -0.00000000000E+00  0.00000000000E+00  0.67332000901E+02  0.67332000901E+02  0.00000000000E+00 0.  1.
          1   -1    0    0  502    0  0.00000000000E+00 -0.00000000000E+00 -0.34863434729E+03  0.34863434729E+03  0.00000000000E+00 0. -1.
         23    2    1    2    0    0  0.46773551096E+02  0.46566000628E+02 -0.40257270800E+02  0.11873159190E+03  0.90113181975E+02 0.  0.
        -24    2    1    2    0    0 -0.23855790894E+02 -0.51960007911E+02 -0.25214137522E+03  0.27120694592E+03  0.81908444234E+02 0.  0.
         13    1    4    4    0    0 -0.23159153821E+02 -0.61792715129E+02 -0.10687382198E+03  0.12560533377E+03  0.00000000000E+00 0. -1.
        -14    1    4    4    0    0 -0.69663707307E+00  0.98327072180E+01 -0.14526755324E+03  0.14560161214E+03  0.00000000000E+00 0.  1.
        -13    1    3    3    0    0 -0.20053383790E+02  0.39079868763E+02 -0.10303113477E+02  0.45116831574E+02  0.00000000000E+00 0. -1.
         13    1    3    3    0    0  0.66826934886E+02  0.74861318645E+01 -0.29954157323E+02  0.73614760323E+02  0.00000000000E+00 0.  1.
         21    1    1    2  502  501 -0.22917760201E+02  0.53940072831E+01  0.11096299631E+02  0.26027810371E+02  0.00000000000E+00 0. -1.
<scales pt_clust_5="13000.00000" pt_clust_6="13000.00000" pt_clust_7="13000.00000" pt_clust_8="13000.00000" pt_clust_9="23.54398"></scales>
<clustering>
<clus scale="   23.544">  1  9  2 -1</clus>
<clus scale="   81.908">  5  6 -1 -1</clus>
<clus scale="   90.113">  7  8 -1 -1</clus>
<clus scale="  100.515">  2  5  1 -1</clus>
<clus scale="  100.515">  2  5  1 -1</clus>
</clustering>
</event>
<event>
 9    1  0.2333971E-005  0.1017076E+03  0.7546771E-02  0.1286789E+00
          1   -1    0    0  502    0  0.00000000000E+00  0.00000000000E+00  0.74037832376E+02  0.74037832376E+02  0.00000000000E+00 0. -1.
         -2   -1    0    0    0  501 -0.00000000000E+00 -0.00000000000E+00 -0.54993253147E+03  0.54993253147E+03  0.00000000000E+00 0.  1.
        -24    2    1    2    0    0 -0.20556087180E+02  0.44351832482E+01 -0.42316965589E+03  0.43115855514E+03  0.79893168921E+02 0.  0.
         23    2    1    2    0    0 -0.13211711674E+02  0.26821338934E+02  0.21987874312E+02  0.10506641302E+03  0.98293188887E+02 0.  0.
         11    1    3    3    0    0  0.17427753265E+02  0.31395083552E+02 -0.19616699138E+03  0.19942634320E+03  0.00000000000E+00 0. -1.
        -12    1    3    3    0    0 -0.37983840445E+02 -0.26959900304E+02 -0.22700266451E+03  0.23173221194E+03  0.00000000000E+00 0.  1.
        -11    1    4    4    0    0 -0.51718709464E+02 -0.58169654689E+01  0.14572509381E+02  0.54046461730E+02  0.00000000000E+00 0.  1.
         11    1    4    4    0    0  0.38506997790E+02  0.32638304403E+02  0.74153649311E+01  0.51019951295E+02  0.00000000000E+00 0. -1.
         21    1    1    2  502  501  0.33767798854E+02 -0.31256522182E+02 -0.74712917523E+02  0.87745395681E+02  0.00000000000E+00 0. -1.
<scales pt_clust_5="13000.00000" pt_clust_6="13000.00000" pt_clust_7="13000.00000" pt_clust_8="13000.00000" pt_clust_9="46.01342"></scales>
<clustering>
<clus scale="   46.013">  2  9  1 -1</clus>
<clus scale="   79.893">  5  6 -1 -1</clus>
<clus scale="   84.058">  2  5  1 -1</clus>
<clus scale="   98.293">  7  8 -1 -1</clus>
<clus scale="  101.708">  1  5  2 -1</clus>
</clustering>
</event>
<event>
 9    1  0.2333971E-005  0.1015497E+03  0.7546771E-02  0.1287556E+00
         -2   -1    0    0    0  501 -0.00000000000E+00  0.00000000000E+00  0.11419975313E+03  0.11419975313E+03  0.00000000000E+00 0.  1.
          1   -1    0    0  502    0  0.00000000000E+00 -0.00000000000E+00 -0.24245627998E+03  0.24245627998E+03  0.00000000000E+00 0. -1.
         23    2    1    2    0    0 -0.18761211045E+02  0.36211042474E+02 -0.26959983578E+01  0.10760456653E+03  0.99540201394E+02 0.  0.
        -24    2    1    2    0    0  0.80813456559E+01 -0.14355771847E+02 -0.17528087454E+03  0.19369963563E+03  0.80776033128E+02 0.  0.
         11    1    4    4    0    0  0.29344357509E+02 -0.15057209696E+02 -0.16801025124E+03  0.17121698340E+03  0.00000000000E+00 0. -1.
        -12    1    4    4    0    0 -0.21263011853E+02  0.70143784951E+00 -0.72706233050E+01  0.22482652231E+02  0.00000000000E+00 0.  1.
        -13    1    3    3    0    0 -0.58505488965E+02  0.10447495838E+02 -0.79065502042E+01  0.59954615706E+02  0.00000000000E+00 0.  1.
         13    1    3    3    0    0  0.39744277921E+02  0.25763546635E+02  0.52105518464E+01  0.47649950821E+02  0.00000000000E+00 0. -1.
         21    1    1    2  502  501  0.10679865389E+02 -0.21855270627E+02  0.49720346056E+02  0.55351830962E+02  0.00000000000E+00 0. -1.
<scales pt_clust_5="13000.00000" pt_clust_6="13000.00000" pt_clust_7="13000.00000" pt_clust_8="13000.00000" pt_clust_9="24.32514"></scales>
<clustering>
<clus scale="   24.325">  1  9  2 -1</clus>
<clus scale="   80.776">  5  6 -1 -1</clus>
<clus scale="   83.240">  2  5  1 -1</clus>
<clus scale="   99.540">  7  8 -1 -1</clus>
<clus scale="   83.240">  2  5  1 -1</clus>
</clustering>
</event>
<event>
 9    1  0.2333971E-005  0.1264666E+03  0.7546771E-02  0.1234733E+00
         -2   -1    0    0    0  501 -0.00000000000E+00  0.00000000000E+00  0.48849193530E+02  0.48849193530E+02  0.00000000000E+00 0.  1.
          1   -1    0    0  502    0  0.00000000000E+00 -0.00000000000E+00 -0.53056400585E+03  0.53056400585E+03  0.00000000000E+00 0. -1.
        -24    2    1    2    0    0  0.63536806504E+02 -0.56465211275E+02 -0.10220300323E+03  0.15616624314E+03  0.81958500243E+02 0.  0.
         23    2    1    2    0    0 -0.47563843776E+02  0.79685146618E+02 -0.37265947823E+03  0.39424255358E+03  0.89107028409E+02 0.  0.
         13    1    3    3    0    0  0.40524275891E+02 -0.26092091518E+02 -0.10738851701E+03  0.11770857131E+03  0.00000000000E+00 0. -1.
        -14    1    3    3    0    0  0.23012530613E+02 -0.30373119757E+02  0.51855137778E+01  0.38457671824E+02  0.00000000000E+00 0.  1.
        -11    1    4    4    0    0  0.50590264314E+01  0.59539120789E+02 -0.27568228428E+03  0.28208371544E+03  0.00000000000E+00 0.  1.
         11    1    4    4    0    0 -0.52622870207E+02  0.20146025829E+02 -0.96977193950E+02  0.11215883814E+03  0.00000000000E+00 0. -1.
         21    1    1    2  502  501 -0.15972962728E+02 -0.23219935343E+02 -0.68523308652E+01  0.29004402665E+02  0.00000000000E+00 0.  1.
<scales pt_clust_5="13000.00000" pt_clust_6="13000.00000" pt_clust_7="13000.00000" pt_clust_8="13000.00000" pt_clust_9="28.18335"></scales>
<clustering>
<clus scale="   28.183">  1  9  2 -1</clus>
<clus scale="   81.959">  5  6 -1 -1</clus>
<clus scale="   89.107">  7  8 -1 -1</clus>
<clus scale="  121.536">  1  5  2 -1</clus>
<clus scale="  126.467">  2  5  1 -1</clus>
</clustering>
</event>
<event>
 9    1  0.2333971E-005  0.1104106E+03  0.7546771E-02  0.1272770E+00
          1   -1    0    0  502    0  0.00000000000E+00  0.00000000000E+00  0.18028780543E+03  0.18028780543E+03  0.00000000000E+00 0. -1.
         -2   -1    0    0    0  501 -0.00000000000E+00 -0.00000000000E+00 -0.15797258448E+03  0.15797258448E+03  0.00000000000E+00 0.  1.
         23    2    1    2    0    0  0.82488595380E+01  0.52876331809E+02 -0.30663086884E+02  0.12332445894E+03  0.10679301066E+03 0.  0.
        -24    2    1    2    0    0  0.92208773959E+01 -0.22641352896E+02  0.11555558282E+03  0.14327519554E+03  0.81098911804E+02 0.  0.
         13    1    4    4    0    0  0.93040355402E+01 -0.52480026576E+02  0.86660679620E+02  0.10173884046E+03  0.00000000000E+00 0. -1.
        -14    1    4    4    0    0 -0.83158144371E-01  0.29838673679E+02  0.28894903200E+02  0.41536355078E+02  0.00000000000E+00 0.  1.
        -11    1    3    3    0    0 -0.31885508845E+02  0.18457733195E+02 -0.54130382724E+02  0.65478789870E+02  0.00000000000E+00 0.  1.
         11    1    3    3    0    0  0.40134368383E+02  0.34418598614E+02  0.23467295840E+02  0.57845669069E+02  0.00000000000E+00 0. -1.
         21    1    1    2  502  501 -0.17469736934E+02 -0.30234978913E+02 -0.62577274981E+02  0.71660735430E+02  0.00000000000E+00 0.  1.
<scales pt_clust_5="13000.00000" pt_clust_6="13000.00000" pt_clust_7="13000.00000" pt_clust_8="13000.00000" pt_clust_9="34.91913"></scales>
<clustering>
<clus scale="   34.919">  2  9  1 -1</clus>
<clus scale="   81.099">  5  6 -1 -1</clus>
<clus scale="   85.807">  1  5  2 -1</clus>
<clus scale="  106.793">  7  8 -1 -1</clus>
<clus scale="   85.807">  1  5  2 -1</clus>
</clustering>
</event>
<event>
 9    1  0.2333971E-005  0.2624575E+03  0.7546771E-02  0.1106223E+00
          1   -1    0    0  502    0  0.00000000000E+00  0.00000000000E+00  0.56680983566E+03  0.56680983566E+03  0.00000000000E+00 0. -1.
         -2   -1    0    0    0  501 -0.00000000000E+00 -0.00000000000E+00 -0.52083480069E+03  0.52083480069E+03  0.00000000000E+00 0.  1.
         23    2    1    2    0    0 -0.76360609335E+02 -0.16403436921E+03 -0.34037827376E+03  0.39624362866E+03  0.91724735318E+02 0.  0.
        -24    2    1    2    0    0  0.11595872591E+03  0.22346107052E+03  0.49512727028E+03  0.56128060814E+03  0.80645093751E+02 0.  0.
         11    1    4    4    0    0  0.41416931787E+02  0.13418257836E+03  0.33612851821E+03  0.36428382798E+03  0.00000000000E+00 0. -1.
        -12    1    4    4    0    0  0.74541794124E+02  0.89278492160E+02  0.15899875207E+03  0.19699678016E+03  0.00000000000E+00 0.  1.
        -11    1    3    3    0    0 -0.31384092940E+01 -0.11285055140E+03 -0.17443688859E+03  0.20778191612E+03  0.00000000000E+00 0.  1.
         11    1    3    3    0    0 -0.73222200041E+02 -0.51183817811E+02 -0.16594138517E+03  0.18846171255E+03  0.00000000000E+00 0. -1.
         21    1    1    2  502  501 -0.39598116575E+02 -0.59426701316E+02 -0.10877396155E+03  0.13012039954E+03  0.00000000000E+00 0. -1.
<scales pt_clust_5="13000.00000" pt_clust_6="13000.00000" pt_clust_7="13000.00000" pt_clust_8="13000.00000" pt_clust_9="71.41109"></scales>
<clustering>
<clus scale="   71.411">  2  9  1 -1</clus>
<clus scale="   80.645">  5  6 -1 -1</clus>
<clus scale="   91.725">  7  8 -1 -1</clus>
<clus scale="  258.794">  1  5  2 -1</clus>
<clus scale="  258.794">  1  5  2 -1</clus>
</clustering>
</event>
<event>
 9    1  0.2333971E-005  0.1649535E+03  0.7546771E-02  0.1183380E+00
         -2   -1    0    0    0  501 -0.00000000000E+00  0.00000000000E+00  0.13727711756E+03  0.13727711756E+03  0.00000000000E+00 0.  1.
          1   -1    0    0  502    0  0.00000000000E+00 -0.00000000000E+00 -0.62870840952E+03  0.62870840952E+03  0.00000000000E+00 0. -1.
        -24    2    1    2    0    0 -0.96194873961E+02  0.10055070569E+03  0.67435590993E+02  0.17936221382E+03  0.90880947525E+02 0.  0.
         23    2    1    2    0    0  0.76308735021E+02 -0.87210451140E+02 -0.52280617454E+03  0.54333595247E+03  0.91972687681E+02 0.  0.
         11    1    3    3    0    0 -0.70206460108E+02  0.96457179330E+01  0.20294359737E+02  0.73714638658E+02  0.00000000000E+00 0. -1.
        -12    1    3    3    0    0 -0.25988413852E+02  0.90904987752E+02  0.47141231256E+02  0.10564757516E+03  0.00000000000E+00 0.  1.
        -11    1    4    4    0    0  0.34496474726E+02 -0.16927708242E+02 -0.47745965244E+02  0.61288100574E+02  0.00000000000E+00 0.  1.
         11    1    4    4    0    0  0.41812260295E+02 -0.70282742898E+02 -0.47506020929E+03  0.48204785189E+03  0.00000000000E+00 0. -1.
         21    1    1    2  502  501  0.19886138940E+02 -0.13340254545E+02 -0.36060708420E+02  0.43287360800E+02  0.00000000000E+00 0.  1.
<scales pt_clust_5="13000.00000" pt_clust_6="13000.00000" pt_clust_7="13000.00000" pt_clust_8="13000.00000" pt_clust_9="23.94621"></scales>
<clustering>
<clus scale="   23.946">  2  9  1 -1</clus>
<clus scale="   90.881">  5  6 -1 -1</clus>
<clus scale="   91.973">  7  8 -1 -1</clus>
<clus scale="  164.347">  1  5  2 -1</clus>
<clus scale="   23.946">  2  5  1 -1</clus>
</clustering>
</event>
<event>
 9    1  0.2333971E-005  0.9727867E+02  0.7546771E-02  0.1292177E+00
          1   -1    0    0  502    0  0.00000000000E+00  0.00000000000E+00  0.45748529504E+03  0.45748529504E+03  0.00000000000E+00 0. -1.
         -2   -1    0    0    0  501 -0.00000000000E+00 -0.00000000000E+00 -0.91308928868E+02  0.91308928868E+02  0.00000000000E+00 0.  1.
        -24    2    1    2    0    0 -0.14192885121E+02 -0.50063931725E+02 -0.21452399414E+01  0.95492702786E+02  0.80040108590E+02 0.  0.
         23    2    1    2    0    0  0.15170350012E+02  0.27792703930E+02  0.40170681248E+03  0.41315759220E+03  0.91259294793E+02 0.  0.
         11    1    3    3    0    0  0.16176785861E+02 -0.23095925991E+02  0.31842328579E+02  0.42532858915E+02  0.00000000000E+00 0. -1.
        -12    1    3    3    0    0 -0.30369670982E+02 -0.26968005734E+02 -0.33987568521E+02  0.52959843870E+02  0.00000000000E+00 0.  1.
        -11    1    4    4    0    0 -0.36647462809E+02  0.85948404107E+01  0.10998409934E+03  0.11624719317E+03  0.00000000000E+00 0.  1.
         11    1    4    4    0    0  0.51817812821E+02  0.19197863519E+02  0.29172271315E+03  0.29691039903E+03  0.00000000000E+00 0. -1.
         21    1    1    2  502  501 -0.97746489049E+00  0.22271227795E+02 -0.33385206369E+02  0.40143928923E+02  0.00000000000E+00 0.  1.
<scales pt_clust_5="13000.00000" pt_clust_6="13000.00000" pt_clust_7="13000.00000" pt_clust_8="13000.00000" pt_clust_9="22.29267"></scales>
<clustering>
<clus scale="   22.293">  2  9  1 -1</clus>
<clus scale="   80.040">  5  6 -1 -1</clus>
<clus scale="   86.841">  2  5  1 -1</clus>
<clus scale="   91.259">  7  8 -1 -1</clus>
<clus scale="   97.279">  1  5  2 -1</clus>
</clustering>
</event>
<event>
 9    1  0.2333971E-005  0.1011057E+03  0.7546771E-02  0.1282670E+00
          1   -1    0    0  502    0  0.00000000000E+00  0.00000000000E+00  0.23267432497E+03  0.23267432497E+03  0.00000000000E+00 0. -1.
         -2   -1    0    0    0  501 -0.00000000000E+00 -0.00000000000E+00 -0.79740198142E+02  0.79740198142E+02  0.00000000000E+00 0.  1.
         23    2    1    2    0    0 -0.53799013015E+02  0.68444654636E+01  0.63123257764E+02  0.12363438685E+03  0.91431588815E+02 0.  0.
        -24    2    1    2    0    0  0.14224354786E+02 -0.47065282385E+02  0.91653284004E+02  0.13232429351E+03  0.81804163147E+02 0.  0.
         13    1    4    4    0    0 -0.30965327915E+02 -0.38271207994E+02  0.43339089812E+02  0.65588212355E+02  0.00000000000E+00 0. -1.
        -14    1    4    4    0    0  0.45189682701E+02 -0.87940743906E+01  0.48314194193E+02  0.66736081152E+02  0.00000000000E+00 0.  1.
        -11    1    3    3    0    0 -0.31433379626E+02  0.18793565146E+01  0.85801935173E+02  0.91397819531E+02  0.00000000000E+00 0. -1.
         11    1    3    3    0    0 -0.22365633389E+02  0.49651089491E+01 -0.22678677409E+02  0.32236567323E+02  0.00000000000E+00 0.  1.
         21    1    1    2  502  501  0.39574658229E+02  0.40220816921E+02 -0.18424149418E+01  0.56455842750E+02  0.00000000000E+00 0.  1.
<scales pt_clust_5="13000.00000" pt_clust_6="13000.00000" pt_clust_7="13000.00000" pt_clust_8="13000.00000" pt_clust_9="56.42577"></scales>
<clustering>
<clus scale="   56.426">  2  9  1 -1</clus>
<clus scale="   81.804">  5  6 -1 -1</clus>
<clus scale="   91.432">  7  8 -1 -1</clus>
<clus scale="   92.491">  1  5  2 -1</clus>
<clus scale="   92.491">  1  5  2 -1</clus>
</clustering>
</event>
<event>
 9    1  0.2333971E-005  0.1162335E+03  0.7546771E-02  0.1254101E+00
         -2   -1    0    0    0  501 -0.00000000000E+00  0.00000000000E+00  0.16187363871E+03  0.16187363871E+03  0.00000000000E+00 0.  1.
          1   -1    0    0  502    0  0.00000000000E+00 -0.00000000000E+00 -0.14161226883E+03  0.14161226883E+03  0.00000000000E+00 0. -1.
        -24    2    1    2    0    0  0.93458499380E+01 -0.64060154992E+02 -0.13569851161E+02  0.10486216420E+03  0.81368816214E+02 0.  0.
         23    2    1    2    0    0  0.17477083072E+02  0.71277860531E+02 -0.34849873396E+02  0.12453826743E+03  0.94389006480E+02 0.  0.
         11    1    3    3    0    0  0.69088301276E+01 -0.24266909325E+02 -0.46663944627E+02  0.53048454737E+02  0.00000000000E+00 0. -1.
        -12    1    3    3    0    0  0.24370198105E+01 -0.39793245667E+02  0.33094093466E+02  0.51813709466E+02  0.00000000000E+00 0.  1.
        -13    1    4    4    0    0 -0.38442775238E+01  0.89011719041E+02 -0.14796381706E+02  0.90314990494E+02  0.00000000000E+00 0.  1.
         13    1    4    4    0    0  0.21321360596E+02 -0.17733858510E+02 -0.20053491690E+02  0.34223276936E+02  0.00000000000E+00 0. -1.
         21    1    1    2  502  501 -0.26822933010E+02 -0.72177055390E+01  0.68681094436E+02  0.74085475914E+02  0.00000000000E+00 0.  1.
<scales pt_clust_5="13000.00000" pt_clust_6="13000.00000" pt_clust_7="13000.00000" pt_clust_8="13000.00000" pt_clust_9="27.77706"></scales>
<clustering>
<clus scale="   27.777">  1  9  2 -1</clus>
<clus scale="   81.369">  5  6 -1 -1</clus>
<clus scale="   94.389">  7  8 -1 -1</clus>
<clus scale="  105.933">  1  5  2 -1</clus>
<clus scale="  116.233">  2  5  1 -1</clus>
</clustering>
</event>
<event>
 9    1  0.2333971E-005  0.1677111E+03  0.7546771E-02  0.1197903E+00
         -2   -1    0    0    0  501 -0.00000000000E+00  0.00000000000E+00  0.79979869496E+02  0.79979869496E+02  0.00000000000E+00 0.  1.
          1   -1    0    0  502    0  0.00000000000E+00 -0.00000000000E+00 -0.10364133595E+04  0.10364133595E+04  0.00000000000E+00 0. -1.
        -24    2    1    2    0    0 -0.10305063859E+03 -0.19097811389E+02 -0.32560649204E+03  0.35126492242E+03  0.79895541468E+02 0.  0.
         23    2    1    2    0    0 -0.57865715372E+02  0.39368932121E+02 -0.58595905996E+03  0.59684841126E+03  0.89340093165E+02 0.  0.
         11    1    3    3    0    0 -0.11321118659E+03 -0.27158004429E+02 -0.26764461312E+03  0.29186978073E+03  0.00000000000E+00 0. -1.
        -12    1    3    3    0    0  0.10160547995E+02  0.80601930404E+01 -0.57961878924E+02  0.59395141685E+02  0.00000000000E+00 0.  1.
        -11    1    4    4    0    0  0.16331710398E+02 -0.13258355373E+02 -0.76884081125E+02  0.79709915833E+02  0.00000000000E+00 0.  1.
         11    1    4    4    0    0 -0.74197425770E+02  0.52627287494E+02 -0.50907497884E+03  0.51713849543E+03  0.00000000000E+00 0. -1.
         21    1    1    2  502  501  0.16091635396E+03 -0.20271120732E+02 -0.44867938009E+02  0.16827989532E+03  0.00000000000E+00 0.  1.
<scales pt_clust_5="13000.00000" pt_clust_6="13000.00000" pt_clust_7="13000.00000" pt_clust_8="13000.00000" pt_clust_9="147.45746"></scales>
<clustering>
<clus scale="   79.896">  5  6 -1 -1</clus>
<clus scale="   89.340">  7  8 -1 -1</clus>
<clus scale="  113.490">  2  7  1 -1</clus>
<clus scale="  147.457">  1  9  2 -1</clus>
<clus scale="  113.490">  2  5  1 -1</clus>
</clustering>
</event>
<event>
 9    1  0.2333971E-005  0.9618844E+02  0.7546771E-02  0.1294979E+00
          1   -1    0    0  502    0  0.00000000000E+00  0.00000000000E+00  0.89104083212E+03  0.89104083212E+03  0.00000000000E+00 0. -1.
         -2   -1    0    0    0  501 -0.00000000000E+00 -0.00000000000E+00 -0.16783931453E+03  0.16783931453E+03  0.00000000000E+00 0.  1.
         23    2    1    2    0    0  0.19539231655E+02 -0.73111498950E+02 -0.65552954283E+02  0.13732616515E+03  0.93990494024E+02 0.  0.
        -24    2    1    2    0    0 -0.89795327579E+01  0.17100086354E+02  0.84037063031E+03  0.84465786071E+03  0.82771132711E+02 0.  0.
         11    1    4    4    0    0 -0.28357883593E+02  0.14177164731E+02  0.12302327323E+03  0.12704285622E+03  0.00000000000E+00 0. -1.
        -12    1    4    4    0    0  0.19378350835E+02  0.29229216227E+01  0.71734735708E+03  0.71761500449E+03  0.00000000000E+00 0.  1.
        -11    1    3    3    0    0  0.27876205009E+02  0.82311043127E+01  0.47972250584E+01  0.29459247312E+02  0.00000000000E+00 0. -1.
         11    1    3    3    0    0 -0.83369733538E+01 -0.81342603263E+02 -0.70350179341E+02  0.10786691784E+03  0.00000000000E+00 0.  1.
         21    1    1    2  502  501 -0.10559698898E+02  0.56011412596E+02 -0.51616158428E+02  0.76896120791E+02  0.00000000000E+00 0.  1.
<scales pt_clust_5="13000.00000" pt_clust_6="13000.00000" pt_clust_7="13000.00000" pt_clust_8="13000.00000" pt_clust_9="56.99812"></scales>
<clustering>
<clus scale="   56.998">  2  9  1 -1</clus>
<clus scale="   82.771">  5  6 -1 -1</clus>
<clus scale="   85.259">  1  5  2 -1</clus>
<clus scale="   93.990">  7  8 -1 -1</clus>
<clus scale="   85.259">  1  5  2 -1</clus>
</clustering>
</event>
<event>
 9    1  0.2333971E-005  0.9485191E+02  0.7546771E-02  0.1299513E+00
          1   -1    0    0  502    0  0.00000000000E+00  0.00000000000E+00  0.13920151750E+03  0.13920151750E+03  0.00000000000E+00 0. -1.
         -2   -1    0    0    0  501 -0.00000000000E+00 -0.00000000000E+00 -0.11039117501E+03  0.11039117501E+03  0.00000000000E+00 0.  1.
        -24    2    1    2    0    0 -0.11247273921E+02 -0.51895774634E+01 -0.41622400282E+02  0.88449035616E+02  0.77054362701E+02 0.  0.
         23    2    1    2    0    0  0.99159984181E+01  0.32033657558E+02  0.86495595709E+02  0.12983244204E+03  0.90832222743E+02 0.  0.
         11    1    3    3    0    0 -0.26522528416E+02  0.29560036748E+02 -0.16974901161E+02  0.43190132617E+02  0.00000000000E+00 0. -1.
        -12    1    3    3    0    0  0.15275254495E+02 -0.34749614211E+02 -0.24647499121E+02  0.45258902999E+02  0.00000000000E+00 0.  1.
        -11    1    4    4    0    0  0.38364516947E+02 -0.78283692739E+01  0.12505805010E+02  0.41103706464E+02  0.00000000000E+00 0.  1.
         11    1    4    4    0    0 -0.28448518529E+02  0.39862026832E+02  0.73989790699E+02  0.88728735579E+02  0.00000000000E+00 0. -1.
         21    1    1    2  502  501  0.13312755028E+01 -0.26844080095E+02 -0.16062852942E+02  0.31311214848E+02  0.00000000000E+00 0.  1.
<scales pt_clust_5="13000.00000" pt_clust_6="13000.00000" pt_clust_7="13000.00000" pt_clust_8="13000.00000" pt_clust_9="26.87707"></scales>
<clustering>
<clus scale="   26.877">  2  9  1 -1</clus>
<clus scale="   77.054">  5  6 -1 -1</clus>
<clus scale="   81.754">  2  5  1 -1</clus>
<clus scale="   90.832">  7  8 -1 -1</clus>
<clus scale="   94.852">  1  5  2 -1</clus>
</clustering>
</event>
<event>
 9    1  0.2333971E-005  0.9063772E+02  0.7546771E-02  0.1304940E+00
         -2   -1    0    0    0  501 -0.00000000000E+00  0.00000000000E+00  0.22333042153E+03  0.22333042153E+03  0.00000000000E+00 0.  1.
          1   -1    0    0  502    0  0.00000000000E+00 -0.00000000000E+00 -0.14058874039E+03  0.14058874039E+03  0.00000000000E+00 0. -1.
         23    2    1    2    0    0  0.17935476347E+02 -0.71483290712E+01  0.10181601877E+03  0.13725330646E+03  0.89995491750E+02 0.  0.
        -24    2    1    2    0    0  0.81735628580E+01  0.96746036561E+01 -0.10597423202E+03  0.13589330655E+03  0.84119247664E+02 0.  0.
         13    1    4    4    0    0  0.39663429594E+02 -0.11071726914E+02 -0.80391280173E+02  0.90324574241E+02  0.00000000000E+00 0. -1.
        -14    1    4    4    0    0 -0.31489866736E+02  0.20746330570E+02 -0.25582951848E+02  0.45568732311E+02  0.00000000000E+00 0.  1.
        -11    1    3    3    0    0 -0.24447008452E+02  0.16840506275E+02  0.67570332824E+01  0.30445301323E+02  0.00000000000E+00 0.  1.
         11    1    3    3    0    0  0.42382484799E+02 -0.23988835346E+02  0.95058985492E+02  0.10680800514E+03  0.00000000000E+00 0. -1.
         21    1    1    2  502  501 -0.26109039205E+02 -0.25262745849E+01  0.86899894384E+02  0.90772548909E+02  0.00000000000E+00 0.  1.
<scales pt_clust_5="13000.00000" pt_clust_6="13000.00000" pt_clust_7="13000.00000" pt_clust_8="13000.00000" pt_clust_9="26.23097"></scales>
<clustering>
<clus scale="   26.231">  1  9  2 -1</clus>
<clus scale="   84.119">  5  6 -1 -1</clus>
<clus scale="   84.806">  2  5  1 -1</clus>
<clus scale="   89.995">  7  8 -1 -1</clus>
<clus scale="   84.806">  2  5  1 -1</clus>
</clustering>
</event>
<event>
 9    1  0.2333971E-005  0.1281625E+03  0.7546771E-02  0.1232322E+00
          1   -1    0    0  502    0  0.00000000000E+00  0.00000000000E+00  0.40391958138E+03  0.40391958138E+03  0.00000000000E+00 0. -1.
         -2   -1    0    0    0  501 -0.00000000000E+00 -0.00000000000E+00 -0.14213165200E+03  0.14213165200E+03  0.00000000000E+00 0.  1.
         23    2    1    2    0    0  0.15145685946E+02 -0.88997848791E+02 -0.53476060273E+02  0.13750565294E+03  0.88871292748E+02 0.  0.
        -24    2    1    2    0    0 -0.38881657453E+02  0.84356301470E+02  0.34726063266E+03  0.36843666039E+03  0.80795153589E+02 0.  0.
         11    1    4    4    0    0 -0.21702898281E+02  0.74620937487E+02  0.33764758051E+03  0.34647537969E+03  0.00000000000E+00 0. -1.
        -12    1    4    4    0    0 -0.17178759172E+02  0.97353639827E+01  0.96130521447E+01  0.21961280702E+02  0.00000000000E+00 0.  1.
        -11    1    3    3    0    0  0.26811891333E+02  0.87702232731E+01 -0.11204107767E+02  0.30353358364E+02  0.00000000000E+00 0. -1.
         11    1    3    3    0    0 -0.11666205387E+02 -0.97768072064E+02 -0.42271952506E+02  0.10715229457E+03  0.00000000000E+00 0.  1.
         21    1    1    2  502  501  0.23735971507E+02  0.46415473214E+01 -0.31996643004E+02  0.40108920061E+02  0.00000000000E+00 0.  1.
<scales pt_clust_5="13000.00000" pt_clust_6="13000.00000" pt_clust_7="13000.00000" pt_clust_8="13000.00000" pt_clust_9="24.18554"></scales>
<clustering>
<clus scale="   24.186">  2  9  1 -1</clus>
<clus scale="   80.795">  5  6 -1 -1</clus>
<clus scale="   88.871">  7  8 -1 -1</clus>
<clus scale="  122.700">  1  5  2 -1</clus>
<clus scale="  122.700">  1  5  2 -1</clus>
</clustering>
</event>
<event>
 9    1  0.2333971E-005  0.1231954E+03  0.7546771E-02  0.1242663E+00
         -4   -1    0    0    0  501 -0.00000000000E+00  0.00000000000E+00  0.11902020778E+03  0.11902020778E+03  0.00000000000E+00 0.  1.
          3   -1    0    0  502    0  0.00000000000E+00 -0.00000000000E+00 -0.26023036953E+03  0.26023036953E+03  0.00000000000E+00 0. -1.
        -24    2    1    2    0    0  0.60174313599E+02  0.21642887247E+02  0.43173787837E+02  0.10849353244E+03  0.76272590350E+02 0.  0.
         23    2    1    2    0    0 -0.81075074287E+02 -0.28862223522E+02 -0.20492335091E+03  0.24057712406E+03  0.92073759883E+02 0.  0.
         13    1    3    3    0    0  0.73518421697E+02  0.16038197158E+01  0.22900711625E+02  0.77019303810E+02  0.00000000000E+00 0. -1.
        -14    1    3    3    0    0 -0.13344108098E+02  0.20039067532E+02  0.20273076213E+02  0.31474228626E+02  0.00000000000E+00 0.  1.
        -13    1    4    4    0    0 -0.71753091161E+02  0.19658590296E+02 -0.10036116418E+03  0.12492929817E+03  0.00000000000E+00 0. -1.
         13    1    4    4    0    0 -0.93219831254E+01 -0.48520813819E+02 -0.10456218672E+03  0.11564782590E+03  0.00000000000E+00 0.  1.
         21    1    1    2  502  501  0.20900760687E+02  0.72193362748E+01  0.20539401319E+02  0.30179920810E+02  0.00000000000E+00 0. -1.
<scales pt_clust_5="13000.00000" pt_clust_6="13000.00000" pt_clust_7="13000.00000" pt_clust_8="13000.00000" pt_clust_9="22.11245"></scales>
<clustering>
<clus scale="   22.112">  1  9  2 -1</clus>
<clus scale="   76.273">  5  6 -1 -1</clus>
<clus scale="   92.074">  7  8 -1 -1</clus>
<clus scale="  111.880">  1  5  2 -1</clus>
<clus scale="  123.195">  2  5  1 -1</clus>
</clustering>
</event>
<event>
 9    1  0.2333971E-005  0.1124661E+03  0.7546771E-02  0.1258464E+00
          1   -1    0    0  502    0  0.00000000000E+00  0.00000000000E+00  0.13868913966E+03  0.13868913966E+03  0.00000000000E+00 0. -1.
         -2   -1    0    0    0  501 -0.00000000000E+00 -0.00000000000E+00 -0.50197256478E+03  0.50197256478E+03  0.00000000000E+00 0.  1.
         23    2    1    2    0    0  0.48854199999E+01  0.22901454276E+02 -0.19371482987E+03  0.21466421371E+03  0.89481536639E+02 0.  0.
        -24    2    1    2    0    0 -0.33739849917E+02 -0.65374899740E+02  0.10140311460E+03  0.15020365607E+03  0.82863089831E+02 0.  0.
         11    1    4    4    0    0 -0.51011770812E+02 -0.56424882923E+02  0.40306221872E+02  0.86084607775E+02  0.00000000000E+00 0. -1.
        -12    1    4    4    0    0  0.17271920895E+02 -0.89500168173E+01  0.61096892732E+02  0.64119048293E+02  0.00000000000E+00 0.  1.
        -13    1    3    3    0    0 -0.30292280149E+02  0.17676944137E+02 -0.27172609603E+02  0.44367187236E+02  0.00000000000E+00 0.  1.
         13    1    3    3    0    0  0.35177700148E+02  0.52245101390E+01 -0.16654222027E+03  0.17029702648E+03  0.00000000000E+00 0. -1.
         21    1    1    2  502  501  0.28854429917E+02  0.42473445464E+02 -0.27097170985E+03  0.27579383466E+03  0.00000000000E+00 0.  1.
<scales pt_clust_5="13000.00000" pt_clust_6="13000.00000" pt_clust_7="13000.00000" pt_clust_8="13000.00000" pt_clust_9="51.34756"></scales>
<clustering>
<clus scale="   51.348">  2  9  1 -1</clus>
<clus scale="   82.863">  5  6 -1 -1</clus>
<clus scale="   89.482">  7  8 -1 -1</clus>
<clus scale="  107.275">  1  5  2 -1</clus>
<clus scale="  107.275">  1  5  2 -1</clus>
</clustering>
</event>
<event>
 9    1  0.2333971E-005  0.1578931E+03  0.7546771E-02  0.1192977E+00
         -2   -1    0    0    0  501 -0.00000000000E+00  0.00000000000E+00  0.91814023579E+02  0.91814023579E+02  0.00000000000E+00 0.  1.
          1   -1    0    0  502    0  0.00000000000E+00 -0.00000000000E+00 -0.69398179041E+03  0.69398179041E+03  0.00000000000E+00 0. -1.
        -24    2    1    2    0    0 -0.45808762202E+01  0.12458054884E+03 -0.21926293250E+02  0.14966859973E+03  0.79866324791E+02 0.  0.
         23    2    1    2    0    0  0.25313691254E+02 -0.12711887140E+03 -0.59149992570E+03  0.61239863561E+03  0.91432687588E+02 0.  0.
         11    1    3    3    0    0  0.33440827128E+02  0.85552044639E+02 -0.27217257750E+01  0.91895859820E+02  0.00000000000E+00 0. -1.
        -12    1    3    3    0    0 -0.38021703348E+02  0.39028504197E+02 -0.19204567475E+02  0.57772739914E+02  0.00000000000E+00 0.  1.
        -13    1    4    4    0    0 -0.22003351657E+02 -0.56548782572E+02 -0.13431065005E+03  0.14738135232E+03  0.00000000000E+00 0.  1.
         13    1    4    4    0    0  0.47317042911E+02 -0.70570088825E+02 -0.45718927565E+03  0.46501728329E+03  0.00000000000E+00 0. -1.
         21    1    1    2  502  501 -0.20732815033E+02  0.25383225608E+01  0.11258452117E+02  0.23728578649E+02  0.00000000000E+00 0.  1.
<scales pt_clust_5="13000.00000" pt_clust_6="13000.00000" pt_clust_7="13000.00000" pt_clust_8="13000.00000" pt_clust_9="20.88762"></scales>
<clustering>
<clus scale="   20.888">  1  9  2 -1</clus>
<clus scale="   79.866">  5  6 -1 -1</clus>
<clus scale="   91.433">  7  8 -1 -1</clus>
<clus scale="  151.489">  1  5  2 -1</clus>
<clus scale="  157.893">  2  5  1 -1</clus>
</clustering>
</event>
<event>
 9    1  0.2333971E-005  0.1688118E+03  0.7546771E-02  0.1181083E+00
          1   -1    0    0  502    0  0.00000000000E+00  0.00000000000E+00  0.51066065312E+03  0.51066065312E+03  0.00000000000E+00 0. -1.
         -2   -1    0    0    0  501 -0.00000000000E+00 -0.00000000000E+00 -0.22852471127E+03  0.22852471127E+03  0.00000000000E+00 0.  1.
        -24    2    1    2    0    0 -0.11227875987E+03  0.23215958022E+02 -0.88089243045E+02  0.16471809779E+03  0.78910305876E+02 0.  0.
         23    2    1    2    0    0  0.13827820819E+03 -0.40588797299E+02  0.45384598964E+03  0.48519114525E+03  0.93091094027E+02 0.  0.
         11    1    3    3    0    0 -0.48541241412E+02  0.49533183579E+02 -0.34949130644E+02  0.77660994882E+02  0.00000000000E+00 0. -1.
        -12    1    3    3    0    0 -0.63737518458E+02 -0.26317225557E+02 -0.53140112401E+02  0.87057102904E+02  0.00000000000E+00 0.  1.
        -13    1    4    4    0    0  0.87282021901E+01 -0.34983253323E+02  0.15989233322E+03  0.16390719249E+03  0.00000000000E+00 0. -1.
         13    1    4    4    0    0  0.12955000600E+03 -0.56055439760E+01  0.29395365642E+03  0.32128395277E+03  0.00000000000E+00 0.  1.
         21    1    1    2  502  501 -0.25999448325E+02  0.17372839277E+02 -0.83620804751E+02  0.89276121359E+02  0.00000000000E+00 0.  1.
<scales pt_clust_5="13000.00000" pt_clust_6="13000.00000" pt_clust_7="13000.00000" pt_clust_8="13000.00000" pt_clust_9="31.26958"></scales>
<clustering>
<clus scale="   31.270">  2  9  1 -1</clus>
<clus scale="   78.910">  5  6 -1 -1</clus>
<clus scale="   93.091">  7  8 -1 -1</clus>
<clus scale="  161.426">  2  5  1 -1</clus>
<clus scale="  168.812">  1  5  2 -1</clus>
</clustering>
</event>
<event>
 9    1  0.2333971E-005  0.9211788E+02  0.7546771E-02  0.1304773E+00
         -2   -1    0    0    0  501 -0.00000000000E+00  0.00000000000E+00  0.19561386116E+03  0.19561386116E+03  0.00000000000E+00 0.  1.
          1   -1    0    0  502    0  0.00000000000E+00 -0.00000000000E+00 -0.16085242261E+03  0.16085242261E+03  0.00000000000E+00 0. -1.
        -24    2    1    2    0    0  0.19446666417E+02  0.25639733030E+01  0.90224044371E+02  0.12192301552E+03  0.79624724403E+02 0.  0.
         23    2    1    2    0    0  0.12864011342E+02 -0.13557460021E+02 -0.12582700344E+03  0.15633850433E+03  0.90884573113E+02 0.  0.
         11    1    3    3    0    0  0.29494654253E+02 -0.28047571135E+02  0.77001760968E+02  0.87096911933E+02  0.00000000000E+00 0. -1.
        -12    1    3    3    0    0 -0.10047987836E+02  0.30611544438E+02  0.13222283403E+02  0.34826103584E+02  0.00000000000E+00 0.  1.
        -11    1    4    4    0    0  0.40650735367E+02  0.22859707684E+02 -0.70174687770E+02  0.84258740347E+02  0.00000000000E+00 0. -1.
         11    1    4    4    0    0 -0.27786724024E+02 -0.36417167705E+02 -0.55652315670E+02  0.72079763978E+02  0.00000000000E+00 0.  1.
         21    1    1    2  502  501 -0.32310677759E+02  0.10993486718E+02  0.70364397628E+02  0.78204763928E+02  0.00000000000E+00 0.  1.
<scales pt_clust_5="13000.00000" pt_clust_6="13000.00000" pt_clust_7="13000.00000" pt_clust_8="13000.00000" pt_clust_9="34.12970"></scales>
<clustering>
<clus scale="   34.130">  1  9  2 -1</clus>
<clus scale="   79.625">  5  6 -1 -1</clus>
<clus scale="   81.030">  1  5  2 -1</clus>
<clus scale="   90.885">  7  8 -1 -1</clus>
<clus scale="   92.118">  2  5  1 -1</clus>
</clustering>
</event>
<event>
 9    1  0.2333971E-005  0.1966345E+03  0.7546771E-02  0.1155795E+00
         -2   -1    0    0    0  501 -0.00000000000E+00  0.00000000000E+00  0.54525977177E+03  0.54525977177E+03  0.00000000000E+00 0.  1.
          1   -1    0    0  502    0  0.00000000000E+00 -0.00000000000E+00 -0.90687779833E+02  0.90687779833E+02  0.00000000000E+00 0. -1.
        -24    2    1    2    0    0  0.98480511335E+02 -0.15261169670E+03  0.29229842816E+03  0.35534474191E+03  0.88559434341E+02 0.  0.
         23    2    1    2    0    0 -0.92054381628E+02  0.11643478570E+03  0.11300524587E+03  0.21914199956E+03  0.11498679003E+03 0.  0.
         13    1    3    3    0    0  0.27180436945E+02 -0.79678285038E+02  0.65496217280E+02  0.10666376956E+03  0.00000000000E+00 0. -1.
        -14    1    3    3    0    0  0.71300074390E+02 -0.72933411666E+02  0.22680221088E+03  0.24868097235E+03  0.00000000000E+00 0.  1.
        -13    1    4    4    0    0 -0.94827456627E+02  0.30299415400E+02  0.76500605430E+02  0.12554936772E+03  0.00000000000E+00 0.  1.
         13    1    4    4    0    0  0.27730749986E+01  0.86135370300E+02  0.36504640437E+02  0.93592631841E+02  0.00000000000E+00 0. -1.
         21    1    1    2  502  501 -0.64261297069E+01  0.36176911004E+02  0.49268317903E+02  0.61460810129E+02  0.00000000000E+00 0. -1.
<scales pt_clust_5="13000.00000" pt_clust_6="13000.00000" pt_clust_7="13000.00000" pt_clust_8="13000.00000" pt_clust_9="36.74322"></scales>
<clustering>
<clus scale="   36.743">  1  9  2 -1</clus>
<clus scale="   88.559">  5  6 -1 -1</clus>
<clus scale="  114.987">  7  8 -1 -1</clus>
<clus scale="  182.444">  1  5  2 -1</clus>
<clus scale="  196.635">  2  5  1 -1</clus>
</clustering>
</event>
<event>
 9    1  0.2333971E-005  0.1130533E+03  0.7546771E-02  0.1258221E+00
         -4   -1    0    0    0  501 -0.00000000000E+00  0.00000000000E+00  0.25275912152E+03  0.25275912152E+03  0.00000000000E+00 0.  1.
          3   -1    0    0  502    0  0.00000000000E+00 -0.00000000000E+00 -0.92364210624E+02  0.92364210624E+02  0.00000000000E+00 0. -1.
         23    2    1    2    0    0 -0.70711938195E+02 -0.10640223564E+02  0.16851412227E+03  0.20407187433E+03  0.90193835302E+02 0.  0.
        -24    2    1    2    0    0  0.67293827740E+02 -0.95907312002E+01 -0.30884735602E+02  0.11040436818E+03  0.81331520601E+02 0.  0.
         11    1    4    4    0    0  0.12934177122E+02  0.33484488887E+02 -0.16794200996E+02  0.39630154188E+02  0.00000000000E+00 0. -1.
        -12    1    4    4    0    0  0.54359650618E+02 -0.43075220087E+02 -0.14090534605E+02  0.70774213993E+02  0.00000000000E+00 0.  1.
        -11    1    3    3    0    0 -0.20800188160E+02  0.29649060151E+02  0.17966682484E+02  0.40429151300E+02  0.00000000000E+00 0. -1.
         11    1    3    3    0    0 -0.49911750034E+02 -0.40289283715E+02  0.15054743979E+03  0.16364272303E+03  0.00000000000E+00 0.  1.
         21    1    1    2  502  501  0.34181104547E+01  0.20230954764E+02  0.22765524221E+02  0.30647089630E+02  0.00000000000E+00 0. -1.
<scales pt_clust_5="13000.00000" pt_clust_6="13000.00000" pt_clust_7="13000.00000" pt_clust_8="13000.00000" pt_clust_9="20.51768"></scales>
<clustering>
<clus scale="   20.518">  1  9  2 -1</clus>
<clus scale="   81.332">  5  6 -1 -1</clus>
<clus scale="   90.194">  7  8 -1 -1</clus>
<clus scale="  106.118">  2  5  1 -1</clus>
<clus scale="  106.118">  2  5  1 -1</clus>
</clustering>
</event>
<event>
 9    1  0.2333971E-005  0.2603112E+03  0.7546771E-02  0.1131924E+00
         -2   -1    0    0    0  501 -0.00000000000E+00  0.00000000000E+00  0.16204669866E+03  0.16204669866E+03  0.00000000000E+00 0.  1.
          1   -1    0    0  502    0  0.00000000000E+00 -0.00000000000E+00 -0.11225786323E+04  0.11225786323E+04  0.00000000000E+00 0. -1.
         23    2    1    2    0    0  0.42039539776E+02 -0.94362722200E+02  0.33465070704E+02  0.14327941981E+03  0.93474247466E+02 0.  0.
        -24    2    1    2    0    0 -0.95169500868E+02  0.26822061635E+03 -0.87868415160E+03  0.92606373785E+03  0.67146670467E+02 0.  0.
         11    1    4    4    0    0 -0.63552191288E+02  0.14120793899E+03 -0.57258697950E+03  0.59315631341E+03  0.00000000000E+00 0. -1.
        -12    1    4    4    0    0 -0.31617309580E+02  0.12701267736E+03 -0.30609717210E+03  0.33290742443E+03  0.00000000000E+00 0.  1.
        -13    1    3    3    0    0  0.26061052749E+02 -0.22175713455E+02 -0.30254552442E+02  0.45675799732E+02  0.00000000000E+00 0. -1.
         13    1    3    3    0    0  0.15978487027E+02 -0.72187008745E+02  0.63719623146E+02  0.97603620082E+02  0.00000000000E+00 0.  1.
         21    1    1    2  502  501  0.53129961092E+02 -0.17385789415E+03 -0.11531285269E+03  0.21528217325E+03  0.00000000000E+00 0. -1.
<scales pt_clust_5="13000.00000" pt_clust_6="13000.00000" pt_clust_7="13000.00000" pt_clust_8="13000.00000" pt_clust_9="251.50196"></scales>
<clustering>
<clus scale="   67.147">  5  6 -1 -1</clus>
<clus scale="   93.474">  7  8 -1 -1</clus>
<clus scale="  139.316">  1  7  2 -1</clus>
<clus scale="  251.502">  1  9  2 -1</clus>
<clus scale="  260.311">  2  5  1 -1</clus>
</clustering>
</event>
<event>
 9    1  0.2333971E-005  0.9399363E+02  0.7546771E-02  0.1298555E+00
         -2   -1    0    0    0  501 -0.00000000000E+00  0.00000000000E+00  0.85653418355E+02  0.85653418355E+02  0.00000000000E+00 0.  1.
          1   -1    0    0  502    0  0.00000000000E+00 -0.00000000000E+00 -0.52120719327E+03  0.52120719327E+03  0.00000000000E+00 0. -1.
        -24    2    1    2    0    0 -0.51818327188E+02 -0.41297651878E+01  0.25657932419E+02  0.10036271942E+03  0.81927724002E+02 0.  0.
         23    2    1    2    0    0  0.20775299402E+02  0.90402639078E+01 -0.46547736716E+03  0.47478072926E+03  0.90742614578E+02 0.  0.
         13    1    3    3    0    0 -0.48746763493E+02 -0.36159661177E+02  0.25492390295E+01  0.60747565112E+02  0.00000000000E+00 0. -1.
        -14    1    3    3    0    0 -0.30715636947E+01  0.32029895989E+02  0.23108693389E+02  0.39615154307E+02  0.00000000000E+00 0.  1.
        -13    1    4    4    0    0  0.10640302107E+02 -0.41003778361E+02 -0.22239754392E+03  0.22639609849E+03  0.00000000000E+00 0.  1.
         13    1    4    4    0    0  0.10134997295E+02  0.50044042269E+02 -0.24307982324E+03  0.24838463077E+03  0.00000000000E+00 0. -1.
         21    1    1    2  502  501  0.31043027786E+02 -0.49104987199E+01  0.42656598242E+01  0.31717162949E+02  0.00000000000E+00 0. -1.
<scales pt_clust_5="13000.00000" pt_clust_6="13000.00000" pt_clust_7="13000.00000" pt_clust_8="13000.00000" pt_clust_9="31.42901"></scales>
<clustering>
<clus scale="   31.429">  1  9  2 -1</clus>
<clus scale="   81.928">  5  6 -1 -1</clus>
<clus scale="   85.515">  1  5  2 -1</clus>
<clus scale="   90.743">  7  8 -1 -1</clus>
<clus scale="   93.994">  2  5  1 -1</clus>
</clustering>
</event>
<event>
 9    1  0.2333971E-005  0.1555132E+03  0.7546771E-02  0.1195725E+00
          1   -1    0    0  502    0  0.00000000000E+00  0.00000000000E+00  0.27916531806E+03  0.27916531806E+03  0.00000000000E+00 0. -1.
         -2   -1    0    0    0  501 -0.00000000000E+00 -0.00000000000E+00 -0.17541272766E+03  0.17541272766E+03  0.00000000000E+00 0.  1.
         23    2    1    2    0    0 -0.11091685497E+03 -0.45774259778E+01  0.44576646456E+02  0.15017061821E+03  0.90777946763E+02 0.  0.
        -24    2    1    2    0    0  0.13619059197E+03  0.46126382756E+01  0.14537616424E+03  0.21457847337E+03  0.79627497344E+02 0.  0.
         13    1    4    4    0    0  0.67610414624E+02  0.32905006470E+02  0.10775802613E+03  0.13139900994E+03  0.00000000000E+00 0. -1.
        -14    1    4    4    0    0  0.68580177346E+02 -0.28292368195E+02  0.37618138105E+02  0.83179463436E+02  0.00000000000E+00 0.  1.
        -11    1    3    3    0    0 -0.75529425923E+02 -0.93822154992E+01 -0.17919148858E+02  0.78190894890E+02  0.00000000000E+00 0.  1.
         11    1    3    3    0    0 -0.35387429049E+02  0.48047895214E+01  0.62495795314E+02  0.71979723318E+02  0.00000000000E+00 0. -1.
         21    1    1    2  502  501 -0.25273736999E+02 -0.35212297779E-01 -0.86200220298E+02  0.89828954136E+02  0.00000000000E+00 0.  1.
<scales pt_clust_5="13000.00000" pt_clust_6="13000.00000" pt_clust_7="13000.00000" pt_clust_8="13000.00000" pt_clust_9="25.27376"></scales>
<clustering>
<clus scale="   25.274">  2  9  1 -1</clus>
<clus scale="   79.627">  5  6 -1 -1</clus>
<clus scale="   90.778">  7  8 -1 -1</clus>
<clus scale="  149.279">  1  5  2 -1</clus>
<clus scale="  149.279">  1  5  2 -1</clus>
</clustering>
</event>
<event>
 9    1  0.2333971E-005  0.9225433E+02  0.7546771E-02  0.1298454E+00
         -2   -1    0    0    0  501 -0.00000000000E+00  0.00000000000E+00  0.43069404522E+02  0.43069404522E+02  0.00000000000E+00 0.  1.
          1   -1    0    0  502    0  0.00000000000E+00 -0.00000000000E+00 -0.62526701716E+03  0.62526701716E+03  0.00000000000E+00 0. -1.
         23    2    1    2    0    0  0.26457464060E+02 -0.14419584376E+02 -0.95426440704E+02  0.13595305754E+03  0.92027748270E+02 0.  0.
        -24    2    1    2    0    0  0.13472284532E+02 -0.34988842962E+01 -0.47934768742E+03  0.48799232377E+03  0.90380075181E+02 0.  0.
         13    1    4    4    0    0 -0.24329319504E+02  0.63656963368E+01 -0.42366469476E+02  0.49268200832E+02  0.00000000000E+00 0. -1.
        -14    1    4    4    0    0  0.37801604036E+02 -0.98645806330E+01 -0.43698121794E+03  0.43872412294E+03  0.00000000000E+00 0.  1.
        -13    1    3    3    0    0 -0.21684676316E+02  0.67832110855E+01 -0.76892489384E+02  0.80179124859E+02  0.00000000000E+00 0. -1.
         13    1    3    3    0    0  0.48142140376E+02 -0.21202795462E+02 -0.18533951320E+02  0.55773932683E+02  0.00000000000E+00 0.  1.
         21    1    1    2  502  501 -0.39929748592E+02  0.17918468673E+02 -0.74234845152E+01  0.44391040363E+02  0.00000000000E+00 0.  1.
<scales pt_clust_5="13000.00000" pt_clust_6="13000.00000" pt_clust_7="13000.00000" pt_clust_8="13000.00000" pt_clust_9="43.76593"></scales>
<clustering>
<clus scale="   43.766">  1  9  2 -1</clus>
<clus scale="   90.380">  5  6 -1 -1</clus>
<clus scale="   90.611">  2  5  1 -1</clus>
<clus scale="   92.028">  7  8 -1 -1</clus>
<clus scale="   90.611">  2  5  1 -1</clus>
</clustering>
</event>
<event>
 9    1  0.2333971E-005  0.1171068E+03  0.7546771E-02  0.1251889E+00
          1   -1    0    0  502    0  0.00000000000E+00  0.00000000000E+00  0.19193797314E+03  0.19193797314E+03  0.00000000000E+00 0. -1.
         -2   -1    0    0    0  501 -0.00000000000E+00 -0.00000000000E+00 -0.11232261539E+03  0.11232261539E+03  0.00000000000E+00 0.  1.
        -24    2    1    2    0    0  0.59721000880E+02 -0.96066206562E+01 -0.21382230107E+02  0.10362621694E+03  0.81377564271E+02 0.  0.
         23    2    1    2    0    0 -0.75696793904E+02 -0.12826119153E+02  0.11769680883E+03  0.16842695383E+03  0.92847111028E+02 0.  0.
         13    1    3    3    0    0  0.67967905706E+02 -0.30049255614E+01 -0.42356425236E+02  0.80141952450E+02  0.00000000000E+00 0. -1.
        -14    1    3    3    0    0 -0.82469048261E+01 -0.66016950948E+01  0.20974195130E+02  0.23484264491E+02  0.00000000000E+00 0.  1.
        -13    1    4    4    0    0 -0.51834837294E+01 -0.42345607484E+02  0.54709281459E+02  0.69376685237E+02  0.00000000000E+00 0. -1.
         13    1    4    4    0    0 -0.70513310174E+02  0.29519488331E+02  0.62987527374E+02  0.99050268590E+02  0.00000000000E+00 0.  1.
         21    1    1    2  502  501  0.15975793023E+02  0.22432739809E+02 -0.16699220969E+02  0.32207417764E+02  0.00000000000E+00 0.  1.
<scales pt_clust_5="13000.00000" pt_clust_6="13000.00000" pt_clust_7="13000.00000" pt_clust_8="13000.00000" pt_clust_9="27.54004"></scales>
<clustering>
<clus scale="   27.540">  2  9  1 -1</clus>
<clus scale="   81.378">  5  6 -1 -1</clus>
<clus scale="   92.847">  7  8 -1 -1</clus>
<clus scale="  108.239">  2  5  1 -1</clus>
<clus scale="  117.107">  1  5  2 -1</clus>
</clustering>
</event>
<event>
 9    1  0.2333971E-005  0.9323057E+02  0.7546771E-02  0.1300253E+00
         -2   -1    0    0    0  501 -0.00000000000E+00  0.00000000000E+00  0.33087313459E+03  0.33087313459E+03  0.00000000000E+00 0.  1.
          1   -1    0    0  502    0  0.00000000000E+00 -0.00000000000E+00 -0.64221914641E+02  0.64221914641E+02  0.00000000000E+00 0. -1.
        -24    2    1    2    0    0 -0.48443227881E+01  0.53142145680E+02  0.17280211894E+03  0.19916114186E+03  0.83408830504E+02 0.  0.
         23    2    1    2    0    0 -0.69080883365E+01 -0.57007930102E+01  0.24851542247E+01  0.92318407168E+02  0.91849287342E+02 0.  0.
         11    1    3    3    0    0 -0.13215532832E+02 -0.15511429708E+02  0.84905079877E+02  0.87316249052E+02  0.00000000000E+00 0. -1.
        -12    1    3    3    0    0  0.83712100442E+01  0.68653575388E+02  0.87897039060E+02  0.11184489281E+03  0.00000000000E+00 0.  1.
        -13    1    4    4    0    0  0.12001583938E+02  0.25785913362E+02  0.33713546320E+02  0.44108440807E+02  0.00000000000E+00 0.  1.
         13    1    4    4    0    0 -0.18909672275E+02 -0.31486706372E+02 -0.31228392095E+02  0.48209966361E+02  0.00000000000E+00 0. -1.
         21    1    1    2  502  501  0.11752411125E+02 -0.47441352670E+02  0.91363946786E+02  0.10361550021E+03  0.00000000000E+00 0.  1.
<scales pt_clust_5="13000.00000" pt_clust_6="13000.00000" pt_clust_7="13000.00000" pt_clust_8="13000.00000" pt_clust_9="48.87536"></scales>
<clustering>
<clus scale="   48.875">  1  9  2 -1</clus>
<clus scale="   83.409">  5  6 -1 -1</clus>
<clus scale="   84.928">  1  5  2 -1</clus>
<clus scale="   91.849">  7  8 -1 -1</clus>
<clus scale="   93.231">  2  5  1 -1</clus>
</clustering>
</event>
<event>
 9    1  0.2333971E-005  0.2861044E+03  0.7546771E-02  0.1092791E+00
         -2   -1    0    0    0  501 -0.00000000000E+00  0.00000000000E+00  0.70834358420E+03  0.70834358420E+03  0.00000000000E+00 0.  1.
          1   -1    0    0  502    0  0.00000000000E+00 -0.00000000000E+00 -0.10855712019E+04  0.10855712019E+04  0.00000000000E+00 0. -1.
        -24    2    1    2    0    0 -0.17720464598E+03 -0.94289447114E+02  0.46829104762E+03  0.51603402608E+03  0.81869557164E+02 0.  0.
         23    2    1    2    0    0  0.23296424786E+03  0.14410015364E+03 -0.10348120867E+04  0.10743562184E+04  0.91476959684E+02 0.  0.
         11    1    3    3    0    0 -0.11749455363E+03 -0.38521917518E+02  0.19594430180E+03  0.23169608903E+03  0.00000000000E+00 0. -1.
        -12    1    3    3    0    0 -0.59710092351E+02 -0.55767529596E+02  0.27234674582E+03  0.28433793705E+03  0.00000000000E+00 0.  1.
        -11    1    4    4    0    0  0.21556772241E+03  0.95879413891E+02 -0.80288085496E+03  0.83682732521E+03  0.00000000000E+00 0. -1.
         11    1    4    4    0    0  0.17396525450E+02  0.48220739752E+02 -0.23193123177E+03  0.23752889321E+03  0.00000000000E+00 0.  1.
         21    1    1    2  502  501 -0.55759601878E+02 -0.49810706529E+02  0.18929342135E+03  0.20352454165E+03  0.00000000000E+00 0.  1.
<scales pt_clust_5="13000.00000" pt_clust_6="13000.00000" pt_clust_7="13000.00000" pt_clust_8="13000.00000" pt_clust_9="74.76791"></scales>
<clustering>
<clus scale="   74.768">  1  9  2 -1</clus>
<clus scale="   81.870">  5  6 -1 -1</clus>
<clus scale="   91.477">  7  8 -1 -1</clus>
<clus scale="  283.179">  1  5  2 -1</clus>
<clus scale="  286.104">  2  5  1 -1</clus>
</clustering>
</event>
<event>
 9    1  0.2333971E-005  0.1582984E+03  0.7546771E-02  0.1192469E+00
          1   -1    0    0  502    0  0.00000000000E+00  0.00000000000E+00  0.78344610153E+03  0.78344610153E+03  0.00000000000E+00 0. -1.
         -2   -1    0    0    0  501 -0.00000000000E+00 -0.00000000000E+00 -0.10954217099E+03  0.10954217099E+03  0.00000000000E+00 0.  1.
         23    2    1    2    0    0  0.94482835702E+02 -0.11301507768E+03  0.44629257273E+03  0.47951657781E+03  0.95182319232E+02 0.  0.
        -24    2    1    2    0    0 -0.40620793875E+02  0.10241667419E+03  0.29533136237E+03  0.32629690063E+03  0.84319806163E+02 0.  0.
         13    1    4    4    0    0 -0.33185396995E+02  0.48899409139E+01  0.12945985616E+03  0.13373494851E+03  0.00000000000E+00 0. -1.
        -14    1    4    4    0    0 -0.74353968800E+01  0.97526733278E+02  0.16587150621E+03  0.19256195212E+03  0.00000000000E+00 0.  1.
        -11    1    3    3    0    0  0.42623886255E+02  0.33471877739E+01  0.67757784357E+02  0.80119390202E+02  0.00000000000E+00 0.  1.
         11    1    3    3    0    0  0.51858949447E+02 -0.11636226545E+03  0.37853478837E+03  0.39939718761E+03  0.00000000000E+00 0. -1.
         21    1    1    2  502  501 -0.53862041827E+02  0.10598403485E+02 -0.67720004555E+02  0.87174794081E+02  0.00000000000E+00 0.  1.
<scales pt_clust_5="13000.00000" pt_clust_6="13000.00000" pt_clust_7="13000.00000" pt_clust_8="13000.00000" pt_clust_9="54.89486"></scales>
<clustering>
<clus scale="   54.895">  2  9  1 -1</clus>
<clus scale="   84.320">  5  6 -1 -1</clus>
<clus scale="   95.182">  7  8 -1 -1</clus>
<clus scale="  152.015">  1  5  2 -1</clus>
<clus scale="  152.015">  1  5  2 -1</clus>
</clustering>
</event>
<event>
 9    1  0.2333971E-005  0.2047479E+03  0.7546771E-02  0.1146652E+00
          1   -1    0    0  502    0  0.00000000000E+00  0.00000000000E+00  0.50976489228E+03  0.50976489228E+03  0.00000000000E+00 0. -1.
         -2   -1    0    0    0  501 -0.00000000000E+00 -0.00000000000E+00 -0.20049703229E+03  0.20049703229E+03  0.00000000000E+00 0.  1.
        -24    2    1    2    0    0  0.90961559628E+02  0.17459222916E+03 -0.14677365789E+02  0.21315261433E+03  0.80387561934E+02 0.  0.
         23    2    1    2    0    0 -0.69466451885E+02 -0.16718457859E+03  0.38337976642E+03  0.43347459043E+03  0.90243581430E+02 0.  0.
         11    1    3    3    0    0 -0.50627253488E+01  0.28019411859E+02  0.19650219607E+02  0.34595516465E+02  0.00000000000E+00 0. -1.
        -12    1    3    3    0    0  0.96024284977E+02  0.14657281731E+03 -0.34327585396E+02  0.17855709786E+03  0.00000000000E+00 0.  1.
        -11    1    4    4    0    0 -0.51317812605E+02 -0.43466153023E+02  0.20410726187E+03  0.21490136970E+03  0.00000000000E+00 0. -1.
         11    1    4    4    0    0 -0.18148639280E+02 -0.12371842557E+03  0.17927250455E+03  0.21857322073E+03  0.00000000000E+00 0.  1.
         21    1    1    2  502  501 -0.21495107743E+02 -0.74076505723E+01 -0.59434540643E+02  0.63634719811E+02  0.00000000000E+00 0.  1.
<scales pt_clust_5="13000.00000" pt_clust_6="13000.00000" pt_clust_7="13000.00000" pt_clust_8="13000.00000" pt_clust_9="22.73572"></scales>
<clustering>
<clus scale="   22.736">  2  9  1 -1</clus>
<clus scale="   80.388">  5  6 -1 -1</clus>
<clus scale="   90.244">  7  8 -1 -1</clus>
<clus scale="  200.599">  2  5  1 -1</clus>
<clus scale="  204.748">  1  5  2 -1</clus>
</clustering>
</event>
<event>
 9    1  0.2333971E-005  0.9691451E+02  0.7546771E-02  0.1289536E+00
         -2   -1    0    0    0  501 -0.00000000000E+00  0.00000000000E+00  0.13619256550E+03  0.13619256550E+03  0.00000000000E+00 0.  1.
          1   -1    0    0  502    0  0.00000000000E+00 -0.00000000000E+00 -0.16324465716E+03  0.16324465716E+03  0.00000000000E+00 0. -1.
         23    2    1    2    0    0  0.13603848205E+02 -0.30729024182E+02  0.39574029042E+02  0.10064555428E+03  0.86221147109E+02 0.  0.
        -24    2    1    2    0    0 -0.38289818678E+02  0.28529388150E+02 -0.11253076503E+03  0.14662393978E+03  0.80965242160E+02 0.  0.
         11    1    4    4    0    0 -0.18441738112E+02  0.54047408416E+02 -0.92140644204E+02  0.10840257550E+03  0.00000000000E+00 0. -1.
        -12    1    4    4    0    0 -0.19848080567E+02 -0.25518020267E+02 -0.20390120822E+02  0.38221364283E+02  0.00000000000E+00 0.  1.
        -13    1    3    3    0    0  0.46638166821E+02 -0.30833548358E+02  0.37947614766E+02  0.67571057230E+02  0.00000000000E+00 0.  1.
         13    1    3    3    0    0 -0.33034318616E+02  0.10452417617E+00  0.16264142761E+01  0.33074497051E+02  0.00000000000E+00 0. -1.
         21    1    1    2  502  501  0.24685970473E+02  0.21996360323E+01  0.45904644317E+02  0.52167728595E+02  0.00000000000E+00 0. -1.
<scales pt_clust_5="13000.00000" pt_clust_6="13000.00000" pt_clust_7="13000.00000" pt_clust_8="13000.00000" pt_clust_9="24.78378"></scales>
<clustering>
<clus scale="   24.784">  1  9  2 -1</clus>
<clus scale="   80.965">  5  6 -1 -1</clus>
<clus scale="   86.221">  7  8 -1 -1</clus>
<clus scale="   92.270">  2  5  1 -1</clus>
<clus scale="   92.270">  2  5  1 -1</clus>
</clustering>
</event>
<event>
 9    1  0.2333971E-005  0.9789389E+02  0.7546771E-02  0.1290754E+00
          3   -1    0    0  502    0  0.00000000000E+00  0.00000000000E+00  0.13375282441E+03  0.13375282441E+03  0.00000000000E+00 0. -1.
         -4   -1    0    0    0  501 -0.00000000000E+00 -0.00000000000E+00 -0.29003588945E+03  0.29003588945E+03  0.00000000000E+00 0.  1.
        -24    2    1    2    0    0  0.57612935025E+02  0.20681817090E+02 -0.19278999567E+03  0.21733100376E+03  0.79484557777E+02 0.  0.
         23    2    1    2    0    0 -0.33196385239E+02 -0.84290173926E+01  0.98772105219E+02  0.13846321789E+03  0.90791440195E+02 0.  0.
         13    1    3    3    0    0  0.18656623911E+02 -0.85608367469E+01 -0.22345625488E+01  0.20648264124E+02  0.00000000000E+00 0. -1.
        -14    1    3    3    0    0  0.38956311114E+02  0.29242653837E+02 -0.19055543312E+03  0.19668273963E+03  0.00000000000E+00 0.  1.
        -13    1    4    4    0    0  0.27684290568E+02 -0.16313997542E+02  0.17432608850E+02  0.36557657357E+02  0.00000000000E+00 0.  1.
         13    1    4    4    0    0 -0.60880675808E+02  0.78849801493E+01  0.81339496369E+02  0.10190556054E+03  0.00000000000E+00 0. -1.
         21    1    1    2  502  501 -0.24416549786E+02 -0.12252799698E+02 -0.62265174597E+02  0.67994492214E+02  0.00000000000E+00 0.  1.
<scales pt_clust_5="13000.00000" pt_clust_6="13000.00000" pt_clust_7="13000.00000" pt_clust_8="13000.00000" pt_clust_9="27.31847"></scales>
<clustering>
<clus scale="   27.318">  2  9  1 -1</clus>
<clus scale="   79.485">  5  6 -1 -1</clus>
<clus scale="   87.510">  2  5  1 -1</clus>
<clus scale="   90.791">  7  8 -1 -1</clus>
<clus scale="   97.894">  1  5  2 -1</clus>
</clustering>
</event>
<event>
 9    1  0.2333971E-005  0.1045250E+03  0.7546771E-02  0.1274533E+00
          1   -1    0    0  502    0  0.00000000000E+00  0.00000000000E+00  0.40599232268E+03  0.40599232268E+03  0.00000000000E+00 0. -1.
         -2   -1    0    0    0  501 -0.00000000000E+00 -0.00000000000E+00 -0.19383347064E+03  0.19383347064E+03  0.00000000000E+00 0.  1.
        -24    2    1    2    0    0 -0.55835561159E+02  0.24418173148E+02  0.79295272503E+00  0.10186013757E+03  0.81614960527E+02 0.  0.
         23    2    1    2    0    0  0.53399879166E+02  0.74309615630E+01  0.34503437509E+03  0.36053363130E+03  0.89604760025E+02 0.  0.
         13    1    3    3    0    0 -0.13772602456E+02 -0.28151220904E+02 -0.11571787779E+02  0.33407814792E+02  0.00000000000E+00 0. -1.
        -14    1    3    3    0    0 -0.42062958703E+02  0.52569394052E+02  0.12364740504E+02  0.68452322777E+02  0.00000000000E+00 0.  1.
        -11    1    4    4    0    0  0.72232640595E+02  0.24196839360E+02  0.29256964026E+03  0.30232438837E+03  0.00000000000E+00 0. -1.
         11    1    4    4    0    0 -0.18832761429E+02 -0.16765877797E+02  0.52464734828E+02  0.58209242925E+02  0.00000000000E+00 0.  1.
         21    1    1    2  502  501  0.24356819925E+01 -0.31849134711E+02 -0.13366847578E+03  0.13743202446E+03  0.00000000000E+00 0.  1.
<scales pt_clust_5="13000.00000" pt_clust_6="13000.00000" pt_clust_7="13000.00000" pt_clust_8="13000.00000" pt_clust_9="31.94213"></scales>
<clustering>
<clus scale="   31.942">  2  9  1 -1</clus>
<clus scale="   81.615">  5  6 -1 -1</clus>
<clus scale="   89.605">  7  8 -1 -1</clus>
<clus scale="   97.762">  2  5  1 -1</clus>
<clus scale="  104.525">  1  5  2 -1</clus>
</clustering>
</event>
<event>
 9    1  0.2333971E-005  0.2966685E+03  0.7546771E-02  0.1087176E+00
          1   -1    0    0  502    0  0.00000000000E+00  0.00000000000E+00  0.13133645601E+04  0.13133645601E+04  0.00000000000E+00 0. -1.
         -2   -1    0    0    0  501 -0.00000000000E+00 -0.00000000000E+00 -0.13836336464E+03  0.13836336464E+03  0.00000000000E+00 0.  1.
        -24    2    1    2    0    0 -0.29160309344E+03  0.29616232813E+02  0.13874015758E+03  0.33451310976E+03  0.82101790020E+02 0.  0.
         23    2    1    2    0    0  0.28072722121E+03 -0.11450698123E+02  0.10509136750E+04  0.10914665914E+04  0.89111596517E+02 0.  0.
         13    1    3    3    0    0 -0.26027033212E+03  0.46366761209E+02  0.10188620464E+03  0.28332193883E+03  0.00000000000E+00 0. -1.
        -14    1    3    3    0    0 -0.31332761321E+02 -0.16750528396E+02  0.36853952943E+02  0.51191170929E+02  0.00000000000E+00 0.  1.
        -11    1    4    4    0    0  0.21509334483E+03  0.24047089384E+02  0.69950881511E+03  0.73222673531E+03  0.00000000000E+00 0.  1.
         11    1    4    4    0    0  0.65633876376E+02 -0.35497787507E+02  0.35140485986E+03  0.35923985606E+03  0.00000000000E+00 0. -1.
         21    1    1    2  502  501  0.10875872231E+02 -0.18165534690E+02 -0.14652637067E+02  0.25748223636E+02  0.00000000000E+00 0.  1.
<scales pt_clust_5="13000.00000" pt_clust_6="13000.00000" pt_clust_7="13000.00000" pt_clust_8="13000.00000" pt_clust_9="21.17242"></scales>
<clustering>
<clus scale="   21.172">  2  9  1 -1</clus>
<clus scale="   82.102">  5  6 -1 -1</clus>
<clus scale="   89.112">  7  8 -1 -1</clus>
<clus scale="  294.639">  2  5  1 -1</clus>
<clus scale="  296.668">  1  5  2 -1</clus>
</clustering>
</event>
<event>
 9    1  0.2333971E-005  0.9833205E+02  0.7546771E-02  0.1291854E+00
          1   -1    0    0  502    0  0.00000000000E+00  0.00000000000E+00  0.34574274623E+03  0.34574274623E+03  0.00000000000E+00 0. -1.
         -2   -1    0    0    0  501 -0.00000000000E+00 -0.00000000000E+00 -0.48985416593E+02  0.48985416593E+02  0.00000000000E+00 0.  1.
        -24    2    1    2    0    0 -0.75366825051E+01 -0.34163673631E+02  0.11403525724E+03  0.14331710518E+03  0.79446803357E+02 0.  0.
         23    2    1    2    0    0  0.23741455221E+02  0.15703813757E+02  0.19903371725E+03  0.22192494494E+03  0.93946762170E+02 0.  0.
         13    1    3    3    0    0  0.16228911053E+02 -0.30053833173E+02  0.11419983277E+03  0.11919820572E+03  0.00000000000E+00 0. -1.
        -14    1    3    3    0    0 -0.23765593558E+02 -0.41098404578E+01 -0.16457553305E+00  0.24118899454E+02  0.00000000000E+00 0.  1.
        -11    1    4    4    0    0 -0.20908512999E+02  0.38054209702E+02  0.12748236921E+03  0.13467384027E+03  0.00000000000E+00 0.  1.
         11    1    4    4    0    0  0.44649968220E+02 -0.22350395946E+02  0.71551348033E+02  0.87251104671E+02  0.00000000000E+00 0. -1.
         21    1    1    2  502  501 -0.16204772716E+02  0.18459859874E+02 -0.16311644844E+02  0.29486112712E+02  0.00000000000E+00 0.  1.
<scales pt_clust_5="13000.00000" pt_clust_6="13000.00000" pt_clust_7="13000.00000" pt_clust_8="13000.00000" pt_clust_9="24.56341"></scales>
<clustering>
<clus scale="   24.563">  2  9  1 -1</clus>
<clus scale="   79.447">  5  6 -1 -1</clus>
<clus scale="   84.587">  2  5  1 -1</clus>
<clus scale="   93.947">  7  8 -1 -1</clus>
<clus scale="   98.332">  1  5  2 -1</clus>
</clustering>
</event>
<event>
 9    1  0.2333971E-005  0.1335897E+03  0.7546771E-02  0.1245668E+00
          3   -1    0    0  502    0  0.00000000000E+00  0.00000000000E+00  0.94822527186E+03  0.94822527186E+03  0.00000000000E+00 0. -1.
         -4   -1    0    0    0  501 -0.00000000000E+00 -0.00000000000E+00 -0.55527196967E+02  0.55527196967E+02  0.00000000000E+00 0.  1.
         23    2    1    2    0    0 -0.88619069161E+02  0.39674828280E+02  0.55730495758E+02  0.14472856835E+03  0.91722619467E+02 0.  0.
        -24    2    1    2    0    0 -0.37929021172E+01 -0.84538803971E+01  0.54429630321E+03  0.55052560912E+03  0.82061723102E+02 0.  0.
         13    1    4    4    0    0  0.15653688289E+02 -0.35714095223E+02  0.15644308316E+03  0.16122956560E+03  0.00000000000E+00 0. -1.
        -14    1    4    4    0    0 -0.19446590406E+02  0.27260214826E+02  0.38785322006E+03  0.38929604352E+03  0.00000000000E+00 0.  1.
        -13    1    3    3    0    0 -0.18247125451E+02 -0.23478884058E+02  0.38451555168E+02  0.48608000151E+02  0.00000000000E+00 0. -1.
         13    1    3    3    0    0 -0.70371943710E+02  0.63153712337E+02  0.17278940590E+02  0.96120568201E+02  0.00000000000E+00 0.  1.
         21    1    1    2  502  501  0.92411971278E+02 -0.31220947883E+02  0.29267127592E+03  0.30849829136E+03  0.00000000000E+00 0. -1.
<scales pt_clust_5="13000.00000" pt_clust_6="13000.00000" pt_clust_7="13000.00000" pt_clust_8="13000.00000" pt_clust_9="97.12445"></scales>
<clustering>
<clus scale="   82.062">  5  6 -1 -1</clus>
<clus scale="   82.583">  1  5  2 -1</clus>
<clus scale="   91.723">  7  8 -1 -1</clus>
<clus scale="   97.124">  1  9  2 -1</clus>
<clus scale="   82.583">  1  5  2 -1</clus>
</clustering>
</event>
<event>
 9    1  0.2333971E-005  0.1742424E+03  0.7546771E-02  0.1204650E+00
          1   -1    0    0  502    0  0.00000000000E+00  0.00000000000E+00  0.17097749981E+03  0.17097749981E+03  0.00000000000E+00 0. -1.
         -2   -1    0    0    0  501 -0.00000000000E+00 -0.00000000000E+00 -0.35715782000E+03  0.35715782000E+03  0.00000000000E+00 0.  1.
         23    2    1    2    0    0 -0.15287339326E+03 -0.47140156066E+02 -0.22871858299E+03  0.29442188825E+03  0.93699463150E+02 0.  0.
        -24    2    1    2    0    0  0.34989200111E+02  0.40662717730E+01  0.61342570721E+02  0.10680541567E+03  0.80023166288E+02 0.  0.
         13    1    4    4    0    0  0.26921375073E+02  0.29111085280E+02  0.68842688756E+02  0.79445147851E+02  0.00000000000E+00 0. -1.
        -14    1    4    4    0    0  0.80678250381E+01 -0.25044813507E+02 -0.75001180345E+01  0.27360267816E+02  0.00000000000E+00 0.  1.
        -11    1    3    3    0    0 -0.17100351031E+02 -0.46252179970E+02 -0.53599627517E+02  0.72832727721E+02  0.00000000000E+00 0. -1.
         11    1    3    3    0    0 -0.13577304223E+03 -0.88797609605E+00 -0.17511895547E+03  0.22158916053E+03  0.00000000000E+00 0.  1.
         21    1    1    2  502  501  0.11788419315E+03  0.43073884293E+02 -0.18804307921E+02  0.12690801590E+03  0.00000000000E+00 0. -1.
<scales pt_clust_5="13000.00000" pt_clust_6="13000.00000" pt_clust_7="13000.00000" pt_clust_8="13000.00000" pt_clust_9="146.90409"></scales>
<clustering>
<clus scale="   80.023">  5  6 -1 -1</clus>
<clus scale="   87.433">  1  5  2 -1</clus>
<clus scale="   93.699">  7  8 -1 -1</clus>
<clus scale="  146.904">  1  9  2 -1</clus>
<clus scale="   87.433">  1  5  2 -1</clus>
</clustering>
</event>
<event>
 9    1  0.2333971E-005  0.1233067E+03  0.7546771E-02  0.1242141E+00
          1   -1    0    0  502    0  0.00000000000E+00  0.00000000000E+00  0.21207550883E+03  0.21207550883E+03  0.00000000000E+00 0. -1.
         -2   -1    0    0    0  501 -0.00000000000E+00 -0.00000000000E+00 -0.58301024268E+03  0.58301024268E+03  0.00000000000E+00 0.  1.
        -24    2    1    2    0    0  0.54627213546E+02  0.27929948487E+02 -0.45615678662E+03  0.46687501055E+03  0.78288230383E+02 0.  0.
         23    2    1    2    0    0 -0.70788181463E+02 -0.41309669532E+02  0.18700321024E+03  0.22428962743E+03  0.92834158066E+02 0.  0.
         11    1    3    3    0    0  0.55695971831E+02 -0.25296021030E+01 -0.16580198029E+03  0.17492494629E+03  0.00000000000E+00 0. -1.
        -12    1    3    3    0    0 -0.10687582853E+01  0.30459550590E+02 -0.29035480632E+03  0.29195006426E+03  0.00000000000E+00 0.  1.
        -11    1    4    4    0    0  0.19831382779E+02 -0.19379772678E+02  0.24806364019E+02  0.37205040355E+02  0.00000000000E+00 0.  1.
         11    1    4    4    0    0 -0.90619564242E+02 -0.21929896855E+02  0.16219684622E+03  0.18708458708E+03  0.00000000000E+00 0. -1.
         21    1    1    2  502  501  0.16160967917E+02  0.13379721045E+02 -0.10178115747E+03  0.10392111352E+03  0.00000000000E+00 0. -1.
<scales pt_clust_5="13000.00000" pt_clust_6="13000.00000" pt_clust_7="13000.00000" pt_clust_8="13000.00000" pt_clust_9="20.98080"></scales>
<clustering>
<clus scale="   20.981">  2  9  1 -1</clus>
<clus scale="   78.288">  5  6 -1 -1</clus>
<clus scale="   92.834">  7  8 -1 -1</clus>
<clus scale="  112.763">  2  5  1 -1</clus>
<clus scale="  123.307">  1  5  2 -1</clus>
</clustering>
</event>
<event>
 9    1  0.2333971E-005  0.2111077E+03  0.7546771E-02  0.1141784E+00
          1   -1    0    0  502    0  0.00000000000E+00  0.00000000000E+00  0.89436016115E+03  0.89436016115E+03  0.00000000000E+00 0. -1.
         -2   -1    0    0    0  501 -0.00000000000E+00 -0.00000000000E+00 -0.66535425522E+02  0.66535425522E+02  0.00000000000E+00 0.  1.
         23    2    1    2    0    0  0.18324531984E+03 -0.11875575393E+03  0.31514410451E+03  0.39444117961E+03  0.92662080845E+02 0.  0.
        -24    2    1    2    0    0 -0.14284774734E+03  0.10212047173E+03  0.45474057207E+03  0.49388894063E+03  0.79392871945E+02 0.  0.
         11    1    4    4    0    0 -0.13514656542E+03  0.79396822114E+02  0.43638023708E+03  0.46367678486E+03  0.00000000000E+00 0. -1.
        -12    1    4    4    0    0 -0.77011819217E+01  0.22723649613E+02  0.18360334993E+02  0.30212155762E+02  0.00000000000E+00 0.  1.
        -11    1    3    3    0    0  0.80634288087E+02 -0.15790275431E+02  0.63558571804E+02  0.10387932067E+03  0.00000000000E+00 0.  1.
         11    1    3    3    0    0  0.10261103175E+03 -0.10296547850E+03  0.25158553271E+03  0.29056185893E+03  0.00000000000E+00 0. -1.
         21    1    1    2  502  501 -0.40397572498E+02  0.16635282205E+02  0.57940059044E+02  0.72565466441E+02  0.00000000000E+00 0.  1.
<scales pt_clust_5="13000.00000" pt_clust_6="13000.00000" pt_clust_7="13000.00000" pt_clust_8="13000.00000" pt_clust_9="43.68863"></scales>
<clustering>
<clus scale="   43.689">  2  9  1 -1</clus>
<clus scale="   79.393">  5  6 -1 -1</clus>
<clus scale="   92.662">  7  8 -1 -1</clus>
<clus scale="  205.629">  1  5  2 -1</clus>
<clus scale="  205.629">  1  5  2 -1</clus>
</clustering>
</event>
<event>
 9    1  0.2333971E-005  0.1211759E+03  0.7546771E-02  0.1242833E+00
         -4   -1    0    0    0  501 -0.00000000000E+00  0.00000000000E+00  0.11896526042E+03  0.11896526042E+03  0.00000000000E+00 0.  1.
          3   -1    0    0  502    0  0.00000000000E+00 -0.00000000000E+00 -0.37294736753E+03  0.37294736753E+03  0.00000000000E+00 0. -1.
        -24    2    1    2    0    0 -0.92346318885E+02  0.16508102738E+02 -0.82669858339E+02  0.14909866102E+03  0.81214193170E+02 0.  0.
         23    2    1    2    0    0  0.66304997540E+02 -0.50676028225E+02 -0.23610674869E+03  0.26507128387E+03  0.86902107108E+02 0.  0.
         11    1    3    3    0    0 -0.36364954889E+02  0.18567288774E+02 -0.83636565070E+02  0.93071097411E+02  0.00000000000E+00 0. -1.
        -12    1    3    3    0    0 -0.55981363996E+02 -0.20591860366E+01  0.96670673102E+00  0.56027563608E+02  0.00000000000E+00 0.  1.
        -11    1    4    4    0    0 -0.68433074006E+01 -0.45234464765E+02 -0.11082046087E+03  0.11989229419E+03  0.00000000000E+00 0.  1.
         11    1    4    4    0    0  0.73148304940E+02 -0.54415634608E+01 -0.12528628781E+03  0.14517898967E+03  0.00000000000E+00 0. -1.
         21    1    1    2  502  501  0.26041321345E+02  0.34167925488E+02  0.64794499917E+02  0.77742683058E+02  0.00000000000E+00 0. -1.
<scales pt_clust_5="13000.00000" pt_clust_6="13000.00000" pt_clust_7="13000.00000" pt_clust_8="13000.00000" pt_clust_9="42.96042"></scales>
<clustering>
<clus scale="   42.960">  1  9  2 -1</clus>
<clus scale="   81.214">  5  6 -1 -1</clus>
<clus scale="   86.902">  7  8 -1 -1</clus>
<clus scale="  117.164">  1  5  2 -1</clus>
<clus scale="  121.176">  2  5  1 -1</clus>
</clustering>
</event>
<event>
 9    1  0.2333971E-005  0.1207297E+03  0.7546771E-02  0.1244909E+00
          1   -1    0    0  502    0  0.00000000000E+00  0.00000000000E+00  0.38414436683E+03  0.38414436683E+03  0.00000000000E+00 0. -1.
         -2   -1    0    0    0  501 -0.00000000000E+00 -0.00000000000E+00 -0.54379847622E+02  0.54379847622E+02  0.00000000000E+00 0.  1.
        -24    2    1    2    0    0  0.76233440864E+02  0.33446196376E+02  0.10114722256E+03  0.15386921680E+03  0.80714247127E+02 0.  0.
         23    2    1    2    0    0 -0.81794529329E+02  0.92938703388E+01  0.19415841948E+03  0.22947299675E+03  0.90463491693E+02 0.  0.
         11    1    3    3    0    0  0.30932856596E+02 -0.18007092162E+02  0.69898389949E+02  0.78529497023E+02  0.00000000000E+00 0. -1.
        -12    1    3    3    0    0  0.45300584269E+02  0.51453288538E+02  0.31248832607E+02  0.75339719775E+02  0.00000000000E+00 0.  1.
        -11    1    4    4    0    0 -0.41194947237E+02  0.13973696008E+02  0.18157228479E+03  0.18671042409E+03  0.00000000000E+00 0. -1.
         11    1    4    4    0    0 -0.40599582092E+02 -0.46798256695E+01  0.12586134683E+02  0.42762572661E+02  0.00000000000E+00 0.  1.
         21    1    1    2  502  501  0.55610884641E+01 -0.42740066715E+02  0.34458877172E+02  0.55182000903E+02  0.00000000000E+00 0.  1.
<scales pt_clust_5="13000.00000" pt_clust_6="13000.00000" pt_clust_7="13000.00000" pt_clust_8="13000.00000" pt_clust_9="43.10034"></scales>
<clustering>
<clus scale="   43.100">  2  9  1 -1</clus>
<clus scale="   80.714">  5  6 -1 -1</clus>
<clus scale="   90.463">  7  8 -1 -1</clus>
<clus scale="  113.608">  2  5  1 -1</clus>
<clus scale="  120.730">  1  5  2 -1</clus>
</clustering>
</event>
<event>
 9    1  0.2333971E-005  0.1218060E+03  0.7546771E-02  0.1243761E+00
         -4   -1    0    0    0  501 -0.00000000000E+00  0.00000000000E+00  0.18743304625E+03  0.18743304625E+03  0.00000000000E+00 0.  1.
          3   -1    0    0  502    0  0.00000000000E+00 -0.00000000000E+00 -0.14646747441E+03  0.14646747441E+03  0.00000000000E+00 0. -1.
        -24    2    1    2    0    0 -0.57880732112E+02  0.43626802721E+01  0.96420879626E+02  0.13817869965E+03  0.80169538363E+02 0.  0.
         23    2    1    2    0    0  0.79932124032E+02 -0.34921563212E+02 -0.80824589281E+02  0.15029374978E+03  0.91907219309E+02 0.  0.
         13    1    3    3    0    0 -0.31581256744E+02  0.20709135955E+02  0.91331597088E+00  0.37776689050E+02  0.00000000000E+00 0. -1.
        -14    1    3    3    0    0 -0.26299475368E+02 -0.16346455683E+02  0.95507563655E+02  0.10040201060E+03  0.00000000000E+00 0.  1.
        -13    1    4    4    0    0  0.24746537667E+02 -0.29433719062E+02  0.13599425353E+02  0.40788225192E+02  0.00000000000E+00 0.  1.
         13    1    4    4    0    0  0.55185586365E+02 -0.54878441494E+01 -0.94424014634E+02  0.10950552459E+03  0.00000000000E+00 0. -1.
         21    1    1    2  502  501 -0.22051391921E+02  0.30558882940E+02  0.25369281493E+02  0.45428071229E+02  0.00000000000E+00 0. -1.
<scales pt_clust_5="13000.00000" pt_clust_6="13000.00000" pt_clust_7="13000.00000" pt_clust_8="13000.00000" pt_clust_9="37.68434"></scales>
<clustering>
<clus scale="   37.684">  1  9  2 -1</clus>
<clus scale="   80.170">  5  6 -1 -1</clus>
<clus scale="   91.907">  7  8 -1 -1</clus>
<clus scale="  113.212">  1  5  2 -1</clus>
<clus scale="  121.806">  2  5  1 -1</clus>
</clustering>
</event>
<event>
 9    1  0.2333971E-005  0.1131493E+03  0.7546771E-02  0.1258536E+00
          1   -1    0    0  502    0  0.00000000000E+00  0.00000000000E+00  0.44852863170E+03  0.44852863170E+03  0.00000000000E+00 0. -1.
         -2   -1    0    0    0  501 -0.00000000000E+00 -0.00000000000E+00 -0.36020906169E+02  0.36020906169E+02  0.00000000000E+00 0.  1.
         23    2    1    2    0    0  0.50363122435E+02  0.14546795315E+02  0.12973395427E+03  0.16682675041E+03  0.90841688694E+02 0.  0.
        -24    2    1    2    0    0 -0.67871582535E+02 -0.38292890220E+02  0.24745772080E+03  0.27170489292E+03  0.80717582316E+02 0.  0.
         11    1    4    4    0    0 -0.52001322849E+02  0.13542969977E+02  0.16026326046E+03  0.16903213383E+03  0.00000000000E+00 0. -1.
        -12    1    4    4    0    0 -0.15870259685E+02 -0.51835860196E+02  0.87194460343E+02  0.10267275909E+03  0.00000000000E+00 0.  1.
        -11    1    3    3    0    0  0.45416265257E+02 -0.33378661105E+02  0.76594162056E+02  0.95096991688E+02  0.00000000000E+00 0. -1.
         11    1    3    3    0    0  0.49468571783E+01  0.47925456420E+02  0.53139792218E+02  0.71729758720E+02  0.00000000000E+00 0.  1.
         21    1    1    2  502  501  0.17508460099E+02  0.23746094904E+02  0.35316050457E+02  0.46017894543E+02  0.00000000000E+00 0. -1.
<scales pt_clust_5="13000.00000" pt_clust_6="13000.00000" pt_clust_7="13000.00000" pt_clust_8="13000.00000" pt_clust_9="29.50294"></scales>
<clustering>
<clus scale="   29.503">  2  9  1 -1</clus>
<clus scale="   80.718">  5  6 -1 -1</clus>
<clus scale="   90.842">  7  8 -1 -1</clus>
<clus scale="  105.194">  1  5  2 -1</clus>
<clus scale="  105.194">  1  5  2 -1</clus>
</clustering>
</event>
<event>
 9    1  0.2333971E-005  0.8966037E+02  0.7546771E-02  0.1303889E+00
         -4   -1    0    0    0  501 -0.00000000000E+00  0.00000000000E+00  0.14135751976E+03  0.14135751976E+03  0.00000000000E+00 0.  1.
          3   -1    0    0  502    0  0.00000000000E+00 -0.00000000000E+00 -0.10442869287E+03  0.10442869287E+03  0.00000000000E+00 0. -1.
        -24    2    1    2    0    0  0.12679908679E+02 -0.21825514709E+02  0.51453072156E+02  0.98138777005E+02  0.79665976059E+02 0.  0.
         23    2    1    2    0    0 -0.40666161764E+02  0.23880011204E+02 -0.47496444710E+02  0.10435058524E+03  0.80057109188E+02 0.  0.
         13    1    3    3    0    0 -0.15251790816E+02  0.24526482925E+02  0.12557233851E+02  0.31493643958E+02  0.00000000000E+00 0. -1.
        -14    1    3    3    0    0  0.27931699495E+02 -0.46351997634E+02  0.38895838305E+02  0.66645133047E+02  0.00000000000E+00 0.  1.
        -11    1    4    4    0    0 -0.47403906416E+02 -0.15135037437E+02 -0.12028171564E+02  0.51194497877E+02  0.00000000000E+00 0.  1.
         11    1    4    4    0    0  0.67377446517E+01  0.39015048642E+02 -0.35468273146E+02  0.53156087361E+02  0.00000000000E+00 0. -1.
         21    1    1    2  502  501  0.27986253085E+02 -0.20544964956E+01  0.32972199447E+02  0.43296850393E+02  0.00000000000E+00 0. -1.
<scales pt_clust_5="13000.00000" pt_clust_6="13000.00000" pt_clust_7="13000.00000" pt_clust_8="13000.00000" pt_clust_9="28.06156"></scales>
<clustering>
<clus scale="   28.062">  1  9  2 -1</clus>
<clus scale="   79.666">  5  6 -1 -1</clus>
<clus scale="   80.057">  7  8 -1 -1</clus>
<clus scale="   89.311">  1  5  2 -1</clus>
<clus scale="   89.660">  2  5  1 -1</clus>
</clustering>
</event>
<event>
 9    1  0.2333971E-005  0.2974302E+03  0.7546771E-02  0.1086970E+00
         -2   -1    0    0    0  501 -0.00000000000E+00  0.00000000000E+00  0.25782091604E+03  0.25782091604E+03  0.00000000000E+00 0.  1.
          1   -1    0    0  502    0  0.00000000000E+00 -0.00000000000E+00 -0.49147119092E+03  0.49147119092E+03  0.00000000000E+00 0. -1.
        -24    2    1    2    0    0 -0.26909472912E+03  0.33211312838E+01  0.83231845575E+02  0.29287351659E+03  0.80152064545E+02 0.  0.
         23    2    1    2    0    0  0.28723781650E+03  0.84172843511E+01 -0.31246507480E+03  0.43436247300E+03  0.91977829269E+02 0.  0.
         11    1    3    3    0    0 -0.17333020709E+03  0.28852945992E+02  0.81630768502E+02  0.19375096270E+03  0.00000000000E+00 0. -1.
        -12    1    3    3    0    0 -0.95764522029E+02 -0.25531814708E+02  0.16010770732E+01  0.99122553890E+02  0.00000000000E+00 0.  1.
        -11    1    4    4    0    0  0.23717637069E+03  0.84837884702E+01 -0.30045418618E+03  0.38288029914E+03  0.00000000000E+00 0. -1.
         11    1    4    4    0    0  0.50061445807E+02 -0.66504119109E-01 -0.12010888619E+02  0.51482173852E+02  0.00000000000E+00 0.  1.
         21    1    1    2  502  501 -0.18143087380E+02 -0.11738415635E+02 -0.44170456480E+01  0.22056117373E+02  0.00000000000E+00 0.  1.
<scales pt_clust_5="13000.00000" pt_clust_6="13000.00000" pt_clust_7="13000.00000" pt_clust_8="13000.00000" pt_clust_9="21.60930"></scales>
<clustering>
<clus scale="   21.609">  1  9  2 -1</clus>
<clus scale="   80.152">  5  6 -1 -1</clus>
<clus scale="   91.978">  7  8 -1 -1</clus>
<clus scale="  293.988">  1  5  2 -1</clus>
<clus scale="  297.430">  2  5  1 -1</clus>
</clustering>
</event>
<event>
 9    1  0.2333971E-005  0.1315409E+03  0.7546771E-02  0.1226036E+00
         -2   -1    0    0    0  501 -0.00000000000E+00  0.00000000000E+00  0.85171691590E+02  0.85171691590E+02  0.00000000000E+00 0.  1.
          1   -1    0    0  502    0  0.00000000000E+00 -0.00000000000E+00 -0.56507685174E+03  0.56507685174E+03  0.00000000000E+00 0. -1.
        -24    2    1    2    0    0  0.10947958944E+03 -0.19313008531E+01 -0.15652185809E+03  0.20756857235E+03  0.81216437628E+02 0.  0.
         23    2    1    2    0    0 -0.94655782966E+02 -0.24698951594E+02 -0.36716833259E+03  0.38933163940E+03  0.84833870158E+02 0.  0.
         11    1    3    3    0    0  0.75194054542E+02 -0.23518092654E+02 -0.14569282641E+03  0.16563105441E+03  0.00000000000E+00 0. -1.
        -12    1    3    3    0    0  0.34285534895E+02  0.21586791801E+02 -0.10829031685E+02  0.41937517935E+02  0.00000000000E+00 0.  1.
        -13    1    4    4    0    0 -0.37921668607E+02 -0.15473650903E+02 -0.40340175357E+02  0.57487534040E+02  0.00000000000E+00 0.  1.
         13    1    4    4    0    0 -0.56734114360E+02 -0.92253006912E+01 -0.32682815723E+03  0.33184410536E+03  0.00000000000E+00 0. -1.
         21    1    1    2  502  501 -0.14823806471E+02  0.26630252447E+02  0.43785030529E+02  0.53348331578E+02  0.00000000000E+00 0.  1.
<scales pt_clust_5="13000.00000" pt_clust_6="13000.00000" pt_clust_7="13000.00000" pt_clust_8="13000.00000" pt_clust_9="30.47812"></scales>
<clustering>
<clus scale="   30.478">  1  9  2 -1</clus>
<clus scale="   81.216">  5  6 -1 -1</clus>
<clus scale="   84.834">  7  8 -1 -1</clus>
<clus scale="  129.237">  1  5  2 -1</clus>
<clus scale="  131.541">  2  5  1 -1</clus>
</clustering>
</event>
<event>
 9    1  0.2333971E-005  0.2655563E+03  0.7546771E-02  0.1103850E+00
         -2   -1    0    0    0  501 -0.00000000000E+00  0.00000000000E+00  0.16524979506E+03  0.16524979506E+03  0.00000000000E+00 0.  1.
          1   -1    0    0  502    0  0.00000000000E+00 -0.00000000000E+00 -0.30673960358E+03  0.30673960358E+03  0.00000000000E+00 0. -1.
        -24    2    1    2    0    0  0.11703626966E+03 -0.29243191093E+02 -0.73869547524E+02  0.16382767691E+03  0.82644691473E+02 0.  0.
         23    2    1    2    0    0  0.62109334884E+02  0.45893287152E+02 -0.43956735142E+02  0.12669454623E+03  0.90308084882E+02 0.  0.
         11    1    3    3    0    0  0.11947064049E+03 -0.31850082702E+02 -0.86373765178E+02  0.15082469632E+03  0.00000000000E+00 0. -1.
        -12    1    3    3    0    0 -0.24343708303E+01  0.26068916083E+01  0.12504217654E+02  0.13002980594E+02  0.00000000000E+00 0.  1.
        -11    1    4    4    0    0  0.70610683294E+01  0.52387925734E+02 -0.47614159481E+02  0.71143950071E+02  0.00000000000E+00 0.  1.
         11    1    4    4    0    0  0.55048266555E+02 -0.64946385818E+01  0.36574243389E+01  0.55550596160E+02  0.00000000000E+00 0. -1.
         21    1    1    2  502  501 -0.17914560455E+03 -0.16650096058E+02 -0.23663525860E+02  0.18146717550E+03  0.00000000000E+00 0.  1.
<scales pt_clust_5="13000.00000" pt_clust_6="13000.00000" pt_clust_7="13000.00000" pt_clust_8="13000.00000" pt_clust_9="179.91768"></scales>
<clustering>
<clus scale="   82.645">  5  6 -1 -1</clus>
<clus scale="   90.308">  7  8 -1 -1</clus>
<clus scale="  112.247">  5  7 -1 -1</clus>
<clus scale="  179.918">  1  9  2 -1</clus>
<clus scale="  265.556">  2  5  1 -1</clus>
</clustering>
</event>
<event>
 9    1  0.2333971E-005  0.9876429E+02  0.7546771E-02  0.1290327E+00
         -4   -1    0    0    0  501 -0.00000000000E+00  0.00000000000E+00  0.90358314362E+02  0.90358314362E+02  0.00000000000E+00 0.  1.
          3   -1    0    0  502    0  0.00000000000E+00 -0.00000000000E+00 -0.16105011030E+03  0.16105011030E+03  0.00000000000E+00 0. -1.
         23    2    1    2    0    0  0.90747839953E+01 -0.18564414771E+02  0.31053607968E+02  0.10031432000E+03  0.93121678623E+02 0.  0.
        -24    2    1    2    0    0 -0.29461290954E+02  0.21706200333E+02 -0.95719836623E+02  0.12960485285E+03  0.79347362655E+02 0.  0.
         13    1    4    4    0    0  0.12176716221E+02  0.23855352303E+02 -0.81123075644E+02  0.85430109758E+02  0.00000000000E+00 0. -1.
        -14    1    4    4    0    0 -0.41638007175E+02 -0.21491519704E+01 -0.14596760980E+02  0.44174743087E+02  0.00000000000E+00 0.  1.
        -11    1    3    3    0    0  0.43986004190E+01  0.37469206929E+02  0.21053910476E+02  0.43203660723E+02  0.00000000000E+00 0. -1.
         11    1    3    3    0    0  0.46761835763E+01 -0.56033621699E+02  0.99996974919E+01  0.57110659281E+02  0.00000000000E+00 0.  1.
         21    1    1    2  502  501  0.20386506959E+02 -0.31417855620E+01 -0.60255672859E+01  0.21489251816E+02  0.00000000000E+00 0. -1.
<scales pt_clust_5="13000.00000" pt_clust_6="13000.00000" pt_clust_7="13000.00000" pt_clust_8="13000.00000" pt_clust_9="20.62718"></scales>
<clustering>
<clus scale="   20.627">  1  9  2 -1</clus>
<clus scale="   79.347">  5  6 -1 -1</clus>
<clus scale="   85.900">  2  5  1 -1</clus>
<clus scale="   93.122">  7  8 -1 -1</clus>
<clus scale="   85.900">  2  5  1 -1</clus>
</clustering>
</event>
<event>
 9    1  0.2333971E-005  0.1141884E+03  0.7546771E-02  0.1256622E+00
         -2   -1    0    0    0  501 -0.00000000000E+00  0.00000000000E+00  0.12121174097E+03  0.12121174097E+03  0.00000000000E+00 0.  1.
          1   -1    0    0  502    0  0.00000000000E+00 -0.00000000000E+00 -0.24336905921E+03  0.24336905921E+03  0.00000000000E+00 0. -1.
        -24    2    1    2    0    0 -0.71444032771E+02  0.43207397124E+01 -0.11532209935E+02  0.10872661392E+03  0.81028180883E+02 0.  0.
         23    2    1    2    0    0  0.62466155874E+02 -0.29653900091E+02 -0.16173432364E+03  0.19810885589E+03  0.91146875532E+02 0.  0.
         13    1    3    3    0    0 -0.25509482980E+02  0.35485653543E+02  0.16283783134E+02  0.46638255997E+02  0.00000000000E+00 0. -1.
        -14    1    3    3    0    0 -0.45934549791E+02 -0.31164913831E+02 -0.27815993069E+02  0.62088357918E+02  0.00000000000E+00 0.  1.
        -13    1    4    4    0    0  0.31050885840E+02 -0.27151124137E+02 -0.16140527763E+03  0.16659233086E+03  0.00000000000E+00 0. -1.
         13    1    4    4    0    0  0.31415270035E+02 -0.25027759531E+01 -0.32904600620E+00  0.31516525032E+02  0.00000000000E+00 0.  1.
         21    1    1    2  502  501  0.89778768965E+01  0.25333160378E+02  0.51109215334E+02  0.57745330377E+02  0.00000000000E+00 0.  1.
<scales pt_clust_5="13000.00000" pt_clust_6="13000.00000" pt_clust_7="13000.00000" pt_clust_8="13000.00000" pt_clust_9="26.87697"></scales>
<clustering>
<clus scale="   26.877">  1  9  2 -1</clus>
<clus scale="   81.028">  5  6 -1 -1</clus>
<clus scale="   91.147">  7  8 -1 -1</clus>
<clus scale="  106.286">  1  5  2 -1</clus>
<clus scale="  114.188">  2  5  1 -1</clus>
</clustering>
</event>
<event>
 9    1  0.2333971E-005  0.9176341E+02  0.7546771E-02  0.1304869E+00
         -2   -1    0    0    0  501 -0.00000000000E+00  0.00000000000E+00  0.19961117781E+02  0.19961117781E+02  0.00000000000E+00 0.  1.
          1   -1    0    0  502    0  0.00000000000E+00 -0.00000000000E+00 -0.62078522777E+03  0.62078522777E+03  0.00000000000E+00 0. -1.
        -24    2    1    2    0    0 -0.99448884423E+01 -0.17591088068E+02 -0.19651128401E+03  0.21380842209E+03  0.81786364550E+02 0.  0.
         23    2    1    2    0    0 -0.11464267013E+02 -0.16815596426E+02 -0.31792255191E+03  0.33151543487E+03  0.91725355517E+02 0.  0.
         11    1    3    3    0    0 -0.41695516566E+01 -0.50575736033E+02 -0.11661397754E+03  0.12717747439E+03  0.00000000000E+00 0. -1.
        -12    1    3    3    0    0 -0.57753367858E+01  0.32984647965E+02 -0.79897306474E+02  0.86630947693E+02  0.00000000000E+00 0.  1.
        -11    1    4    4    0    0 -0.46392888884E+02 -0.16349794143E+02 -0.25353390929E+03  0.25826160975E+03  0.00000000000E+00 0. -1.
         11    1    4    4    0    0  0.34928621871E+02 -0.46580228289E+00 -0.64388642617E+02  0.73253825126E+02  0.00000000000E+00 0.  1.
         21    1    1    2  502  501  0.21409155456E+02  0.34406684494E+02 -0.86390274071E+02  0.95422488593E+02  0.00000000000E+00 0.  1.
<scales pt_clust_5="13000.00000" pt_clust_6="13000.00000" pt_clust_7="13000.00000" pt_clust_8="13000.00000" pt_clust_9="40.52372"></scales>
<clustering>
<clus scale="   40.524">  1  9  2 -1</clus>
<clus scale="   81.786">  5  6 -1 -1</clus>
<clus scale="   81.829">  1  5  2 -1</clus>
<clus scale="   91.725">  7  8 -1 -1</clus>
<clus scale="   91.763">  2  5  1 -1</clus>
</clustering>
</event>
<event>
 9    1  0.2333971E-005  0.1004627E+03  0.7546771E-02  0.1284280E+00
         -2   -1    0    0    0  501 -0.00000000000E+00  0.00000000000E+00  0.80855422934E+02  0.80855422934E+02  0.00000000000E+00 0.  1.
          1   -1    0    0  502    0  0.00000000000E+00 -0.00000000000E+00 -0.44914560923E+03  0.44914560923E+03  0.00000000000E+00 0. -1.
        -24    2    1    2    0    0 -0.80795632980E+02  0.89626269312E+01 -0.62045778757E+01  0.11583127577E+03  0.82280767308E+02 0.  0.
         23    2    1    2    0    0  0.30715341405E+02  0.19449643598E+02 -0.33716667375E+03  0.35143024711E+03  0.92196159673E+02 0.  0.
         11    1    3    3    0    0 -0.67650556656E+02 -0.31696212414E+01 -0.39234369173E+02  0.78268640203E+02  0.00000000000E+00 0. -1.
        -12    1    3    3    0    0 -0.13145076324E+02  0.12132248173E+02  0.33029791298E+02  0.37562635563E+02  0.00000000000E+00 0.  1.
        -13    1    4    4    0    0  0.91315123748E+01 -0.35508700895E+02 -0.17624670032E+03  0.18001986482E+03  0.00000000000E+00 0.  1.
         13    1    4    4    0    0  0.21583829030E+02  0.54958344493E+02 -0.16091997344E+03  0.17141038229E+03  0.00000000000E+00 0. -1.
         21    1    1    2  502  501  0.50080291576E+02 -0.28412270529E+02 -0.24918934665E+02  0.62739509289E+02  0.00000000000E+00 0.  1.
<scales pt_clust_5="13000.00000" pt_clust_6="13000.00000" pt_clust_7="13000.00000" pt_clust_8="13000.00000" pt_clust_9="57.57858"></scales>
<clustering>
<clus scale="   57.579">  1  9  2 -1</clus>
<clus scale="   82.281">  5  6 -1 -1</clus>
<clus scale="   91.448">  1  5  2 -1</clus>
<clus scale="   92.196">  7  8 -1 -1</clus>
<clus scale="  100.463">  2  5  1 -1</clus>
</clustering>
</event>
<event>
 9    1  0.2333971E-005  0.9592070E+02  0.7546771E-02  0.1297456E+00
         -2   -1    0    0    0  501 -0.00000000000E+00  0.00000000000E+00  0.36153187020E+02  0.36153187020E+02  0.00000000000E+00 0.  1.
          1   -1    0    0  502    0  0.00000000000E+00 -0.00000000000E+00 -0.38145265834E+03  0.38145265834E+03  0.00000000000E+00 0. -1.
        -24    2    1    2    0    0 -0.26624166939E+01 -0.90347362776E+01 -0.72132463163E+02  0.10849392198E+03  0.80493005543E+02 0.  0.
         23    2    1    2    0    0 -0.11590685320E+02 -0.28660807225E+02 -0.22697341893E+03  0.24780978148E+03  0.94535543776E+02 0.  0.
         11    1    3    3    0    0  0.22616030921E+02  0.28041769993E+02 -0.28933943301E+02  0.46206047158E+02  0.00000000000E+00 0. -1.
        -12    1    3    3    0    0 -0.25278447615E+02 -0.37076506271E+02 -0.43198519862E+02  0.62287874818E+02  0.00000000000E+00 0.  1.
        -11    1    4    4    0    0 -0.30235877673E+01 -0.58204046333E+02 -0.19465370244E+03  0.20319182308E+03  0.00000000000E+00 0.  1.
         11    1    4    4    0    0 -0.85670975528E+01  0.29543239108E+02 -0.32319716492E+02  0.44617958398E+02  0.00000000000E+00 0. -1.
         21    1    1    2  502  501  0.14253102014E+02  0.37695543502E+02 -0.46193589225E+02  0.61302141907E+02  0.00000000000E+00 0. -1.
<scales pt_clust_5="13000.00000" pt_clust_6="13000.00000" pt_clust_7="13000.00000" pt_clust_8="13000.00000" pt_clust_9="40.30019"></scales>
<clustering>
<clus scale="   40.300">  1  9  2 -1</clus>
<clus scale="   80.493">  5  6 -1 -1</clus>
<clus scale="   82.115">  1  5  2 -1</clus>
<clus scale="   94.536">  7  8 -1 -1</clus>
<clus scale="   95.921">  2  5  1 -1</clus>
</clustering>
</event>
<event>
 9    1  0.2333971E-005  0.9357681E+02  0.7546771E-02  0.1299791E+00
          3   -1    0    0  502    0  0.00000000000E+00  0.00000000000E+00  0.21712456237E+03  0.21712456237E+03  0.00000000000E+00 0. -1.
         -4   -1    0    0    0  501 -0.00000000000E+00 -0.00000000000E+00 -0.16389778589E+03  0.16389778589E+03  0.00000000000E+00 0.  1.
        -24    2    1    2    0    0  0.42160274523E+01  0.15396990386E+02 -0.86962557621E+02  0.12047903334E+03  0.81840508582E+02 0.  0.
         23    2    1    2    0    0 -0.48437072137E+00  0.26032934184E+02  0.17974649091E+03  0.20314006966E+03  0.90989772112E+02 0.  0.
         11    1    3    3    0    0  0.38857506165E+02  0.26223025935E+02 -0.53235997673E+02  0.70933943375E+02  0.00000000000E+00 0. -1.
        -12    1    3    3    0    0 -0.34641478713E+02 -0.10826035550E+02 -0.33726559949E+02  0.49545089960E+02  0.00000000000E+00 0.  1.
        -11    1    4    4    0    0 -0.52445131462E+00 -0.34108112885E+02  0.56416144474E+02  0.65927382559E+02  0.00000000000E+00 0.  1.
         11    1    4    4    0    0  0.40080593250E-01  0.60141047069E+02  0.12333034644E+03  0.13721268710E+03  0.00000000000E+00 0. -1.
         21    1    1    2  502  501 -0.37316567309E+01 -0.41429924570E+02 -0.39557156811E+02  0.57403245263E+02  0.00000000000E+00 0.  1.
<scales pt_clust_5="13000.00000" pt_clust_6="13000.00000" pt_clust_7="13000.00000" pt_clust_8="13000.00000" pt_clust_9="41.59764"></scales>
<clustering>
<clus scale="   41.598">  2  9  1 -1</clus>
<clus scale="   81.841">  5  6 -1 -1</clus>
<clus scale="   84.707">  2  5  1 -1</clus>
<clus scale="   90.990">  7  8 -1 -1</clus>
<clus scale="   93.577">  1  5  2 -1</clus>
</clustering>
</event>
<event>
 9    1  0.2333971E-005  0.1291252E+03  0.7546771E-02  0.1231572E+00
          1   -1    0    0  502    0  0.00000000000E+00  0.00000000000E+00  0.18972243820E+03  0.18972243820E+03  0.00000000000E+00 0. -1.
         -2   -1    0    0    0  501 -0.00000000000E+00 -0.00000000000E+00 -0.11304941525E+03  0.11304941525E+03  0.00000000000E+00 0.  1.
        -24    2    1    2    0    0  0.42391809443E+02 -0.80590658583E+02 -0.18780555158E+02  0.12306513109E+03  0.80625042502E+02 0.  0.
         23    2    1    2    0    0 -0.59697517455E+02  0.70261666965E+02  0.92526744720E+02  0.15934150811E+03  0.91257998468E+02 0.  0.
         11    1    3    3    0    0  0.36668658246E+02  0.39485578586E+01 -0.64326846886E+01  0.37437428318E+02  0.00000000000E+00 0. -1.
        -12    1    3    3    0    0  0.57231511964E+01 -0.84539216442E+02 -0.12347870469E+02  0.85627702768E+02  0.00000000000E+00 0.  1.
        -11    1    4    4    0    0 -0.79711782239E+02  0.36744277095E+02  0.47692931096E+02  0.99893572383E+02  0.00000000000E+00 0.  1.
         11    1    4    4    0    0  0.20014264784E+02  0.33517389870E+02  0.44833813625E+02  0.59447935731E+02  0.00000000000E+00 0. -1.
         21    1    1    2  502  501  0.17305708012E+02  0.10328991618E+02  0.29268333888E+01  0.20365214247E+02  0.00000000000E+00 0. -1.
<scales pt_clust_5="13000.00000" pt_clust_6="13000.00000" pt_clust_7="13000.00000" pt_clust_8="13000.00000" pt_clust_9="20.15380"></scales>
<clustering>
<clus scale="   20.154">  2  9  1 -1</clus>
<clus scale="   80.625">  5  6 -1 -1</clus>
<clus scale="   91.258">  7  8 -1 -1</clus>
<clus scale="  121.843">  2  5  1 -1</clus>
<clus scale="  129.125">  1  5  2 -1</clus>
</clustering>
</event>
<event>
 9    1  0.2333971E-005  0.1037019E+03  0.7546771E-02  0.1277765E+00
          1   -1    0    0  502    0  0.00000000000E+00  0.00000000000E+00  0.26202163481E+03  0.26202163481E+03  0.00000000000E+00 0. -1.
         -2   -1    0    0    0  501 -0.00000000000E+00 -0.00000000000E+00 -0.18045708930E+03  0.18045708930E+03  0.00000000000E+00 0.  1.
        -24    2    1    2    0    0  0.47519071795E+01  0.10275103770E+02 -0.13410439556E+03  0.15574162764E+03  0.78379252936E+02 0.  0.
         23    2    1    2    0    0 -0.56185787723E+02  0.30631584132E+01  0.20753944524E+03  0.23298356628E+03  0.89679959533E+02 0.  0.
         13    1    3    3    0    0  0.23955908564E+02  0.35860098022E+02 -0.51578397842E+02  0.67232159784E+02  0.00000000000E+00 0. -1.
        -14    1    3    3    0    0 -0.19204001385E+02 -0.25584994252E+02 -0.82525997719E+02  0.88509467853E+02  0.00000000000E+00 0.  1.
        -11    1    4    4    0    0  0.16359792423E+02 -0.23478107883E+02  0.57307439195E+02  0.64054718366E+02  0.00000000000E+00 0. -1.
         11    1    4    4    0    0 -0.72545580146E+02  0.26541266296E+02  0.15023200605E+03  0.16892884791E+03  0.00000000000E+00 0.  1.
         21    1    1    2  502  501  0.51433880543E+02 -0.13338262183E+02  0.81294958362E+01  0.53753530194E+02  0.00000000000E+00 0. -1.
<scales pt_clust_5="13000.00000" pt_clust_6="13000.00000" pt_clust_7="13000.00000" pt_clust_8="13000.00000" pt_clust_9="53.13524"></scales>
<clustering>
<clus scale="   53.135">  2  9  1 -1</clus>
<clus scale="   78.379">  5  6 -1 -1</clus>
<clus scale="   89.680">  7  8 -1 -1</clus>
<clus scale="   94.100">  2  5  1 -1</clus>
<clus scale="  103.702">  1  5  2 -1</clus>
</clustering>
</event>
<event>
 9    1  0.2333971E-005  0.1161644E+03  0.7546771E-02  0.1256666E+00
          1   -1    0    0  502    0  0.00000000000E+00  0.00000000000E+00  0.41033113355E+03  0.41033113355E+03  0.00000000000E+00 0. -1.
         -2   -1    0    0    0  501 -0.00000000000E+00 -0.00000000000E+00 -0.48970665641E+02  0.48970665641E+02  0.00000000000E+00 0.  1.
         23    2    1    2    0    0  0.28872391954E+02  0.49920944016E+02  0.77883147489E+02  0.13459741972E+03  0.93407521451E+02 0.  0.
        -24    2    1    2    0    0 -0.15959168244E+02 -0.71750925470E+02  0.28052562953E+03  0.29916985547E+03  0.73519271228E+02 0.  0.
         13    1    4    4    0    0 -0.36182312252E+02 -0.87764169532E+01  0.11673682064E+03  0.12253028404E+03  0.00000000000E+00 0. -1.
        -14    1    4    4    0    0  0.20223144007E+02 -0.62974508517E+02  0.16378880889E+03  0.17663957143E+03  0.00000000000E+00 0.  1.
        -11    1    3    3    0    0 -0.34218297609E+02  0.14017973204E+02  0.22431712584E+02  0.43250169866E+02  0.00000000000E+00 0. -1.
         11    1    3    3    0    0  0.63090689563E+02  0.35902970813E+02  0.55451434905E+02  0.91347249853E+02  0.00000000000E+00 0.  1.
         21    1    1    2  502  501 -0.12913223709E+02  0.21829981454E+02  0.29516908887E+01  0.25534524001E+02  0.00000000000E+00 0. -1.
<scales pt_clust_5="13000.00000" pt_clust_6="13000.00000" pt_clust_7="13000.00000" pt_clust_8="13000.00000" pt_clust_9="25.36335"></scales>
<clustering>
<clus scale="   25.363">  2  9  1 -1</clus>
<clus scale="   73.519">  5  6 -1 -1</clus>
<clus scale="   93.408">  7  8 -1 -1</clus>
<clus scale="  100.868">  1  5  2 -1</clus>
<clus scale="  100.868">  1  5  2 -1</clus>
</clustering>
</event>
<event>
 9    1  0.2333971E-005  0.1308701E+03  0.7546771E-02  0.1241525E+00
         -2   -1    0    0    0  501 -0.00000000000E+00  0.00000000000E+00  0.11892557490E+03  0.11892557490E+03  0.00000000000E+00 0.  1.
          1   -1    0    0  502    0  0.00000000000E+00 -0.00000000000E+00 -0.51754208323E+03  0.51754208323E+03  0.00000000000E+00 0. -1.
         23    2    1    2    0    0 -0.15881911064E+02  0.39458296039E+02 -0.68057505264E+02  0.11727220248E+03  0.85508790339E+02 0.  0.
        -24    2    1    2    0    0 -0.98479795270E+02 -0.77977885851E+01 -0.37165231279E+03  0.39361819772E+03  0.83968853698E+02 0.  0.
         11    1    4    4    0    0 -0.77966659599E+02  0.27919121020E+02 -0.29730955055E+03  0.30862800615E+03  0.00000000000E+00 0. -1.
        -12    1    4    4    0    0 -0.20513135671E+02 -0.35716909605E+02 -0.74342762231E+02  0.84990191569E+02  0.00000000000E+00 0.  1.
        -13    1    3    3    0    0 -0.44235775614E+02  0.32511337680E+02 -0.15322355793E+02  0.56996188547E+02  0.00000000000E+00 0. -1.
         13    1    3    3    0    0  0.28353864549E+02  0.69469583595E+01 -0.52735149471E+02  0.60276013928E+02  0.00000000000E+00 0.  1.
         21    1    1    2  502  501  0.11436170633E+03 -0.31660507454E+02  0.41093309712E+02  0.12557725794E+03  0.00000000000E+00 0.  1.
<scales pt_clust_5="13000.00000" pt_clust_6="13000.00000" pt_clust_7="13000.00000" pt_clust_8="13000.00000" pt_clust_9="100.38029"></scales>
<clustering>
<clus scale="   83.969">  5  6 -1 -1</clus>
<clus scale="   85.509">  7  8 -1 -1</clus>
<clus scale="   95.504">  1  7  2 -1</clus>
<clus scale="  100.380">  1  9  2 -1</clus>
<clus scale="  130.870">  2  5  1 -1</clus>
</clustering>
</event>
<event>
 9    1  0.2333971E-005  0.9957466E+02  0.7546771E-02  0.1285012E+00
          1   -1    0    0  502    0  0.00000000000E+00  0.00000000000E+00  0.48905327733E+03  0.48905327733E+03  0.00000000000E+00 0. -1.
         -2   -1    0    0    0  501 -0.00000000000E+00 -0.00000000000E+00 -0.37345524703E+02  0.37345524703E+02  0.00000000000E+00 0.  1.
         23    2    1    2    0    0  0.27990586915E+02 -0.26504393883E+02  0.85668470570E+02  0.13029377376E+03  0.90285241207E+02 0.  0.
        -24    2    1    2    0    0 -0.43797516252E+02  0.72600727067E+01  0.35779674530E+03  0.36987256128E+03  0.82560702225E+02 0.  0.
         11    1    4    4    0    0 -0.19530258047E+02  0.40394738328E+02  0.25934409406E+03  0.26319674198E+03  0.00000000000E+00 0. -1.
        -12    1    4    4    0    0 -0.24267258206E+02 -0.33134665621E+02  0.98452651237E+02  0.10667581930E+03  0.00000000000E+00 0.  1.
        -13    1    3    3    0    0  0.15734394702E+02  0.18021601361E+02 -0.85175543280E+01  0.25394842468E+02  0.00000000000E+00 0. -1.
         13    1    3    3    0    0  0.12256192213E+02 -0.44525995245E+02  0.94186024898E+02  0.10489893129E+03  0.00000000000E+00 0.  1.
         21    1    1    2  502  501  0.15806929337E+02  0.19244321177E+02  0.82425367574E+01  0.26232466998E+02  0.00000000000E+00 0.  1.
<scales pt_clust_5="13000.00000" pt_clust_6="13000.00000" pt_clust_7="13000.00000" pt_clust_8="13000.00000" pt_clust_9="24.90387"></scales>
<clustering>
<clus scale="   24.904">  2  9  1 -1</clus>
<clus scale="   82.561">  5  6 -1 -1</clus>
<clus scale="   90.285">  7  8 -1 -1</clus>
<clus scale="   92.628">  1  5  2 -1</clus>
<clus scale="   92.628">  1  5  2 -1</clus>
</clustering>
</event>
<event>
 9    1  0.2333971E-005  0.1119985E+03  0.7546771E-02  0.1260092E+00
          1   -1    0    0  502    0  0.00000000000E+00  0.00000000000E+00  0.73921992656E+03  0.73921992656E+03  0.00000000000E+00 0. -1.
         -2   -1    0    0    0  501 -0.00000000000E+00 -0.00000000000E+00 -0.14478236703E+03  0.14478236703E+03  0.00000000000E+00 0.  1.
         23    2    1    2    0    0 -0.69539535671E+01 -0.33498666739E+02 -0.10083093641E+03  0.13847412036E+03  0.88530707261E+02 0.  0.
        -24    2    1    2    0    0  0.67781984252E+02  0.19188707471E+02  0.66955105669E+03  0.67795442883E+03  0.79755790837E+02 0.  0.
         13    1    4    4    0    0  0.16042514663E+02  0.44663895891E+02  0.25078152089E+03  0.25523243738E+03  0.00000000000E+00 0. -1.
        -14    1    4    4    0    0  0.51739469589E+02 -0.25475188419E+02  0.41876953580E+03  0.42272199145E+03  0.00000000000E+00 0.  1.
        -13    1    3    3    0    0  0.11061563240E+02 -0.46689110642E+02 -0.15732162169E+02  0.50494872615E+02  0.00000000000E+00 0. -1.
         13    1    3    3    0    0 -0.18015516807E+02  0.13190443903E+02 -0.85098774239E+02  0.87979247741E+02  0.00000000000E+00 0.  1.
         21    1    1    2  502  501 -0.60828030685E+02  0.14309959268E+02  0.25717439240E+02  0.67573744400E+02  0.00000000000E+00 0.  1.
<scales pt_clust_5="13000.00000" pt_clust_6="13000.00000" pt_clust_7="13000.00000" pt_clust_8="13000.00000" pt_clust_9="62.48859"></scales>
<clustering>
<clus scale="   62.489">  2  9  1 -1</clus>
<clus scale="   79.756">  5  6 -1 -1</clus>
<clus scale="   88.531">  7  8 -1 -1</clus>
<clus scale="  105.200">  1  5  2 -1</clus>
<clus scale="  105.200">  1  5  2 -1</clus>
</clustering>
</event>
<event>
 9    1  0.2333971E-005  0.1769775E+03  0.7546771E-02  0.1171537E+00
          1   -1    0    0  502    0  0.00000000000E+00  0.00000000000E+00  0.36259584591E+03  0.36259584591E+03  0.00000000000E+00 0. -1.
         -2   -1    0    0    0  501 -0.00000000000E+00 -0.00000000000E+00 -0.34001553047E+03  0.34001553047E+03  0.00000000000E+00 0.  1.
         23    2    1    2    0    0 -0.14961786076E+03  0.35209671516E+02 -0.19518364528E+03  0.26452060533E+03  0.90825492195E+02 0.  0.
        -24    2    1    2    0    0  0.15201717259E+03 -0.24252630833E+01  0.30151729689E+03  0.34811746693E+03  0.84604892286E+02 0.  0.
         13    1    4    4    0    0  0.14803059254E+03 -0.16810429978E+02  0.29740503998E+03  0.33263404018E+03  0.00000000000E+00 0. -1.
        -14    1    4    4    0    0  0.39865800464E+01  0.14385166895E+02  0.41122569117E+01  0.15483426752E+02  0.00000000000E+00 0.  1.
        -11    1    3    3    0    0 -0.52965017260E+02  0.46008997284E+02 -0.38282908109E+02  0.79923100151E+02  0.00000000000E+00 0. -1.
         11    1    3    3    0    0 -0.96652843497E+02 -0.10799325768E+02 -0.15690073717E+03  0.18459750518E+03  0.00000000000E+00 0.  1.
         21    1    1    2  502  501 -0.23993118311E+01 -0.32784408433E+02 -0.83753336172E+02  0.89973304116E+02  0.00000000000E+00 0. -1.
<scales pt_clust_5="13000.00000" pt_clust_6="13000.00000" pt_clust_7="13000.00000" pt_clust_8="13000.00000" pt_clust_9="32.87209"></scales>
<clustering>
<clus scale="   32.872">  2  9  1 -1</clus>
<clus scale="   84.605">  5  6 -1 -1</clus>
<clus scale="   90.825">  7  8 -1 -1</clus>
<clus scale="  173.867">  1  5  2 -1</clus>
<clus scale="  173.867">  1  5  2 -1</clus>
</clustering>
</event>
<event>
 9    1  0.2333971E-005  0.9044546E+02  0.7546771E-02  0.1303847E+00
         -2   -1    0    0    0  501 -0.00000000000E+00  0.00000000000E+00  0.23814201706E+03  0.23814201706E+03  0.00000000000E+00 0.  1.
          1   -1    0    0  502    0  0.00000000000E+00 -0.00000000000E+00 -0.28023607307E+03  0.28023607307E+03  0.00000000000E+00 0. -1.
        -24    2    1    2    0    0 -0.14156745848E+02  0.73459097660E+01  0.74182605401E+02  0.11159182076E+03  0.81824810864E+02 0.  0.
         23    2    1    2    0    0  0.11152752189E+02  0.30529236907E+02 -0.25083747234E+03  0.26696437355E+03  0.85405626435E+02 0.  0.
         11    1    3    3    0    0  0.24774971317E+02 -0.96649196269E+01  0.61892812643E+02  0.67364160590E+02  0.00000000000E+00 0. -1.
        -12    1    3    3    0    0 -0.38931717165E+02  0.17010829393E+02  0.12289792759E+02  0.44227660170E+02  0.00000000000E+00 0.  1.
        -13    1    4    4    0    0  0.43198217063E+02  0.39017238768E+02 -0.15708473487E+03  0.16752326646E+03  0.00000000000E+00 0. -1.
         13    1    4    4    0    0 -0.32045464874E+02 -0.84880018609E+01 -0.93752737473E+02  0.99441107085E+02  0.00000000000E+00 0.  1.
         21    1    1    2  502  501  0.30039936590E+01 -0.37875146673E+02  0.13456081093E+03  0.13982189583E+03  0.00000000000E+00 0.  1.
<scales pt_clust_5="13000.00000" pt_clust_6="13000.00000" pt_clust_7="13000.00000" pt_clust_8="13000.00000" pt_clust_9="37.99409"></scales>
<clustering>
<clus scale="   37.994">  1  9  2 -1</clus>
<clus scale="   81.825">  5  6 -1 -1</clus>
<clus scale="   85.406">  7  8 -1 -1</clus>
<clus scale="   87.072">  1  5  2 -1</clus>
<clus scale="   90.445">  2  5  1 -1</clus>
</clustering>
</event>
<event>
 9    1  0.4680785E-005  0.1020021E+03  0.7546771E-02  0.1281226E+00
         -2   -1    0    0    0  501 -0.00000000000E+00  0.00000000000E+00  0.23962994610E+03  0.23962994610E+03  0.00000000000E+00 0.  1.
          1   -1    0    0  502    0  0.00000000000E+00 -0.00000000000E+00 -0.56208183311E+03  0.56208183311E+03  0.00000000000E+00 0. -1.
        -24    2    1    2    0    0  0.67610940366E+02  0.16369034117E+02  0.20321130871E+03  0.22930632424E+03  0.80295515526E+02 0.  0.
         23    2    1    2    0    0 -0.43429282067E+02 -0.13767914569E+02 -0.53629228623E+03  0.54586311170E+03  0.91002540807E+02 0.  0.
         11    1    3    3    0    0  0.37248592430E+02  0.39729288922E+02  0.59868788021E+02  0.80932971126E+02  0.00000000000E+00 0. -1.
        -12    1    3    3    0    0  0.30362347937E+02 -0.23360254805E+02  0.14334252069E+03  0.14837335311E+03  0.00000000000E+00 0.  1.
        -13    1    4    4    0    0 -0.66904847771E+02  0.10322743046E+02 -0.33371429905E+03  0.34051145512E+03  0.00000000000E+00 0. -1.
         13    1    4    4    0    0  0.23475565704E+02 -0.24090657615E+02 -0.20257798718E+03  0.20535165658E+03  0.00000000000E+00 0.  1.
         21    1    1    2  502  501 -0.24181658300E+02 -0.26011195475E+01  0.10629090516E+02  0.26542343269E+02  0.00000000000E+00 0.  1.
<scales pt_clust_5="13000.00000" pt_clust_6="13000.00000" pt_clust_7="13000.00000" pt_clust_8="13000.00000" pt_clust_9="24.32115"></scales>
<clustering>
<clus scale="   24.321">  1  9  2 -1</clus>
<clus scale="   80.296">  5  6 -1 -1</clus>
<clus scale="   91.003">  7  8 -1 -1</clus>
<clus scale="   92.576">  1  5  2 -1</clus>
<clus scale="  102.002">  2  5  1 -1</clus>
</clustering>
</event>
<event>
 9    1  0.2333971E-005  0.9699819E+02  0.7546771E-02  0.1290819E+00
          1   -1    0    0  502    0  0.00000000000E+00  0.00000000000E+00  0.19721162736E+03  0.19721162736E+03  0.00000000000E+00 0. -1.
         -2   -1    0    0    0  501 -0.00000000000E+00 -0.00000000000E+00 -0.15202247047E+03  0.15202247047E+03  0.00000000000E+00 0.  1.
         23    2    1    2    0    0  0.26295701594E+01 -0.49276440896E+01 -0.82716498276E+02  0.12137837204E+03  0.88653786131E+02 0.  0.
        -24    2    1    2    0    0 -0.10098448253E+02  0.42334964121E+02  0.15565690044E+03  0.18068345273E+03  0.80766401372E+02 0.  0.
         13    1    4    4    0    0 -0.87237696196E+01  0.62331574294E+02  0.14480211400E+03  0.15788914316E+03  0.00000000000E+00 0. -1.
        -14    1    4    4    0    0 -0.13746786333E+01 -0.19996610173E+02  0.10854786437E+02  0.22794309560E+02  0.00000000000E+00 0.  1.
        -13    1    3    3    0    0 -0.87213089016E+01 -0.42967053206E+02 -0.22566697398E+02  0.49310087422E+02  0.00000000000E+00 0. -1.
         13    1    3    3    0    0  0.11350879061E+02  0.38039409116E+02 -0.60149800879E+02  0.72068284613E+02  0.00000000000E+00 0.  1.
         21    1    1    2  502  501  0.74688780935E+01 -0.37407320031E+02 -0.27751245278E+02  0.47172273068E+02  0.00000000000E+00 0. -1.
<scales pt_clust_5="13000.00000" pt_clust_6="13000.00000" pt_clust_7="13000.00000" pt_clust_8="13000.00000" pt_clust_9="38.14566"></scales>
<clustering>
<clus scale="   38.146">  2  9  1 -1</clus>
<clus scale="   80.766">  5  6 -1 -1</clus>
<clus scale="   88.654">  7  8 -1 -1</clus>
<clus scale="   89.846">  1  5  2 -1</clus>
<clus scale="   89.846">  1  5  2 -1</clus>
</clustering>
</event>
<event>
 9    1  0.2333971E-005  0.2601030E+03  0.7546771E-02  0.1133996E+00
         -2   -1    0    0    0  501 -0.00000000000E+00  0.00000000000E+00  0.13272584489E+03  0.13272584489E+03  0.00000000000E+00 0.  1.
          1   -1    0    0  502    0  0.00000000000E+00 -0.00000000000E+00 -0.10132438254E+04  0.10132438254E+04  0.00000000000E+00 0. -1.
         23    2    1    2    0    0 -0.32199448450E+02  0.90975890604E+02 -0.62198672654E+02  0.14660561804E+03  0.91165318014E+02 0.  0.
        -24    2    1    2    0    0 -0.47822971284E+02  0.21330301816E+03 -0.49852177227E+03  0.55074427365E+03  0.83726240758E+02 0.  0.
         11    1    4    4    0    0 -0.55638387528E+02  0.16756370363E+03 -0.45098438914E+03  0.48431409662E+03  0.00000000000E+00 0. -1.
        -12    1    4    4    0    0  0.78154162439E+01  0.45739314528E+02 -0.47537383126E+02  0.66430177021E+02  0.00000000000E+00 0.  1.
        -11    1    3    3    0    0  0.24941088351E+02  0.28381003416E+02 -0.47324181609E+02  0.60556728842E+02  0.00000000000E+00 0.  1.
         11    1    3    3    0    0 -0.57140536801E+02  0.62594887188E+02 -0.14874491045E+02  0.86048889196E+02  0.00000000000E+00 0. -1.
         21    1    1    2  502  501  0.80022419734E+02 -0.30427890876E+03 -0.31979753556E+03  0.44861977858E+03  0.00000000000E+00 0.  1.
<scales pt_clust_5="13000.00000" pt_clust_6="13000.00000" pt_clust_7="13000.00000" pt_clust_8="13000.00000" pt_clust_9="246.25902"></scales>
<clustering>
<clus scale="   83.726">  5  6 -1 -1</clus>
<clus scale="   91.165">  7  8 -1 -1</clus>
<clus scale="  132.757">  1  7  2 -1</clus>
<clus scale="  246.259">  1  9  2 -1</clus>
<clus scale="  260.103">  2  5  1 -1</clus>
</clustering>
</event>
<event>
 9    1  0.2333971E-005  0.2275157E+03  0.7546771E-02  0.1128894E+00
         -2   -1    0    0    0  501 -0.00000000000E+00  0.00000000000E+00  0.63452779654E+02  0.63452779654E+02  0.00000000000E+00 0.  1.
          1   -1    0    0  502    0  0.00000000000E+00 -0.00000000000E+00 -0.13542290753E+04  0.13542290753E+04  0.00000000000E+00 0. -1.
        -24    2    1    2    0    0 -0.69186451723E+02  0.19926402978E+03 -0.60341155795E+03  0.64420327000E+03  0.79996413361E+02 0.  0.
         23    2    1    2    0    0  0.33966005742E+02 -0.20797872751E+03 -0.69906767593E+03  0.73535530423E+03  0.87424065849E+02 0.  0.
         13    1    3    3    0    0 -0.69270863691E+02  0.16289783173E+03 -0.56136042268E+03  0.58860825707E+03  0.00000000000E+00 0. -1.
        -14    1    3    3    0    0  0.84411967936E-01  0.36366198044E+02 -0.42051135269E+02  0.55595012932E+02  0.00000000000E+00 0.  1.
        -13    1    4    4    0    0  0.23467374984E+02 -0.24759722214E+02 -0.47800819128E+02  0.58725461616E+02  0.00000000000E+00 0.  1.
         13    1    4    4    0    0  0.10498630758E+02 -0.18321900530E+03 -0.65126685680E+03  0.67662984262E+03  0.00000000000E+00 0. -1.
         21    1    1    2  502  501  0.35220445981E+02  0.87146977365E+01  0.11702938210E+02  0.38123280741E+02  0.00000000000E+00 0. -1.
<scales pt_clust_5="13000.00000" pt_clust_6="13000.00000" pt_clust_7="13000.00000" pt_clust_8="13000.00000" pt_clust_9="36.28258"></scales>
<clustering>
<clus scale="   36.283">  1  9  2 -1</clus>
<clus scale="   79.996">  5  6 -1 -1</clus>
<clus scale="   87.424">  7  8 -1 -1</clus>
<clus scale="  224.766">  1  5  2 -1</clus>
<clus scale="  227.516">  2  5  1 -1</clus>
</clustering>
</event>
<event>
 9    1  0.2333971E-005  0.1225661E+03  0.7546771E-02  0.1244415E+00
         -2   -1    0    0    0  501 -0.00000000000E+00  0.00000000000E+00  0.23788628032E+03  0.23788628032E+03  0.00000000000E+00 0.  1.
          1   -1    0    0  502    0  0.00000000000E+00 -0.00000000000E+00 -0.13576093306E+03  0.13576093306E+03  0.00000000000E+00 0. -1.
        -24    2    1    2    0    0  0.65340883711E+02 -0.27848792539E+02  0.55964660305E+02  0.11584374849E+03  0.72406798933E+02 0.  0.
         23    2    1    2    0    0 -0.11949977469E+03 -0.50545074567E+02  0.29698636268E+02  0.16110918903E+03  0.90769824726E+02 0.  0.
         11    1    3    3    0    0  0.21307855868E+02 -0.85312989692E+01 -0.16928408482E+02  0.28519796590E+02  0.00000000000E+00 0. -1.
        -12    1    3    3    0    0  0.44033027843E+02 -0.19317493570E+02  0.72893068786E+02  0.87323951903E+02  0.00000000000E+00 0.  1.
        -11    1    4    4    0    0 -0.10923223283E+03 -0.30618324072E+01  0.26386449019E+02  0.11241574711E+03  0.00000000000E+00 0. -1.
         11    1    4    4    0    0 -0.10267541859E+02 -0.47483242160E+02  0.33121872493E+01  0.48693441922E+02  0.00000000000E+00 0.  1.
         21    1    1    2  502  501  0.54158890975E+02  0.78393867106E+02  0.16462050688E+02  0.96694275861E+02  0.00000000000E+00 0. -1.
<scales pt_clust_5="13000.00000" pt_clust_6="13000.00000" pt_clust_7="13000.00000" pt_clust_8="13000.00000" pt_clust_9="95.28265"></scales>
<clustering>
<clus scale="   72.407">  5  6 -1 -1</clus>
<clus scale="   90.770">  7  8 -1 -1</clus>
<clus scale="   95.283">  2  9  1 -1</clus>
<clus scale="  109.663">  1  5  2 -1</clus>
<clus scale="   95.283">  2  5  1 -1</clus>
</clustering>
</event>
<event>
 9    1  0.2333971E-005  0.1469421E+03  0.7546771E-02  0.1224363E+00
         -2   -1    0    0    0  501 -0.00000000000E+00  0.00000000000E+00  0.25559582457E+03  0.25559582457E+03  0.00000000000E+00 0.  1.
          1   -1    0    0  502    0  0.00000000000E+00 -0.00000000000E+00 -0.24853464495E+03  0.24853464495E+03  0.00000000000E+00 0. -1.
         23    2    1    2    0    0  0.34686039984E+02  0.13804885817E+00  0.10582987544E+03  0.14288224294E+03  0.89511074093E+02 0.  0.
        -24    2    1    2    0    0 -0.11346391437E+03  0.63981752593E+02 -0.17660282544E+03  0.23328161310E+03  0.79145615977E+02 0.  0.
         13    1    4    4    0    0 -0.11570250708E+03  0.31643597189E+02 -0.13649002673E+03  0.18170832338E+03  0.00000000000E+00 0. -1.
        -14    1    4    4    0    0  0.22385927146E+01  0.32338155404E+02 -0.40112798713E+02  0.51573289723E+02  0.00000000000E+00 0.  1.
        -13    1    3    3    0    0  0.38079688591E+02 -0.40254037983E+02  0.63404484156E+02  0.84205575042E+02  0.00000000000E+00 0. -1.
         13    1    3    3    0    0 -0.33936486066E+01  0.40392086841E+02  0.42425391284E+02  0.58676667900E+02  0.00000000000E+00 0.  1.
         21    1    1    2  502  501  0.78777874386E+02 -0.64119801451E+02  0.77834129618E+02  0.12796661347E+03  0.00000000000E+00 0.  1.
<scales pt_clust_5="13000.00000" pt_clust_6="13000.00000" pt_clust_7="13000.00000" pt_clust_8="13000.00000" pt_clust_9="123.80613"></scales>
<clustering>
<clus scale="   79.146">  5  6 -1 -1</clus>
<clus scale="   89.511">  7  8 -1 -1</clus>
<clus scale="   95.997">  1  7  2 -1</clus>
<clus scale="  123.806">  1  9  2 -1</clus>
<clus scale="  146.942">  2  5  1 -1</clus>
</clustering>
</event>
<event>
 9    1  0.2333971E-005  0.1512415E+03  0.7546771E-02  0.1201083E+00
         -2   -1    0    0    0  501 -0.00000000000E+00  0.00000000000E+00  0.76939003580E+02  0.76939003580E+02  0.00000000000E+00 0.  1.
          1   -1    0    0  502    0  0.00000000000E+00 -0.00000000000E+00 -0.61698163261E+03  0.61698163261E+03  0.00000000000E+00 0. -1.
         23    2    1    2    0    0 -0.88040623461E+01 -0.13155850177E+03 -0.47222205411E+02  0.16705679635E+03  0.91065282198E+02 0.  0.
        -24    2    1    2    0    0 -0.95806434835E+01  0.11864527437E+03 -0.48033156118E+03  0.50115935510E+03  0.79207327209E+02 0.  0.
         13    1    4    4    0    0 -0.26252235263E+02  0.12287403900E+03 -0.41520856905E+03  0.43380337150E+03  0.00000000000E+00 0. -1.
        -14    1    4    4    0    0  0.16671591780E+02 -0.42287646286E+01 -0.65122992129E+02  0.67355983599E+02  0.00000000000E+00 0.  1.
        -13    1    3    3    0    0 -0.24522187412E+02 -0.79663772295E+01 -0.32674979772E+02  0.41622771949E+02  0.00000000000E+00 0. -1.
         13    1    3    3    0    0  0.15718125066E+02 -0.12359212454E+03 -0.14547225640E+02  0.12543402441E+03  0.00000000000E+00 0.  1.
         21    1    1    2  502  501  0.18384705830E+02  0.12913227399E+02 -0.12488862445E+02  0.25704484734E+02  0.00000000000E+00 0.  1.
<scales pt_clust_5="13000.00000" pt_clust_6="13000.00000" pt_clust_7="13000.00000" pt_clust_8="13000.00000" pt_clust_9="22.46662"></scales>
<clustering>
<clus scale="   22.467">  1  9  2 -1</clus>
<clus scale="   79.207">  5  6 -1 -1</clus>
<clus scale="   91.065">  7  8 -1 -1</clus>
<clus scale="  144.412">  2  5  1 -1</clus>
<clus scale="  144.412">  2  5  1 -1</clus>
</clustering>
</event>
<event>
 9    1  0.2333971E-005  0.1053442E+03  0.7546771E-02  0.1277728E+00
         -2   -1    0    0    0  501 -0.00000000000E+00  0.00000000000E+00  0.58040521314E+03  0.58040521314E+03  0.00000000000E+00 0.  1.
          1   -1    0    0  502    0  0.00000000000E+00 -0.00000000000E+00 -0.27677396944E+02  0.27677396944E+02  0.00000000000E+00 0. -1.
         23    2    1    2    0    0 -0.46473478365E+00  0.57749181962E+02  0.30085502184E+03  0.32006081256E+03  0.92682229000E+02 0.  0.
        -24    2    1    2    0    0  0.24004644044E+02 -0.42778535326E+02  0.10187059717E+03  0.13544753119E+03  0.74580085256E+02 0.  0.
         11    1    4    4    0    0  0.44613022343E+02 -0.15424542888E+02  0.85096245513E+02  0.97311917494E+02  0.00000000000E+00 0. -1.
        -12    1    4    4    0    0 -0.20608378299E+02 -0.27353992438E+02  0.16774351660E+02  0.38135613697E+02  0.00000000000E+00 0.  1.
        -11    1    3    3    0    0 -0.45799902029E+02  0.19281832601E+02  0.14196156122E+03  0.15040779554E+03  0.00000000000E+00 0.  1.
         11    1    3    3    0    0  0.45335167246E+02  0.38467349361E+02  0.15889346062E+03  0.16965301702E+03  0.00000000000E+00 0. -1.
         21    1    1    2  502  501 -0.23539909260E+02 -0.14970646636E+02  0.15000219718E+03  0.15257426633E+03  0.00000000000E+00 0.  1.
<scales pt_clust_5="13000.00000" pt_clust_6="13000.00000" pt_clust_7="13000.00000" pt_clust_8="13000.00000" pt_clust_9="27.89709"></scales>
<clustering>
<clus scale="   27.897">  1  9  2 -1</clus>
<clus scale="   74.580">  5  6 -1 -1</clus>
<clus scale="   89.831">  2  5  1 -1</clus>
<clus scale="   92.682">  7  8 -1 -1</clus>
<clus scale="   89.831">  2  5  1 -1</clus>
</clustering>
</event>
<event>
 9    1  0.2333971E-005  0.1764113E+03  0.7546771E-02  0.1172885E+00
         -4   -1    0    0    0  501 -0.00000000000E+00  0.00000000000E+00  0.26646961193E+03  0.26646961193E+03  0.00000000000E+00 0.  1.
          3   -1    0    0  502    0  0.00000000000E+00 -0.00000000000E+00 -0.26451262337E+03  0.26451262337E+03  0.00000000000E+00 0. -1.
         23    2    1    2    0    0  0.15468379396E+03  0.66116947555E+01  0.68818355563E+02  0.19225724611E+03  0.90863039792E+02 0.  0.
        -24    2    1    2    0    0 -0.14832250665E+03  0.29035149389E+02 -0.16321471535E+03  0.23579233541E+03  0.78207264686E+02 0.  0.
         13    1    4    4    0    0 -0.12690511892E+03  0.53334837757E+02 -0.12849957176E+03  0.18831264979E+03  0.00000000000E+00 0. -1.
        -14    1    4    4    0    0 -0.21417387727E+02 -0.24299688368E+02 -0.34715143595E+02  0.47479685621E+02  0.00000000000E+00 0.  1.
        -11    1    3    3    0    0  0.10205869240E+03 -0.84924190278E+01  0.87197799241E+02  0.13450484775E+03  0.00000000000E+00 0.  1.
         11    1    3    3    0    0  0.52625101555E+02  0.15104113783E+02 -0.18379443678E+02  0.57752398364E+02  0.00000000000E+00 0. -1.
         21    1    1    2  502  501 -0.63612873097E+01 -0.35646844144E+02  0.96353348352E+02  0.10293265377E+03  0.00000000000E+00 0.  1.
<scales pt_clust_5="13000.00000" pt_clust_6="13000.00000" pt_clust_7="13000.00000" pt_clust_8="13000.00000" pt_clust_9="36.20999"></scales>
<clustering>
<clus scale="   36.210">  1  9  2 -1</clus>
<clus scale="   78.207">  5  6 -1 -1</clus>
<clus scale="   90.863">  7  8 -1 -1</clus>
<clus scale="  170.239">  2  5  1 -1</clus>
<clus scale="  170.239">  2  5  1 -1</clus>
</clustering>
</event>
<event>
 9    1  0.2333971E-005  0.1140619E+03  0.7546771E-02  0.1254645E+00
          3   -1    0    0  502    0  0.00000000000E+00  0.00000000000E+00  0.77433532091E+03  0.77433532091E+03  0.00000000000E+00 0. -1.
         -4   -1    0    0    0  501 -0.00000000000E+00 -0.00000000000E+00 -0.38425503861E+02  0.38425503861E+02  0.00000000000E+00 0.  1.
        -24    2    1    2    0    0  0.89880611287E+02 -0.12421314676E+02  0.10606860232E+03  0.16111138306E+03  0.80458163092E+02 0.  0.
         23    2    1    2    0    0 -0.71047686195E+02 -0.23731241186E+02  0.55515630248E+03  0.56656405824E+03  0.84766540518E+02 0.  0.
         13    1    3    3    0    0  0.32710026799E+02  0.34289816436E+02  0.39140737274E+02  0.61463279109E+02  0.00000000000E+00 0. -1.
        -14    1    3    3    0    0  0.57170584487E+02 -0.46711131112E+02  0.66927865049E+02  0.99648103948E+02  0.00000000000E+00 0.  1.
        -13    1    4    4    0    0 -0.12580758885E+02 -0.47100470240E+02  0.19898330670E+03  0.20486846057E+03  0.00000000000E+00 0. -1.
         13    1    4    4    0    0 -0.58466927311E+02  0.23369229054E+02  0.35617299578E+03  0.36169559768E+03  0.00000000000E+00 0.  1.
         21    1    1    2  502  501 -0.18832925091E+02  0.36152555862E+02  0.74684912251E+02  0.85085383473E+02  0.00000000000E+00 0. -1.
<scales pt_clust_5="13000.00000" pt_clust_6="13000.00000" pt_clust_7="13000.00000" pt_clust_8="13000.00000" pt_clust_9="40.76379"></scales>
<clustering>
<clus scale="   40.764">  2  9  1 -1</clus>
<clus scale="   80.458">  5  6 -1 -1</clus>
<clus scale="   84.767">  7  8 -1 -1</clus>
<clus scale="  110.898">  2  5  1 -1</clus>
<clus scale="  114.062">  1  5  2 -1</clus>
</clustering>
</event>
<event>
 9    1  0.2333971E-005  0.9136075E+02  0.7546771E-02  0.1306109E+00
          1   -1    0    0  502    0  0.00000000000E+00  0.00000000000E+00  0.21600351405E+03  0.21600351405E+03  0.00000000000E+00 0. -1.
         -2   -1    0    0    0  501 -0.00000000000E+00 -0.00000000000E+00 -0.11301153487E+03  0.11301153487E+03  0.00000000000E+00 0.  1.
        -24    2    1    2    0    0 -0.50448534625E+01  0.17827957241E+01 -0.73700118346E+02  0.10851191215E+03  0.79463820235E+02 0.  0.
         23    2    1    2    0    0 -0.12736784244E+02  0.13528786013E+02  0.17416729785E+03  0.19690216671E+03  0.89949774261E+02 0.  0.
         13    1    3    3    0    0  0.21666692595E+02 -0.27826813507E+02 -0.52783977487E+02  0.63481693403E+02  0.00000000000E+00 0. -1.
        -14    1    3    3    0    0 -0.26711546057E+02  0.29609609231E+02 -0.20916140859E+02  0.45030218743E+02  0.00000000000E+00 0.  1.
        -13    1    4    4    0    0  0.29244378823E+02  0.20998410540E+02  0.13242273683E+03  0.13722954553E+03  0.00000000000E+00 0.  1.
         13    1    4    4    0    0 -0.41981163066E+02 -0.74696245272E+01  0.41744561021E+02  0.59672621174E+02  0.00000000000E+00 0. -1.
         21    1    1    2  502  501  0.17781637706E+02 -0.15311581737E+02  0.25247996706E+01  0.23600970069E+02  0.00000000000E+00 0.  1.
<scales pt_clust_5="13000.00000" pt_clust_6="13000.00000" pt_clust_7="13000.00000" pt_clust_8="13000.00000" pt_clust_9="23.46553"></scales>
<clustering>
<clus scale="   23.466">  2  9  1 -1</clus>
<clus scale="   79.464">  5  6 -1 -1</clus>
<clus scale="   81.058">  2  5  1 -1</clus>
<clus scale="   89.950">  7  8 -1 -1</clus>
<clus scale="   91.361">  1  5  2 -1</clus>
</clustering>
</event>
<event>
 9    1  0.2333971E-005  0.2553376E+03  0.7546771E-02  0.1109977E+00
         -2   -1    0    0    0  501 -0.00000000000E+00  0.00000000000E+00  0.59616990781E+02  0.59616990781E+02  0.00000000000E+00 0.  1.
          1   -1    0    0  502    0  0.00000000000E+00 -0.00000000000E+00 -0.73635467048E+03  0.73635467048E+03  0.00000000000E+00 0. -1.
        -24    2    1    2    0    0  0.10913969383E+03 -0.77968892743E+02 -0.21514980307E+03  0.26753454966E+03  0.85408878302E+02 0.  0.
         23    2    1    2    0    0  0.33446386448E+02  0.35986132295E+01 -0.15356291885E+03  0.18095890599E+03  0.89626697071E+02 0.  0.
         11    1    3    3    0    0  0.46148182549E+02 -0.68689461156E+02 -0.67671576798E+02  0.10689873307E+03  0.00000000000E+00 0. -1.
        -12    1    3    3    0    0  0.62991511280E+02 -0.92794315867E+01 -0.14747822627E+03  0.16063581658E+03  0.00000000000E+00 0.  1.
        -11    1    4    4    0    0 -0.21307306322E+02 -0.25890115821E+02 -0.52462147412E+02  0.62262157937E+02  0.00000000000E+00 0.  1.
         11    1    4    4    0    0  0.54753692770E+02  0.29488729051E+02 -0.10110077143E+03  0.11869674805E+03  0.00000000000E+00 0. -1.
         21    1    1    2  502  501 -0.14258608028E+03  0.74370279513E+02 -0.30802495779E+03  0.34747820562E+03  0.00000000000E+00 0.  1.
<scales pt_clust_5="13000.00000" pt_clust_6="13000.00000" pt_clust_7="13000.00000" pt_clust_8="13000.00000" pt_clust_9="160.81582"></scales>
<clustering>
<clus scale="   85.409">  5  6 -1 -1</clus>
<clus scale="   89.627">  7  8 -1 -1</clus>
<clus scale="   92.919">  5  7 -1 -1</clus>
<clus scale="  160.816">  2  9  1 -1</clus>
<clus scale="  160.816">  2  5  1 -1</clus>
</clustering>
</event>
<event>
 9    1  0.2333971E-005  0.1404217E+03  0.7546771E-02  0.1216535E+00
         -2   -1    0    0    0  501 -0.00000000000E+00  0.00000000000E+00  0.88613153456E+02  0.88613153456E+02  0.00000000000E+00 0.  1.
          1   -1    0    0  502    0  0.00000000000E+00 -0.00000000000E+00 -0.33955197179E+03  0.33955197179E+03  0.00000000000E+00 0. -1.
        -24    2    1    2    0    0  0.40490485154E+02  0.75735671643E+02 -0.18137070900E+02  0.11913440462E+03  0.80552353635E+02 0.  0.
         23    2    1    2    0    0 -0.54511975463E+02 -0.92970547507E+02 -0.24425311256E+03  0.28403518303E+03  0.96960425082E+02 0.  0.
         11    1    3    3    0    0 -0.23463234406E+02  0.29145988437E+02  0.20584075863E+01  0.37473311203E+02  0.00000000000E+00 0. -1.
        -12    1    3    3    0    0  0.63953719560E+02  0.46589683207E+02 -0.20195478486E+02  0.81661093417E+02  0.00000000000E+00 0.  1.
        -13    1    4    4    0    0 -0.43999536472E+02 -0.46111517161E+02 -0.22225449862E+03  0.23121265835E+03  0.00000000000E+00 0. -1.
         13    1    4    4    0    0 -0.10512438991E+02 -0.46859030346E+02 -0.21998613941E+02  0.52822524683E+02  0.00000000000E+00 0.  1.
         21    1    1    2  502  501  0.14021490309E+02  0.17234875863E+02  0.11451365122E+02  0.24995537596E+02  0.00000000000E+00 0.  1.
<scales pt_clust_5="13000.00000" pt_clust_6="13000.00000" pt_clust_7="13000.00000" pt_clust_8="13000.00000" pt_clust_9="22.21808"></scales>
<clustering>
<clus scale="   22.218">  1  9  2 -1</clus>
<clus scale="   80.552">  5  6 -1 -1</clus>
<clus scale="   96.960">  7  8 -1 -1</clus>
<clus scale="  129.636">  1  5  2 -1</clus>
<clus scale="  140.422">  2  5  1 -1</clus>
</clustering>
</event>
<event>
 9    1  0.2333971E-005  0.1054852E+03  0.7546771E-02  0.1272913E+00
          1   -1    0    0  502    0  0.00000000000E+00  0.00000000000E+00  0.14932310367E+03  0.14932310367E+03  0.00000000000E+00 0. -1.
         -2   -1    0    0    0  501 -0.00000000000E+00 -0.00000000000E+00 -0.41762057963E+03  0.41762057963E+03  0.00000000000E+00 0.  1.
         23    2    1    2    0    0  0.10641067003E+02 -0.70052851268E+02 -0.20346798031E+03  0.23378603767E+03  0.90752730660E+02 0.  0.
        -24    2    1    2    0    0 -0.24136884155E+02  0.46788735903E+02  0.11531342719E+03  0.15101805961E+03  0.82082232254E+02 0.  0.
         13    1    4    4    0    0 -0.35016247381E+02  0.61881896424E+02  0.11115980347E+03  0.13195457019E+03  0.00000000000E+00 0. -1.
        -14    1    4    4    0    0  0.10879363226E+02 -0.15093160521E+02  0.41536237208E+01  0.19063489417E+02  0.00000000000E+00 0.  1.
        -11    1    3    3    0    0 -0.33928565872E+02 -0.21658493286E+02 -0.12535006557E+03  0.13165438410E+03  0.00000000000E+00 0.  1.
         11    1    3    3    0    0  0.44569632875E+02 -0.48394357981E+02 -0.78117914738E+02  0.10213165358E+03  0.00000000000E+00 0. -1.
         21    1    1    2  502  501  0.13495817152E+02  0.23264115365E+02 -0.18014292285E+03  0.18213958602E+03  0.00000000000E+00 0.  1.
<scales pt_clust_5="13000.00000" pt_clust_6="13000.00000" pt_clust_7="13000.00000" pt_clust_8="13000.00000" pt_clust_9="26.89528"></scales>
<clustering>
<clus scale="   26.895">  2  9  1 -1</clus>
<clus scale="   82.082">  5  6 -1 -1</clus>
<clus scale="   90.753">  7  8 -1 -1</clus>
<clus scale="   98.125">  1  5  2 -1</clus>
<clus scale="   98.125">  1  5  2 -1</clus>
</clustering>
</event>
<event>
 9    1  0.2333971E-005  0.9888020E+02  0.7546771E-02  0.1285586E+00
         -2   -1    0    0    0  501 -0.00000000000E+00  0.00000000000E+00  0.31351608206E+02  0.31351608206E+02  0.00000000000E+00 0.  1.
          1   -1    0    0  502    0  0.00000000000E+00 -0.00000000000E+00 -0.53583870803E+03  0.53583870803E+03  0.00000000000E+00 0. -1.
        -24    2    1    2    0    0  0.35816081628E+02 -0.49646230645E+02 -0.12625060007E+03  0.16217054994E+03  0.81317484763E+02 0.  0.
         23    2    1    2    0    0 -0.15275129867E+02  0.38603828901E+02 -0.36622952023E+03  0.37878938520E+03  0.87371343413E+02 0.  0.
         11    1    3    3    0    0  0.24653567293E+02 -0.97452393104E+01 -0.11667061614E+03  0.11964447643E+03  0.00000000000E+00 0. -1.
        -12    1    3    3    0    0  0.11162514334E+02 -0.39900991335E+02 -0.95799839285E+01  0.42526073506E+02  0.00000000000E+00 0.  1.
        -13    1    4    4    0    0  0.32843171553E+02  0.17080651879E+02 -0.85751334089E+02  0.93400823788E+02  0.00000000000E+00 0.  1.
         13    1    4    4    0    0 -0.48118301420E+02  0.21523177022E+02 -0.28047818614E+03  0.28538856141E+03  0.00000000000E+00 0. -1.
         21    1    1    2  502  501 -0.20540951761E+02  0.11042401744E+02 -0.12006979522E+02  0.26230381102E+02  0.00000000000E+00 0.  1.
<scales pt_clust_5="13000.00000" pt_clust_6="13000.00000" pt_clust_7="13000.00000" pt_clust_8="13000.00000" pt_clust_9="23.32092"></scales>
<clustering>
<clus scale="   23.321">  1  9  2 -1</clus>
<clus scale="   81.317">  5  6 -1 -1</clus>
<clus scale="   87.371">  7  8 -1 -1</clus>
<clus scale="   93.574">  1  5  2 -1</clus>
<clus scale="   98.880">  2  5  1 -1</clus>
</clustering>
</event>
<event>
 9    1  0.2333971E-005  0.2448455E+03  0.7546771E-02  0.1117029E+00
         -2   -1    0    0    0  501 -0.00000000000E+00  0.00000000000E+00  0.24619959614E+03  0.24619959614E+03  0.00000000000E+00 0.  1.
          1   -1    0    0  502    0  0.00000000000E+00 -0.00000000000E+00 -0.45875207177E+03  0.45875207177E+03  0.00000000000E+00 0. -1.
         23    2    1    2    0    0  0.19165889391E+03 -0.15571498479E+03  0.53969070214E+02  0.26875553634E+03  0.91304926870E+02 0.  0.
        -24    2    1    2    0    0 -0.17038832439E+03  0.14265360535E+03 -0.30726133333E+03  0.38841782013E+03  0.84122790150E+02 0.  0.
         11    1    4    4    0    0 -0.10637400258E+03  0.11189611278E+03 -0.26229385941E+03  0.30435873105E+03  0.00000000000E+00 0. -1.
        -12    1    4    4    0    0 -0.64014321809E+02  0.30757492576E+02 -0.44967473922E+02  0.84059089081E+02  0.00000000000E+00 0.  1.
        -11    1    3    3    0    0  0.16732997980E+03 -0.84102672064E+02  0.31943254584E+02  0.18998145462E+03  0.00000000000E+00 0.  1.
         11    1    3    3    0    0  0.24328914111E+02 -0.71612312731E+02  0.22025815630E+02  0.78774081719E+02  0.00000000000E+00 0. -1.
         21    1    1    2  502  501 -0.21270569519E+02  0.13061379441E+02  0.40739787489E+02  0.47778311452E+02  0.00000000000E+00 0.  1.
<scales pt_clust_5="13000.00000" pt_clust_6="13000.00000" pt_clust_7="13000.00000" pt_clust_8="13000.00000" pt_clust_9="24.96070"></scales>
<clustering>
<clus scale="   24.961">  1  9  2 -1</clus>
<clus scale="   84.123">  5  6 -1 -1</clus>
<clus scale="   91.305">  7  8 -1 -1</clus>
<clus scale="  242.259">  2  5  1 -1</clus>
<clus scale="  242.259">  2  5  1 -1</clus>
</clustering>
</event>
<event>
 9    1  0.2333971E-005  0.1649594E+03  0.7546771E-02  0.1184657E+00
         -2   -1    0    0    0  501 -0.00000000000E+00  0.00000000000E+00  0.75020681404E+03  0.75020681404E+03  0.00000000000E+00 0.  1.
          1   -1    0    0  502    0  0.00000000000E+00 -0.00000000000E+00 -0.97965758074E+02  0.97965758074E+02  0.00000000000E+00 0. -1.
        -24    2    1    2    0    0  0.73237957776E+02 -0.95931771908E+02  0.49902851246E+03  0.51965056956E+03  0.80253067703E+02 0.  0.
         23    2    1    2    0    0 -0.74750982901E+02  0.11944847908E+03 -0.61314782381E+01  0.16744487188E+03  0.90247113497E+02 0.  0.
         13    1    3    3    0    0 -0.15597495628E+02 -0.28896183509E+02  0.92125052840E+02  0.97802334594E+02  0.00000000000E+00 0. -1.
        -14    1    3    3    0    0  0.88835453404E+02 -0.67035588399E+02  0.40690345962E+03  0.42184823497E+03  0.00000000000E+00 0.  1.
        -13    1    4    4    0    0  0.30149945039E+01  0.72008648285E+02 -0.21173247824E+02  0.75117521545E+02  0.00000000000E+00 0. -1.
         13    1    4    4    0    0 -0.77765977405E+02  0.47439830791E+02  0.15041769586E+02  0.92327350333E+02  0.00000000000E+00 0.  1.
         21    1    1    2  502  501  0.15130251244E+01 -0.23516707168E+02  0.15934402174E+03  0.16107713067E+03  0.00000000000E+00 0.  1.
<scales pt_clust_5="13000.00000" pt_clust_6="13000.00000" pt_clust_7="13000.00000" pt_clust_8="13000.00000" pt_clust_9="23.56533"></scales>
<clustering>
<clus scale="   23.565">  1  9  2 -1</clus>
<clus scale="   80.253">  5  6 -1 -1</clus>
<clus scale="   90.247">  7  8 -1 -1</clus>
<clus scale="  159.711">  1  5  2 -1</clus>
<clus scale="  164.959">  2  5  1 -1</clus>
</clustering>
</event>
<event>
 9    1  0.2333971E-005  0.1130399E+03  0.7546771E-02  0.1255454E+00
         -2   -1    0    0    0  501 -0.00000000000E+00  0.00000000000E+00  0.28401266856E+03  0.28401266856E+03  0.00000000000E+00 0.  1.
          1   -1    0    0  502    0  0.00000000000E+00 -0.00000000000E+00 -0.11964409469E+03  0.11964409469E+03  0.00000000000E+00 0. -1.
        -24    2    1    2    0    0 -0.89026356499E+02  0.80928459844E+02  0.85182620822E+02  0.16784294738E+03  0.80250036319E+02 0.  0.
         23    2    1    2    0    0  0.66477167891E+02 -0.14052936146E+02 -0.25885211454E+02  0.10924070979E+03  0.81527845779E+02 0.  0.
         13    1    3    3    0    0 -0.84870260683E+02  0.35487382990E+02  0.31153247938E+02  0.97122810693E+02  0.00000000000E+00 0. -1.
        -14    1    3    3    0    0 -0.41560958167E+01  0.45441076854E+02  0.54029372884E+02  0.70720136682E+02  0.00000000000E+00 0.  1.
        -13    1    4    4    0    0  0.34332517067E+02  0.22090360792E+02 -0.41694046417E+02  0.58353228486E+02  0.00000000000E+00 0. -1.
         13    1    4    4    0    0  0.32144650824E+02 -0.36143296938E+02  0.15808834964E+02  0.50887481300E+02  0.00000000000E+00 0.  1.
         21    1    1    2  502  501  0.22549188608E+02 -0.66875523698E+02  0.10507116450E+03  0.12657310609E+03  0.00000000000E+00 0. -1.
<scales pt_clust_5="13000.00000" pt_clust_6="13000.00000" pt_clust_7="13000.00000" pt_clust_8="13000.00000" pt_clust_9="70.57479"></scales>
<clustering>
<clus scale="   70.575">  1  9  2 -1</clus>
<clus scale="   80.250">  5  6 -1 -1</clus>
<clus scale="   81.528">  7  8 -1 -1</clus>
<clus scale="  112.122">  1  5  2 -1</clus>
<clus scale="  113.040">  2  5  1 -1</clus>
</clustering>
</event>
<event>
 9    1  0.2333971E-005  0.9317207E+02  0.7546771E-02  0.1301944E+00
          1   -1    0    0  502    0  0.00000000000E+00  0.00000000000E+00  0.11622769996E+04  0.11622769996E+04  0.00000000000E+00 0. -1.
         -2   -1    0    0    0  501 -0.00000000000E+00 -0.00000000000E+00 -0.22237245992E+02  0.22237245992E+02  0.00000000000E+00 0.  1.
         23    2    1    2    0    0  0.16054702156E+02  0.15219321486E+02  0.33504801595E+03  0.34789400760E+03  0.91014758814E+02 0.  0.
        -24    2    1    2    0    0  0.37148812685E+01 -0.21439527532E+02  0.81085176219E+03  0.81508265969E+03  0.80035668217E+02 0.  0.
         13    1    4    4    0    0  0.18950316846E+02 -0.26164114526E+02  0.12698911075E+03  0.13103400187E+03  0.00000000000E+00 0. -1.
        -14    1    4    4    0    0 -0.15235435578E+02  0.47245869944E+01  0.68386265145E+03  0.68404865782E+03  0.00000000000E+00 0.  1.
        -13    1    3    3    0    0 -0.34760120258E+02  0.22489874770E+02  0.17426650360E+03  0.17911693026E+03  0.00000000000E+00 0.  1.
         13    1    3    3    0    0  0.50814822414E+02 -0.72705532844E+01  0.16078151235E+03  0.16877707734E+03  0.00000000000E+00 0. -1.
         21    1    1    2  502  501 -0.19769583425E+02  0.62202060460E+01 -0.58600245314E+01  0.21537578312E+02  0.00000000000E+00 0.  1.
<scales pt_clust_5="13000.00000" pt_clust_6="13000.00000" pt_clust_7="13000.00000" pt_clust_8="13000.00000" pt_clust_9="20.72504"></scales>
<clustering>
<clus scale="   20.725">  2  9  1 -1</clus>
<clus scale="   80.036">  5  6 -1 -1</clus>
<clus scale="   82.481">  1  5  2 -1</clus>
<clus scale="   91.015">  7  8 -1 -1</clus>
<clus scale="   82.481">  1  5  2 -1</clus>
</clustering>
</event>
<event>
 9    1  0.2333971E-005  0.1079852E+03  0.7546771E-02  0.1268858E+00
          1   -1    0    0  502    0  0.00000000000E+00  0.00000000000E+00  0.27374605478E+03  0.27374605478E+03  0.00000000000E+00 0. -1.
         -2   -1    0    0    0  501 -0.00000000000E+00 -0.00000000000E+00 -0.83320270674E+02  0.83320270674E+02  0.00000000000E+00 0.  1.
        -24    2    1    2    0    0 -0.36785275791E+02 -0.34539697591E+02 -0.23074131409E+02  0.97590875913E+02  0.80283350057E+02 0.  0.
         23    2    1    2    0    0  0.55770111295E+02  0.22291062928E+02  0.20987485245E+03  0.23659327061E+03  0.91223490455E+02 0.  0.
         11    1    3    3    0    0  0.74934906050E+01 -0.40620117071E+02 -0.31705244416E+02  0.52070805983E+02  0.00000000000E+00 0. -1.
        -12    1    3    3    0    0 -0.44278766396E+02  0.60804194798E+01  0.86311130071E+01  0.45520069929E+02  0.00000000000E+00 0.  1.
        -13    1    4    4    0    0  0.48918379919E+02 -0.23182199425E+02  0.64971698129E+02  0.84567983433E+02  0.00000000000E+00 0.  1.
         13    1    4    4    0    0  0.68517313754E+01  0.45473262353E+02  0.14490315432E+03  0.15202528718E+03  0.00000000000E+00 0. -1.
         21    1    1    2  502  501 -0.18984835503E+02  0.12248634663E+02  0.36250630692E+01  0.22882178927E+02  0.00000000000E+00 0.  1.
<scales pt_clust_5="13000.00000" pt_clust_6="13000.00000" pt_clust_7="13000.00000" pt_clust_8="13000.00000" pt_clust_9="22.59321"></scales>
<clustering>
<clus scale="   22.593">  2  9  1 -1</clus>
<clus scale="   80.283">  5  6 -1 -1</clus>
<clus scale="   91.223">  7  8 -1 -1</clus>
<clus scale="   98.917">  2  5  1 -1</clus>
<clus scale="  107.985">  1  5  2 -1</clus>
</clustering>
</event>
<event>
 9    1  0.2333971E-005  0.9772815E+02  0.7546771E-02  0.1293563E+00
          1   -1    0    0  502    0  0.00000000000E+00  0.00000000000E+00  0.21305819040E+03  0.21305819040E+03  0.00000000000E+00 0. -1.
         -2   -1    0    0    0  501 -0.00000000000E+00 -0.00000000000E+00 -0.78163753882E+02  0.78163753882E+02  0.00000000000E+00 0.  1.
         23    2    1    2    0    0  0.69173606523E+01  0.29510873248E+02  0.15480081823E+02  0.98072083148E+02  0.91976948425E+02 0.  0.
        -24    2    1    2    0    0  0.28217576375E+02 -0.25367521087E+02  0.13054071726E+03  0.15606310998E+03  0.76649022770E+02 0.  0.
         11    1    4    4    0    0  0.47380454029E+02 -0.99710816488E+01  0.11984316994E+03  0.12925445940E+03  0.00000000000E+00 0. -1.
        -12    1    4    4    0    0 -0.19162877654E+02 -0.15396439438E+02  0.10697547321E+02  0.26808650582E+02  0.00000000000E+00 0.  1.
        -13    1    3    3    0    0  0.46414654416E+02  0.53413217968E+01  0.21401558756E+02  0.51389459817E+02  0.00000000000E+00 0. -1.
         13    1    3    3    0    0 -0.39497293764E+02  0.24169551451E+02 -0.59214769325E+01  0.46682623331E+02  0.00000000000E+00 0.  1.
         21    1    1    2  502  501 -0.35134937027E+02 -0.41433521610E+01 -0.11126362567E+02  0.37086751152E+02  0.00000000000E+00 0.  1.
<scales pt_clust_5="13000.00000" pt_clust_6="13000.00000" pt_clust_7="13000.00000" pt_clust_8="13000.00000" pt_clust_9="35.37840"></scales>
<clustering>
<clus scale="   35.378">  2  9  1 -1</clus>
<clus scale="   76.649">  5  6 -1 -1</clus>
<clus scale="   83.463">  1  5  2 -1</clus>
<clus scale="   91.977">  7  8 -1 -1</clus>
<clus scale="   83.463">  1  5  2 -1</clus>
</clustering>
</event>
<event>
 9    1  0.2333971E-005  0.3020081E+03  0.7546771E-02  0.1084588E+00
          1   -1    0    0  502    0  0.00000000000E+00  0.00000000000E+00  0.12136830901E+04  0.12136830901E+04  0.00000000000E+00 0. -1.
         -2   -1    0    0    0  501 -0.00000000000E+00 -0.00000000000E+00 -0.35564071436E+03  0.35564071436E+03  0.00000000000E+00 0.  1.
        -24    2    1    2    0    0  0.76561127439E+02 -0.23950251309E+03 -0.23679821787E+03  0.35464969287E+03  0.80498128262E+02 0.  0.
         23    2    1    2    0    0 -0.65153139900E+02  0.28337607023E+03  0.11214924500E+04  0.11620874912E+04  0.90305552557E+02 0.  0.
         13    1    3    3    0    0  0.30167099788E+02 -0.59004600287E+02 -0.11272455393E+03  0.13076093386E+03  0.00000000000E+00 0. -1.
        -14    1    3    3    0    0  0.46394027651E+02 -0.18049791281E+03 -0.12407366395E+03  0.22388875902E+03  0.00000000000E+00 0.  1.
        -13    1    4    4    0    0 -0.33611711527E+02  0.21294901172E+02  0.17562344729E+03  0.18007447127E+03  0.00000000000E+00 0.  1.
         13    1    4    4    0    0 -0.31541428373E+02  0.26208116906E+03  0.94586900273E+03  0.98201301988E+03  0.00000000000E+00 0. -1.
         21    1    1    2  502  501 -0.11407987539E+02 -0.43873557142E+02 -0.26651856424E+02  0.52586620417E+02  0.00000000000E+00 0.  1.
<scales pt_clust_5="13000.00000" pt_clust_6="13000.00000" pt_clust_7="13000.00000" pt_clust_8="13000.00000" pt_clust_9="45.33245"></scales>
<clustering>
<clus scale="   45.332">  2  9  1 -1</clus>
<clus scale="   80.498">  5  6 -1 -1</clus>
<clus scale="   90.306">  7  8 -1 -1</clus>
<clus scale="  299.222">  2  5  1 -1</clus>
<clus scale="  302.008">  1  5  2 -1</clus>
</clustering>
</event>
<event>
 9    1  0.2333971E-005  0.1469111E+03  0.7546771E-02  0.1205725E+00
          1   -1    0    0  502    0  0.00000000000E+00  0.00000000000E+00  0.27176563398E+03  0.27176563398E+03  0.00000000000E+00 0. -1.
         -2   -1    0    0    0  501 -0.00000000000E+00 -0.00000000000E+00 -0.12171679935E+03  0.12171679935E+03  0.00000000000E+00 0.  1.
         23    2    1    2    0    0  0.32077735756E+02  0.12750709769E+03  0.29433597476E+02  0.16112407361E+03  0.88360564415E+02 0.  0.
        -24    2    1    2    0    0 -0.24277288735E+02 -0.10882632017E+03  0.14544733249E+03  0.20032007979E+03  0.80874304489E+02 0.  0.
         11    1    4    4    0    0 -0.22300617554E+02 -0.10853016836E+03  0.15501787376E+03  0.19054305596E+03  0.00000000000E+00 0. -1.
        -12    1    4    4    0    0 -0.19766711810E+01 -0.29615180874E+00 -0.95705412674E+01  0.97770238316E+01  0.00000000000E+00 0.  1.
        -13    1    3    3    0    0  0.50758053717E+02  0.34645154433E+02 -0.15176002941E+01  0.61473326358E+02  0.00000000000E+00 0.  1.
         13    1    3    3    0    0 -0.18680317961E+02  0.92861943254E+02  0.30951197770E+02  0.99650747250E+02  0.00000000000E+00 0. -1.
         21    1    1    2  502  501 -0.78004470206E+01 -0.18680777515E+02 -0.24832095332E+02  0.32038279930E+02  0.00000000000E+00 0.  1.
<scales pt_clust_5="13000.00000" pt_clust_6="13000.00000" pt_clust_7="13000.00000" pt_clust_8="13000.00000" pt_clust_9="20.24397"></scales>
<clustering>
<clus scale="   20.244">  2  9  1 -1</clus>
<clus scale="   80.874">  5  6 -1 -1</clus>
<clus scale="   88.361">  7  8 -1 -1</clus>
<clus scale="  142.534">  1  5  2 -1</clus>
<clus scale="  142.534">  1  5  2 -1</clus>
</clustering>
</event>
<event>
 9    1  0.2333971E-005  0.1051711E+03  0.7546771E-02  0.1274164E+00
         -4   -1    0    0    0  501 -0.00000000000E+00  0.00000000000E+00  0.39181728312E+03  0.39181728312E+03  0.00000000000E+00 0.  1.
          3   -1    0    0  502    0  0.00000000000E+00 -0.00000000000E+00 -0.13510858140E+03  0.13510858140E+03  0.00000000000E+00 0. -1.
        -24    2    1    2    0    0  0.89505579825E+01  0.13742531795E+01  0.12354355512E+03  0.14909485733E+03  0.82971473467E+02 0.  0.
         23    2    1    2    0    0  0.48983445231E+02  0.35750921321E+02 -0.90967690625E+02  0.14337385539E+03  0.92754705490E+02 0.  0.
         13    1    3    3    0    0  0.97864459491E+01  0.21169256824E+02 -0.64989717641E+00  0.23330973514E+02  0.00000000000E+00 0. -1.
        -14    1    3    3    0    0 -0.83588796661E+00 -0.19795003644E+02  0.12419345230E+03  0.12576388381E+03  0.00000000000E+00 0.  1.
        -11    1    4    4    0    0  0.17049679722E+01 -0.24844470321E+02 -0.82866020234E+00  0.24916687160E+02  0.00000000000E+00 0.  1.
         11    1    4    4    0    0  0.47278477259E+02  0.60595391641E+02 -0.90139030423E+02  0.11845716823E+03  0.00000000000E+00 0. -1.
         21    1    1    2  502  501 -0.57934003214E+02 -0.37125174500E+02  0.22413283722E+03  0.23445715180E+03  0.00000000000E+00 0.  1.
<scales pt_clust_5="13000.00000" pt_clust_6="13000.00000" pt_clust_7="13000.00000" pt_clust_8="13000.00000" pt_clust_9="68.80863"></scales>
<clustering>
<clus scale="   68.809">  1  9  2 -1</clus>
<clus scale="   82.971">  5  6 -1 -1</clus>
<clus scale="   92.755">  7  8 -1 -1</clus>
<clus scale="   96.653">  1  5  2 -1</clus>
<clus scale="  105.171">  2  5  1 -1</clus>
</clustering>
</event>
<event>
 9    1  0.2333971E-005  0.1465990E+03  0.7546771E-02  0.1206207E+00
         -2   -1    0    0    0  501 -0.00000000000E+00  0.00000000000E+00  0.69286667605E+03  0.69286667605E+03  0.00000000000E+00 0.  1.
          1   -1    0    0  502    0  0.00000000000E+00 -0.00000000000E+00 -0.95361661409E+02  0.95361661409E+02  0.00000000000E+00 0. -1.
         23    2    1    2    0    0 -0.56430251913E+02  0.73300066937E+02  0.43211425365E+03  0.45097070698E+03  0.89969868300E+02 0.  0.
        -24    2    1    2    0    0  0.96735116394E+02 -0.70220652031E+02 -0.20953011100E+02  0.14657998026E+03  0.82207294220E+02 0.  0.
         13    1    4    4    0    0  0.74956264427E+02 -0.54163544849E+02 -0.51436445133E+02  0.10581984245E+03  0.00000000000E+00 0. -1.
        -14    1    4    4    0    0  0.21778851967E+02 -0.16057107181E+02  0.30483434032E+02  0.40760137812E+02  0.00000000000E+00 0.  1.
        -11    1    3    3    0    0 -0.51153889661E+02  0.41176682540E+01  0.10880734576E+03  0.12030259395E+03  0.00000000000E+00 0.  1.
         11    1    3    3    0    0 -0.52763622516E+01  0.69182398683E+02  0.32330690789E+03  0.33066811303E+03  0.00000000000E+00 0. -1.
         21    1    1    2  502  501 -0.40304864482E+02 -0.30794149059E+01  0.18634377209E+03  0.19067765022E+03  0.00000000000E+00 0.  1.
<scales pt_clust_5="13000.00000" pt_clust_6="13000.00000" pt_clust_7="13000.00000" pt_clust_8="13000.00000" pt_clust_9="40.42233"></scales>
<clustering>
<clus scale="   40.422">  1  9  2 -1</clus>
<clus scale="   82.207">  5  6 -1 -1</clus>
<clus scale="   89.970">  7  8 -1 -1</clus>
<clus scale="  141.967">  2  5  1 -1</clus>
<clus scale="  141.967">  2  5  1 -1</clus>
</clustering>
</event>
<event>
 9    1  0.2333971E-005  0.2414583E+03  0.7546771E-02  0.1118825E+00
          1   -1    0    0  502    0  0.00000000000E+00  0.00000000000E+00  0.12904793858E+04  0.12904793858E+04  0.00000000000E+00 0. -1.
         -2   -1    0    0    0  501 -0.00000000000E+00 -0.00000000000E+00 -0.28313909520E+02  0.28313909520E+02  0.00000000000E+00 0.  1.
        -24    2    1    2    0    0  0.10613920008E+03 -0.56425534973E+02  0.43876917490E+03  0.46205907437E+03  0.80813542009E+02 0.  0.
         23    2    1    2    0    0  0.96277061068E+01 -0.23790466602E+02  0.35921570027E+03  0.37165668702E+03  0.91837327178E+02 0.  0.
         11    1    3    3    0    0  0.16337897907E+02 -0.52235166947E+02  0.17842694106E+03  0.18663229321E+03  0.00000000000E+00 0. -1.
        -12    1    3    3    0    0  0.89801302172E+02 -0.41903680262E+01  0.26034223384E+03  0.27542678115E+03  0.00000000000E+00 0.  1.
        -11    1    4    4    0    0  0.47787321140E+02 -0.28540906912E+02  0.24098117008E+03  0.24732597066E+03  0.00000000000E+00 0. -1.
         11    1    4    4    0    0 -0.38159615033E+02  0.47504403101E+01  0.11823453019E+03  0.12433071636E+03  0.00000000000E+00 0.  1.
         21    1    1    2  502  501 -0.11576690619E+03  0.80216001575E+02  0.46418060110E+03  0.48507753392E+03  0.00000000000E+00 0.  1.
<scales pt_clust_5="13000.00000" pt_clust_6="13000.00000" pt_clust_7="13000.00000" pt_clust_8="13000.00000" pt_clust_9="140.84241"></scales>
<clustering>
<clus scale="   80.814">  5  6 -1 -1</clus>
<clus scale="   91.837">  7  8 -1 -1</clus>
<clus scale="   94.607">  5  7 -1 -1</clus>
<clus scale="  140.842">  2  9  1 -1</clus>
<clus scale="  241.458">  1  5  2 -1</clus>
</clustering>
</event>
<event>
 9    1  0.2333971E-005  0.1783779E+03  0.7546771E-02  0.1170344E+00
          1   -1    0    0  502    0  0.00000000000E+00  0.00000000000E+00  0.86707053472E+03  0.86707053472E+03  0.00000000000E+00 0. -1.
         -2   -1    0    0    0  501 -0.00000000000E+00 -0.00000000000E+00 -0.94945826591E+02  0.94945826591E+02  0.00000000000E+00 0.  1.
         23    2    1    2    0    0 -0.12724206155E+03 -0.68372907821E+02  0.49591703647E+02  0.17726669112E+03  0.89993032829E+02 0.  0.
        -24    2    1    2    0    0  0.14141556670E+03  0.51680773247E+02  0.73700968144E+03  0.75849915056E+03  0.97305837675E+02 0.  0.
         11    1    4    4    0    0  0.70235819041E+02  0.67859391146E+02  0.53180477626E+03  0.54069796309E+03  0.00000000000E+00 0. -1.
        -12    1    4    4    0    0  0.71179747657E+02 -0.16178617899E+02  0.20520490518E+03  0.21780118747E+03  0.00000000000E+00 0.  1.
        -13    1    3    3    0    0 -0.12653424686E+03 -0.31614690014E+02  0.52034091902E+02  0.14042062161E+03  0.00000000000E+00 0.  1.
         13    1    3    3    0    0 -0.70781469170E+00 -0.36758217806E+02 -0.24423882544E+01  0.36846069510E+02  0.00000000000E+00 0. -1.
         21    1    1    2  502  501 -0.14173505149E+02  0.16692134574E+02 -0.14476676960E+02  0.26250519626E+02  0.00000000000E+00 0. -1.
<scales pt_clust_5="13000.00000" pt_clust_6="13000.00000" pt_clust_7="13000.00000" pt_clust_8="13000.00000" pt_clust_9="21.89784"></scales>
<clustering>
<clus scale="   21.898">  2  9  1 -1</clus>
<clus scale="   89.993">  7  8 -1 -1</clus>
<clus scale="   97.306">  5  6 -1 -1</clus>
<clus scale="  174.496">  2  7  1 -1</clus>
<clus scale="  178.378">  1  5  2 -1</clus>
</clustering>
</event>
<event>
 9    1  0.2333971E-005  0.1006434E+03  0.7546771E-02  0.1287242E+00
         -2   -1    0    0    0  501 -0.00000000000E+00  0.00000000000E+00  0.56897797375E+02  0.56897797375E+02  0.00000000000E+00 0.  1.
          1   -1    0    0  502    0  0.00000000000E+00 -0.00000000000E+00 -0.23773600591E+03  0.23773600591E+03  0.00000000000E+00 0. -1.
        -24    2    1    2    0    0 -0.29677599285E+01 -0.41282559835E+02 -0.56887930428E+02  0.10533449593E+03  0.78396824287E+02 0.  0.
         23    2    1    2    0    0  0.29300053544E+02  0.22319768902E+02 -0.11946537270E+03  0.15654123196E+03  0.94215268440E+02 0.  0.
         13    1    3    3    0    0 -0.23983030270E+02 -0.38130576632E+02 -0.67835785478E+02  0.81429849605E+02  0.00000000000E+00 0. -1.
        -14    1    3    3    0    0  0.21015270341E+02 -0.31519832033E+01  0.10947855050E+02  0.23904646323E+02  0.00000000000E+00 0.  1.
        -13    1    4    4    0    0  0.42492257620E+02 -0.25009453618E+02 -0.77860039773E+02  0.92158833116E+02  0.00000000000E+00 0.  1.
         13    1    4    4    0    0 -0.13192204076E+02  0.47329222520E+02 -0.41605332928E+02  0.64382398843E+02  0.00000000000E+00 0. -1.
         21    1    1    2  502  501 -0.26332293616E+02  0.18962790933E+02 -0.44849054014E+01  0.32758075394E+02  0.00000000000E+00 0.  1.
<scales pt_clust_5="13000.00000" pt_clust_6="13000.00000" pt_clust_7="13000.00000" pt_clust_8="13000.00000" pt_clust_9="32.44961"></scales>
<clustering>
<clus scale="   32.450">  1  9  2 -1</clus>
<clus scale="   78.397">  5  6 -1 -1</clus>
<clus scale="   86.015">  1  5  2 -1</clus>
<clus scale="   94.215">  7  8 -1 -1</clus>
<clus scale="  100.643">  2  5  1 -1</clus>
</clustering>
</event>
<event>
 9    1  0.2333971E-005  0.1198443E+03  0.7546771E-02  0.1245437E+00
         -2   -1    0    0    0  501 -0.00000000000E+00  0.00000000000E+00  0.10967824902E+03  0.10967824902E+03  0.00000000000E+00 0.  1.
          1   -1    0    0  502    0  0.00000000000E+00 -0.00000000000E+00 -0.33818976653E+03  0.33818976653E+03  0.00000000000E+00 0. -1.
        -24    2    1    2    0    0 -0.34964948285E+02  0.47036887049E+02  0.44295883816E+02  0.11069211330E+03  0.82798564429E+02 0.  0.
         23    2    1    2    0    0  0.44874020953E+02 -0.69971576935E+02 -0.28448124897E+03  0.30959931000E+03  0.89512303090E+02 0.  0.
         13    1    3    3    0    0  0.21729553561E+02  0.23731742847E+02 -0.43068445611E+01  0.32464103662E+02  0.00000000000E+00 0. -1.
        -14    1    3    3    0    0 -0.56694501846E+02  0.23305144202E+02  0.48602728378E+02  0.78228009636E+02  0.00000000000E+00 0.  1.
        -11    1    4    4    0    0 -0.24203701076E+02 -0.33027371336E+02 -0.13150159055E+03  0.13772906273E+03  0.00000000000E+00 0.  1.
         11    1    4    4    0    0  0.69077722030E+02 -0.36944205599E+02 -0.15297965842E+03  0.17187024728E+03  0.00000000000E+00 0. -1.
         21    1    1    2  502  501 -0.99090726678E+01  0.22934689886E+02  0.11673847642E+02  0.27576592249E+02  0.00000000000E+00 0.  1.
<scales pt_clust_5="13000.00000" pt_clust_6="13000.00000" pt_clust_7="13000.00000" pt_clust_8="13000.00000" pt_clust_9="24.98379"></scales>
<clustering>
<clus scale="   24.984">  1  9  2 -1</clus>
<clus scale="   82.799">  5  6 -1 -1</clus>
<clus scale="   89.512">  7  8 -1 -1</clus>
<clus scale="  114.917">  1  5  2 -1</clus>
<clus scale="  119.844">  2  5  1 -1</clus>
</clustering>
</event>
<event>
 9    1  0.2333971E-005  0.9498247E+02  0.7546771E-02  0.1301006E+00
         -2   -1    0    0    0  501 -0.00000000000E+00  0.00000000000E+00  0.63804412736E+02  0.63804412736E+02  0.00000000000E+00 0.  1.
          1   -1    0    0  502    0  0.00000000000E+00 -0.00000000000E+00 -0.30558659965E+03  0.30558659965E+03  0.00000000000E+00 0. -1.
        -24    2    1    2    0    0 -0.42376899520E+02 -0.47811552180E+01  0.17993485144E+01  0.85889614270E+02  0.74532725204E+02 0.  0.
         23    2    1    2    0    0  0.10443660557E+02  0.24987377122E+02 -0.21812178083E+03  0.23793581616E+03  0.91120262730E+02 0.  0.
         13    1    3    3    0    0 -0.54251256329E+02  0.85341036737E+01 -0.19343344455E+02  0.58225378604E+02  0.00000000000E+00 0. -1.
        -14    1    3    3    0    0  0.11874356809E+02 -0.13315258892E+02  0.21142692970E+02  0.27664235666E+02  0.00000000000E+00 0.  1.
        -13    1    4    4    0    0 -0.11637792208E+02  0.34167267395E+02 -0.20938945122E+03  0.21247772271E+03  0.00000000000E+00 0. -1.
         13    1    4    4    0    0  0.22081452764E+02 -0.91798902724E+01 -0.87323296111E+01  0.25458093448E+02  0.00000000000E+00 0.  1.
         21    1    1    2  502  501  0.31933238963E+02 -0.20206221904E+02 -0.25459754600E+02  0.45565581952E+02  0.00000000000E+00 0. -1.
<scales pt_clust_5="13000.00000" pt_clust_6="13000.00000" pt_clust_7="13000.00000" pt_clust_8="13000.00000" pt_clust_9="37.78919"></scales>
<clustering>
<clus scale="   37.789">  1  9  2 -1</clus>
<clus scale="   74.533">  5  6 -1 -1</clus>
<clus scale="   79.208">  1  5  2 -1</clus>
<clus scale="   91.120">  7  8 -1 -1</clus>
<clus scale="   94.982">  2  5  1 -1</clus>
</clustering>
</event>
<event>
 9    1  0.2333971E-005  0.2274885E+03  0.7546771E-02  0.1165075E+00
          3   -1    0    0  502    0  0.00000000000E+00  0.00000000000E+00  0.16224540439E+04  0.16224540439E+04  0.00000000000E+00 0. -1.
         -4   -1    0    0    0  501 -0.00000000000E+00 -0.00000000000E+00 -0.49248619323E+02  0.49248619323E+02  0.00000000000E+00 0.  1.
         23    2    1    2    0    0 -0.23917840605E+02  0.12984607379E+00  0.20239982150E+03  0.22356339096E+03  0.91884830501E+02 0.  0.
        -24    2    1    2    0    0  0.60675756102E+02  0.20590775280E+03  0.96046390758E+03  0.98750607375E+03  0.81226706749E+02 0.  0.
         11    1    4    4    0    0  0.54828695396E+02  0.17516871798E+03  0.90843830148E+03  0.92679577750E+03  0.00000000000E+00 0. -1.
        -12    1    4    4    0    0  0.58470607061E+01  0.30739034822E+02  0.52025606098E+02  0.60710296248E+02  0.00000000000E+00 0.  1.
        -13    1    3    3    0    0 -0.24630359632E+02  0.35548900299E+02  0.45742583316E+02  0.62950479399E+02  0.00000000000E+00 0.  1.
         13    1    3    3    0    0  0.71251902699E+00 -0.35419054226E+02  0.15665723819E+03  0.16061291157E+03  0.00000000000E+00 0. -1.
         21    1    1    2  502  501 -0.36757915497E+02 -0.20603759887E+03  0.41034169545E+03  0.46063319847E+03  0.00000000000E+00 0.  1.
<scales pt_clust_5="13000.00000" pt_clust_6="13000.00000" pt_clust_7="13000.00000" pt_clust_8="13000.00000" pt_clust_9="212.49297"></scales>
<clustering>
<clus scale="   81.227">  5  6 -1 -1</clus>
<clus scale="   91.885">  7  8 -1 -1</clus>
<clus scale="   94.947">  2  7  1 -1</clus>
<clus scale="  212.493">  2  9  1 -1</clus>
<clus scale="  227.489">  1  5  2 -1</clus>
</clustering>
</event>
<event>
 9    1  0.2333971E-005  0.1263791E+03  0.7546771E-02  0.1236224E+00
         -2   -1    0    0    0  501 -0.00000000000E+00  0.00000000000E+00  0.63844743358E+02  0.63844743358E+02  0.00000000000E+00 0.  1.
          1   -1    0    0  502    0  0.00000000000E+00 -0.00000000000E+00 -0.41411469763E+03  0.41411469763E+03  0.00000000000E+00 0. -1.
        -24    2    1    2    0    0 -0.39560828029E+02 -0.65242693715E+02 -0.10016735426E+03  0.14889001164E+03  0.79454820544E+02 0.  0.
         23    2    1    2    0    0  0.13274060596E+02  0.96840741417E+02 -0.25473553552E+03  0.28770646461E+03  0.91271500682E+02 0.  0.
         13    1    3    3    0    0 -0.57356473378E+02 -0.51308990609E+02 -0.44705686430E+02  0.88999864915E+02  0.00000000000E+00 0. -1.
        -14    1    3    3    0    0  0.17795645349E+02 -0.13933703106E+02 -0.55461667831E+02  0.59890146721E+02  0.00000000000E+00 0.  1.
        -11    1    4    4    0    0 -0.35227383176E+02  0.14955825481E+02 -0.81898416331E+02  0.90399092023E+02  0.00000000000E+00 0. -1.
         11    1    4    4    0    0  0.48501443772E+02  0.81884915936E+02 -0.17283711919E+03  0.19730737259E+03  0.00000000000E+00 0.  1.
         21    1    1    2  502  501  0.26286767433E+02 -0.31598047702E+02  0.46329355147E+01  0.41362964741E+02  0.00000000000E+00 0. -1.
<scales pt_clust_5="13000.00000" pt_clust_6="13000.00000" pt_clust_7="13000.00000" pt_clust_8="13000.00000" pt_clust_9="41.10269"></scales>
<clustering>
<clus scale="   41.103">  1  9  2 -1</clus>
<clus scale="   79.455">  5  6 -1 -1</clus>
<clus scale="   91.272">  7  8 -1 -1</clus>
<clus scale="  118.128">  1  5  2 -1</clus>
<clus scale="  126.379">  2  5  1 -1</clus>
</clustering>
</event>
<event>
 9    1  0.2333971E-005  0.9582449E+02  0.7546771E-02  0.1297666E+00
         -2   -1    0    0    0  501 -0.00000000000E+00  0.00000000000E+00  0.40331311077E+02  0.40331311077E+02  0.00000000000E+00 0.  1.
          1   -1    0    0  502    0  0.00000000000E+00 -0.00000000000E+00 -0.48681706174E+03  0.48681706174E+03  0.00000000000E+00 0. -1.
        -24    2    1    2    0    0  0.46902122001E+00  0.16923911998E+01 -0.53446175363E+02  0.95851838265E+02  0.79548708782E+02 0.  0.
         23    2    1    2    0    0  0.18414305504E+01  0.26138039941E+02 -0.39141246720E+03  0.40332300124E+03  0.93697042942E+02 0.  0.
         11    1    3    3    0    0 -0.11379892942E+01  0.37168512814E+02 -0.77603390594E+01  0.37987053410E+02  0.00000000000E+00 0. -1.
        -12    1    3    3    0    0  0.16070105142E+01 -0.35476121614E+02 -0.45685836303E+02  0.57864784855E+02  0.00000000000E+00 0.  1.
        -13    1    4    4    0    0  0.44230429476E+02  0.79659693631E+01 -0.12249095714E+03  0.13047536986E+03  0.00000000000E+00 0.  1.
         13    1    4    4    0    0 -0.42388998925E+02  0.18172070578E+02 -0.26892151006E+03  0.27284763138E+03  0.00000000000E+00 0. -1.
         21    1    1    2  502  501 -0.23104517704E+01 -0.27830431141E+02 -0.16271081006E+01  0.27973533306E+02  0.00000000000E+00 0.  1.
<scales pt_clust_5="13000.00000" pt_clust_6="13000.00000" pt_clust_7="13000.00000" pt_clust_8="13000.00000" pt_clust_9="27.92617"></scales>
<clustering>
<clus scale="   27.926">  1  9  2 -1</clus>
<clus scale="   79.549">  5  6 -1 -1</clus>
<clus scale="   82.044">  1  5  2 -1</clus>
<clus scale="   93.697">  7  8 -1 -1</clus>
<clus scale="   95.824">  2  5  1 -1</clus>
</clustering>
</event>
<event>
 9    1  0.2333971E-005  0.1249013E+03  0.7546771E-02  0.1238857E+00
         -2   -1    0    0    0  501 -0.00000000000E+00  0.00000000000E+00  0.11383914986E+03  0.11383914986E+03  0.00000000000E+00 0.  1.
          1   -1    0    0  502    0  0.00000000000E+00 -0.00000000000E+00 -0.21688198833E+03  0.21688198833E+03  0.00000000000E+00 0. -1.
        -24    2    1    2    0    0 -0.89722136054E+02  0.50853854680E+02  0.20303138886E+02  0.13128035618E+03  0.78652007193E+02 0.  0.
         23    2    1    2    0    0  0.73501460799E+02 -0.30505696852E+02 -0.12409936847E+03  0.17340762180E+03  0.91304368811E+02 0.  0.
         13    1    3    3    0    0 -0.63429920936E+02  0.19981483287E+02 -0.24480537196E+02  0.70865444652E+02  0.00000000000E+00 0. -1.
        -14    1    3    3    0    0 -0.26292215118E+02  0.30872371392E+02  0.44783676082E+02  0.60414911525E+02  0.00000000000E+00 0.  1.
        -13    1    4    4    0    0  0.36210763872E+02 -0.50416578621E+02 -0.11421695316E+03  0.12999447376E+03  0.00000000000E+00 0. -1.
         13    1    4    4    0    0  0.37290696926E+02  0.19910881770E+02 -0.98824153107E+01  0.43413148037E+02  0.00000000000E+00 0.  1.
         21    1    1    2  502  501  0.16220675255E+02 -0.20348157828E+02  0.75339111363E+00  0.26033160217E+02  0.00000000000E+00 0. -1.
<scales pt_clust_5="13000.00000" pt_clust_6="13000.00000" pt_clust_7="13000.00000" pt_clust_8="13000.00000" pt_clust_9="26.02226"></scales>
<clustering>
<clus scale="   26.022">  1  9  2 -1</clus>
<clus scale="   78.652">  5  6 -1 -1</clus>
<clus scale="   91.304">  7  8 -1 -1</clus>
<clus scale="  115.974">  1  5  2 -1</clus>
<clus scale="  124.901">  2  5  1 -1</clus>
</clustering>
</event>
<event>
 9    1  0.2333971E-005  0.9413705E+02  0.7546771E-02  0.1298329E+00
         -2   -1    0    0    0  501 -0.00000000000E+00  0.00000000000E+00  0.61182003745E+02  0.61182003745E+02  0.00000000000E+00 0.  1.
          1   -1    0    0  502    0  0.00000000000E+00 -0.00000000000E+00 -0.23494790130E+03  0.23494790130E+03  0.00000000000E+00 0. -1.
        -24    2    1    2    0    0  0.28598742788E+01 -0.30775675084E+02 -0.38341849252E+02  0.93821049744E+02  0.79855938497E+02 0.  0.
         23    2    1    2    0    0  0.21390000411E+02  0.25799835478E+02 -0.14689640244E+03  0.17502460505E+03  0.89061190742E+02 0.  0.
         11    1    3    3    0    0 -0.20861718392E+02 -0.39307978721E+02 -0.49228893050E+02  0.66361226604E+02  0.00000000000E+00 0. -1.
        -12    1    3    3    0    0  0.23721592671E+02  0.85323036378E+01  0.10887043798E+02  0.27459823140E+02  0.00000000000E+00 0.  1.
        -13    1    4    4    0    0  0.46521676776E+02  0.31762675798E+02 -0.13559636827E+03  0.14683156701E+03  0.00000000000E+00 0. -1.
         13    1    4    4    0    0 -0.25131676365E+02 -0.59628403193E+01 -0.11300034165E+02  0.28193038036E+02  0.00000000000E+00 0.  1.
         21    1    1    2  502  501 -0.24249874690E+02  0.49758396053E+01  0.11472354134E+02  0.27284250249E+02  0.00000000000E+00 0. -1.
<scales pt_clust_5="13000.00000" pt_clust_6="13000.00000" pt_clust_7="13000.00000" pt_clust_8="13000.00000" pt_clust_9="24.75511"></scales>
<clustering>
<clus scale="   24.755">  1  9  2 -1</clus>
<clus scale="   79.856">  5  6 -1 -1</clus>
<clus scale="   85.480">  1  5  2 -1</clus>
<clus scale="   89.061">  7  8 -1 -1</clus>
<clus scale="   94.137">  2  5  1 -1</clus>
</clustering>
</event>
<event>
 9    1  0.2333971E-005  0.1482581E+03  0.7546771E-02  0.1204263E+00
         -2   -1    0    0    0  501 -0.00000000000E+00  0.00000000000E+00  0.15712375583E+03  0.15712375583E+03  0.00000000000E+00 0.  1.
          1   -1    0    0  502    0  0.00000000000E+00 -0.00000000000E+00 -0.26859495679E+03  0.26859495679E+03  0.00000000000E+00 0. -1.
         23    2    1    2    0    0 -0.92458780740E+02 -0.69025329071E+02  0.40105014486E+02  0.15170160861E+03  0.89954675690E+02 0.  0.
        -24    2    1    2    0    0  0.11453107511E+03  0.35633067987E+02 -0.17536486910E+03  0.22745392841E+03  0.81211880499E+02 0.  0.
         11    1    4    4    0    0  0.77379323429E+02  0.19301290970E+02 -0.16832936973E+03  0.18626560671E+03  0.00000000000E+00 0. -1.
        -12    1    4    4    0    0  0.37151751676E+02  0.16331777017E+02 -0.70354993694E+01  0.41188321701E+02  0.00000000000E+00 0.  1.
        -13    1    3    3    0    0 -0.83777741742E+02 -0.20601333767E+02 -0.29528465489E+01  0.86324065399E+02  0.00000000000E+00 0. -1.
         13    1    3    3    0    0 -0.86810389979E+01 -0.48423995304E+02  0.43057861035E+02  0.65377543210E+02  0.00000000000E+00 0.  1.
         21    1    1    2  502  501 -0.22072294365E+02  0.33392261084E+02  0.23788653666E+02  0.46563175602E+02  0.00000000000E+00 0.  1.
<scales pt_clust_5="13000.00000" pt_clust_6="13000.00000" pt_clust_7="13000.00000" pt_clust_8="13000.00000" pt_clust_9="40.02786"></scales>
<clustering>
<clus scale="   40.028">  1  9  2 -1</clus>
<clus scale="   81.212">  5  6 -1 -1</clus>
<clus scale="   89.955">  7  8 -1 -1</clus>
<clus scale="  143.122">  2  5  1 -1</clus>
<clus scale="  143.122">  2  5  1 -1</clus>
</clustering>
</event>
<event>
 9    1  0.2333971E-005  0.1703615E+03  0.7546771E-02  0.1178762E+00
         -2   -1    0    0    0  501 -0.00000000000E+00  0.00000000000E+00  0.17556924842E+03  0.17556924842E+03  0.00000000000E+00 0.  1.
          1   -1    0    0  502    0  0.00000000000E+00 -0.00000000000E+00 -0.41265267736E+03  0.41265267736E+03  0.00000000000E+00 0. -1.
        -24    2    1    2    0    0  0.93335374815E+02  0.14213870887E+03  0.17486386330E+02  0.18964217922E+03  0.82118680454E+02 0.  0.
         23    2    1    2    0    0 -0.13792093076E+03 -0.43331938222E+02 -0.23127972678E+03  0.28770559292E+03  0.91566130020E+02 0.  0.
         11    1    3    3    0    0  0.80905123139E+02  0.10381290505E+03 -0.21752069949E+02  0.13340131466E+03  0.00000000000E+00 0. -1.
        -12    1    3    3    0    0  0.12430251676E+02  0.38325803824E+02  0.39238456278E+02  0.56240864561E+02  0.00000000000E+00 0.  1.
        -11    1    4    4    0    0 -0.82854079929E+02  0.21183949530E+02 -0.10234145053E+03  0.13336915227E+03  0.00000000000E+00 0.  1.
         11    1    4    4    0    0 -0.55066850828E+02 -0.64515887752E+02 -0.12893827625E+03  0.15433644066E+03  0.00000000000E+00 0. -1.
         21    1    1    2  502  501  0.44585555941E+02 -0.98806770653E+02 -0.23290088484E+02  0.11087415365E+03  0.00000000000E+00 0.  1.
<scales pt_clust_5="13000.00000" pt_clust_6="13000.00000" pt_clust_7="13000.00000" pt_clust_8="13000.00000" pt_clust_9="108.40041"></scales>
<clustering>
<clus scale="   82.119">  5  6 -1 -1</clus>
<clus scale="   91.566">  7  8 -1 -1</clus>
<clus scale="  108.400">  1  9  2 -1</clus>
<clus scale="  165.476">  1  5  2 -1</clus>
<clus scale="  170.361">  2  5  1 -1</clus>
</clustering>
</event>
<event>
 9    1  0.2333971E-005  0.8395742E+02  0.7546771E-02  0.1324716E+00
          1   -1    0    0  502    0  0.00000000000E+00  0.00000000000E+00  0.46452080648E+03  0.46452080648E+03  0.00000000000E+00 0. -1.
         -2   -1    0    0    0  501 -0.00000000000E+00 -0.00000000000E+00 -0.56404691344E+02  0.56404691344E+02  0.00000000000E+00 0.  1.
         23    2    1    2    0    0 -0.97009544320E+01 -0.24467668897E+02  0.24984190750E+01  0.76034579912E+02  0.71289830315E+02 0.  0.
        -24    2    1    2    0    0 -0.58692690424E+02  0.46927598762E+01  0.30951184096E+03  0.32528710080E+03  0.80915167600E+02 0.  0.
         11    1    4    4    0    0 -0.78651613393E+02 -0.35165696895E+00  0.26084876201E+03  0.27244866781E+03  0.00000000000E+00 0. -1.
        -12    1    4    4    0    0  0.19958922969E+02  0.50444168452E+01  0.48663078948E+02  0.52838432983E+02  0.00000000000E+00 0.  1.
        -13    1    3    3    0    0  0.90617703884E+01 -0.46130283328E+02  0.49481398479E+01  0.47271585656E+02  0.00000000000E+00 0. -1.
         13    1    3    3    0    0 -0.18762724820E+02  0.21662614431E+02 -0.24497207729E+01  0.28762994255E+02  0.00000000000E+00 0.  1.
         21    1    1    2  502  501  0.68393644856E+02  0.19774909021E+02  0.96105855103E+02  0.11960381712E+03  0.00000000000E+00 0. -1.
<scales pt_clust_5="13000.00000" pt_clust_6="13000.00000" pt_clust_7="13000.00000" pt_clust_8="13000.00000" pt_clust_9="71.19507"></scales>
<clustering>
<clus scale="   71.195">  1  9  2 -1</clus>
<clus scale="   71.290">  7  8 -1 -1</clus>
<clus scale="   74.725">  2  7  1 -1</clus>
<clus scale="   80.915">  5  6 -1 -1</clus>
<clus scale="   71.195">  1  5  2 -1</clus>
</clustering>
</event>
<event>
 9    1  0.2333971E-005  0.9728659E+02  0.7546771E-02  0.1289227E+00
         -2   -1    0    0    0  501 -0.00000000000E+00  0.00000000000E+00  0.82160367515E+02  0.82160367515E+02  0.00000000000E+00 0.  1.
          1   -1    0    0  502    0  0.00000000000E+00 -0.00000000000E+00 -0.23048185361E+03  0.23048185361E+03  0.00000000000E+00 0. -1.
        -24    2    1    2    0    0  0.12129208786E+02 -0.49839535636E+02  0.14806856565E+02  0.10059142720E+03  0.85254297289E+02 0.  0.
         23    2    1    2    0    0 -0.16292941159E+02  0.25607479604E+02 -0.16082720373E+03  0.18735617008E+03  0.91190690662E+02 0.  0.
         13    1    3    3    0    0 -0.49463663654E+01 -0.35607262100E+02 -0.32411058163E+02  0.48402689447E+02  0.00000000000E+00 0. -1.
        -14    1    3    3    0    0  0.17075575151E+02 -0.14232273536E+02  0.47217914728E+02  0.52188737751E+02  0.00000000000E+00 0.  1.
        -11    1    4    4    0    0  0.22862664369E+02  0.38441739995E+02 -0.12497336248E+03  0.13273586601E+03  0.00000000000E+00 0.  1.
         11    1    4    4    0    0 -0.39155605528E+02 -0.12834260391E+02 -0.35853841249E+02  0.54620304067E+02  0.00000000000E+00 0. -1.
         21    1    1    2  502  501  0.41637323732E+01  0.24232056032E+02 -0.23011389323E+01  0.24694623852E+02  0.00000000000E+00 0. -1.
<scales pt_clust_5="13000.00000" pt_clust_6="13000.00000" pt_clust_7="13000.00000" pt_clust_8="13000.00000" pt_clust_9="24.58718"></scales>
<clustering>
<clus scale="   24.587">  1  9  2 -1</clus>
<clus scale="   85.254">  5  6 -1 -1</clus>
<clus scale="   91.191">  7  8 -1 -1</clus>
<clus scale="   91.745">  1  5  2 -1</clus>
<clus scale="   97.287">  2  5  1 -1</clus>
</clustering>
</event>
<event>
 9    1  0.2333971E-005  0.9364293E+02  0.7546771E-02  0.1302114E+00
         -4   -1    0    0    0  501 -0.00000000000E+00  0.00000000000E+00  0.10992805701E+03  0.10992805701E+03  0.00000000000E+00 0.  1.
          3   -1    0    0  502    0  0.00000000000E+00 -0.00000000000E+00 -0.15107250668E+03  0.15107250668E+03  0.00000000000E+00 0. -1.
        -24    2    1    2    0    0  0.21830976885E+02  0.44250269669E+01  0.57507020235E+02  0.98540842319E+02  0.76857451253E+02 0.  0.
         23    2    1    2    0    0 -0.43639528960E+02  0.13273331089E+02 -0.76364830846E+02  0.12660530599E+03  0.90092876013E+02 0.  0.
         11    1    3    3    0    0 -0.11228622595E+02 -0.30049968152E+02  0.19924579429E+02  0.37763360772E+02  0.00000000000E+00 0. -1.
        -12    1    3    3    0    0  0.33059599480E+02  0.34474995119E+02  0.37582440806E+02  0.60777481547E+02  0.00000000000E+00 0.  1.
        -13    1    4    4    0    0 -0.21691634754E+02  0.39994637604E+02 -0.31164785640E+01  0.45604939360E+02  0.00000000000E+00 0.  1.
         13    1    4    4    0    0 -0.21947894205E+02 -0.26721306515E+02 -0.73248352282E+02  0.81000366628E+02  0.00000000000E+00 0. -1.
         21    1    1    2  502  501  0.21808552074E+02 -0.17698358056E+02 -0.22286639060E+02  0.35854415377E+02  0.00000000000E+00 0. -1.
<scales pt_clust_5="13000.00000" pt_clust_6="13000.00000" pt_clust_7="13000.00000" pt_clust_8="13000.00000" pt_clust_9="28.08638"></scales>
<clustering>
<clus scale="   28.086">  2  9  1 -1</clus>
<clus scale="   76.857">  5  6 -1 -1</clus>
<clus scale="   80.990">  1  5  2 -1</clus>
<clus scale="   90.093">  7  8 -1 -1</clus>
<clus scale="   28.086">  2  5  1 -1</clus>
</clustering>
</event>
<event>
 9    1  0.2333971E-005  0.1736168E+03  0.7546771E-02  0.1175834E+00
          1   -1    0    0  502    0  0.00000000000E+00  0.00000000000E+00  0.67984529290E+03  0.67984529290E+03  0.00000000000E+00 0. -1.
         -2   -1    0    0    0  501 -0.00000000000E+00 -0.00000000000E+00 -0.68046209394E+02  0.68046209394E+02  0.00000000000E+00 0.  1.
        -24    2    1    2    0    0  0.18532594357E+03  0.26063579712E+02  0.23437083960E+03  0.31038261034E+03  0.79891543986E+02 0.  0.
         23    2    1    2    0    0 -0.12599214346E+03 -0.63026569932E+01  0.29531058471E+03  0.33428920462E+03  0.92882652757E+02 0.  0.
         13    1    3    3    0    0  0.73764549869E+02 -0.26900323264E+02  0.10967271231E+03  0.13488120712E+03  0.00000000000E+00 0. -1.
        -14    1    3    3    0    0  0.11156139370E+03  0.52963902976E+02  0.12469812729E+03  0.17550140322E+03  0.00000000000E+00 0.  1.
        -11    1    4    4    0    0 -0.30577265338E+02 -0.17568697094E+02  0.18355242709E+03  0.18690939453E+03  0.00000000000E+00 0. -1.
         11    1    4    4    0    0 -0.95414878124E+02  0.11266040100E+02  0.11175815762E+03  0.14737981009E+03  0.00000000000E+00 0.  1.
         21    1    1    2  502  501 -0.59333800105E+02 -0.19760922719E+02  0.82117659188E+02  0.10321968733E+03  0.00000000000E+00 0. -1.
<scales pt_clust_5="13000.00000" pt_clust_6="13000.00000" pt_clust_7="13000.00000" pt_clust_8="13000.00000" pt_clust_9="62.53794"></scales>
<clustering>
<clus scale="   62.538">  2  9  1 -1</clus>
<clus scale="   79.892">  5  6 -1 -1</clus>
<clus scale="   92.883">  7  8 -1 -1</clus>
<clus scale="  167.028">  2  5  1 -1</clus>
<clus scale="  173.617">  1  5  2 -1</clus>
</clustering>
</event>
<event>
 9    1  0.2333971E-005  0.1018302E+03  0.7546771E-02  0.1282396E+00
         -2   -1    0    0    0  501 -0.00000000000E+00  0.00000000000E+00  0.76101710916E+03  0.76101710916E+03  0.00000000000E+00 0.  1.
          1   -1    0    0  502    0  0.00000000000E+00 -0.00000000000E+00 -0.20490390697E+02  0.20490390697E+02  0.00000000000E+00 0. -1.
        -24    2    1    2    0    0  0.71810436499E+01 -0.53634464913E+02  0.40529573584E+03  0.41656994315E+03  0.79609426780E+02 0.  0.
         23    2    1    2    0    0  0.26828841294E+02  0.35006065517E+02  0.20261112933E+03  0.22676478433E+03  0.91792082103E+02 0.  0.
         13    1    3    3    0    0  0.10209033281E+02 -0.26315765801E+02  0.33701726750E+02  0.43960781114E+02  0.00000000000E+00 0. -1.
        -14    1    3    3    0    0 -0.30279896314E+01 -0.27318699112E+02  0.37159400909E+03  0.37260916204E+03  0.00000000000E+00 0.  1.
        -13    1    4    4    0    0  0.58419098897E+02  0.74863867482E+01  0.13401950168E+03  0.14639010873E+03  0.00000000000E+00 0.  1.
         13    1    4    4    0    0 -0.31590257603E+02  0.27519678769E+02  0.68591627643E+02  0.80374675599E+02  0.00000000000E+00 0. -1.
         21    1    1    2  502  501 -0.34009884944E+02  0.18628399396E+02  0.13261985330E+03  0.13817277238E+03  0.00000000000E+00 0.  1.
<scales pt_clust_5="13000.00000" pt_clust_6="13000.00000" pt_clust_7="13000.00000" pt_clust_8="13000.00000" pt_clust_9="38.77744"></scales>
<clustering>
<clus scale="   38.777">  1  9  2 -1</clus>
<clus scale="   79.609">  5  6 -1 -1</clus>
<clus scale="   91.001">  1  5  2 -1</clus>
<clus scale="   91.792">  7  8 -1 -1</clus>
<clus scale="  101.830">  2  5  1 -1</clus>
</clustering>
</event>
<event>
 9    1  0.2333971E-005  0.8989972E+02  0.7546771E-02  0.1304550E+00
         -2   -1    0    0    0  501 -0.00000000000E+00  0.00000000000E+00  0.35479548139E+03  0.35479548139E+03  0.00000000000E+00 0.  1.
          1   -1    0    0  502    0  0.00000000000E+00 -0.00000000000E+00 -0.48769174472E+02  0.48769174472E+02  0.00000000000E+00 0. -1.
        -24    2    1    2    0    0  0.13198936483E+02 -0.26987899367E+02  0.26312087300E+03  0.27819385334E+03  0.85186076270E+02 0.  0.
         23    2    1    2    0    0 -0.18544094545E+02  0.62359193349E+01  0.16354775799E+02  0.91251118520E+02  0.87615739495E+02 0.  0.
         11    1    3    3    0    0  0.15190897584E+02 -0.14934093981E+02  0.79604896444E+01  0.22741150539E+02  0.00000000000E+00 0. -1.
        -12    1    3    3    0    0 -0.19919611011E+01 -0.12053805386E+02  0.25516038335E+03  0.25545270280E+03  0.00000000000E+00 0.  1.
        -13    1    4    4    0    0  0.31745626955E+02  0.34462087152E+01 -0.11200082043E+02  0.33839370902E+02  0.00000000000E+00 0.  1.
         13    1    4    4    0    0 -0.50289721500E+02  0.27897106197E+01  0.27554857842E+02  0.57411747618E+02  0.00000000000E+00 0. -1.
         21    1    1    2  502  501  0.53451580619E+01  0.20751980032E+02  0.26550658120E+02  0.34119684005E+02  0.00000000000E+00 0.  1.
<scales pt_clust_5="13000.00000" pt_clust_6="13000.00000" pt_clust_7="13000.00000" pt_clust_8="13000.00000" pt_clust_9="21.42931"></scales>
<clustering>
<clus scale="   21.429">  1  9  2 -1</clus>
<clus scale="   85.186">  5  6 -1 -1</clus>
<clus scale="   87.533">  1  5  2 -1</clus>
<clus scale="   87.616">  7  8 -1 -1</clus>
<clus scale="   89.900">  2  5  1 -1</clus>
</clustering>
</event>
<event>
 9    1  0.2333971E-005  0.1026346E+03  0.7546771E-02  0.1279109E+00
          1   -1    0    0  502    0  0.00000000000E+00  0.00000000000E+00  0.32582139281E+03  0.32582139281E+03  0.00000000000E+00 0. -1.
         -2   -1    0    0    0  501 -0.00000000000E+00 -0.00000000000E+00 -0.88820318233E+02  0.88820318233E+02  0.00000000000E+00 0.  1.
        -24    2    1    2    0    0  0.34217030868E+01 -0.42349983402E+02 -0.78095491253E+01  0.91535270929E+02  0.80699985256E+02 0.  0.
         23    2    1    2    0    0 -0.62205884731E+02 -0.13665136234E+02  0.20480467379E+03  0.23258710700E+03  0.89974995918E+02 0.  0.
         13    1    3    3    0    0 -0.96094398567E+01  0.19048672617E+02  0.13503062556E+02  0.25249276450E+02  0.00000000000E+00 0. -1.
        -14    1    3    3    0    0  0.13031142943E+02 -0.61398656020E+02 -0.21312611681E+02  0.66285994479E+02  0.00000000000E+00 0.  1.
        -11    1    4    4    0    0 -0.72109964973E+02 -0.37720343573E+02  0.17519209390E+03  0.19317075641E+03  0.00000000000E+00 0. -1.
         11    1    4    4    0    0  0.99040802427E+01  0.24055207339E+02  0.29612579896E+02  0.39416350588E+02  0.00000000000E+00 0.  1.
         21    1    1    2  502  501  0.58784181644E+02  0.56015119637E+02  0.40005949907E+02  0.90519333114E+02  0.00000000000E+00 0. -1.
<scales pt_clust_5="13000.00000" pt_clust_6="13000.00000" pt_clust_7="13000.00000" pt_clust_8="13000.00000" pt_clust_9="81.19898"></scales>
<clustering>
<clus scale="   80.700">  5  6 -1 -1</clus>
<clus scale="   81.199">  2  9  1 -1</clus>
<clus scale="   89.975">  7  8 -1 -1</clus>
<clus scale="   94.609">  2  5  1 -1</clus>
<clus scale="  102.635">  1  5  2 -1</clus>
</clustering>
</event>
<event>
 9    1  0.2333971E-005  0.1464778E+03  0.7546771E-02  0.1206952E+00
          1   -1    0    0  502    0  0.00000000000E+00  0.00000000000E+00  0.65500228526E+03  0.65500228526E+03  0.00000000000E+00 0. -1.
         -2   -1    0    0    0  501 -0.00000000000E+00 -0.00000000000E+00 -0.67166848467E+02  0.67166848467E+02  0.00000000000E+00 0.  1.
        -24    2    1    2    0    0  0.39746140793E+02  0.11470190566E+03  0.13831527732E+03  0.20106403778E+03  0.80989804778E+02 0.  0.
         23    2    1    2    0    0  0.14478373417E+02 -0.11410913915E+03  0.44265376444E+03  0.46644435415E+03  0.91637663687E+02 0.  0.
         13    1    3    3    0    0  0.40538027159E+02  0.21689753659E+02  0.76921443839E+02  0.89614092542E+02  0.00000000000E+00 0. -1.
        -14    1    3    3    0    0 -0.79188636681E+00  0.93012152002E+02  0.61393833480E+02  0.11144994524E+03  0.00000000000E+00 0.  1.
        -11    1    4    4    0    0 -0.38028314262E+02 -0.33328044665E+02  0.16259871718E+03  0.17027992857E+03  0.00000000000E+00 0. -1.
         11    1    4    4    0    0  0.52506687680E+02 -0.80781094486E+02  0.28005504726E+03  0.29616442557E+03  0.00000000000E+00 0.  1.
         21    1    1    2  502  501 -0.54224514210E+02 -0.59276651016E+00  0.68663950312E+01  0.54660741801E+02  0.00000000000E+00 0.  1.
<scales pt_clust_5="13000.00000" pt_clust_6="13000.00000" pt_clust_7="13000.00000" pt_clust_8="13000.00000" pt_clust_9="54.22775"></scales>
<clustering>
<clus scale="   54.228">  2  9  1 -1</clus>
<clus scale="   80.990">  5  6 -1 -1</clus>
<clus scale="   91.638">  7  8 -1 -1</clus>
<clus scale="  140.063">  2  5  1 -1</clus>
<clus scale="  146.478">  1  5  2 -1</clus>
</clustering>
</event>
<event>
 9    1  0.2333971E-005  0.1355384E+03  0.7546771E-02  0.1228445E+00
          3   -1    0    0  502    0  0.00000000000E+00  0.00000000000E+00  0.26952618958E+02  0.26952618958E+02  0.00000000000E+00 0. -1.
         -4   -1    0    0    0  501 -0.00000000000E+00 -0.00000000000E+00 -0.19841239452E+04  0.19841239452E+04  0.00000000000E+00 0.  1.
        -24    2    1    2    0    0  0.35412525551E+02 -0.72928278926E+02 -0.73734890670E+03  0.74623439806E+03  0.81300589138E+02 0.  0.
         23    2    1    2    0    0 -0.40238383898E+01 -0.59966113723E+02 -0.15584012742E+03  0.19213321805E+03  0.94957369880E+02 0.  0.
         11    1    3    3    0    0  0.46839310865E+02 -0.46888494215E+02 -0.26977959538E+03  0.27780115554E+03  0.00000000000E+00 0. -1.
        -12    1    3    3    0    0 -0.11426785314E+02 -0.26039784711E+02 -0.46756931132E+03  0.46843324252E+03  0.00000000000E+00 0.  1.
        -11    1    4    4    0    0  0.94565190905E+01 -0.37151081270E+02 -0.16068441651E+03  0.16519415941E+03  0.00000000000E+00 0.  1.
         11    1    4    4    0    0 -0.13480357480E+02 -0.22815032454E+02  0.48442890955E+01  0.26939058642E+02  0.00000000000E+00 0. -1.
         21    1    1    2  502  501 -0.31388687161E+02  0.13289439265E+03 -0.10639822921E+04  0.10727089480E+04  0.00000000000E+00 0.  1.
<scales pt_clust_5="13000.00000" pt_clust_6="13000.00000" pt_clust_7="13000.00000" pt_clust_8="13000.00000" pt_clust_9="108.44750"></scales>
<clustering>
<clus scale="   81.301">  5  6 -1 -1</clus>
<clus scale="   94.957">  7  8 -1 -1</clus>
<clus scale="  112.379">  1  7  2 -1</clus>
<clus scale="  108.447">  1  9  2 -1</clus>
<clus scale="  112.379">  1  5  2 -1</clus>
</clustering>
</event>
<event>
 9    1  0.2333971E-005  0.1142718E+03  0.7546771E-02  0.1261838E+00
         -4   -1    0    0    0  501 -0.00000000000E+00  0.00000000000E+00  0.18103787351E+03  0.18103787351E+03  0.00000000000E+00 0.  1.
          3   -1    0    0  502    0  0.00000000000E+00 -0.00000000000E+00 -0.12239573489E+03  0.12239573489E+03  0.00000000000E+00 0. -1.
         23    2    1    2    0    0  0.44486787790E+02  0.60989226530E+02  0.10048927498E+03  0.15992703856E+03  0.98892887681E+02 0.  0.
        -24    2    1    2    0    0 -0.29724214499E+02 -0.10685530852E+02 -0.13909579411E+02  0.84102003874E+02  0.76693944735E+02 0.  0.
         13    1    4    4    0    0 -0.14437822633E+01 -0.38126955970E+02  0.80447449282E+01  0.38993168629E+02  0.00000000000E+00 0. -1.
        -14    1    4    4    0    0 -0.28280432236E+02  0.27441425118E+02 -0.21954324339E+02  0.45108835245E+02  0.00000000000E+00 0.  1.
        -11    1    3    3    0    0  0.71831651826E+02  0.56508122173E+02  0.55014340947E+02  0.10667488826E+03  0.00000000000E+00 0.  1.
         11    1    3    3    0    0 -0.27344864036E+02  0.44811043569E+01  0.45474934037E+02  0.53252150295E+02  0.00000000000E+00 0. -1.
         21    1    1    2  502  501 -0.14762573291E+02 -0.50303695678E+02 -0.27937556949E+02  0.59404565964E+02  0.00000000000E+00 0. -1.
<scales pt_clust_5="13000.00000" pt_clust_6="13000.00000" pt_clust_7="13000.00000" pt_clust_8="13000.00000" pt_clust_9="52.42514"></scales>
<clustering>
<clus scale="   52.425">  2  9  1 -1</clus>
<clus scale="   76.694">  5  6 -1 -1</clus>
<clus scale="   95.709">  2  5  1 -1</clus>
<clus scale="   98.893">  7  8 -1 -1</clus>
<clus scale="   52.425">  2  5  1 -1</clus>
</clustering>
</event>
<event>
 9    1  0.2333971E-005  0.1039484E+03  0.7546771E-02  0.1281654E+00
         -2   -1    0    0    0  501 -0.00000000000E+00  0.00000000000E+00  0.11199834644E+04  0.11199834644E+04  0.00000000000E+00 0.  1.
          1   -1    0    0  502    0  0.00000000000E+00 -0.00000000000E+00 -0.17293087646E+02  0.17293087646E+02  0.00000000000E+00 0. -1.
        -24    2    1    2    0    0  0.46632867121E+02  0.42954206691E+01  0.81047566931E+03  0.81533392853E+03  0.75534955623E+02 0.  0.
         23    2    1    2    0    0 -0.36580490473E+02 -0.21779702815E+02  0.17919881810E+03  0.20714130976E+03  0.94777729776E+02 0.  0.
         13    1    3    3    0    0  0.22903895396E+02  0.31061230996E+02  0.19286624238E+03  0.19668954203E+03  0.00000000000E+00 0. -1.
        -14    1    3    3    0    0  0.23728971725E+02 -0.26765810327E+02  0.61760942694E+03  0.61864438649E+03  0.00000000000E+00 0.  1.
        -11    1    4    4    0    0  0.23495200911E+02 -0.28436164563E+02  0.35267907584E+02  0.51033961499E+02  0.00000000000E+00 0.  1.
         11    1    4    4    0    0 -0.60075691383E+02  0.66564617481E+01  0.14393091052E+03  0.15610734826E+03  0.00000000000E+00 0. -1.
         21    1    1    2  502  501 -0.10052376648E+02  0.17484282146E+02  0.11301588938E+03  0.11480131380E+03  0.00000000000E+00 0. -1.
<scales pt_clust_5="13000.00000" pt_clust_6="13000.00000" pt_clust_7="13000.00000" pt_clust_8="13000.00000" pt_clust_9="20.16805"></scales>
<clustering>
<clus scale="   20.168">  1  9  2 -1</clus>
<clus scale="   75.535">  5  6 -1 -1</clus>
<clus scale="   86.764">  1  5  2 -1</clus>
<clus scale="   94.778">  7  8 -1 -1</clus>
<clus scale="  103.948">  2  5  1 -1</clus>
</clustering>
</event>
<event>
 9    1  0.2333971E-005  0.1010194E+03  0.7546771E-02  0.1282176E+00
          3   -1    0    0  502    0  0.00000000000E+00  0.00000000000E+00  0.18115100312E+03  0.18115100312E+03  0.00000000000E+00 0. -1.
         -4   -1    0    0    0  501 -0.00000000000E+00 -0.00000000000E+00 -0.18677237078E+03  0.18677237078E+03  0.00000000000E+00 0.  1.
         23    2    1    2    0    0  0.18177692005E+02  0.15714902214E+02 -0.11368691410E+03  0.14726494250E+03  0.90470228319E+02 0.  0.
        -24    2    1    2    0    0 -0.49566245387E+01 -0.47677081060E+02  0.14285589649E+03  0.17159983422E+03  0.82103737783E+02 0.  0.
         11    1    4    4    0    0  0.20577403146E+02 -0.55390716875E+02  0.12820616471E+03  0.14116792024E+03  0.00000000000E+00 0. -1.
        -12    1    4    4    0    0 -0.25534027684E+02  0.77136358148E+01  0.14649731781E+02  0.30431913981E+02  0.00000000000E+00 0.  1.
        -13    1    3    3    0    0  0.38804544339E+01 -0.37863483647E+02 -0.49498019085E+02  0.62440012923E+02  0.00000000000E+00 0. -1.
         13    1    3    3    0    0  0.14297237571E+02  0.53578385861E+02 -0.64188895018E+02  0.84824929574E+02  0.00000000000E+00 0.  1.
         21    1    1    2  502  501 -0.13221067466E+02  0.31962178846E+02 -0.34790350045E+02  0.49058597185E+02  0.00000000000E+00 0. -1.
<scales pt_clust_5="13000.00000" pt_clust_6="13000.00000" pt_clust_7="13000.00000" pt_clust_8="13000.00000" pt_clust_9="34.58869"></scales>
<clustering>
<clus scale="   34.589">  2  9  1 -1</clus>
<clus scale="   82.104">  5  6 -1 -1</clus>
<clus scale="   90.470">  7  8 -1 -1</clus>
<clus scale="   93.601">  1  5  2 -1</clus>
<clus scale="   93.601">  1  5  2 -1</clus>
</clustering>
</event>
<event>
 9    1  0.2333971E-005  0.1663796E+03  0.7546771E-02  0.1208584E+00
          1   -1    0    0  502    0  0.00000000000E+00  0.00000000000E+00  0.32594977305E+03  0.32594977305E+03  0.00000000000E+00 0. -1.
         -2   -1    0    0    0  501 -0.00000000000E+00 -0.00000000000E+00 -0.76182963874E+03  0.76182963874E+03  0.00000000000E+00 0.  1.
        -24    2    1    2    0    0 -0.10992022390E+03  0.86062646326E+02 -0.15501540770E+03  0.23110154585E+03  0.99443014598E+02 0.  0.
         23    2    1    2    0    0  0.16284646548E+02  0.73850602824E+01  0.27250909212E+03  0.28771180265E+03  0.90538098432E+02 0.  0.
         13    1    3    3    0    0 -0.80195057307E+02  0.95836258182E+02 -0.76350841997E+02  0.14644209324E+03  0.00000000000E+00 0. -1.
        -14    1    3    3    0    0 -0.29725166589E+02 -0.97736118567E+01 -0.78664565708E+02  0.84659452606E+02  0.00000000000E+00 0.  1.
        -11    1    4    4    0    0 -0.25267684643E+02  0.32973302137E+02  0.96467672602E+02  0.10503193038E+03  0.00000000000E+00 0. -1.
         11    1    4    4    0    0  0.41552331191E+02 -0.25588241855E+02  0.17604141952E+03  0.18267987228E+03  0.00000000000E+00 0.  1.
         21    1    1    2  502  501  0.93635577348E+02 -0.93447706608E+02 -0.55337355011E+03  0.56896606329E+03  0.00000000000E+00 0.  1.
<scales pt_clust_5="13000.00000" pt_clust_6="13000.00000" pt_clust_7="13000.00000" pt_clust_8="13000.00000" pt_clust_9="133.39143"></scales>
<clustering>
<clus scale="   90.538">  7  8 -1 -1</clus>
<clus scale="   92.287">  1  7  2 -1</clus>
<clus scale="   99.443">  5  6 -1 -1</clus>
<clus scale="  133.391">  2  9  1 -1</clus>
<clus scale="   92.287">  1  5  2 -1</clus>
</clustering>
</event>
<event>
 9    1  0.2333971E-005  0.1185422E+03  0.7546771E-02  0.1248851E+00
         -2   -1    0    0    0  501 -0.00000000000E+00  0.00000000000E+00  0.66187963347E+02  0.66187963347E+02  0.00000000000E+00 0.  1.
          1   -1    0    0  502    0  0.00000000000E+00 -0.00000000000E+00 -0.45011218661E+03  0.45011218661E+03  0.00000000000E+00 0. -1.
         23    2    1    2    0    0  0.45417754975E+02 -0.32720058020E+02 -0.14434117387E+02  0.10804722129E+03  0.91282438732E+02 0.  0.
        -24    2    1    2    0    0 -0.72342113966E+02  0.32835252418E+02 -0.36330549622E+03  0.38062714771E+03  0.81083948704E+02 0.  0.
         11    1    4    4    0    0 -0.87757469040E+02  0.23865441161E+02 -0.33538187793E+03  0.34749379375E+03  0.00000000000E+00 0. -1.
        -12    1    4    4    0    0  0.15415355075E+02  0.89698112568E+01 -0.27923618290E+02  0.33133353957E+02  0.00000000000E+00 0.  1.
        -11    1    3    3    0    0  0.38946315534E+02  0.26755862952E+02 -0.65205556414E+01  0.47699154520E+02  0.00000000000E+00 0. -1.
         11    1    3    3    0    0  0.64714394406E+01 -0.59475920972E+02 -0.79135617457E+01  0.60348066774E+02  0.00000000000E+00 0.  1.
         21    1    1    2  502  501  0.26924358991E+02 -0.11519439793E+00 -0.61846096625E+01  0.27625780957E+02  0.00000000000E+00 0.  1.
<scales pt_clust_5="13000.00000" pt_clust_6="13000.00000" pt_clust_7="13000.00000" pt_clust_8="13000.00000" pt_clust_9="26.92461"></scales>
<clustering>
<clus scale="   26.925">  1  9  2 -1</clus>
<clus scale="   81.084">  5  6 -1 -1</clus>
<clus scale="   91.282">  7  8 -1 -1</clus>
<clus scale="  110.880">  2  5  1 -1</clus>
<clus scale="  110.880">  2  5  1 -1</clus>
</clustering>
</event>
<event>
 9    1  0.2333971E-005  0.2038789E+03  0.7546771E-02  0.1147481E+00
         -2   -1    0    0    0  501 -0.00000000000E+00  0.00000000000E+00  0.60063143466E+03  0.60063143466E+03  0.00000000000E+00 0.  1.
          1   -1    0    0  502    0  0.00000000000E+00 -0.00000000000E+00 -0.19191314634E+03  0.19191314634E+03  0.00000000000E+00 0. -1.
        -24    2    1    2    0    0  0.15376539654E+03 -0.62369320785E+02  0.44593807385E+03  0.48252431757E+03  0.80219835368E+02 0.  0.
         23    2    1    2    0    0 -0.14694272976E+03  0.11301790596E+03 -0.99616332041E+02  0.22936571007E+03  0.91214047438E+02 0.  0.
         13    1    3    3    0    0  0.10294345146E+03 -0.19887456781E+01  0.21301930564E+03  0.23659783153E+03  0.00000000000E+00 0. -1.
        -14    1    3    3    0    0  0.50821945083E+02 -0.60380575107E+02  0.23291876821E+03  0.24592648604E+03  0.00000000000E+00 0.  1.
        -11    1    4    4    0    0 -0.58863599496E+02 -0.49780151589E+01 -0.23128883417E+02  0.63440123176E+02  0.00000000000E+00 0.  1.
         11    1    4    4    0    0 -0.88079130261E+02  0.11799592112E+03 -0.76487448624E+02  0.16592558689E+03  0.00000000000E+00 0. -1.
         21    1    1    2  502  501 -0.68226667837E+01 -0.50648585178E+02  0.62396546501E+02  0.80654553361E+02  0.00000000000E+00 0.  1.
<scales pt_clust_5="13000.00000" pt_clust_6="13000.00000" pt_clust_7="13000.00000" pt_clust_8="13000.00000" pt_clust_9="51.10605"></scales>
<clustering>
<clus scale="   51.106">  1  9  2 -1</clus>
<clus scale="   80.220">  5  6 -1 -1</clus>
<clus scale="   91.214">  7  8 -1 -1</clus>
<clus scale="  199.203">  1  5  2 -1</clus>
<clus scale="  203.879">  2  5  1 -1</clus>
</clustering>
</event>
<event>
 9    1  0.2333971E-005  0.1049182E+03  0.7546771E-02  0.1279760E+00
          1   -1    0    0  502    0  0.00000000000E+00  0.00000000000E+00  0.29368716210E+03  0.29368716210E+03  0.00000000000E+00 0. -1.
         -2   -1    0    0    0  501 -0.00000000000E+00 -0.00000000000E+00 -0.61532103820E+02  0.61532103820E+02  0.00000000000E+00 0.  1.
        -24    2    1    2    0    0 -0.31335783704E+02  0.83798718886E+01  0.75137882030E+02  0.11117457820E+03  0.75245810041E+02 0.  0.
         23    2    1    2    0    0  0.52952950148E+02 -0.14788953329E+02  0.18066026488E+03  0.21137399978E+03  0.94963721529E+02 0.  0.
         13    1    3    3    0    0  0.33753350769E+01 -0.28495822261E+02  0.14436748636E+02  0.32122024912E+02  0.00000000000E+00 0. -1.
        -14    1    3    3    0    0 -0.34711118781E+02  0.36875694150E+02  0.60701133393E+02  0.79052553288E+02  0.00000000000E+00 0.  1.
        -13    1    4    4    0    0  0.23646033587E+02  0.32614124951E+02  0.28549106474E+02  0.49374766138E+02  0.00000000000E+00 0.  1.
         13    1    4    4    0    0  0.29306916561E+02 -0.47403078281E+02  0.15211115841E+03  0.16199923365E+03  0.00000000000E+00 0. -1.
         21    1    1    2  502  501 -0.21617166444E+02  0.64090814408E+01 -0.23643088635E+02  0.32670687935E+02  0.00000000000E+00 0.  1.
<scales pt_clust_5="13000.00000" pt_clust_6="13000.00000" pt_clust_7="13000.00000" pt_clust_8="13000.00000" pt_clust_9="22.54724"></scales>
<clustering>
<clus scale="   22.547">  2  9  1 -1</clus>
<clus scale="   75.246">  5  6 -1 -1</clus>
<clus scale="   87.474">  2  5  1 -1</clus>
<clus scale="   94.964">  7  8 -1 -1</clus>
<clus scale="  104.918">  1  5  2 -1</clus>
</clustering>
</event>
<event>
 9    1  0.2333971E-005  0.9613011E+02  0.7546771E-02  0.1293895E+00
          3   -1    0    0  502    0  0.00000000000E+00  0.00000000000E+00  0.16278753022E+03  0.16278753022E+03  0.00000000000E+00 0. -1.
         -4   -1    0    0    0  501 -0.00000000000E+00 -0.00000000000E+00 -0.26321652544E+03  0.26321652544E+03  0.00000000000E+00 0.  1.
        -24    2    1    2    0    0  0.42063963232E+02 -0.15869963638E+02 -0.22040371766E+03  0.23996520170E+03  0.83571924240E+02 0.  0.
         23    2    1    2    0    0 -0.16493941589E+02  0.16854063104E+02  0.12737171706E+03  0.15940222526E+03  0.92894593811E+02 0.  0.
         11    1    3    3    0    0 -0.82361251734E+01 -0.33264691753E+02 -0.13543867994E+03  0.13970686991E+03  0.00000000000E+00 0. -1.
        -12    1    3    3    0    0  0.50300088405E+02  0.17394728114E+02 -0.84965037720E+02  0.10025833180E+03  0.00000000000E+00 0.  1.
        -11    1    4    4    0    0 -0.18196636494E+02 -0.35920576717E+02  0.36729592001E+02  0.54502003082E+02  0.00000000000E+00 0. -1.
         11    1    4    4    0    0  0.17026949049E+01  0.52774639822E+02  0.90642125059E+02  0.10490022218E+03  0.00000000000E+00 0.  1.
         21    1    1    2  502  501 -0.25570021643E+02 -0.98409946645E+00 -0.73969946187E+01  0.26636628690E+02  0.00000000000E+00 0.  1.
<scales pt_clust_5="13000.00000" pt_clust_6="13000.00000" pt_clust_7="13000.00000" pt_clust_8="13000.00000" pt_clust_9="25.58895"></scales>
<clustering>
<clus scale="   25.589">  2  9  1 -1</clus>
<clus scale="   83.572">  5  6 -1 -1</clus>
<clus scale="   87.154">  2  5  1 -1</clus>
<clus scale="   92.895">  7  8 -1 -1</clus>
<clus scale="   96.130">  1  5  2 -1</clus>
</clustering>
</event>
<event>
 9    1  0.2333971E-005  0.9533205E+02  0.7546771E-02  0.1303148E+00
         -2   -1    0    0    0  501 -0.00000000000E+00  0.00000000000E+00  0.78762860412E+02  0.78762860412E+02  0.00000000000E+00 0.  1.
          1   -1    0    0  502    0  0.00000000000E+00 -0.00000000000E+00 -0.33446668177E+03  0.33446668177E+03  0.00000000000E+00 0. -1.
        -24    2    1    2    0    0  0.35243637291E+02  0.97080637478E+01  0.34111167812E+02  0.86517618215E+02  0.70607124434E+02 0.  0.
         23    2    1    2    0    0 -0.15893743100E+02 -0.20174708547E+02 -0.28946083851E+03  0.30470977677E+03  0.91656102350E+02 0.  0.
         13    1    3    3    0    0  0.11672369466E+02 -0.28919657318E+02  0.24356348667E+01  0.31281353959E+02  0.00000000000E+00 0. -1.
        -14    1    3    3    0    0  0.23571267825E+02  0.38627721065E+02  0.31675532945E+02  0.55236264256E+02  0.00000000000E+00 0.  1.
        -13    1    4    4    0    0 -0.80907024809E+01  0.31012169501E+02 -0.18891988166E+03  0.19161924697E+03  0.00000000000E+00 0. -1.
         13    1    4    4    0    0 -0.78030406193E+01 -0.51186878047E+02 -0.10054095684E+03  0.11309052980E+03  0.00000000000E+00 0.  1.
         21    1    1    2  502  501 -0.19349894191E+02  0.10466644799E+02 -0.35415066735E+00  0.22002147196E+02  0.00000000000E+00 0.  1.
<scales pt_clust_5="13000.00000" pt_clust_6="13000.00000" pt_clust_7="13000.00000" pt_clust_8="13000.00000" pt_clust_9="21.99930"></scales>
<clustering>
<clus scale="   21.999">  1  9  2 -1</clus>
<clus scale="   70.607">  5  6 -1 -1</clus>
<clus scale="   75.317">  1  5  2 -1</clus>
<clus scale="   91.656">  7  8 -1 -1</clus>
<clus scale="   95.332">  2  5  1 -1</clus>
</clustering>
</event>
<event>
 9    1  0.2333971E-005  0.9820076E+02  0.7546771E-02  0.1289805E+00
          1   -1    0    0  502    0  0.00000000000E+00  0.00000000000E+00  0.54520476055E+03  0.54520476055E+03  0.00000000000E+00 0. -1.
         -2   -1    0    0    0  501 -0.00000000000E+00 -0.00000000000E+00 -0.20791570448E+03  0.20791570448E+03  0.00000000000E+00 0.  1.
        -24    2    1    2    0    0 -0.47985400709E+02  0.15720495766E+02  0.22431551488E+03  0.24347990366E+03  0.80095446835E+02 0.  0.
         23    2    1    2    0    0  0.27172496406E+02 -0.23544755932E+01  0.30324815951E+03  0.31776493015E+03  0.90946228473E+02 0.  0.
         13    1    3    3    0    0 -0.17985465380E+02  0.42567281225E+02  0.69096838425E+02  0.83125347976E+02  0.00000000000E+00 0. -1.
        -14    1    3    3    0    0 -0.29999935329E+02 -0.26846785459E+02  0.15521867645E+03  0.16035455568E+03  0.00000000000E+00 0.  1.
        -13    1    4    4    0    0 -0.30582834834E+02  0.74276561580E+01  0.15884671917E+03  0.16193443134E+03  0.00000000000E+00 0. -1.
         13    1    4    4    0    0  0.57755331240E+02 -0.97821317512E+01  0.14440144033E+03  0.15583049881E+03  0.00000000000E+00 0.  1.
         21    1    1    2  502  501  0.20812904303E+02 -0.13366020173E+02 -0.19027461832E+03  0.19187563122E+03  0.00000000000E+00 0.  1.
<scales pt_clust_5="13000.00000" pt_clust_6="13000.00000" pt_clust_7="13000.00000" pt_clust_8="13000.00000" pt_clust_9="24.73515"></scales>
<clustering>
<clus scale="   24.735">  2  9  1 -1</clus>
<clus scale="   80.095">  5  6 -1 -1</clus>
<clus scale="   88.247">  2  5  1 -1</clus>
<clus scale="   90.946">  7  8 -1 -1</clus>
<clus scale="   98.201">  1  5  2 -1</clus>
</clustering>
</event>
<event>
 9    1  0.2333971E-005  0.9375737E+02  0.7546771E-02  0.1301181E+00
         -2   -1    0    0    0  501 -0.00000000000E+00  0.00000000000E+00  0.14686363883E+03  0.14686363883E+03  0.00000000000E+00 0.  1.
          1   -1    0    0  502    0  0.00000000000E+00 -0.00000000000E+00 -0.23076476616E+03  0.23076476616E+03  0.00000000000E+00 0. -1.
        -24    2    1    2    0    0 -0.41364556676E+01  0.10204612732E+02  0.30895949035E+02  0.84122175844E+02  0.77464420320E+02 0.  0.
         23    2    1    2    0    0 -0.30550623480E+02  0.15638540032E+02 -0.18648527241E+03  0.20977893696E+03  0.89735951766E+02 0.  0.
         13    1    3    3    0    0 -0.42193951358E+01  0.44081108171E+02  0.15570204061E+02  0.46940160283E+02  0.00000000000E+00 0. -1.
        -14    1    3    3    0    0  0.82939468221E-01 -0.33876495439E+02  0.15325744974E+02  0.37182015561E+02  0.00000000000E+00 0.  1.
        -11    1    4    4    0    0  0.27900291776E+02  0.22244436296E+02 -0.52824407926E+02  0.63746837569E+02  0.00000000000E+00 0.  1.
         11    1    4    4    0    0 -0.58450915256E+02 -0.66058962647E+01 -0.13366086448E+03  0.14603209939E+03  0.00000000000E+00 0. -1.
         21    1    1    2  502  501  0.34687079147E+02 -0.25843152763E+02  0.71688196044E+02  0.83727292185E+02  0.00000000000E+00 0.  1.
<scales pt_clust_5="13000.00000" pt_clust_6="13000.00000" pt_clust_7="13000.00000" pt_clust_8="13000.00000" pt_clust_9="43.25577"></scales>
<clustering>
<clus scale="   43.256">  1  9  2 -1</clus>
<clus scale="   77.464">  5  6 -1 -1</clus>
<clus scale="   82.089">  1  5  2 -1</clus>
<clus scale="   89.736">  7  8 -1 -1</clus>
<clus scale="   93.757">  2  5  1 -1</clus>
</clustering>
</event>
<event>
 9    1  0.2333971E-005  0.1514536E+03  0.7546771E-02  0.1200025E+00
          1   -1    0    0  502    0  0.00000000000E+00  0.00000000000E+00  0.65547534581E+03  0.65547534581E+03  0.00000000000E+00 0. -1.
         -2   -1    0    0    0  501 -0.00000000000E+00 -0.00000000000E+00 -0.99256620037E+02  0.99256620037E+02  0.00000000000E+00 0.  1.
         23    2    1    2    0    0 -0.50388914636E+02  0.11554445643E+03 -0.18142619946E+02  0.15518436892E+03  0.88676206330E+02 0.  0.
        -24    2    1    2    0    0  0.43862325997E+02 -0.86408167343E+02  0.53727668692E+03  0.55193676182E+03  0.81102871221E+02 0.  0.
         11    1    4    4    0    0  0.60925951807E+01 -0.87839385787E+02  0.39791866943E+03  0.40754404044E+03  0.00000000000E+00 0. -1.
        -12    1    4    4    0    0  0.37769730816E+02  0.14312184432E+01  0.13935801749E+03  0.14439272139E+03  0.00000000000E+00 0.  1.
        -11    1    3    3    0    0  0.80810914587E+01  0.79982905217E+02 -0.29853830072E+02  0.85754418755E+02  0.00000000000E+00 0.  1.
         11    1    3    3    0    0 -0.58470006095E+02  0.35561551212E+02  0.11711210126E+02  0.69429950165E+02  0.00000000000E+00 0. -1.
         21    1    1    2  502  501  0.65265886390E+01 -0.29136289086E+02  0.37084658802E+02  0.47610835105E+02  0.00000000000E+00 0.  1.
<scales pt_clust_5="13000.00000" pt_clust_6="13000.00000" pt_clust_7="13000.00000" pt_clust_8="13000.00000" pt_clust_9="29.85833"></scales>
<clustering>
<clus scale="   29.858">  1  9  2 -1</clus>
<clus scale="   81.103">  5  6 -1 -1</clus>
<clus scale="   88.676">  7  8 -1 -1</clus>
<clus scale="  147.148">  1  5  2 -1</clus>
<clus scale="   29.858">  1  5  2 -1</clus>
</clustering>
</event>
<event>
 9    1  0.2333971E-005  0.1288531E+03  0.7546771E-02  0.1231986E+00
          1   -1    0    0  502    0  0.00000000000E+00  0.00000000000E+00  0.41089859482E+03  0.41089859482E+03  0.00000000000E+00 0. -1.
         -2   -1    0    0    0  501 -0.00000000000E+00 -0.00000000000E+00 -0.31041216215E+03  0.31041216215E+03  0.00000000000E+00 0.  1.
         23    2    1    2    0    0  0.57779035155E+02 -0.59056052518E+02 -0.24491565581E+03  0.27392296703E+03  0.90686708840E+02 0.  0.
        -24    2    1    2    0    0 -0.92871715433E+02 -0.18615073546E+01  0.35579223182E+03  0.37632162086E+03  0.80007683145E+02 0.  0.
         11    1    4    4    0    0 -0.63283947479E+01  0.29551604049E+02  0.99859680405E+02  0.10433264903E+03  0.00000000000E+00 0. -1.
        -12    1    4    4    0    0 -0.86543320685E+02 -0.31413111404E+02  0.25593255142E+03  0.27198897183E+03  0.00000000000E+00 0.  1.
        -13    1    3    3    0    0  0.12755217363E+02 -0.68016690723E+02 -0.19078038852E+03  0.20294364349E+03  0.00000000000E+00 0.  1.
         13    1    3    3    0    0  0.45023817792E+02  0.89606382042E+01 -0.54135267288E+02  0.70979323539E+02  0.00000000000E+00 0. -1.
         21    1    1    2  502  501  0.35092680278E+02  0.60917559873E+02 -0.10390143335E+02  0.71066169085E+02  0.00000000000E+00 0.  1.
<scales pt_clust_5="13000.00000" pt_clust_6="13000.00000" pt_clust_7="13000.00000" pt_clust_8="13000.00000" pt_clust_9="70.30253"></scales>
<clustering>
<clus scale="   70.303">  2  9  1 -1</clus>
<clus scale="   80.008">  5  6 -1 -1</clus>
<clus scale="   90.687">  7  8 -1 -1</clus>
<clus scale="  121.574">  1  5  2 -1</clus>
<clus scale="  121.574">  1  5  2 -1</clus>
</clustering>
</event>
<event>
 9    1  0.2545854E-005  0.9721071E+02  0.7546771E-02  0.1286376E+00
          1   -1    0    0  502    0  0.00000000000E+00  0.00000000000E+00  0.19059232050E+03  0.19059232050E+03  0.00000000000E+00 0. -1.
         -2   -1    0    0    0  501 -0.00000000000E+00 -0.00000000000E+00 -0.27488805913E+03  0.27488805913E+03  0.00000000000E+00 0.  1.
         23    2    1    2    0    0 -0.27369843317E+02  0.12508159968E+02 -0.22646001487E+03  0.24501071911E+03  0.88546890165E+02 0.  0.
        -24    2    1    2    0    0  0.12556746640E+02 -0.39304228539E+02  0.15825645577E+03  0.18588042280E+03  0.88339863722E+02 0.  0.
         11    1    4    4    0    0  0.10673243444E+02 -0.25510925196E+02  0.16710977930E+03  0.16938241871E+03  0.00000000000E+00 0. -1.
        -12    1    4    4    0    0  0.18835031965E+01 -0.13793303344E+02 -0.88533235353E+01  0.16498004093E+02  0.00000000000E+00 0.  1.
        -13    1    3    3    0    0 -0.56124517462E+02  0.45190185338E+00 -0.18374747372E+03  0.19212834194E+03  0.00000000000E+00 0.  1.
         13    1    3    3    0    0  0.28754674145E+02  0.12056258115E+02 -0.42712541143E+02  0.52882377176E+02  0.00000000000E+00 0. -1.
         21    1    1    2  502  501  0.14813096676E+02  0.26796068571E+02 -0.16092179528E+02  0.34589237719E+02  0.00000000000E+00 0. -1.
<scales pt_clust_5="13000.00000" pt_clust_6="13000.00000" pt_clust_7="13000.00000" pt_clust_8="13000.00000" pt_clust_9="30.61792"></scales>
<clustering>
<clus scale="   30.618">  2  9  1 -1</clus>
<clus scale="   88.340">  5  6 -1 -1</clus>
<clus scale="   88.547">  7  8 -1 -1</clus>
<clus scale="   97.022">  1  5  2 -1</clus>
<clus scale="   97.022">  1  5  2 -1</clus>
</clustering>
</event>
<event>
 9    1  0.2333971E-005  0.1555765E+03  0.7546771E-02  0.1193862E+00
         -2   -1    0    0    0  501 -0.00000000000E+00  0.00000000000E+00  0.79296135899E+02  0.79296135899E+02  0.00000000000E+00 0.  1.
          1   -1    0    0  502    0  0.00000000000E+00 -0.00000000000E+00 -0.62540018403E+03  0.62540018403E+03  0.00000000000E+00 0. -1.
         23    2    1    2    0    0 -0.13965774306E+03 -0.11707315227E+03 -0.34840377772E+03  0.40379493131E+03  0.91949692988E+02 0.  0.
        -24    2    1    2    0    0  0.59831142390E+02  0.42130072790E+02 -0.10828566762E+03  0.15953759365E+03  0.91497264121E+02 0.  0.
         13    1    4    4    0    0  0.34137346876E+02  0.64241165561E+02 -0.10164392614E+03  0.12499509401E+03  0.00000000000E+00 0. -1.
        -14    1    4    4    0    0  0.25693795514E+02 -0.22111092770E+02 -0.66417414775E+01  0.34542499638E+02  0.00000000000E+00 0.  1.
        -13    1    3    3    0    0 -0.89421577738E+02 -0.19561378792E+02 -0.12519113697E+03  0.15508606282E+03  0.00000000000E+00 0. -1.
         13    1    3    3    0    0 -0.50236165324E+02 -0.97511773481E+02 -0.22321264075E+03  0.24870886849E+03  0.00000000000E+00 0.  1.
         21    1    1    2  502  501  0.79826600673E+02  0.74943079483E+02 -0.89414602790E+02  0.14136379497E+03  0.00000000000E+00 0. -1.
<scales pt_clust_5="13000.00000" pt_clust_6="13000.00000" pt_clust_7="13000.00000" pt_clust_8="13000.00000" pt_clust_9="109.49316"></scales>
<clustering>
<clus scale="   91.497">  5  6 -1 -1</clus>
<clus scale="   91.950">  7  8 -1 -1</clus>
<clus scale="  109.493">  1  9  2 -1</clus>
<clus scale="  155.310">  2  5  1 -1</clus>
<clus scale="  155.310">  2  5  1 -1</clus>
</clustering>
</event>
<event>
 9    1  0.2333971E-005  0.9583550E+02  0.7546771E-02  0.1295069E+00
          1   -1    0    0  502    0  0.00000000000E+00  0.00000000000E+00  0.57337938405E+03  0.57337938405E+03  0.00000000000E+00 0. -1.
         -2   -1    0    0    0  501 -0.00000000000E+00 -0.00000000000E+00 -0.37453035134E+02  0.37453035134E+02  0.00000000000E+00 0.  1.
        -24    2    1    2    0    0  0.21438991884E+02 -0.44656256924E+02  0.15314840010E+03  0.18078461304E+03  0.82309368883E+02 0.  0.
         23    2    1    2    0    0  0.40173227086E+01  0.16708915799E+02  0.38074231468E+03  0.39218989237E+03  0.92481753554E+02 0.  0.
         13    1    3    3    0    0 -0.21043974940E+02 -0.46761415920E+02  0.10275807787E+03  0.11484207185E+03  0.00000000000E+00 0. -1.
        -14    1    3    3    0    0  0.42482966824E+02  0.21051589966E+01  0.50390322229E+02  0.65942541192E+02  0.00000000000E+00 0.  1.
        -13    1    4    4    0    0 -0.36398079511E+02  0.29762841312E+02  0.25947188342E+03  0.26369737428E+03  0.00000000000E+00 0. -1.
         13    1    4    4    0    0  0.40415402220E+02 -0.13053925513E+02  0.12127043126E+03  0.12849251809E+03  0.00000000000E+00 0.  1.
         21    1    1    2  502  501 -0.25456314593E+02  0.27947341124E+02  0.20356341380E+01  0.37857913769E+02  0.00000000000E+00 0. -1.
<scales pt_clust_5="13000.00000" pt_clust_6="13000.00000" pt_clust_7="13000.00000" pt_clust_8="13000.00000" pt_clust_9="37.80315"></scales>
<clustering>
<clus scale="   37.803">  2  9  1 -1</clus>
<clus scale="   82.309">  5  6 -1 -1</clus>
<clus scale="   86.060">  2  5  1 -1</clus>
<clus scale="   92.482">  7  8 -1 -1</clus>
<clus scale="   95.836">  1  5  2 -1</clus>
</clustering>
</event>
<event>
 9    1  0.2333971E-005  0.1692834E+03  0.7546771E-02  0.1180040E+00
          1   -1    0    0  502    0  0.00000000000E+00  0.00000000000E+00  0.53847377155E+03  0.53847377155E+03  0.00000000000E+00 0. -1.
         -2   -1    0    0    0  501 -0.00000000000E+00 -0.00000000000E+00 -0.93535770977E+02  0.93535770977E+02  0.00000000000E+00 0.  1.
         23    2    1    2    0    0 -0.91889388502E+02  0.11944254116E+03  0.74595303956E+02  0.19143135317E+03  0.91494935626E+02 0.  0.
        -24    2    1    2    0    0  0.71747362382E+02 -0.12060638172E+03  0.38360578939E+03  0.41643351352E+03  0.81054834623E+02 0.  0.
         13    1    4    4    0    0  0.36390446277E+02 -0.21418889118E-01  0.84426425745E+02  0.91935229390E+02  0.00000000000E+00 0. -1.
        -14    1    4    4    0    0  0.35356916105E+02 -0.12058496283E+03  0.29917936364E+03  0.32449828413E+03  0.00000000000E+00 0.  1.
        -13    1    3    3    0    0 -0.30736891156E+02  0.13838232333E+02 -0.18030323238E+02  0.38227551689E+02  0.00000000000E+00 0.  1.
         13    1    3    3    0    0 -0.61152497346E+02  0.10560430883E+03  0.92625627194E+02  0.15320380148E+03  0.00000000000E+00 0. -1.
         21    1    1    2  502  501  0.20142026121E+02  0.11638405562E+01 -0.13263092771E+02  0.24144675830E+02  0.00000000000E+00 0.  1.
<scales pt_clust_5="13000.00000" pt_clust_6="13000.00000" pt_clust_7="13000.00000" pt_clust_8="13000.00000" pt_clust_9="20.17562"></scales>
<clustering>
<clus scale="   20.176">  2  9  1 -1</clus>
<clus scale="   81.055">  5  6 -1 -1</clus>
<clus scale="   91.495">  7  8 -1 -1</clus>
<clus scale="  163.876">  1  5  2 -1</clus>
<clus scale="  163.876">  1  5  2 -1</clus>
</clustering>
</event>
<event>
 9    1  0.2333971E-005  0.1049879E+03  0.7546771E-02  0.1273833E+00
         -2   -1    0    0    0  501 -0.00000000000E+00  0.00000000000E+00  0.29016086130E+03  0.29016086130E+03  0.00000000000E+00 0.  1.
          1   -1    0    0  502    0  0.00000000000E+00 -0.00000000000E+00 -0.68526739341E+02  0.68526739341E+02  0.00000000000E+00 0. -1.
         23    2    1    2    0    0 -0.27628742071E+02 -0.19648720102E+02  0.13783788981E+03  0.16919464097E+03  0.92076723845E+02 0.  0.
        -24    2    1    2    0    0  0.23230946608E+02  0.52480822958E+02  0.23491580579E+01  0.10156734645E+03  0.83764513150E+02 0.  0.
         11    1    4    4    0    0  0.45078228451E+02  0.54749634061E+02 -0.16282650340E+02  0.72764646719E+02  0.00000000000E+00 0. -1.
        -12    1    4    4    0    0 -0.21847281843E+02 -0.22688111035E+01  0.18631808398E+02  0.28802699733E+02  0.00000000000E+00 0.  1.
        -13    1    3    3    0    0 -0.16571316429E+01  0.33358196730E+02  0.24550877325E+02  0.41451911317E+02  0.00000000000E+00 0. -1.
         13    1    3    3    0    0 -0.25971610428E+02 -0.53006916832E+02  0.11328701249E+03  0.12774272965E+03  0.00000000000E+00 0.  1.
         21    1    1    2  502  501  0.43977954630E+01 -0.32832102856E+02  0.81447074094E+02  0.87925613227E+02  0.00000000000E+00 0.  1.
<scales pt_clust_5="13000.00000" pt_clust_6="13000.00000" pt_clust_7="13000.00000" pt_clust_8="13000.00000" pt_clust_9="33.12533"></scales>
<clustering>
<clus scale="   33.125">  1  9  2 -1</clus>
<clus scale="   83.765">  5  6 -1 -1</clus>
<clus scale="   92.077">  7  8 -1 -1</clus>
<clus scale="   97.779">  2  5  1 -1</clus>
<clus scale="   97.779">  2  5  1 -1</clus>
</clustering>
</event>
<event>
 9    1  0.2333971E-005  0.9787692E+02  0.7546771E-02  0.1289060E+00
         -2   -1    0    0    0  501 -0.00000000000E+00  0.00000000000E+00  0.78981457880E+02  0.78981457880E+02  0.00000000000E+00 0.  1.
          1   -1    0    0  502    0  0.00000000000E+00 -0.00000000000E+00 -0.28878473529E+03  0.28878473529E+03  0.00000000000E+00 0. -1.
        -24    2    1    2    0    0  0.21086110174E+02 -0.21317971721E+01  0.31457285080E+02  0.90480089426E+02  0.82145707110E+02 0.  0.
         23    2    1    2    0    0 -0.29754503017E+02  0.28599987504E+02 -0.22263332170E+03  0.24377968297E+03  0.90330770841E+02 0.  0.
         11    1    3    3    0    0 -0.20026726508E+02 -0.18556999440E+02  0.36869507080E+02  0.45878018213E+02  0.00000000000E+00 0. -1.
        -12    1    3    3    0    0  0.41112836682E+02  0.16425202268E+02 -0.54122220001E+01  0.44602071214E+02  0.00000000000E+00 0.  1.
        -13    1    4    4    0    0  0.19095668493E+02  0.40653032172E+02 -0.70973911528E+02  0.83991723983E+02  0.00000000000E+00 0.  1.
         13    1    4    4    0    0 -0.48850171510E+02 -0.12053044669E+02 -0.15165941017E+03  0.15978795899E+03  0.00000000000E+00 0. -1.
         21    1    1    2  502  501  0.86683928433E+01 -0.26468190331E+02 -0.18627240789E+02  0.33506420778E+02  0.00000000000E+00 0.  1.
<scales pt_clust_5="13000.00000" pt_clust_6="13000.00000" pt_clust_7="13000.00000" pt_clust_8="13000.00000" pt_clust_9="27.85150"></scales>
<clustering>
<clus scale="   27.852">  1  9  2 -1</clus>
<clus scale="   82.146">  5  6 -1 -1</clus>
<clus scale="   90.331">  7  8 -1 -1</clus>
<clus scale="   90.378">  1  5  2 -1</clus>
<clus scale="   97.877">  2  5  1 -1</clus>
</clustering>
</event>
<event>
 9    1  0.2333971E-005  0.1052625E+03  0.7546771E-02  0.1276653E+00
         -2   -1    0    0    0  501 -0.00000000000E+00  0.00000000000E+00  0.17220269098E+03  0.17220269098E+03  0.00000000000E+00 0.  1.
          1   -1    0    0  502    0  0.00000000000E+00 -0.00000000000E+00 -0.34509239018E+03  0.34509239018E+03  0.00000000000E+00 0. -1.
        -24    2    1    2    0    0 -0.49188521400E+02 -0.64356504050E+02 -0.39013880783E+02  0.11996410839E+03  0.79423133637E+02 0.  0.
         23    2    1    2    0    0 -0.13661326414E+02  0.41517281636E+02 -0.24579430056E+03  0.26695658842E+03  0.94555091858E+02 0.  0.
         11    1    3    3    0    0 -0.57677845510E+02 -0.60890568829E+02 -0.55869343580E+02  0.10077588396E+03  0.00000000000E+00 0. -1.
        -12    1    3    3    0    0  0.84893241099E+01 -0.34659352210E+01  0.16855462797E+02  0.19188224433E+02  0.00000000000E+00 0.  1.
        -13    1    4    4    0    0  0.37105838968E+02  0.22211054818E+02 -0.64146893470E+02  0.77362770009E+02  0.00000000000E+00 0.  1.
         13    1    4    4    0    0 -0.50767165382E+02  0.19306226818E+02 -0.18164740710E+03  0.18959381841E+03  0.00000000000E+00 0. -1.
         21    1    1    2  502  501  0.62849847814E+02  0.22839222414E+02  0.11191848214E+03  0.13037438435E+03  0.00000000000E+00 0.  1.
<scales pt_clust_5="13000.00000" pt_clust_6="13000.00000" pt_clust_7="13000.00000" pt_clust_8="13000.00000" pt_clust_9="66.87102"></scales>
<clustering>
<clus scale="   66.871">  1  9  2 -1</clus>
<clus scale="   79.423">  5  6 -1 -1</clus>
<clus scale="   91.911">  1  5  2 -1</clus>
<clus scale="   94.555">  7  8 -1 -1</clus>
<clus scale="  105.262">  2  5  1 -1</clus>
</clustering>
</event>
<event>
 9    1  0.2333971E-005  0.1269210E+03  0.7546771E-02  0.1234117E+00
         -2   -1    0    0    0  501 -0.00000000000E+00  0.00000000000E+00  0.14554079269E+03  0.14554079269E+03  0.00000000000E+00 0.  1.
          1   -1    0    0  502    0  0.00000000000E+00 -0.00000000000E+00 -0.36527027417E+03  0.36527027417E+03  0.00000000000E+00 0. -1.
        -24    2    1    2    0    0  0.70622074688E+02  0.45542426112E+02 -0.72994994920E+02  0.13950973698E+03  0.84101768235E+02 0.  0.
         23    2    1    2    0    0 -0.60681481191E+02 -0.67832637385E+02 -0.24131187111E+03  0.27362558782E+03  0.91411346744E+02 0.  0.
         11    1    3    3    0    0  0.54401826977E+02  0.49769075650E+02 -0.10102187985E+02  0.74421595465E+02  0.00000000000E+00 0. -1.
        -12    1    3    3    0    0  0.16220247712E+02 -0.42266495381E+01 -0.62892806934E+02  0.65088141518E+02  0.00000000000E+00 0.  1.
        -11    1    4    4    0    0 -0.15565926322E+02  0.20786452625E+02 -0.27520017542E+02  0.37838155881E+02  0.00000000000E+00 0.  1.
         11    1    4    4    0    0 -0.45115554869E+02 -0.88619090009E+02 -0.21379185357E+03  0.23578743194E+03  0.00000000000E+00 0. -1.
         21    1    1    2  502  501 -0.99405934974E+01  0.22290211273E+02  0.94577384555E+02  0.97675742060E+02  0.00000000000E+00 0. -1.
<scales pt_clust_5="13000.00000" pt_clust_6="13000.00000" pt_clust_7="13000.00000" pt_clust_8="13000.00000" pt_clust_9="24.40633"></scales>
<clustering>
<clus scale="   24.406">  1  9  2 -1</clus>
<clus scale="   84.102">  5  6 -1 -1</clus>
<clus scale="   91.411">  7  8 -1 -1</clus>
<clus scale="  121.762">  1  5  2 -1</clus>
<clus scale="  126.921">  2  5  1 -1</clus>
</clustering>
</event>
<event>
 9    1  0.2333971E-005  0.1044950E+03  0.7546771E-02  0.1274507E+00
          1   -1    0    0  502    0  0.00000000000E+00  0.00000000000E+00  0.28888178178E+03  0.28888178178E+03  0.00000000000E+00 0. -1.
         -2   -1    0    0    0  501 -0.00000000000E+00 -0.00000000000E+00 -0.27809531404E+03  0.27809531404E+03  0.00000000000E+00 0.  1.
        -24    2    1    2    0    0 -0.87419508164E+02  0.15719485766E+02 -0.23265646269E+03  0.26228597090E+03  0.82314204467E+02 0.  0.
         23    2    1    2    0    0  0.47698468913E+02 -0.19502290320E+02  0.24361169668E+03  0.26479000900E+03  0.90064459378E+02 0.  0.
         13    1    3    3    0    0 -0.18226512210E+02 -0.22690908818E+02 -0.12691330170E+03  0.13020779254E+03  0.00000000000E+00 0. -1.
        -14    1    3    3    0    0 -0.69192995953E+02  0.38410394584E+02 -0.10574316099E+03  0.13207817836E+03  0.00000000000E+00 0.  1.
        -13    1    4    4    0    0 -0.83062870987E+01  0.24624230570E+02  0.11335683744E+03  0.11629754826E+03  0.00000000000E+00 0.  1.
         13    1    4    4    0    0  0.56004756012E+02 -0.44126520890E+02  0.13025485925E+03  0.14849246075E+03  0.00000000000E+00 0. -1.
         21    1    1    2  502  501  0.39721039250E+02  0.37828045534E+01 -0.16876625365E+00  0.39901115918E+02  0.00000000000E+00 0.  1.
<scales pt_clust_5="13000.00000" pt_clust_6="13000.00000" pt_clust_7="13000.00000" pt_clust_8="13000.00000" pt_clust_9="39.90076"></scales>
<clustering>
<clus scale="   39.901">  2  9  1 -1</clus>
<clus scale="   82.314">  5  6 -1 -1</clus>
<clus scale="   90.064">  7  8 -1 -1</clus>
<clus scale="   97.894">  2  5  1 -1</clus>
<clus scale="  104.495">  1  5  2 -1</clus>
</clustering>
</event>
<event>
 9    1  0.2333971E-005  0.1105635E+03  0.7546771E-02  0.1265412E+00
          1   -1    0    0  502    0  0.00000000000E+00  0.00000000000E+00  0.21308754342E+03  0.21308754342E+03  0.00000000000E+00 0. -1.
         -2   -1    0    0    0  501 -0.00000000000E+00 -0.00000000000E+00 -0.21564679035E+03  0.21564679035E+03  0.00000000000E+00 0.  1.
        -24    2    1    2    0    0 -0.54904516794E+02 -0.20185861694E+02 -0.34282052524E+02  0.10433595151E+03  0.79301681417E+02 0.  0.
         23    2    1    2    0    0  0.44658051413E+02  0.38959690400E+02  0.15979580785E+03  0.19455177813E+03  0.93826942489E+02 0.  0.
         13    1    3    3    0    0  0.70736696286E+01  0.21361537956E+02 -0.70428773055E+00  0.22513287789E+02  0.00000000000E+00 0. -1.
        -14    1    3    3    0    0 -0.61978186423E+02 -0.41547399650E+02 -0.33577764794E+02  0.81822663721E+02  0.00000000000E+00 0.  1.
        -11    1    4    4    0    0  0.30540111836E+02 -0.27737244193E+02  0.76481669349E+02  0.86899360715E+02  0.00000000000E+00 0. -1.
         11    1    4    4    0    0  0.14117939577E+02  0.66696934593E+02  0.83314138501E+02  0.10765241742E+03  0.00000000000E+00 0.  1.
         21    1    1    2  502  501  0.10246465381E+02 -0.18773828706E+02 -0.12807300225E+03  0.12984660413E+03  0.00000000000E+00 0.  1.
<scales pt_clust_5="13000.00000" pt_clust_6="13000.00000" pt_clust_7="13000.00000" pt_clust_8="13000.00000" pt_clust_9="21.38800"></scales>
<clustering>
<clus scale="   21.388">  2  9  1 -1</clus>
<clus scale="   79.302">  5  6 -1 -1</clus>
<clus scale="   93.827">  7  8 -1 -1</clus>
<clus scale="   98.537">  2  5  1 -1</clus>
<clus scale="  110.563">  1  5  2 -1</clus>
</clustering>
</event>
<event>
 9    1  0.2333971E-005  0.1469278E+03  0.7546771E-02  0.1206500E+00
          1   -1    0    0  502    0  0.00000000000E+00  0.00000000000E+00  0.22556909976E+03  0.22556909976E+03  0.00000000000E+00 0. -1.
         -2   -1    0    0    0  501 -0.00000000000E+00 -0.00000000000E+00 -0.41754753884E+03  0.41754753884E+03  0.00000000000E+00 0.  1.
         23    2    1    2    0    0 -0.31292861976E+02 -0.94912745438E+02 -0.30533786765E+03  0.33377101214E+03  0.90466583143E+02 0.  0.
        -24    2    1    2    0    0  0.24252564250E+02  0.11445009486E+03  0.18617437581E+03  0.23362713231E+03  0.78953959104E+02 0.  0.
         11    1    4    4    0    0 -0.14245711580E+02  0.98352480155E+02  0.13343151741E+03  0.16637343685E+03  0.00000000000E+00 0. -1.
        -12    1    4    4    0    0  0.38498275830E+02  0.16097614705E+02  0.52742858393E+02  0.67253695456E+02  0.00000000000E+00 0.  1.
        -13    1    3    3    0    0 -0.49360011071E+02 -0.43554756668E+02 -0.23927476651E+03  0.24816494799E+03  0.00000000000E+00 0.  1.
         13    1    3    3    0    0  0.18067149095E+02 -0.51357988770E+02 -0.66063101135E+02  0.85606064146E+02  0.00000000000E+00 0. -1.
         21    1    1    2  502  501  0.70402977260E+01 -0.19537349422E+02 -0.72814947242E+02  0.75718494150E+02  0.00000000000E+00 0.  1.
<scales pt_clust_5="13000.00000" pt_clust_6="13000.00000" pt_clust_7="13000.00000" pt_clust_8="13000.00000" pt_clust_9="20.76713"></scales>
<clustering>
<clus scale="   20.767">  2  9  1 -1</clus>
<clus scale="   78.954">  5  6 -1 -1</clus>
<clus scale="   90.467">  7  8 -1 -1</clus>
<clus scale="  140.133">  1  5  2 -1</clus>
<clus scale="  140.133">  1  5  2 -1</clus>
</clustering>
</event>
<event>
 9    1  0.2333971E-005  0.3231230E+03  0.7546771E-02  0.1074602E+00
         -2   -1    0    0    0  501 -0.00000000000E+00  0.00000000000E+00  0.57522852160E+03  0.57522852160E+03  0.00000000000E+00 0.  1.
          1   -1    0    0  502    0  0.00000000000E+00 -0.00000000000E+00 -0.48394070236E+03  0.48394070236E+03  0.00000000000E+00 0. -1.
        -24    2    1    2    0    0  0.10259188406E+03  0.29655203685E+03  0.45130308403E+03  0.55544942726E+03  0.79883586249E+02 0.  0.
         23    2    1    2    0    0 -0.73235606566E+02 -0.26764459160E+03 -0.35828242572E+03  0.46248347593E+03  0.92344937293E+02 0.  0.
         13    1    3    3    0    0 -0.56455782423E+01  0.45200798987E+02  0.35875931698E+02  0.57983336037E+02  0.00000000000E+00 0. -1.
        -14    1    3    3    0    0  0.10823746230E+03  0.25135123786E+03  0.41542715233E+03  0.49746609122E+03  0.00000000000E+00 0.  1.
        -13    1    4    4    0    0 -0.47533538485E+02 -0.99473657425E+02 -0.79608812884E+02  0.13598532601E+03  0.00000000000E+00 0.  1.
         13    1    4    4    0    0 -0.25702068081E+02 -0.16817093417E+03 -0.27867361284E+03  0.32649814991E+03  0.00000000000E+00 0. -1.
         21    1    1    2  502  501 -0.29356277495E+02 -0.28907445253E+02 -0.17328390616E+01  0.41236320770E+02  0.00000000000E+00 0.  1.
<scales pt_clust_5="13000.00000" pt_clust_6="13000.00000" pt_clust_7="13000.00000" pt_clust_8="13000.00000" pt_clust_9="41.19990"></scales>
<clustering>
<clus scale="   41.200">  2  9  1 -1</clus>
<clus scale="   79.884">  5  6 -1 -1</clus>
<clus scale="   92.345">  7  8 -1 -1</clus>
<clus scale="  319.785">  1  5  2 -1</clus>
<clus scale="   41.200">  2  5  1 -1</clus>
</clustering>
</event>
<event>
 9    1  0.2333971E-005  0.1075738E+03  0.7546771E-02  0.1269140E+00
          1   -1    0    0  502    0  0.00000000000E+00  0.00000000000E+00  0.15432693652E+03  0.15432693652E+03  0.00000000000E+00 0. -1.
         -2   -1    0    0    0  501 -0.00000000000E+00 -0.00000000000E+00 -0.16518532065E+03  0.16518532065E+03  0.00000000000E+00 0.  1.
        -24    2    1    2    0    0 -0.67856968518E+02 -0.77959128970E+01 -0.33829527278E+02  0.11224268778E+03  0.82393201237E+02 0.  0.
         23    2    1    2    0    0  0.41170619151E+02 -0.41013993042E+02  0.74167832928E+02  0.13166752440E+03  0.91969027585E+02 0.  0.
         13    1    3    3    0    0 -0.30223010633E+02 -0.44748655232E+02 -0.13045179974E+02  0.55552220813E+02  0.00000000000E+00 0. -1.
        -14    1    3    3    0    0 -0.37633957885E+02  0.36952742335E+02 -0.20784347304E+02  0.56690466968E+02  0.00000000000E+00 0.  1.
        -11    1    4    4    0    0  0.30562632784E+02 -0.15211719411E+02 -0.15694921428E+02  0.37573946941E+02  0.00000000000E+00 0.  1.
         11    1    4    4    0    0  0.10607986367E+02 -0.25802273632E+02  0.89862754356E+02  0.94093577463E+02  0.00000000000E+00 0. -1.
         21    1    1    2  502  501  0.26686349366E+02  0.48809905939E+02 -0.51196689786E+02  0.75602044981E+02  0.00000000000E+00 0.  1.
<scales pt_clust_5="13000.00000" pt_clust_6="13000.00000" pt_clust_7="13000.00000" pt_clust_8="13000.00000" pt_clust_9="55.62884"></scales>
<clustering>
<clus scale="   55.629">  2  9  1 -1</clus>
<clus scale="   82.393">  5  6 -1 -1</clus>
<clus scale="   91.969">  7  8 -1 -1</clus>
<clus scale="   99.511">  2  5  1 -1</clus>
<clus scale="  107.574">  1  5  2 -1</clus>
</clustering>
</event>
<event>
 9    1  0.2333971E-005  0.9402650E+02  0.7546771E-02  0.1300337E+00
          1   -1    0    0  502    0  0.00000000000E+00  0.00000000000E+00  0.10448150681E+03  0.10448150681E+03  0.00000000000E+00 0. -1.
         -2   -1    0    0    0  501 -0.00000000000E+00 -0.00000000000E+00 -0.27505042776E+03  0.27505042776E+03  0.00000000000E+00 0.  1.
        -24    2    1    2    0    0 -0.10350120211E+02  0.12650287062E+02 -0.17953518321E+03  0.19728243970E+03  0.80126925890E+02 0.  0.
         23    2    1    2    0    0 -0.22758499986E+02 -0.66905570118E+01  0.66351181374E+02  0.11573086549E+03  0.91806541614E+02 0.  0.
         11    1    3    3    0    0 -0.22822432423E+02 -0.26234741405E+02 -0.12109273812E+03  0.12598641317E+03  0.00000000000E+00 0. -1.
        -12    1    3    3    0    0  0.12472312213E+02  0.38885028467E+02 -0.58442445096E+02  0.71296026535E+02  0.00000000000E+00 0.  1.
        -11    1    4    4    0    0  0.24473372334E+02  0.17885517479E+02 -0.43915202493E+00  0.30315516545E+02  0.00000000000E+00 0.  1.
         11    1    4    4    0    0 -0.47231872320E+02 -0.24576074491E+02  0.66790333399E+02  0.85415348947E+02  0.00000000000E+00 0. -1.
         21    1    1    2  502  501  0.33108620196E+02 -0.59597300504E+01 -0.57384919105E+02  0.66518629378E+02  0.00000000000E+00 0. -1.
<scales pt_clust_5="13000.00000" pt_clust_6="13000.00000" pt_clust_7="13000.00000" pt_clust_8="13000.00000" pt_clust_9="33.64074"></scales>
<clustering>
<clus scale="   33.641">  2  9  1 -1</clus>
<clus scale="   80.127">  5  6 -1 -1</clus>
<clus scale="   82.661">  2  5  1 -1</clus>
<clus scale="   91.807">  7  8 -1 -1</clus>
<clus scale="   94.026">  1  5  2 -1</clus>
</clustering>
</event>
<event>
 9    1  0.2333971E-005  0.8972914E+02  0.7546771E-02  0.1305883E+00
          1   -1    0    0  502    0  0.00000000000E+00  0.00000000000E+00  0.30938511456E+03  0.30938511456E+03  0.00000000000E+00 0. -1.
         -2   -1    0    0    0  501 -0.00000000000E+00 -0.00000000000E+00 -0.13584386888E+03  0.13584386888E+03  0.00000000000E+00 0.  1.
        -24    2    1    2    0    0  0.41129461485E+01 -0.20617337264E+02 -0.72962602072E+02  0.11459031540E+03  0.85821956168E+02 0.  0.
         23    2    1    2    0    0 -0.25883867421E+01 -0.46963288490E+01  0.27687389439E+03  0.29107295426E+03  0.89641263132E+02 0.  0.
         11    1    3    3    0    0 -0.14419082203E+02 -0.49271713238E+02 -0.29084613247E+02  0.59004460719E+02  0.00000000000E+00 0. -1.
        -12    1    3    3    0    0  0.18532028352E+02  0.28654375974E+02 -0.43877988825E+02  0.55585854681E+02  0.00000000000E+00 0.  1.
        -11    1    4    4    0    0  0.26979320094E+02  0.29686570137E+02  0.17537537471E+03  0.17990469203E+03  0.00000000000E+00 0.  1.
         11    1    4    4    0    0 -0.29567706836E+02 -0.34382898986E+02  0.10149851968E+03  0.11116826223E+03  0.00000000000E+00 0. -1.
         21    1    1    2  502  501 -0.15245594064E+01  0.25313666113E+02 -0.30370046648E+02  0.39565713780E+02  0.00000000000E+00 0. -1.
<scales pt_clust_5="13000.00000" pt_clust_6="13000.00000" pt_clust_7="13000.00000" pt_clust_8="13000.00000" pt_clust_9="25.35953"></scales>
<clustering>
<clus scale="   25.360">  2  9  1 -1</clus>
<clus scale="   85.822">  5  6 -1 -1</clus>
<clus scale="   85.914">  2  5  1 -1</clus>
<clus scale="   89.641">  7  8 -1 -1</clus>
<clus scale="   89.729">  1  5  2 -1</clus>
</clustering>
</event>
<event>
 9    1  0.2333971E-005  0.1037452E+03  0.7546771E-02  0.1278737E+00
         -2   -1    0    0    0  501 -0.00000000000E+00  0.00000000000E+00  0.44796883525E+02  0.44796883525E+02  0.00000000000E+00 0.  1.
          1   -1    0    0  502    0  0.00000000000E+00 -0.00000000000E+00 -0.41444513888E+03  0.41444513888E+03  0.00000000000E+00 0. -1.
         23    2    1    2    0    0  0.10811890114E+02 -0.37486815389E+02 -0.91007628280E+02  0.13456358750E+03  0.91119769420E+02 0.  0.
        -24    2    1    2    0    0 -0.42417004951E+02  0.35710223784E+02 -0.27696878914E+03  0.29297930868E+03  0.77786520460E+02 0.  0.
         13    1    4    4    0    0 -0.24942767588E+01  0.44862857818E+02 -0.20772265399E+03  0.21252670046E+03  0.00000000000E+00 0. -1.
        -14    1    4    4    0    0 -0.39922728193E+02 -0.91526340335E+01 -0.69246135149E+02  0.80452608218E+02  0.00000000000E+00 0.  1.
        -13    1    3    3    0    0  0.12847149901E+02  0.18418026878E+02 -0.72094828139E+02  0.75511172809E+02  0.00000000000E+00 0. -1.
         13    1    3    3    0    0 -0.20352597864E+01 -0.55904842267E+02 -0.18912800141E+02  0.59052414688E+02  0.00000000000E+00 0.  1.
         21    1    1    2  502  501  0.31605114837E+02  0.17765916043E+01 -0.16718379375E+01  0.31699126229E+02  0.00000000000E+00 0.  1.
<scales pt_clust_5="13000.00000" pt_clust_6="13000.00000" pt_clust_7="13000.00000" pt_clust_8="13000.00000" pt_clust_9="31.65501"></scales>
<clustering>
<clus scale="   31.655">  1  9  2 -1</clus>
<clus scale="   77.787">  5  6 -1 -1</clus>
<clus scale="   91.120">  7  8 -1 -1</clus>
<clus scale="   92.255">  2  5  1 -1</clus>
<clus scale="   92.255">  2  5  1 -1</clus>
</clustering>
</event>
<event>
 9    1  0.2333971E-005  0.1172661E+03  0.7546771E-02  0.1248606E+00
         -2   -1    0    0    0  501 -0.00000000000E+00  0.00000000000E+00  0.23757800548E+03  0.23757800548E+03  0.00000000000E+00 0.  1.
          1   -1    0    0  502    0  0.00000000000E+00 -0.00000000000E+00 -0.11355803092E+03  0.11355803092E+03  0.00000000000E+00 0. -1.
         23    2    1    2    0    0  0.26116299071E+02  0.60220076747E+02  0.13846885588E+03  0.17874512853E+03  0.92019988063E+02 0.  0.
        -24    2    1    2    0    0  0.11901809365E+02 -0.71436095937E+02 -0.39381267393E+02  0.12556357045E+03  0.94713025149E+02 0.  0.
         11    1    4    4    0    0 -0.19465728451E+02 -0.75521075266E+02 -0.49476305813E+02  0.92359364606E+02  0.00000000000E+00 0. -1.
        -12    1    4    4    0    0  0.31367537816E+02  0.40849793298E+01  0.10095038421E+02  0.33204205840E+02  0.00000000000E+00 0.  1.
        -11    1    3    3    0    0  0.53551460886E+02  0.13404982565E+02  0.92065278879E+02  0.10734741774E+03  0.00000000000E+00 0.  1.
         11    1    3    3    0    0 -0.27435161815E+02  0.46815094182E+02  0.46403577001E+02  0.71397710787E+02  0.00000000000E+00 0. -1.
         21    1    1    2  502  501 -0.38018108436E+02  0.11216019190E+02  0.24932386072E+02  0.46827337429E+02  0.00000000000E+00 0. -1.
<scales pt_clust_5="13000.00000" pt_clust_6="13000.00000" pt_clust_7="13000.00000" pt_clust_8="13000.00000" pt_clust_9="39.63806"></scales>
<clustering>
<clus scale="   39.638">  1  9  2 -1</clus>
<clus scale="   92.020">  7  8 -1 -1</clus>
<clus scale="   94.713">  5  6 -1 -1</clus>
<clus scale="  115.102">  1  7  2 -1</clus>
<clus scale="  117.266">  2  5  1 -1</clus>
</clustering>
</event>
<event>
 9    1  0.2333971E-005  0.2858050E+03  0.7546771E-02  0.1119600E+00
          1   -1    0    0  502    0  0.00000000000E+00  0.00000000000E+00  0.35587642772E+03  0.35587642772E+03  0.00000000000E+00 0. -1.
         -2   -1    0    0    0  501 -0.00000000000E+00 -0.00000000000E+00 -0.50706173983E+03  0.50706173983E+03  0.00000000000E+00 0.  1.
         23    2    1    2    0    0  0.12663648555E+02  0.10430830136E+03 -0.11456557410E+03  0.18307767167E+03  0.96703533389E+02 0.  0.
        -24    2    1    2    0    0 -0.16055196191E+03 -0.24831323545E+03  0.19979019536E+03  0.36601653646E+03  0.81336261450E+02 0.  0.
         11    1    4    4    0    0 -0.15995102915E+03 -0.25247077006E+03  0.18700127980E+03  0.35255538587E+03  0.00000000000E+00 0. -1.
        -12    1    4    4    0    0 -0.60093276852E+00  0.41575346059E+01  0.12788915551E+02  0.13461150588E+02  0.00000000000E+00 0.  1.
        -13    1    3    3    0    0 -0.37365722324E+02  0.24813782953E+02 -0.58404303143E+02  0.73640910199E+02  0.00000000000E+00 0. -1.
         13    1    3    3    0    0  0.50029370879E+02  0.79494518402E+02 -0.56161270959E+02  0.10943676148E+03  0.00000000000E+00 0.  1.
         21    1    1    2  502  501  0.14788831336E+03  0.14400493410E+03 -0.23640993336E+03  0.31384395942E+03  0.00000000000E+00 0.  1.
<scales pt_clust_5="13000.00000" pt_clust_6="13000.00000" pt_clust_7="13000.00000" pt_clust_8="13000.00000" pt_clust_9="273.98708"></scales>
<clustering>
<clus scale="   81.336">  5  6 -1 -1</clus>
<clus scale="   96.704">  7  8 -1 -1</clus>
<clus scale="  142.801">  2  7  1 -1</clus>
<clus scale="  273.987">  2  9  1 -1</clus>
<clus scale="  285.805">  1  5  2 -1</clus>
</clustering>
</event>
<event>
 9    1  0.2333971E-005  0.1143497E+03  0.7546771E-02  0.1257705E+00
         -2   -1    0    0    0  501 -0.00000000000E+00  0.00000000000E+00  0.90872241502E+02  0.90872241502E+02  0.00000000000E+00 0.  1.
          1   -1    0    0  502    0  0.00000000000E+00 -0.00000000000E+00 -0.16168382650E+03  0.16168382650E+03  0.00000000000E+00 0. -1.
        -24    2    1    2    0    0 -0.56405526457E+02  0.15358040361E+02 -0.28493421561E+02  0.10404461586E+03  0.81215480047E+02 0.  0.
         23    2    1    2    0    0  0.61936391639E+02 -0.36737079704E+02 -0.43080387113E+02  0.12641541679E+03  0.94547386080E+02 0.  0.
         13    1    3    3    0    0 -0.25290313043E+02 -0.31015827425E+02 -0.26817420026E+02  0.48174220300E+02  0.00000000000E+00 0. -1.
        -14    1    3    3    0    0 -0.31115213414E+02  0.46373867786E+02 -0.16760015350E+01  0.55870395563E+02  0.00000000000E+00 0.  1.
        -13    1    4    4    0    0  0.19907219443E+02  0.13841216616E+02  0.22834391388E+02  0.33305946818E+02  0.00000000000E+00 0.  1.
         13    1    4    4    0    0  0.42029172196E+02 -0.50578296320E+02 -0.65914778501E+02  0.93109469975E+02  0.00000000000E+00 0. -1.
         21    1    1    2  502  501 -0.55308651817E+01  0.21379039344E+02  0.76222367996E+00  0.22096035342E+02  0.00000000000E+00 0.  1.
<scales pt_clust_5="13000.00000" pt_clust_6="13000.00000" pt_clust_7="13000.00000" pt_clust_8="13000.00000" pt_clust_9="22.08288"></scales>
<clustering>
<clus scale="   22.083">  1  9  2 -1</clus>
<clus scale="   81.215">  5  6 -1 -1</clus>
<clus scale="   94.547">  7  8 -1 -1</clus>
<clus scale="  103.598">  1  5  2 -1</clus>
<clus scale="  114.350">  2  5  1 -1</clus>
</clustering>
</event>
<event>
 9    1  0.2333971E-005  0.1516794E+03  0.7546771E-02  0.1203344E+00
         -2   -1    0    0    0  501 -0.00000000000E+00  0.00000000000E+00  0.44892293979E+02  0.44892293979E+02  0.00000000000E+00 0.  1.
          1   -1    0    0  502    0  0.00000000000E+00 -0.00000000000E+00 -0.77891322968E+03  0.77891322968E+03  0.00000000000E+00 0. -1.
         23    2    1    2    0    0  0.60243257940E+02  0.76210935004E+02 -0.12574284116E+03  0.19043557478E+03  0.10496232323E+03 0.  0.
        -24    2    1    2    0    0 -0.85394283521E+02 -0.74044921164E+02 -0.57497364717E+03  0.59157937675E+03  0.81219640807E+02 0.  0.
         13    1    4    4    0    0 -0.95744602920E+02 -0.67986158701E+02 -0.56103017355E+03  0.57318758046E+03  0.00000000000E+00 0. -1.
        -14    1    4    4    0    0  0.10350319399E+02 -0.60587624634E+01 -0.13943473621E+02  0.18391796293E+02  0.00000000000E+00 0.  1.
        -13    1    3    3    0    0  0.44755755566E+02  0.88440662452E+01  0.14816658336E+01  0.45645268076E+02  0.00000000000E+00 0.  1.
         13    1    3    3    0    0  0.15487502374E+02  0.67366868758E+02 -0.12722450699E+03  0.14479030670E+03  0.00000000000E+00 0. -1.
         21    1    1    2  502  501  0.25151025582E+02 -0.21660138392E+01 -0.33304447373E+02  0.41790572125E+02  0.00000000000E+00 0.  1.
<scales pt_clust_5="13000.00000" pt_clust_6="13000.00000" pt_clust_7="13000.00000" pt_clust_8="13000.00000" pt_clust_9="25.24412"></scales>
<clustering>
<clus scale="   25.244">  1  9  2 -1</clus>
<clus scale="   81.220">  5  6 -1 -1</clus>
<clus scale="  104.962">  7  8 -1 -1</clus>
<clus scale="  136.331">  2  5  1 -1</clus>
<clus scale="  136.331">  2  5  1 -1</clus>
</clustering>
</event>
<event>
 9    1  0.2333971E-005  0.1000531E+03  0.7546771E-02  0.1285464E+00
          1   -1    0    0  502    0  0.00000000000E+00  0.00000000000E+00  0.33191941186E+03  0.33191941186E+03  0.00000000000E+00 0. -1.
         -2   -1    0    0    0  501 -0.00000000000E+00 -0.00000000000E+00 -0.61370018963E+02  0.61370018963E+02  0.00000000000E+00 0.  1.
        -24    2    1    2    0    0  0.10713258420E+02 -0.44446184432E+02  0.15595170062E+02  0.93993023502E+02  0.80630279184E+02 0.  0.
         23    2    1    2    0    0  0.12561639072E+02  0.39385250257E+02  0.25657769356E+03  0.27542237194E+03  0.91194174264E+02 0.  0.
         13    1    3    3    0    0 -0.24027030068E+02 -0.30045747605E+02  0.34702824154E+02  0.51810531046E+02  0.00000000000E+00 0. -1.
        -14    1    3    3    0    0  0.34740288487E+02 -0.14400436827E+02 -0.19107654091E+02  0.42182492457E+02  0.00000000000E+00 0.  1.
        -13    1    4    4    0    0  0.33840118895E+02  0.49953136446E+02  0.23723028088E+03  0.24478291536E+03  0.00000000000E+00 0. -1.
         13    1    4    4    0    0 -0.21278479823E+02 -0.10567886188E+02  0.19347412682E+02  0.30639456581E+02  0.00000000000E+00 0.  1.
         21    1    1    2  502  501 -0.23274897492E+02  0.50609341746E+01 -0.16234707272E+01  0.23874035377E+02  0.00000000000E+00 0.  1.
<scales pt_clust_5="13000.00000" pt_clust_6="13000.00000" pt_clust_7="13000.00000" pt_clust_8="13000.00000" pt_clust_9="23.81877"></scales>
<clustering>
<clus scale="   23.819">  2  9  1 -1</clus>
<clus scale="   80.630">  5  6 -1 -1</clus>
<clus scale="   90.529">  2  5  1 -1</clus>
<clus scale="   91.194">  7  8 -1 -1</clus>
<clus scale="  100.053">  1  5  2 -1</clus>
</clustering>
</event>
<event>
 9    1  0.2333971E-005  0.1137021E+03  0.7546771E-02  0.1271584E+00
          1   -1    0    0  502    0  0.00000000000E+00  0.00000000000E+00  0.12307489346E+03  0.12307489346E+03  0.00000000000E+00 0. -1.
         -2   -1    0    0    0  501 -0.00000000000E+00 -0.00000000000E+00 -0.15482065042E+03  0.15482065042E+03  0.00000000000E+00 0.  1.
         23    2    1    2    0    0 -0.70527663731E+01  0.13242194962E+02 -0.97004792950E+02  0.14994602562E+03  0.11335247463E+03 0.  0.
        -24    2    1    2    0    0 -0.82231920949E+01  0.72866285873E+01  0.62865273303E+02  0.10224898123E+03  0.79888019944E+02 0.  0.
         11    1    4    4    0    0  0.31263806237E+02  0.16773679241E+02  0.46441189241E+02  0.58442843478E+02  0.00000000000E+00 0. -1.
        -12    1    4    4    0    0 -0.39486998332E+02 -0.94870506539E+01  0.16424084062E+02  0.43806137751E+02  0.00000000000E+00 0.  1.
        -13    1    3    3    0    0  0.47385758202E+02  0.27327574918E+02 -0.66041132964E+02  0.85753353721E+02  0.00000000000E+00 0. -1.
         13    1    3    3    0    0 -0.54438524575E+02 -0.14085379956E+02 -0.30963659986E+02  0.64192671904E+02  0.00000000000E+00 0.  1.
         21    1    1    2  502  501  0.15275958468E+02 -0.20528823550E+02  0.23937626895E+01  0.25700537023E+02  0.00000000000E+00 0.  1.
<scales pt_clust_5="13000.00000" pt_clust_6="13000.00000" pt_clust_7="13000.00000" pt_clust_8="13000.00000" pt_clust_9="25.58882"></scales>
<clustering>
<clus scale="   25.589">  1  9  2 -1</clus>
<clus scale="   79.888">  5  6 -1 -1</clus>
<clus scale="   80.383">  1  5  2 -1</clus>
<clus scale="  113.352">  7  8 -1 -1</clus>
<clus scale="   25.589">  1  5  2 -1</clus>
</clustering>
</event>
<event>
 9    1  0.2333971E-005  0.3087004E+03  0.7546771E-02  0.1080970E+00
         -2   -1    0    0    0  501 -0.00000000000E+00  0.00000000000E+00  0.11054179897E+03  0.11054179897E+03  0.00000000000E+00 0.  1.
          1   -1    0    0  502    0  0.00000000000E+00 -0.00000000000E+00 -0.74320389322E+03  0.74320389322E+03  0.00000000000E+00 0. -1.
        -24    2    1    2    0    0 -0.99741090217E+02  0.19086486579E+01 -0.23285019507E+03  0.26601500841E+03  0.81196325890E+02 0.  0.
         23    2    1    2    0    0 -0.13749873283E+03  0.63780354102E+02 -0.22349020093E+03  0.28493187269E+03  0.90909114312E+02 0.  0.
         13    1    3    3    0    0 -0.10576789242E+03  0.85284504284E+01 -0.23405203940E+03  0.25698237037E+03  0.00000000000E+00 0. -1.
        -14    1    3    3    0    0  0.60268022006E+01 -0.66198017705E+01  0.12018443272E+01  0.90326380440E+01  0.00000000000E+00 0.  1.
        -11    1    4    4    0    0 -0.43670780964E+02  0.69129230137E+02 -0.89004513989E+02  0.12086269515E+03  0.00000000000E+00 0. -1.
         11    1    4    4    0    0 -0.93827951868E+02 -0.53488760354E+01 -0.13448568694E+03  0.16406917754E+03  0.00000000000E+00 0.  1.
         21    1    1    2  502  501  0.23723982305E+03 -0.65689002759E+02 -0.17632169825E+03  0.30279881109E+03  0.00000000000E+00 0.  1.
<scales pt_clust_5="13000.00000" pt_clust_6="13000.00000" pt_clust_7="13000.00000" pt_clust_8="13000.00000" pt_clust_9="246.16616"></scales>
<clustering>
<clus scale="   81.196">  5  6 -1 -1</clus>
<clus scale="   90.909">  7  8 -1 -1</clus>
<clus scale="  107.177">  5  7 -1 -1</clus>
<clus scale="  246.166">  1  9  2 -1</clus>
<clus scale="  308.700">  2  5  1 -1</clus>
</clustering>
</event>
<event>
 9    1  0.2333971E-005  0.1904986E+03  0.7546771E-02  0.1159157E+00
         -4   -1    0    0    0  501 -0.00000000000E+00  0.00000000000E+00  0.81787829111E+03  0.81787829111E+03  0.00000000000E+00 0.  1.
          3   -1    0    0  502    0  0.00000000000E+00 -0.00000000000E+00 -0.61636761104E+02  0.61636761104E+02  0.00000000000E+00 0. -1.
         23    2    1    2    0    0  0.12750560295E+03  0.11546603301E+03  0.50390256582E+03  0.54013765788E+03  0.90778907588E+02 0.  0.
        -24    2    1    2    0    0 -0.13694525178E+03 -0.94082067837E+02  0.15974161675E+03  0.24387530175E+03  0.79701575932E+02 0.  0.
         11    1    4    4    0    0 -0.37219334605E+02 -0.64824074893E+02  0.38156905372E+02  0.83924900844E+02  0.00000000000E+00 0. -1.
        -12    1    4    4    0    0 -0.99725917171E+02 -0.29257992944E+02  0.12158471138E+03  0.15995040090E+03  0.00000000000E+00 0.  1.
        -13    1    3    3    0    0  0.36126249401E+02 -0.72528155388E+01  0.15217184542E+03  0.15656940878E+03  0.00000000000E+00 0.  1.
         13    1    3    3    0    0  0.91379353552E+02  0.12271884855E+03  0.35173072040E+03  0.38356824910E+03  0.00000000000E+00 0. -1.
         21    1    1    2  502  501  0.94396488229E+01 -0.21383965170E+02  0.92597347437E+02  0.95502092588E+02  0.00000000000E+00 0.  1.
<scales pt_clust_5="13000.00000" pt_clust_6="13000.00000" pt_clust_7="13000.00000" pt_clust_8="13000.00000" pt_clust_9="23.37479"></scales>
<clustering>
<clus scale="   23.375">  1  9  2 -1</clus>
<clus scale="   79.702">  5  6 -1 -1</clus>
<clus scale="   90.779">  7  8 -1 -1</clus>
<clus scale="  185.476">  2  5  1 -1</clus>
<clus scale="  185.476">  2  5  1 -1</clus>
</clustering>
</event>
<event>
 9    1  0.2333971E-005  0.1118937E+03  0.7546771E-02  0.1263799E+00
          1   -1    0    0  502    0  0.00000000000E+00  0.00000000000E+00  0.48112327429E+03  0.48112327429E+03  0.00000000000E+00 0. -1.
         -2   -1    0    0    0  501 -0.00000000000E+00 -0.00000000000E+00 -0.23186752679E+03  0.23186752679E+03  0.00000000000E+00 0.  1.
        -24    2    1    2    0    0 -0.57701336194E+02  0.12800328226E+02 -0.15725524112E+03  0.18366376754E+03  0.74228539292E+02 0.  0.
         23    2    1    2    0    0  0.60945281733E+02  0.21703987443E+02  0.45561249290E+03  0.46922687794E+03  0.91682762039E+02 0.  0.
         11    1    3    3    0    0 -0.27935513618E+01  0.33895798479E+02 -0.40172554208E+02  0.52636139632E+02  0.00000000000E+00 0. -1.
        -12    1    3    3    0    0 -0.54907784832E+02 -0.21095470253E+02 -0.11708268691E+03  0.13102762791E+03  0.00000000000E+00 0.  1.
        -13    1    4    4    0    0  0.46897174981E+02 -0.30818730735E+02  0.19033786640E+03  0.19843800687E+03  0.00000000000E+00 0.  1.
         13    1    4    4    0    0  0.14048106753E+02  0.52522718178E+02  0.26527462650E+03  0.27078887107E+03  0.00000000000E+00 0. -1.
         21    1    1    2  502  501 -0.32439455390E+01 -0.34504315669E+02 -0.49101504277E+02  0.60100155613E+02  0.00000000000E+00 0.  1.
<scales pt_clust_5="13000.00000" pt_clust_6="13000.00000" pt_clust_7="13000.00000" pt_clust_8="13000.00000" pt_clust_9="34.65647"></scales>
<clustering>
<clus scale="   34.656">  2  9  1 -1</clus>
<clus scale="   74.229">  5  6 -1 -1</clus>
<clus scale="   91.683">  7  8 -1 -1</clus>
<clus scale="   98.104">  2  5  1 -1</clus>
<clus scale="  111.894">  1  5  2 -1</clus>
</clustering>
</event>
<event>
 9    1  0.2333971E-005  0.1869086E+03  0.7546771E-02  0.1161988E+00
         -2   -1    0    0    0  501 -0.00000000000E+00  0.00000000000E+00  0.16454041273E+03  0.16454041273E+03  0.00000000000E+00 0.  1.
          1   -1    0    0  502    0  0.00000000000E+00 -0.00000000000E+00 -0.56494291111E+03  0.56494291111E+03  0.00000000000E+00 0. -1.
         23    2    1    2    0    0  0.17155011615E+03 -0.78350915545E+02  0.38703439912E+02  0.21288294841E+03  0.90845391426E+02 0.  0.
        -24    2    1    2    0    0 -0.14626098327E+03  0.64484691434E+02 -0.45063896544E+03  0.48553877328E+03  0.84391187518E+02 0.  0.
         11    1    4    4    0    0 -0.75676066051E+02  0.32047521218E+02 -0.34354451937E+03  0.35323752261E+03  0.00000000000E+00 0. -1.
        -12    1    4    4    0    0 -0.70584917223E+02  0.32437170216E+02 -0.10709444607E+03  0.13230125067E+03  0.00000000000E+00 0.  1.
        -11    1    3    3    0    0  0.12646174663E+03 -0.94376774802E+01  0.27635094705E+02  0.12978960504E+03  0.00000000000E+00 0.  1.
         11    1    3    3    0    0  0.45088369524E+02 -0.68913238064E+02  0.11068345207E+02  0.83093343370E+02  0.00000000000E+00 0. -1.
         21    1    1    2  502  501 -0.25289132877E+02  0.13866224110E+02  0.11533027151E+02  0.31061602148E+02  0.00000000000E+00 0. -1.
<scales pt_clust_5="13000.00000" pt_clust_6="13000.00000" pt_clust_7="13000.00000" pt_clust_8="13000.00000" pt_clust_9="28.84116"></scales>
<clustering>
<clus scale="   28.841">  1  9  2 -1</clus>
<clus scale="   84.391">  5  6 -1 -1</clus>
<clus scale="   90.845">  7  8 -1 -1</clus>
<clus scale="  183.858">  2  5  1 -1</clus>
<clus scale="  183.858">  2  5  1 -1</clus>
</clustering>
</event>
<event>
 9    1  0.2333971E-005  0.1838683E+03  0.7546771E-02  0.1199797E+00
          1   -1    0    0  502    0  0.00000000000E+00  0.00000000000E+00  0.25559315621E+03  0.25559315621E+03  0.00000000000E+00 0. -1.
         -2   -1    0    0    0  501 -0.00000000000E+00 -0.00000000000E+00 -0.49806992603E+03  0.49806992603E+03  0.00000000000E+00 0.  1.
         23    2    1    2    0    0  0.49411141204E+01  0.16219665907E+03 -0.22406564000E+03  0.28934485627E+03  0.84751778727E+02 0.  0.
        -24    2    1    2    0    0 -0.50968366579E+01  0.18080607373E+01  0.18523914220E+03  0.20283972655E+03  0.82469194485E+02 0.  0.
         11    1    4    4    0    0  0.27197159306E+02  0.19375744087E+02  0.14297926035E+03  0.14682702007E+03  0.00000000000E+00 0. -1.
        -12    1    4    4    0    0 -0.32293995964E+02 -0.17567683350E+02  0.42259881846E+02  0.56012706480E+02  0.00000000000E+00 0.  1.
        -13    1    3    3    0    0  0.31690811382E+02  0.32479766185E+02 -0.90524883194E+02  0.10126202257E+03  0.00000000000E+00 0.  1.
         13    1    3    3    0    0 -0.26749697262E+02  0.12971689289E+03 -0.13354075681E+03  0.18808283370E+03  0.00000000000E+00 0. -1.
         21    1    1    2  502  501  0.15572253747E+00 -0.16400471981E+03 -0.20365027201E+03  0.26147849942E+03  0.00000000000E+00 0.  1.
<scales pt_clust_5="13000.00000" pt_clust_6="13000.00000" pt_clust_7="13000.00000" pt_clust_8="13000.00000" pt_clust_9="163.17076"></scales>
<clustering>
<clus scale="   82.469">  5  6 -1 -1</clus>
<clus scale="   82.646">  1  5  2 -1</clus>
<clus scale="   84.752">  7  8 -1 -1</clus>
<clus scale="  163.171">  2  9  1 -1</clus>
<clus scale="   82.646">  1  5  2 -1</clus>
</clustering>
</event>
<event>
 9    1  0.2333971E-005  0.9289062E+02  0.7546771E-02  0.1302880E+00
          1   -1    0    0  502    0  0.00000000000E+00  0.00000000000E+00  0.60261654903E+02  0.60261654903E+02  0.00000000000E+00 0. -1.
         -2   -1    0    0    0  501 -0.00000000000E+00 -0.00000000000E+00 -0.53077692033E+03  0.53077692033E+03  0.00000000000E+00 0.  1.
        -24    2    1    2    0    0  0.44256390689E+02 -0.67934993853E+01 -0.24316526600E+03  0.25994271707E+03  0.80225244272E+02 0.  0.
         23    2    1    2    0    0  0.27893464408E+02 -0.24987448159E+00 -0.34083150719E+01  0.95713002590E+02  0.91494559724E+02 0.  0.
         11    1    3    3    0    0  0.25452201361E+02 -0.31358587538E+02 -0.49801763753E+02  0.64120131311E+02  0.00000000000E+00 0. -1.
        -12    1    3    3    0    0  0.18804189328E+02  0.24565088152E+02 -0.19336350225E+03  0.19582258576E+03  0.00000000000E+00 0.  1.
        -11    1    4    4    0    0 -0.33333936183E+02 -0.42218929040E+01 -0.67277930948E+01  0.34267169143E+02  0.00000000000E+00 0.  1.
         11    1    4    4    0    0  0.61227400592E+02  0.39720184224E+01  0.33194780229E+01  0.61445833446E+02  0.00000000000E+00 0. -1.
         21    1    1    2  502  501 -0.72149855098E+02  0.70433738669E+01 -0.22394168435E+03  0.23538285557E+03  0.00000000000E+00 0.  1.
<scales pt_clust_5="13000.00000" pt_clust_6="13000.00000" pt_clust_7="13000.00000" pt_clust_8="13000.00000" pt_clust_9="72.49283"></scales>
<clustering>
<clus scale="   72.493">  2  9  1 -1</clus>
<clus scale="   80.225">  5  6 -1 -1</clus>
<clus scale="   81.814">  2  5  1 -1</clus>
<clus scale="   91.495">  7  8 -1 -1</clus>
<clus scale="   92.891">  1  5  2 -1</clus>
</clustering>
</event>
<event>
 9    1  0.2333971E-005  0.1039609E+03  0.7546771E-02  0.1276398E+00
         -2   -1    0    0    0  501 -0.00000000000E+00  0.00000000000E+00  0.15284929081E+03  0.15284929081E+03  0.00000000000E+00 0.  1.
          1   -1    0    0  502    0  0.00000000000E+00 -0.00000000000E+00 -0.15476010737E+03  0.15476010737E+03  0.00000000000E+00 0. -1.
         23    2    1    2    0    0 -0.61401464276E+02 -0.70932858515E+01  0.80595274483E+02  0.13644274058E+03  0.91107456706E+02 0.  0.
        -24    2    1    2    0    0  0.34899118561E+02  0.35826173226E+02 -0.89875548653E+02  0.13138899992E+03  0.81755684140E+02 0.  0.
         13    1    4    4    0    0  0.13903425877E+02  0.53905264895E+02 -0.87331163595E+02  0.10356551052E+03  0.00000000000E+00 0. -1.
        -14    1    4    4    0    0  0.20995692684E+02 -0.18079091669E+02 -0.25443850581E+01  0.27823489396E+02  0.00000000000E+00 0.  1.
        -11    1    3    3    0    0 -0.71192867041E+01  0.38158968274E+02  0.35554320624E+02  0.52639346671E+02  0.00000000000E+00 0. -1.
         11    1    3    3    0    0 -0.54282177572E+02 -0.45252254126E+02  0.45040953859E+02  0.83803393905E+02  0.00000000000E+00 0.  1.
         21    1    1    2  502  501  0.26502345715E+02 -0.28732887374E+02  0.73694576115E+01  0.39777657683E+02  0.00000000000E+00 0.  1.
<scales pt_clust_5="13000.00000" pt_clust_6="13000.00000" pt_clust_7="13000.00000" pt_clust_8="13000.00000" pt_clust_9="39.08904"></scales>
<clustering>
<clus scale="   39.089">  1  9  2 -1</clus>
<clus scale="   81.756">  5  6 -1 -1</clus>
<clus scale="   91.107">  7  8 -1 -1</clus>
<clus scale="   95.871">  2  5  1 -1</clus>
<clus scale="   95.871">  2  5  1 -1</clus>
</clustering>
</event>
<event>
 9    1  0.2333971E-005  0.1285231E+03  0.7546771E-02  0.1231791E+00
         -2   -1    0    0    0  501 -0.00000000000E+00  0.00000000000E+00  0.37209513101E+03  0.37209513101E+03  0.00000000000E+00 0.  1.
          1   -1    0    0  502    0  0.00000000000E+00 -0.00000000000E+00 -0.72545308975E+02  0.72545308975E+02  0.00000000000E+00 0. -1.
        -24    2    1    2    0    0 -0.63478953928E+02  0.67557851811E+02  0.14505026764E+03  0.19141921520E+03  0.83714364776E+02 0.  0.
         23    2    1    2    0    0  0.17921873836E+02 -0.92336311308E+02  0.57751949739E+02  0.14345092549E+03  0.91628010881E+02 0.  0.
         11    1    3    3    0    0 -0.65565069665E+02  0.24528289381E+02  0.46986188439E+02  0.84309650955E+02  0.00000000000E+00 0. -1.
        -12    1    3    3    0    0  0.20861157365E+01  0.43029562431E+02  0.98064079206E+02  0.10710956424E+03  0.00000000000E+00 0.  1.
        -13    1    4    4    0    0  0.27032150164E+02 -0.28541419320E+02  0.67660529150E+02  0.78251498159E+02  0.00000000000E+00 0.  1.
         13    1    4    4    0    0 -0.91102763285E+01 -0.63794891989E+02 -0.99085794103E+01  0.65199427333E+02  0.00000000000E+00 0. -1.
         21    1    1    2  502  501  0.45557080093E+02  0.24778459497E+02  0.96747604652E+02  0.10977029930E+03  0.00000000000E+00 0.  1.
<scales pt_clust_5="13000.00000" pt_clust_6="13000.00000" pt_clust_7="13000.00000" pt_clust_8="13000.00000" pt_clust_9="51.85961"></scales>
<clustering>
<clus scale="   51.860">  1  9  2 -1</clus>
<clus scale="   83.714">  5  6 -1 -1</clus>
<clus scale="   91.628">  7  8 -1 -1</clus>
<clus scale="  123.007">  1  5  2 -1</clus>
<clus scale="  128.523">  2  5  1 -1</clus>
</clustering>
</event>
<event>
 9    1  0.2333971E-005  0.9267932E+02  0.7546771E-02  0.1300954E+00
          1   -1    0    0  502    0  0.00000000000E+00  0.00000000000E+00  0.12326899636E+03  0.12326899636E+03  0.00000000000E+00 0. -1.
         -2   -1    0    0    0  501 -0.00000000000E+00 -0.00000000000E+00 -0.29301811239E+03  0.29301811239E+03  0.00000000000E+00 0.  1.
         23    2    1    2    0    0 -0.26977879358E+02  0.22307113997E+00 -0.23619089462E+03  0.25406355144E+03  0.89634221879E+02 0.  0.
        -24    2    1    2    0    0 -0.14636476086E+02  0.49155837333E+01  0.82467263660E+02  0.11733506742E+03  0.82026087774E+02 0.  0.
         11    1    4    4    0    0 -0.29082755290E+02  0.31589068729E+02  0.18925359593E+02  0.46923822885E+02  0.00000000000E+00 0. -1.
        -12    1    4    4    0    0  0.14446279204E+02 -0.26673484996E+02  0.63541904067E+02  0.70411244536E+02  0.00000000000E+00 0.  1.
        -11    1    3    3    0    0 -0.59366686733E+02  0.53265377610E+01 -0.13196160962E+03  0.14479862538E+03  0.00000000000E+00 0.  1.
         11    1    3    3    0    0  0.32388807375E+02 -0.51034666210E+01 -0.10422928500E+03  0.10926492606E+03  0.00000000000E+00 0. -1.
         21    1    1    2  502  501  0.41614355444E+02 -0.51386548733E+01 -0.16025485066E+02  0.44888489889E+02  0.00000000000E+00 0. -1.
<scales pt_clust_5="13000.00000" pt_clust_6="13000.00000" pt_clust_7="13000.00000" pt_clust_8="13000.00000" pt_clust_9="41.93042"></scales>
<clustering>
<clus scale="   41.930">  1  9  2 -1</clus>
<clus scale="   82.026">  5  6 -1 -1</clus>
<clus scale="   85.343">  1  5  2 -1</clus>
<clus scale="   89.634">  7  8 -1 -1</clus>
<clus scale="   41.930">  1  5  2 -1</clus>
</clustering>
</event>
<event>
 9    1  0.2456365E-005  0.1171444E+03  0.7546771E-02  0.1251853E+00
          3   -1    0    0  502    0  0.00000000000E+00  0.00000000000E+00  0.65207910527E+03  0.65207910527E+03  0.00000000000E+00 0. -1.
         -4   -1    0    0    0  501 -0.00000000000E+00 -0.00000000000E+00 -0.64480462261E+02  0.64480462261E+02  0.00000000000E+00 0.  1.
        -24    2    1    2    0    0 -0.30917125022E+02  0.50330278551E+02 -0.27657509516E+01  0.98974322575E+02  0.79367887663E+02 0.  0.
         23    2    1    2    0    0  0.53982445854E+02 -0.52712008943E+02  0.58040853080E+03  0.59235033113E+03  0.91171222500E+02 0.  0.
         13    1    3    3    0    0 -0.80609319172E+01  0.20295093474E+02  0.37744558164E+02  0.43606434313E+02  0.00000000000E+00 0. -1.
        -14    1    3    3    0    0 -0.22856193105E+02  0.30035185077E+02 -0.40510309116E+02  0.55367888262E+02  0.00000000000E+00 0.  1.
        -11    1    4    4    0    0  0.23491289137E+02 -0.76078529289E+02  0.37109424280E+03  0.37954014323E+03  0.00000000000E+00 0. -1.
         11    1    4    4    0    0  0.30491156718E+02  0.23366520346E+02  0.20931428801E+03  0.21281018790E+03  0.00000000000E+00 0.  1.
         21    1    1    2  502  501 -0.23065320832E+02  0.23817303913E+01  0.99558631613E+01  0.25234913830E+02  0.00000000000E+00 0. -1.
<scales pt_clust_5="13000.00000" pt_clust_6="13000.00000" pt_clust_7="13000.00000" pt_clust_8="13000.00000" pt_clust_9="23.18796"></scales>
<clustering>
<clus scale="   23.188">  2  9  1 -1</clus>
<clus scale="   79.368">  5  6 -1 -1</clus>
<clus scale="   91.171">  7  8 -1 -1</clus>
<clus scale="  108.212">  2  5  1 -1</clus>
<clus scale="  117.144">  1  5  2 -1</clus>
</clustering>
</event>
<event>
 9    1  0.2333971E-005  0.1317314E+03  0.7546771E-02  0.1227047E+00
          3   -1    0    0  502    0  0.00000000000E+00  0.00000000000E+00  0.18915872252E+03  0.18915872252E+03  0.00000000000E+00 0. -1.
         -4   -1    0    0    0  501 -0.00000000000E+00 -0.00000000000E+00 -0.12989696970E+03  0.12989696970E+03  0.00000000000E+00 0.  1.
         23    2    1    2    0    0  0.11044913814E+03 -0.23232633492E+02  0.11820361771E+02  0.14464321497E+03  0.89683729355E+02 0.  0.
        -24    2    1    2    0    0 -0.88122871215E+02  0.59090368266E+01  0.69506340613E+02  0.13855956669E+03  0.81037429550E+02 0.  0.
         11    1    4    4    0    0 -0.43061043146E+02 -0.16846322557E+02  0.74656639652E+02  0.87816091149E+02  0.00000000000E+00 0. -1.
        -12    1    4    4    0    0 -0.45061828070E+02  0.22755359384E+02 -0.51502990390E+01  0.50743475540E+02  0.00000000000E+00 0.  1.
        -13    1    3    3    0    0  0.56610405709E+02 -0.25416715752E+02  0.49092493602E+02  0.79125346143E+02  0.00000000000E+00 0. -1.
         13    1    3    3    0    0  0.53838732428E+02  0.21840822596E+01 -0.37272131831E+02  0.65517868830E+02  0.00000000000E+00 0.  1.
         21    1    1    2  502  501 -0.22326266922E+02  0.17323596666E+02 -0.22064949562E+02  0.35852910555E+02  0.00000000000E+00 0. -1.
<scales pt_clust_5="13000.00000" pt_clust_6="13000.00000" pt_clust_7="13000.00000" pt_clust_8="13000.00000" pt_clust_9="28.25897"></scales>
<clustering>
<clus scale="   28.259">  2  9  1 -1</clus>
<clus scale="   81.037">  5  6 -1 -1</clus>
<clus scale="   89.684">  7  8 -1 -1</clus>
<clus scale="  126.004">  1  5  2 -1</clus>
<clus scale="  126.004">  1  5  2 -1</clus>
</clustering>
</event>
<event>
 9    1  0.2333971E-005  0.1127393E+03  0.7546771E-02  0.1264318E+00
          1   -1    0    0  502    0  0.00000000000E+00  0.00000000000E+00  0.90927775234E+02  0.90927775234E+02  0.00000000000E+00 0. -1.
         -2   -1    0    0    0  501 -0.00000000000E+00 -0.00000000000E+00 -0.41304776315E+03  0.41304776315E+03  0.00000000000E+00 0.  1.
         23    2    1    2    0    0  0.31895279258E+02 -0.31709963318E+01 -0.24317793703E+03  0.26512266282E+03  0.10063375789E+03 0.  0.
        -24    2    1    2    0    0 -0.52832710693E+02  0.39566513688E+01  0.49912954251E+02  0.10830554453E+03  0.80198737930E+02 0.  0.
         11    1    4    4    0    0 -0.45895345118E+02 -0.88456458408E+01  0.69588268618E+02  0.83828129426E+02  0.00000000000E+00 0. -1.
        -12    1    4    4    0    0 -0.69373655754E+01  0.12802297210E+02 -0.19675314367E+02  0.24477415109E+02  0.00000000000E+00 0.  1.
        -13    1    3    3    0    0  0.55134412033E+02  0.13896382939E+02 -0.22247712713E+03  0.22962792718E+03  0.00000000000E+00 0.  1.
         13    1    3    3    0    0 -0.23239132775E+02 -0.17067379271E+02 -0.20700809903E+02  0.35494735637E+02  0.00000000000E+00 0. -1.
         21    1    1    2  502  501  0.20937431435E+02 -0.78565503702E+00 -0.12885500514E+03  0.13054733103E+03  0.00000000000E+00 0.  1.
<scales pt_clust_5="13000.00000" pt_clust_6="13000.00000" pt_clust_7="13000.00000" pt_clust_8="13000.00000" pt_clust_9="20.95217"></scales>
<clustering>
<clus scale="   20.952">  2  9  1 -1</clus>
<clus scale="   80.199">  5  6 -1 -1</clus>
<clus scale="   94.947">  1  5  2 -1</clus>
<clus scale="  100.634">  7  8 -1 -1</clus>
<clus scale="   94.947">  1  5  2 -1</clus>
</clustering>
</event>
<event>
 9    1  0.2333971E-005  0.1025048E+03  0.7546771E-02  0.1289736E+00
          1   -1    0    0  502    0  0.00000000000E+00  0.00000000000E+00  0.13161273609E+03  0.13161273609E+03  0.00000000000E+00 0. -1.
         -2   -1    0    0    0  501 -0.00000000000E+00 -0.00000000000E+00 -0.18210037000E+03  0.18210037000E+03  0.00000000000E+00 0.  1.
        -24    2    1    2    0    0  0.30352238246E+02  0.50478534497E+00 -0.10221618619E+03  0.13065876049E+03  0.75511918262E+02 0.  0.
         23    2    1    2    0    0 -0.88433497490E+01  0.16170536528E+02  0.89770985497E+02  0.13627908109E+03  0.10086360603E+03 0.  0.
         13    1    3    3    0    0  0.27460435003E+02  0.34234910138E+02 -0.76308987864E+02  0.88029348467E+02  0.00000000000E+00 0. -1.
        -14    1    3    3    0    0  0.28918032425E+01 -0.33730124793E+02 -0.25907198325E+02  0.42629412025E+02  0.00000000000E+00 0.  1.
        -11    1    4    4    0    0  0.23929159609E+02 -0.34620033232E+02  0.36366918104E+02  0.55621076158E+02  0.00000000000E+00 0.  1.
         11    1    4    4    0    0 -0.32772509358E+02  0.50790569760E+02  0.53404067393E+02  0.80658004936E+02  0.00000000000E+00 0. -1.
         21    1    1    2  502  501 -0.21508888497E+02 -0.16675321873E+02 -0.38042433224E+02  0.46775264506E+02  0.00000000000E+00 0.  1.
<scales pt_clust_5="13000.00000" pt_clust_6="13000.00000" pt_clust_7="13000.00000" pt_clust_8="13000.00000" pt_clust_9="27.21578"></scales>
<clustering>
<clus scale="   27.216">  2  9  1 -1</clus>
<clus scale="   75.512">  5  6 -1 -1</clus>
<clus scale="   77.691">  2  5  1 -1</clus>
<clus scale="  100.864">  7  8 -1 -1</clus>
<clus scale="  102.505">  1  5  2 -1</clus>
</clustering>
</event>
<event>
 9    1  0.2333971E-005  0.9115190E+02  0.7546771E-02  0.1305937E+00
         -2   -1    0    0    0  501 -0.00000000000E+00  0.00000000000E+00  0.51855804866E+03  0.51855804866E+03  0.00000000000E+00 0.  1.
          1   -1    0    0  502    0  0.00000000000E+00 -0.00000000000E+00 -0.64275584409E+02  0.64275584409E+02  0.00000000000E+00 0. -1.
        -24    2    1    2    0    0  0.23782299946E+02  0.29755675804E+02  0.29871629401E+03  0.31195669023E+03  0.81452773083E+02 0.  0.
         23    2    1    2    0    0 -0.15221745537E+01  0.11914302989E+02 -0.15975445357E+02  0.92948793859E+02  0.90774422578E+02 0.  0.
         11    1    3    3    0    0  0.43148848187E+02  0.34511901611E+02  0.11974530867E+03  0.13187810054E+03  0.00000000000E+00 0. -1.
        -12    1    3    3    0    0 -0.19366548241E+02 -0.47562258075E+01  0.17897098534E+03  0.18007858970E+03  0.00000000000E+00 0.  1.
        -13    1    4    4    0    0  0.28356822106E+02  0.39207959378E+02 -0.19837866078E+02  0.52296408759E+02  0.00000000000E+00 0.  1.
         13    1    4    4    0    0 -0.29878996660E+02 -0.27293656389E+02  0.38624207215E+01  0.40652385100E+02  0.00000000000E+00 0. -1.
         21    1    1    2  502  501 -0.22260125393E+02 -0.41669978793E+02  0.17154161560E+03  0.17792814897E+03  0.00000000000E+00 0. -1.
<scales pt_clust_5="13000.00000" pt_clust_6="13000.00000" pt_clust_7="13000.00000" pt_clust_8="13000.00000" pt_clust_9="47.24299"></scales>
<clustering>
<clus scale="   47.243">  1  9  2 -1</clus>
<clus scale="   81.453">  5  6 -1 -1</clus>
<clus scale="   81.873">  1  5  2 -1</clus>
<clus scale="   90.774">  7  8 -1 -1</clus>
<clus scale="   91.152">  2  5  1 -1</clus>
</clustering>
</event>
<event>
 9    1  0.2333971E-005  0.1169017E+03  0.7546771E-02  0.1252166E+00
         -2   -1    0    0    0  501 -0.00000000000E+00  0.00000000000E+00  0.55384175245E+03  0.55384175245E+03  0.00000000000E+00 0.  1.
          1   -1    0    0  502    0  0.00000000000E+00 -0.00000000000E+00 -0.45452101093E+02  0.45452101093E+02  0.00000000000E+00 0. -1.
         23    2    1    2    0    0 -0.22159788447E+02 -0.11225417607E+03  0.19065238272E+03  0.24042439422E+03  0.91452184394E+02 0.  0.
        -24    2    1    2    0    0 -0.32569807065E+01  0.42931688079E+02  0.14666714946E+03  0.17254553393E+03  0.80043555552E+02 0.  0.
         13    1    4    4    0    0  0.90592592013E+01  0.55359453444E+02  0.52714815571E+02  0.76977860736E+02  0.00000000000E+00 0. -1.
        -14    1    4    4    0    0 -0.12316239908E+02 -0.12427765365E+02  0.93952333885E+02  0.95567673195E+02  0.00000000000E+00 0.  1.
        -11    1    3    3    0    0 -0.45942523276E+02 -0.39964572772E+02  0.12839089227E+03  0.14209892237E+03  0.00000000000E+00 0.  1.
         11    1    3    3    0    0  0.23782734829E+02 -0.72289603300E+02  0.62261490452E+02  0.98325471850E+02  0.00000000000E+00 0. -1.
         21    1    1    2  502  501  0.25416769153E+02  0.69322487993E+02  0.17107011918E+03  0.18632392539E+03  0.00000000000E+00 0. -1.
<scales pt_clust_5="13000.00000" pt_clust_6="13000.00000" pt_clust_7="13000.00000" pt_clust_8="13000.00000" pt_clust_9="73.83508"></scales>
<clustering>
<clus scale="   73.835">  1  9  2 -1</clus>
<clus scale="   80.044">  5  6 -1 -1</clus>
<clus scale="   91.452">  7  8 -1 -1</clus>
<clus scale="  108.210">  2  5  1 -1</clus>
<clus scale="  108.210">  2  5  1 -1</clus>
</clustering>
</event>
<event>
 9    1  0.2333971E-005  0.1185894E+03  0.7546771E-02  0.1249411E+00
         -2   -1    0    0    0  501 -0.00000000000E+00  0.00000000000E+00  0.28910244344E+03  0.28910244344E+03  0.00000000000E+00 0.  1.
          1   -1    0    0  502    0  0.00000000000E+00 -0.00000000000E+00 -0.26594923039E+03  0.26594923039E+03  0.00000000000E+00 0. -1.
         23    2    1    2    0    0 -0.56702355659E+02  0.26542287552E+02  0.15228402114E+02  0.11339730106E+03  0.93313415389E+02 0.  0.
        -24    2    1    2    0    0  0.45345165513E+02 -0.62351179213E+02 -0.20056949512E+03  0.22980268373E+03  0.81469610853E+02 0.  0.
         13    1    4    4    0    0  0.19218103819E+02 -0.41777263958E+02 -0.18912173682E+03  0.19463223432E+03  0.00000000000E+00 0. -1.
        -14    1    4    4    0    0  0.26127061694E+02 -0.20573915255E+02 -0.11447758299E+02  0.35170449411E+02  0.00000000000E+00 0.  1.
        -13    1    3    3    0    0  0.23509427590E+02  0.21727305944E+02  0.46387894296E+01  0.32346365740E+02  0.00000000000E+00 0.  1.
         13    1    3    3    0    0 -0.80211783249E+02  0.48149816079E+01  0.10589612684E+02  0.81050935323E+02  0.00000000000E+00 0. -1.
         21    1    1    2  502  501  0.11357190146E+02  0.35808891660E+02  0.20849430605E+03  0.21185168903E+03  0.00000000000E+00 0.  1.
<scales pt_clust_5="13000.00000" pt_clust_6="13000.00000" pt_clust_7="13000.00000" pt_clust_8="13000.00000" pt_clust_9="37.56677"></scales>
<clustering>
<clus scale="   37.567">  1  9  2 -1</clus>
<clus scale="   81.470">  5  6 -1 -1</clus>
<clus scale="   93.313">  7  8 -1 -1</clus>
<clus scale="  109.514">  2  5  1 -1</clus>
<clus scale="  109.514">  2  5  1 -1</clus>
</clustering>
</event>
<event>
 9    1  0.2333971E-005  0.9184114E+02  0.7546771E-02  0.1305298E+00
         -2   -1    0    0    0  501 -0.00000000000E+00  0.00000000000E+00  0.11423057807E+03  0.11423057807E+03  0.00000000000E+00 0.  1.
          1   -1    0    0  502    0  0.00000000000E+00 -0.00000000000E+00 -0.22423406456E+03  0.22423406456E+03  0.00000000000E+00 0. -1.
        -24    2    1    2    0    0 -0.11257764055E+01  0.40736212713E+01  0.18022977120E+02  0.81254151607E+02  0.79117303331E+02 0.  0.
         23    2    1    2    0    0  0.20883596568E+02  0.25860281784E+01 -0.17932739453E+03  0.20183443210E+03  0.90199841497E+02 0.  0.
         13    1    3    3    0    0  0.72106654873E+01  0.38786973413E+02 -0.34358979904E+01  0.39600863606E+02  0.00000000000E+00 0. -1.
        -14    1    3    3    0    0 -0.83364418929E+01 -0.34713352142E+02  0.21458875111E+02  0.41653288002E+02  0.00000000000E+00 0.  1.
        -11    1    4    4    0    0  0.24762858909E+02 -0.31131610657E+02 -0.33187986155E+02  0.51805586459E+02  0.00000000000E+00 0.  1.
         11    1    4    4    0    0 -0.38792623404E+01  0.33717638835E+02 -0.14613940838E+03  0.15002884564E+03  0.00000000000E+00 0. -1.
         21    1    1    2  502  501 -0.19757820163E+02 -0.66596494497E+01  0.51300930916E+02  0.55376058917E+02  0.00000000000E+00 0. -1.
<scales pt_clust_5="13000.00000" pt_clust_6="13000.00000" pt_clust_7="13000.00000" pt_clust_8="13000.00000" pt_clust_9="20.85000"></scales>
<clustering>
<clus scale="   20.850">  1  9  2 -1</clus>
<clus scale="   79.117">  5  6 -1 -1</clus>
<clus scale="   80.984">  1  5  2 -1</clus>
<clus scale="   90.200">  7  8 -1 -1</clus>
<clus scale="   91.841">  2  5  1 -1</clus>
</clustering>
</event>
<event>
 9    1  0.2333971E-005  0.1099207E+03  0.7546771E-02  0.1266388E+00
         -2   -1    0    0    0  501 -0.00000000000E+00  0.00000000000E+00  0.10413793479E+03  0.10413793479E+03  0.00000000000E+00 0.  1.
          1   -1    0    0  502    0  0.00000000000E+00 -0.00000000000E+00 -0.36341828787E+03  0.36341828787E+03  0.00000000000E+00 0. -1.
         23    2    1    2    0    0 -0.29767498568E+02  0.69516932315E+02  0.39521217180E+02  0.12661441638E+03  0.93544513348E+02 0.  0.
        -24    2    1    2    0    0 -0.10533684387E+01 -0.56562022239E+02 -0.29049832447E+03  0.30649330227E+03  0.79677448965E+02 0.  0.
         13    1    4    4    0    0  0.17576878068E+02 -0.71304954597E+02 -0.23231066815E+03  0.24364233977E+03  0.00000000000E+00 0. -1.
        -14    1    4    4    0    0 -0.18630246507E+02  0.14742932358E+02 -0.58187656317E+02  0.62850962499E+02  0.00000000000E+00 0.  1.
        -13    1    3    3    0    0 -0.59545481168E+02  0.57750876282E+02  0.44624184628E+02  0.94192069159E+02  0.00000000000E+00 0.  1.
         13    1    3    3    0    0  0.29777982600E+02  0.11766056033E+02 -0.51029674474E+01  0.32422347217E+02  0.00000000000E+00 0. -1.
         21    1    1    2  502  501  0.30820867006E+02 -0.12954910076E+02 -0.83032457885E+01  0.34448504013E+02  0.00000000000E+00 0. -1.
<scales pt_clust_5="13000.00000" pt_clust_6="13000.00000" pt_clust_7="13000.00000" pt_clust_8="13000.00000" pt_clust_9="33.43285"></scales>
<clustering>
<clus scale="   33.433">  1  9  2 -1</clus>
<clus scale="   79.677">  5  6 -1 -1</clus>
<clus scale="   93.545">  7  8 -1 -1</clus>
<clus scale="   98.389">  2  5  1 -1</clus>
<clus scale="   98.389">  2  5  1 -1</clus>
</clustering>
</event>
<event>
 9    1  0.2333971E-005  0.1281992E+03  0.7546771E-02  0.1232803E+00
          1   -1    0    0  502    0  0.00000000000E+00  0.00000000000E+00  0.64569318047E+02  0.64569318047E+02  0.00000000000E+00 0. -1.
         -2   -1    0    0    0  501 -0.00000000000E+00 -0.00000000000E+00 -0.30687637837E+03  0.30687637837E+03  0.00000000000E+00 0.  1.
         23    2    1    2    0    0 -0.22238158260E+02  0.84783991816E+02 -0.11314122093E+03  0.16960647790E+03  0.91008573883E+02 0.  0.
        -24    2    1    2    0    0 -0.48487776119E+01 -0.94479029435E+02 -0.92350332785E+02  0.15511580494E+03  0.81132800581E+02 0.  0.
         11    1    4    4    0    0 -0.20134452276E+02 -0.81860135144E+01  0.68125280693E+01  0.22777566253E+02  0.00000000000E+00 0. -1.
        -12    1    4    4    0    0  0.15285674664E+02 -0.86293015921E+02 -0.99162860854E+02  0.13233823869E+03  0.00000000000E+00 0.  1.
        -13    1    3    3    0    0 -0.21258374035E+02  0.32514529261E+02 -0.11064699171E+03  0.11726836681E+03  0.00000000000E+00 0.  1.
         13    1    3    3    0    0 -0.97978422527E+00  0.52269462555E+02 -0.24942292211E+01  0.52338111088E+02  0.00000000000E+00 0. -1.
         21    1    1    2  502  501  0.27086935872E+02  0.96950376195E+01 -0.36815506605E+02  0.46723413574E+02  0.00000000000E+00 0.  1.
<scales pt_clust_5="13000.00000" pt_clust_6="13000.00000" pt_clust_7="13000.00000" pt_clust_8="13000.00000" pt_clust_9="28.76970"></scales>
<clustering>
<clus scale="   28.770">  2  9  1 -1</clus>
<clus scale="   81.133">  5  6 -1 -1</clus>
<clus scale="   91.009">  7  8 -1 -1</clus>
<clus scale="  121.388">  1  5  2 -1</clus>
<clus scale="  121.388">  1  5  2 -1</clus>
</clustering>
</event>
<event>
 9    1  0.2333971E-005  0.1200830E+03  0.7546771E-02  0.1247146E+00
          1   -1    0    0  502    0  0.00000000000E+00  0.00000000000E+00  0.31870820997E+03  0.31870820997E+03  0.00000000000E+00 0. -1.
         -2   -1    0    0    0  501 -0.00000000000E+00 -0.00000000000E+00 -0.25933394757E+03  0.25933394757E+03  0.00000000000E+00 0.  1.
        -24    2    1    2    0    0 -0.30735925091E+02  0.33179125451E+02 -0.46552024671E+02  0.10214431384E+03  0.78872164870E+02 0.  0.
         23    2    1    2    0    0  0.85869447998E+02  0.33243994018E+01  0.27060194363E+03  0.29844282253E+03  0.91967889472E+02 0.  0.
         13    1    3    3    0    0 -0.33931746743E+01  0.34981549203E+02  0.12291694056E+02  0.37233159439E+02  0.00000000000E+00 0. -1.
        -14    1    3    3    0    0 -0.27342750416E+02 -0.18024237519E+01 -0.58843718727E+02  0.64911154398E+02  0.00000000000E+00 0.  1.
        -11    1    4    4    0    0  0.10254994156E+03  0.16317449418E+02  0.21026094552E+03  0.23450461591E+03  0.00000000000E+00 0. -1.
         11    1    4    4    0    0 -0.16680493559E+02 -0.12993050016E+02  0.60340998107E+02  0.63938206626E+02  0.00000000000E+00 0.  1.
         21    1    1    2  502  501 -0.55133522907E+02 -0.36503524853E+02 -0.16467565656E+03  0.17745502117E+03  0.00000000000E+00 0.  1.
<scales pt_clust_5="13000.00000" pt_clust_6="13000.00000" pt_clust_7="13000.00000" pt_clust_8="13000.00000" pt_clust_9="66.12271"></scales>
<clustering>
<clus scale="   66.123">  2  9  1 -1</clus>
<clus scale="   78.872">  5  6 -1 -1</clus>
<clus scale="   91.968">  7  8 -1 -1</clus>
<clus scale="  110.375">  2  5  1 -1</clus>
<clus scale="  120.083">  1  5  2 -1</clus>
</clustering>
</event>
<event>
 9    1  0.2333971E-005  0.9547296E+02  0.7546771E-02  0.1294982E+00
          1   -1    0    0  502    0  0.00000000000E+00  0.00000000000E+00  0.35351427936E+03  0.35351427936E+03  0.00000000000E+00 0. -1.
         -2   -1    0    0    0  501 -0.00000000000E+00 -0.00000000000E+00 -0.16070110975E+03  0.16070110975E+03  0.00000000000E+00 0.  1.
         23    2    1    2    0    0  0.34730960137E+02  0.38166649987E+02 -0.35256324952E+01  0.10411937893E+03  0.90363057831E+02 0.  0.
        -24    2    1    2    0    0  0.10270463998E+02 -0.29390383502E+02  0.29159364854E+03  0.30438112571E+03  0.81558180143E+02 0.  0.
         11    1    4    4    0    0 -0.33331461631E+02 -0.65406264131E+01  0.16692002219E+03  0.17034101073E+03  0.00000000000E+00 0. -1.
        -12    1    4    4    0    0  0.43601925629E+02 -0.22849757089E+02  0.12467362636E+03  0.13404011499E+03  0.00000000000E+00 0.  1.
        -11    1    3    3    0    0  0.65306682462E+02  0.30534261047E+02 -0.69174359545E+01  0.72423440902E+02  0.00000000000E+00 0.  1.
         11    1    3    3    0    0 -0.30575722325E+02  0.76323889402E+01  0.33918034593E+01  0.31695938026E+02  0.00000000000E+00 0. -1.
         21    1    1    2  502  501 -0.45001424135E+02 -0.87762664851E+01 -0.95254846439E+02  0.10571488447E+03  0.00000000000E+00 0. -1.
<scales pt_clust_5="13000.00000" pt_clust_6="13000.00000" pt_clust_7="13000.00000" pt_clust_8="13000.00000" pt_clust_9="45.84922"></scales>
<clustering>
<clus scale="   45.849">  2  9  1 -1</clus>
<clus scale="   81.558">  5  6 -1 -1</clus>
<clus scale="   87.186">  1  5  2 -1</clus>
<clus scale="   90.363">  7  8 -1 -1</clus>
<clus scale="   87.186">  1  5  2 -1</clus>
</clustering>
</event>
<event>
 9    1  0.2333971E-005  0.9510366E+02  0.7546771E-02  0.1297382E+00
          1   -1    0    0  502    0  0.00000000000E+00  0.00000000000E+00  0.57289927143E+02  0.57289927143E+02  0.00000000000E+00 0. -1.
         -2   -1    0    0    0  501 -0.00000000000E+00 -0.00000000000E+00 -0.48818648744E+03  0.48818648744E+03  0.00000000000E+00 0.  1.
        -24    2    1    2    0    0  0.14442836691E+02  0.58692312730E+01 -0.36468868147E+03  0.37381458412E+03  0.80600654503E+02 0.  0.
         23    2    1    2    0    0 -0.73481905793E+01  0.27318870554E+02  0.13578152137E+01  0.96051598889E+02  0.91780986015E+02 0.  0.
         13    1    3    3    0    0  0.44526081593E+02  0.15362856762E+02 -0.16282614388E+03  0.16950204259E+03  0.00000000000E+00 0. -1.
        -14    1    3    3    0    0 -0.30083244902E+02 -0.94936254893E+01 -0.20186253759E+03  0.20431254154E+03  0.00000000000E+00 0.  1.
        -11    1    4    4    0    0  0.29493071356E+02 -0.19825715602E+02  0.59972818463E+01  0.36039806419E+02  0.00000000000E+00 0.  1.
         11    1    4    4    0    0 -0.36841261935E+02  0.47144586156E+02 -0.46394666327E+01  0.60011792470E+02  0.00000000000E+00 0. -1.
         21    1    1    2  502  501 -0.70946461120E+01 -0.33188101827E+02 -0.67565694044E+02  0.75610231570E+02  0.00000000000E+00 0. -1.
<scales pt_clust_5="13000.00000" pt_clust_6="13000.00000" pt_clust_7="13000.00000" pt_clust_8="13000.00000" pt_clust_9="33.93794"></scales>
<clustering>
<clus scale="   33.938">  2  9  1 -1</clus>
<clus scale="   80.601">  5  6 -1 -1</clus>
<clus scale="   84.365">  2  5  1 -1</clus>
<clus scale="   91.781">  7  8 -1 -1</clus>
<clus scale="   95.104">  1  5  2 -1</clus>
</clustering>
</event>
<event>
 9    1  0.2333971E-005  0.1221005E+03  0.7546771E-02  0.1242191E+00
          1   -1    0    0  502    0  0.00000000000E+00  0.00000000000E+00  0.14885535977E+03  0.14885535977E+03  0.00000000000E+00 0. -1.
         -2   -1    0    0    0  501 -0.00000000000E+00 -0.00000000000E+00 -0.22478066206E+03  0.22478066206E+03  0.00000000000E+00 0.  1.
         23    2    1    2    0    0 -0.13803600664E+02  0.10281934178E+03 -0.11116998684E+03  0.17639756866E+03  0.89414651031E+02 0.  0.
        -24    2    1    2    0    0  0.28177732170E+02 -0.74280012700E+02  0.82473938513E+02  0.14021467400E+03  0.80911676495E+02 0.  0.
         13    1    4    4    0    0  0.95143826279E+01 -0.67589449385E+02  0.94839875459E+02  0.11684801719E+03  0.00000000000E+00 0. -1.
        -14    1    4    4    0    0  0.18663349542E+02 -0.66905633148E+01 -0.12365936946E+02  0.23366656803E+02  0.00000000000E+00 0.  1.
        -11    1    3    3    0    0  0.30479008436E+02  0.23954091332E+02 -0.62873081786E+02  0.73863339080E+02  0.00000000000E+00 0.  1.
         11    1    3    3    0    0 -0.44282609100E+02  0.78865250453E+02 -0.48296905050E+02  0.10253422958E+03  0.00000000000E+00 0. -1.
         21    1    1    2  502  501 -0.14374131505E+02 -0.28539329085E+02 -0.47229253965E+02  0.57023779174E+02  0.00000000000E+00 0.  1.
<scales pt_clust_5="13000.00000" pt_clust_6="13000.00000" pt_clust_7="13000.00000" pt_clust_8="13000.00000" pt_clust_9="31.95480"></scales>
<clustering>
<clus scale="   31.955">  2  9  1 -1</clus>
<clus scale="   80.912">  5  6 -1 -1</clus>
<clus scale="   89.415">  7  8 -1 -1</clus>
<clus scale="  116.018">  1  5  2 -1</clus>
<clus scale="  116.018">  1  5  2 -1</clus>
</clustering>
</event>
<event>
 9    1  0.2333971E-005  0.1002896E+03  0.7546771E-02  0.1285097E+00
          1   -1    0    0  502    0  0.00000000000E+00  0.00000000000E+00  0.41815580779E+03  0.41815580779E+03  0.00000000000E+00 0. -1.
         -2   -1    0    0    0  501 -0.00000000000E+00 -0.00000000000E+00 -0.36825484396E+02  0.36825484396E+02  0.00000000000E+00 0.  1.
        -24    2    1    2    0    0 -0.35277776475E+02 -0.44956604229E+01  0.54524707361E+02  0.10326985080E+03  0.80168484426E+02 0.  0.
         23    2    1    2    0    0  0.42499399653E+02 -0.15756540602E+02  0.30307595059E+03  0.31968956590E+03  0.91059975714E+02 0.  0.
         11    1    3    3    0    0 -0.29715641654E+02  0.12226385609E+02  0.71756406099E+02  0.78622424793E+02  0.00000000000E+00 0. -1.
        -12    1    3    3    0    0 -0.55621348204E+01 -0.16722046032E+02 -0.17231698738E+02  0.24647426005E+02  0.00000000000E+00 0.  1.
        -11    1    4    4    0    0  0.44125993683E+01 -0.39766769512E+02  0.57686772230E+02  0.70204207003E+02  0.00000000000E+00 0.  1.
         11    1    4    4    0    0  0.38086800285E+02  0.24010228909E+02  0.24538917836E+03  0.24948535890E+03  0.00000000000E+00 0. -1.
         21    1    1    2  502  501 -0.72216231785E+01  0.20252201025E+02  0.23729665436E+02  0.32021875482E+02  0.00000000000E+00 0. -1.
<scales pt_clust_5="13000.00000" pt_clust_6="13000.00000" pt_clust_7="13000.00000" pt_clust_8="13000.00000" pt_clust_9="21.50124"></scales>
<clustering>
<clus scale="   21.501">  2  9  1 -1</clus>
<clus scale="   80.168">  5  6 -1 -1</clus>
<clus scale="   90.516">  2  5  1 -1</clus>
<clus scale="   91.060">  7  8 -1 -1</clus>
<clus scale="  100.290">  1  5  2 -1</clus>
</clustering>
</event>
<event>
 9    1  0.2333971E-005  0.1191463E+03  0.7546771E-02  0.1250219E+00
         -2   -1    0    0    0  501 -0.00000000000E+00  0.00000000000E+00  0.13210692311E+03  0.13210692311E+03  0.00000000000E+00 0.  1.
          1   -1    0    0  502    0  0.00000000000E+00 -0.00000000000E+00 -0.29671202405E+03  0.29671202405E+03  0.00000000000E+00 0. -1.
        -24    2    1    2    0    0  0.63483961131E+02 -0.25137148843E+02  0.49780713568E+02  0.11702969220E+03  0.80967523360E+02 0.  0.
         23    2    1    2    0    0 -0.69699808330E+02 -0.40378098002E+01 -0.24272175193E+03  0.27064632947E+03  0.97268800793E+02 0.  0.
         13    1    3    3    0    0  0.35194101741E+02  0.24715644400E+02  0.31200549156E+01  0.43118703808E+02  0.00000000000E+00 0. -1.
        -14    1    3    3    0    0  0.28289859390E+02 -0.49852793243E+02  0.46660658652E+02  0.73910988387E+02  0.00000000000E+00 0.  1.
        -11    1    4    4    0    0 -0.67583917527E+02  0.34570082182E+02 -0.19481402766E+03  0.20908175880E+03  0.00000000000E+00 0. -1.
         11    1    4    4    0    0 -0.21158908031E+01 -0.38607891982E+02 -0.47907724270E+02  0.61564570671E+02  0.00000000000E+00 0.  1.
         21    1    1    2  502  501  0.62158471992E+01  0.29174958643E+02  0.28335937421E+02  0.41142925489E+02  0.00000000000E+00 0.  1.
<scales pt_clust_5="13000.00000" pt_clust_6="13000.00000" pt_clust_7="13000.00000" pt_clust_8="13000.00000" pt_clust_9="29.82977"></scales>
<clustering>
<clus scale="   29.830">  1  9  2 -1</clus>
<clus scale="   80.968">  5  6 -1 -1</clus>
<clus scale="   97.269">  7  8 -1 -1</clus>
<clus scale="  106.256">  1  5  2 -1</clus>
<clus scale="  119.146">  2  5  1 -1</clus>
</clustering>
</event>
<event>
 9    1  0.2333971E-005  0.1486959E+03  0.7546771E-02  0.1216239E+00
         -2   -1    0    0    0  501 -0.00000000000E+00  0.00000000000E+00  0.39642378611E+03  0.39642378611E+03  0.00000000000E+00 0.  1.
          1   -1    0    0  502    0  0.00000000000E+00 -0.00000000000E+00 -0.21486218201E+03  0.21486218201E+03  0.00000000000E+00 0. -1.
         23    2    1    2    0    0 -0.13934952660E+01  0.59583237534E+02  0.16632794972E+03  0.19933516760E+03  0.92289859464E+02 0.  0.
        -24    2    1    2    0    0 -0.12052194109E+03 -0.60238256684E+01 -0.14224153382E+03  0.20572175524E+03  0.86758065189E+02 0.  0.
         13    1    4    4    0    0 -0.12150915646E+03 -0.14677555373E+02 -0.87898787250E+02  0.15068544235E+03  0.00000000000E+00 0. -1.
        -14    1    4    4    0    0  0.98721537030E+00  0.86537297043E+01 -0.54342746570E+02  0.55036312892E+02  0.00000000000E+00 0.  1.
        -13    1    3    3    0    0  0.30724689684E+02  0.16166970915E+02  0.13508576407E+02  0.37253981549E+02  0.00000000000E+00 0.  1.
         13    1    3    3    0    0 -0.32118184950E+02  0.43416266618E+02  0.15281937331E+03  0.16208118605E+03  0.00000000000E+00 0. -1.
         21    1    1    2  502  501  0.12191543635E+03 -0.53559411865E+02  0.15747518820E+03  0.20622904529E+03  0.00000000000E+00 0.  1.
<scales pt_clust_5="13000.00000" pt_clust_6="13000.00000" pt_clust_7="13000.00000" pt_clust_8="13000.00000" pt_clust_9="120.76219"></scales>
<clustering>
<clus scale="   86.758">  5  6 -1 -1</clus>
<clus scale="   92.290">  7  8 -1 -1</clus>
<clus scale="  109.861">  1  7  2 -1</clus>
<clus scale="  120.762">  1  9  2 -1</clus>
<clus scale="  148.696">  2  5  1 -1</clus>
</clustering>
</event>
<event>
 9    1  0.2333971E-005  0.1110814E+03  0.7546771E-02  0.1261876E+00
         -4   -1    0    0    0  501 -0.00000000000E+00  0.00000000000E+00  0.32001737219E+03  0.32001737219E+03  0.00000000000E+00 0.  1.
          3   -1    0    0  502    0  0.00000000000E+00 -0.00000000000E+00 -0.45849926795E+02  0.45849926795E+02  0.00000000000E+00 0. -1.
         23    2    1    2    0    0 -0.58584654229E+02  0.29342028102E+01  0.15391248185E+03  0.18750891939E+03  0.89608992430E+02 0.  0.
        -24    2    1    2    0    0  0.75718073048E+02  0.84321972928E+01  0.10387665729E+03  0.15207153864E+03  0.80815001067E+02 0.  0.
         11    1    4    4    0    0  0.16394167343E+02 -0.33294489984E+02  0.47091525779E+02  0.59957514844E+02  0.00000000000E+00 0. -1.
        -12    1    4    4    0    0  0.59323905705E+02  0.41726687276E+02  0.56785131512E+02  0.92114023796E+02  0.00000000000E+00 0.  1.
        -11    1    3    3    0    0 -0.12431305729E+02  0.30087491174E+02  0.11950330326E+03  0.12385812035E+03  0.00000000000E+00 0.  1.
         11    1    3    3    0    0 -0.46153348499E+02 -0.27153288364E+02  0.34409178587E+02  0.63650799034E+02  0.00000000000E+00 0. -1.
         21    1    1    2  502  501 -0.17133418819E+02 -0.11366400103E+02  0.16378306260E+02  0.26286840960E+02  0.00000000000E+00 0. -1.
<scales pt_clust_5="13000.00000" pt_clust_6="13000.00000" pt_clust_7="13000.00000" pt_clust_8="13000.00000" pt_clust_9="20.56086"></scales>
<clustering>
<clus scale="   20.561">  2  9  1 -1</clus>
<clus scale="   80.815">  5  6 -1 -1</clus>
<clus scale="   89.609">  7  8 -1 -1</clus>
<clus scale="  104.117">  2  5  1 -1</clus>
<clus scale="   20.561">  2  5  1 -1</clus>
</clustering>
</event>
<event>
 9    1  0.2333971E-005  0.9878440E+02  0.7546771E-02  0.1288659E+00
         -2   -1    0    0    0  501 -0.00000000000E+00  0.00000000000E+00  0.54681386404E+02  0.54681386404E+02  0.00000000000E+00 0.  1.
          1   -1    0    0  502    0  0.00000000000E+00 -0.00000000000E+00 -0.37610055852E+03  0.37610055852E+03  0.00000000000E+00 0. -1.
        -24    2    1    2    0    0  0.43945080578E+01 -0.66920428468E+02 -0.63291119510E+02  0.12138951283E+03  0.78942970356E+02 0.  0.
         23    2    1    2    0    0 -0.21031951251E+02  0.26778186463E+02 -0.24606468502E+03  0.26429554809E+03  0.90249062506E+02 0.  0.
         13    1    3    3    0    0 -0.10346610237E+01 -0.40933960864E+02 -0.80106133781E+02  0.89964728337E+02  0.00000000000E+00 0. -1.
        -14    1    3    3    0    0  0.54291690814E+01 -0.25986467604E+02  0.16815014271E+02  0.31424784492E+02  0.00000000000E+00 0.  1.
        -11    1    4    4    0    0 -0.45586867270E+00 -0.31604053879E+02 -0.11636114657E+03  0.12057752888E+03  0.00000000000E+00 0.  1.
         11    1    4    4    0    0 -0.20576082578E+02  0.58382240342E+02 -0.12970353845E+03  0.14371801921E+03  0.00000000000E+00 0. -1.
         21    1    1    2  502  501  0.16637443193E+02  0.40142242005E+02 -0.12063367583E+02  0.45096884002E+02  0.00000000000E+00 0. -1.
<scales pt_clust_5="13000.00000" pt_clust_6="13000.00000" pt_clust_7="13000.00000" pt_clust_8="13000.00000" pt_clust_9="43.45347"></scales>
<clustering>
<clus scale="   43.453">  1  9  2 -1</clus>
<clus scale="   78.943">  5  6 -1 -1</clus>
<clus scale="   88.575">  1  5  2 -1</clus>
<clus scale="   90.249">  7  8 -1 -1</clus>
<clus scale="   98.784">  2  5  1 -1</clus>
</clustering>
</event>
<event>
 9    1  0.2333971E-005  0.1438642E+03  0.7546771E-02  0.1234289E+00
          1   -1    0    0  502    0  0.00000000000E+00  0.00000000000E+00  0.19327401693E+03  0.19327401693E+03  0.00000000000E+00 0. -1.
         -2   -1    0    0    0  501 -0.00000000000E+00 -0.00000000000E+00 -0.50434511762E+03  0.50434511762E+03  0.00000000000E+00 0.  1.
        -24    2    1    2    0    0 -0.21291766013E+02  0.51351860006E+01 -0.24885604150E+03  0.26243219564E+03  0.80384192989E+02 0.  0.
         23    2    1    2    0    0  0.71571975101E+02  0.85492742425E+02  0.14413466820E+03  0.20427195276E+03  0.92307483326E+02 0.  0.
         13    1    3    3    0    0  0.23129478411E+02  0.87719315568E+01 -0.29060342133E+02  0.38163110980E+02  0.00000000000E+00 0. -1.
        -14    1    3    3    0    0 -0.44421244423E+02 -0.36367455563E+01 -0.21979569936E+03  0.22426908466E+03  0.00000000000E+00 0.  1.
        -11    1    4    4    0    0  0.56528248897E+02  0.25607300821E+02  0.12511970304E+03  0.13966430062E+03  0.00000000000E+00 0. -1.
         11    1    4    4    0    0  0.15043726204E+02  0.59885441604E+02  0.19014965159E+02  0.64607652133E+02  0.00000000000E+00 0.  1.
         21    1    1    2  502  501 -0.50280209088E+02 -0.90627928426E+02 -0.20634972739E+03  0.23091498616E+03  0.00000000000E+00 0.  1.
<scales pt_clust_5="13000.00000" pt_clust_6="13000.00000" pt_clust_7="13000.00000" pt_clust_8="13000.00000" pt_clust_9="110.34600"></scales>
<clustering>
<clus scale="   80.384">  5  6 -1 -1</clus>
<clus scale="   83.315">  2  5  1 -1</clus>
<clus scale="   92.307">  7  8 -1 -1</clus>
<clus scale="  110.346">  2  9  1 -1</clus>
<clus scale="  143.864">  1  5  2 -1</clus>
</clustering>
</event>
<event>
 9    1  0.2333971E-005  0.1863191E+03  0.7546771E-02  0.1162627E+00
          1   -1    0    0  502    0  0.00000000000E+00  0.00000000000E+00  0.15489293560E+04  0.15489293560E+04  0.00000000000E+00 0. -1.
         -2   -1    0    0    0  501 -0.00000000000E+00 -0.00000000000E+00 -0.43640731522E+02  0.43640731522E+02  0.00000000000E+00 0.  1.
        -24    2    1    2    0    0 -0.27317715181E+02  0.13383867336E+03  0.33843561640E+03  0.37377242170E+03  0.80672849960E+02 0.  0.
         23    2    1    2    0    0  0.10853406820E+03 -0.19616096829E+03  0.68321959966E+03  0.72444815569E+03  0.88189225382E+02 0.  0.
         13    1    3    3    0    0 -0.96234251727E+01  0.11833028313E+03  0.32644844429E+03  0.34736616559E+03  0.00000000000E+00 0. -1.
        -14    1    3    3    0    0 -0.17694290008E+02  0.15508390224E+02  0.11987172118E+02  0.26406256107E+02  0.00000000000E+00 0.  1.
        -13    1    4    4    0    0  0.52769513138E+02 -0.17143928048E+03  0.48816184632E+03  0.52007502979E+03  0.00000000000E+00 0.  1.
         13    1    4    4    0    0  0.55764555064E+02 -0.24721687810E+02  0.19505775334E+03  0.20437312590E+03  0.00000000000E+00 0. -1.
         21    1    1    2  502  501 -0.81216353021E+02  0.62322294935E+02  0.48363340844E+03  0.49434951017E+03  0.00000000000E+00 0. -1.
<scales pt_clust_5="13000.00000" pt_clust_6="13000.00000" pt_clust_7="13000.00000" pt_clust_8="13000.00000" pt_clust_9="102.37267"></scales>
<clustering>
<clus scale="   80.673">  5  6 -1 -1</clus>
<clus scale="   88.189">  7  8 -1 -1</clus>
<clus scale="  102.373">  1  9  2 -1</clus>
<clus scale="  182.881">  2  5  1 -1</clus>
<clus scale="  102.373">  1  5  2 -1</clus>
</clustering>
</event>
<event>
 9    1  0.2333971E-005  0.8524865E+02  0.7546771E-02  0.1315620E+00
         -2   -1    0    0    0  501 -0.00000000000E+00  0.00000000000E+00  0.19812064464E+03  0.19812064464E+03  0.00000000000E+00 0.  1.
          1   -1    0    0  502    0  0.00000000000E+00 -0.00000000000E+00 -0.82435146188E+02  0.82435146188E+02  0.00000000000E+00 0. -1.
        -24    2    1    2    0    0  0.13655833234E+02  0.42959345836E+02  0.12423968162E+03  0.15389876400E+03  0.78850135666E+02 0.  0.
         23    2    1    2    0    0 -0.14929308795E+02 -0.21232979306E+02 -0.35969226004E+02  0.91653579626E+02  0.80205172948E+02 0.  0.
         13    1    3    3    0    0 -0.13918049975E+02  0.34129189512E+02  0.13206318598E+02  0.39152529200E+02  0.00000000000E+00 0. -1.
        -14    1    3    3    0    0  0.27573883209E+02  0.88301563244E+01  0.11103336302E+03  0.11474623480E+03  0.00000000000E+00 0.  1.
        -11    1    4    4    0    0  0.33108857860E+02 -0.45398401346E+01 -0.13151823670E+02  0.35913466598E+02  0.00000000000E+00 0.  1.
         11    1    4    4    0    0 -0.48038166655E+02 -0.16693139172E+02 -0.22817402334E+02  0.55740113027E+02  0.00000000000E+00 0. -1.
         21    1    1    2  502  501  0.12734755604E+01 -0.21726366530E+02  0.27415042838E+02  0.35003447208E+02  0.00000000000E+00 0. -1.
<scales pt_clust_5="13000.00000" pt_clust_6="13000.00000" pt_clust_7="13000.00000" pt_clust_8="13000.00000" pt_clust_9="21.76366"></scales>
<clustering>
<clus scale="   21.764">  1  9  2 -1</clus>
<clus scale="   78.850">  5  6 -1 -1</clus>
<clus scale="   80.205">  7  8 -1 -1</clus>
<clus scale="   83.975">  1  5  2 -1</clus>
<clus scale="   85.249">  2  5  1 -1</clus>
</clustering>
</event>
<event>
 9    1  0.2333971E-005  0.1070465E+03  0.7546771E-02  0.1270349E+00
         -2   -1    0    0    0  501 -0.00000000000E+00  0.00000000000E+00  0.31471909288E+02  0.31471909288E+02  0.00000000000E+00 0.  1.
          1   -1    0    0  502    0  0.00000000000E+00 -0.00000000000E+00 -0.72500507411E+03  0.72500507411E+03  0.00000000000E+00 0. -1.
         23    2    1    2    0    0  0.85505166543E+02 -0.35399727470E+02 -0.26062662884E+03  0.29111239721E+03  0.90862059947E+02 0.  0.
        -24    2    1    2    0    0 -0.43557504674E+02  0.77026681194E+01 -0.38520421117E+03  0.39606635226E+03  0.80806458770E+02 0.  0.
         13    1    4    4    0    0 -0.26796400962E+02  0.41495202160E+02 -0.27954976417E+03  0.28388020283E+03  0.00000000000E+00 0. -1.
        -14    1    4    4    0    0 -0.16761103713E+02 -0.33792534041E+02 -0.10565444700E+03  0.11218614944E+03  0.00000000000E+00 0.  1.
        -11    1    3    3    0    0  0.24112036648E+02 -0.49947878070E+02 -0.18221275863E+03  0.19046697941E+03  0.00000000000E+00 0. -1.
         11    1    3    3    0    0  0.61393129895E+02  0.14548150599E+02 -0.78413870207E+02  0.10064541780E+03  0.00000000000E+00 0.  1.
         21    1    1    2  502  501 -0.41947661869E+02  0.27697059351E+02 -0.47702324802E+02  0.69298233920E+02  0.00000000000E+00 0.  1.
<scales pt_clust_5="13000.00000" pt_clust_6="13000.00000" pt_clust_7="13000.00000" pt_clust_8="13000.00000" pt_clust_9="50.26662"></scales>
<clustering>
<clus scale="   50.267">  1  9  2 -1</clus>
<clus scale="   80.806">  5  6 -1 -1</clus>
<clus scale="   90.862">  7  8 -1 -1</clus>
<clus scale="   98.655">  2  5  1 -1</clus>
<clus scale="   98.655">  2  5  1 -1</clus>
</clustering>
</event>
<event>
 9    1  0.2333971E-005  0.9075545E+02  0.7546771E-02  0.1306391E+00
         -2   -1    0    0    0  501 -0.00000000000E+00  0.00000000000E+00  0.86771281316E+02  0.86771281316E+02  0.00000000000E+00 0.  1.
          1   -1    0    0  502    0  0.00000000000E+00 -0.00000000000E+00 -0.25432008796E+03  0.25432008796E+03  0.00000000000E+00 0. -1.
        -24    2    1    2    0    0 -0.24321597872E+02 -0.88201892392E+01  0.12953755337E+02  0.86074743047E+02  0.81066181309E+02 0.  0.
         23    2    1    2    0    0  0.12308859657E+01 -0.17475951226E+02 -0.19637601237E+03  0.21658962521E+03  0.89669412626E+02 0.  0.
         11    1    3    3    0    0 -0.48013311196E+02  0.13695832906E+02 -0.23525144328E+01  0.49983879553E+02  0.00000000000E+00 0. -1.
        -12    1    3    3    0    0  0.23691713324E+02 -0.22516022145E+02  0.15306269770E+02  0.36090863494E+02  0.00000000000E+00 0.  1.
        -13    1    4    4    0    0  0.31289527068E+02 -0.20146219521E+02 -0.17667310965E+03  0.18054997186E+03  0.00000000000E+00 0.  1.
         13    1    4    4    0    0 -0.30058641102E+02  0.26702682957E+01 -0.19702902720E+02  0.36039653345E+02  0.00000000000E+00 0. -1.
         21    1    1    2  502  501  0.23090711906E+02  0.26296140465E+02  0.15873450396E+02  0.38427001017E+02  0.00000000000E+00 0.  1.
<scales pt_clust_5="13000.00000" pt_clust_6="13000.00000" pt_clust_7="13000.00000" pt_clust_8="13000.00000" pt_clust_9="34.99526"></scales>
<clustering>
<clus scale="   34.995">  1  9  2 -1</clus>
<clus scale="   81.066">  5  6 -1 -1</clus>
<clus scale="   82.266">  1  5  2 -1</clus>
<clus scale="   89.669">  7  8 -1 -1</clus>
<clus scale="   90.755">  2  5  1 -1</clus>
</clustering>
</event>
<event>
 9    1  0.2333971E-005  0.3353040E+03  0.7546771E-02  0.1069098E+00
          1   -1    0    0  502    0  0.00000000000E+00  0.00000000000E+00  0.78899484778E+02  0.78899484778E+02  0.00000000000E+00 0. -1.
         -2   -1    0    0    0  501 -0.00000000000E+00 -0.00000000000E+00 -0.24833922870E+04  0.24833922870E+04  0.00000000000E+00 0.  1.
        -24    2    1    2    0    0 -0.14491691159E+03 -0.26399746465E+03 -0.18906345534E+04  0.19161364755E+04  0.79902475384E+02 0.  0.
         23    2    1    2    0    0  0.15384823822E+03  0.28977398732E+03 -0.38222026568E+03  0.51172034429E+03  0.90150624662E+02 0.  0.
         11    1    3    3    0    0 -0.10480290878E+02 -0.90146652687E+02 -0.48347389820E+03  0.49191794614E+03  0.00000000000E+00 0. -1.
        -12    1    3    3    0    0 -0.13443662071E+03 -0.17385081196E+03 -0.14071606552E+04  0.14242185294E+04  0.00000000000E+00 0.  1.
        -11    1    4    4    0    0  0.42511190410E+02  0.45113158756E+02 -0.30613448011E+02  0.69134518167E+02  0.00000000000E+00 0.  1.
         11    1    4    4    0    0  0.11133704781E+03  0.24466082856E+03 -0.35160681767E+03  0.44258582612E+03  0.00000000000E+00 0. -1.
         21    1    1    2  502  501 -0.89313266323E+01 -0.25776522674E+02 -0.13163798317E+03  0.13443495204E+03  0.00000000000E+00 0.  1.
<scales pt_clust_5="13000.00000" pt_clust_6="13000.00000" pt_clust_7="13000.00000" pt_clust_8="13000.00000" pt_clust_9="27.27999"></scales>
<clustering>
<clus scale="   27.280">  2  9  1 -1</clus>
<clus scale="   79.902">  5  6 -1 -1</clus>
<clus scale="   90.151">  7  8 -1 -1</clus>
<clus scale="  332.695">  2  5  1 -1</clus>
<clus scale="  335.304">  1  5  2 -1</clus>
</clustering>
</event>
<event>
 9    1  0.2333971E-005  0.9407054E+02  0.7546771E-02  0.1301898E+00
         -4   -1    0    0    0  501 -0.00000000000E+00  0.00000000000E+00  0.73673935077E+03  0.73673935077E+03  0.00000000000E+00 0.  1.
          3   -1    0    0  502    0  0.00000000000E+00 -0.00000000000E+00 -0.54989317160E+02  0.54989317160E+02  0.00000000000E+00 0. -1.
        -24    2    1    2    0    0  0.25983082741E+02 -0.28464633454E+01  0.54918711852E+03  0.55561898962E+03  0.80142046025E+02 0.  0.
         23    2    1    2    0    0 -0.53716004272E+00 -0.25862219166E+01 -0.68394700809E+01  0.94299826593E+02  0.94014370496E+02 0.  0.
         11    1    3    3    0    0  0.28488061235E+02  0.21869739818E+01  0.60582514303E+02  0.66982038842E+02  0.00000000000E+00 0. -1.
        -12    1    3    3    0    0 -0.25049784937E+01 -0.50334373272E+01  0.48860460421E+03  0.48863695078E+03  0.00000000000E+00 0.  1.
        -13    1    4    4    0    0 -0.18918740021E+02  0.32375662943E+02 -0.30430188245E+02  0.48291807086E+02  0.00000000000E+00 0.  1.
         13    1    4    4    0    0  0.18381579978E+02 -0.34961884859E+02  0.23590718165E+02  0.46008019507E+02  0.00000000000E+00 0. -1.
         21    1    1    2  502  501 -0.25445922698E+02  0.54326852620E+01  0.13940238517E+03  0.14180985171E+03  0.00000000000E+00 0.  1.
<scales pt_clust_5="13000.00000" pt_clust_6="13000.00000" pt_clust_7="13000.00000" pt_clust_8="13000.00000" pt_clust_9="26.01940"></scales>
<clustering>
<clus scale="   26.019">  1  9  2 -1</clus>
<clus scale="   80.142">  5  6 -1 -1</clus>
<clus scale="   80.208">  1  5  2 -1</clus>
<clus scale="   94.014">  7  8 -1 -1</clus>
<clus scale="   94.071">  2  5  1 -1</clus>
</clustering>
</event>
<event>
 9    1  0.2333971E-005  0.8643512E+02  0.7546771E-02  0.1313418E+00
         -2   -1    0    0    0  501 -0.00000000000E+00  0.00000000000E+00  0.32130763564E+03  0.32130763564E+03  0.00000000000E+00 0.  1.
          1   -1    0    0  502    0  0.00000000000E+00 -0.00000000000E+00 -0.10611164207E+03  0.10611164207E+03  0.00000000000E+00 0. -1.
        -24    2    1    2    0    0  0.70405972861E+01  0.11390688188E+02  0.26330425672E+03  0.27568818382E+03  0.80594821799E+02 0.  0.
         23    2    1    2    0    0  0.21113546370E+02 -0.12926281353E+02 -0.73475033937E+02  0.11380370391E+03  0.83305652999E+02 0.  0.
         11    1    3    3    0    0  0.32591973033E+02 -0.24792175386E+01  0.45901495395E+02  0.56350071032E+02  0.00000000000E+00 0. -1.
        -12    1    3    3    0    0 -0.25551375747E+02  0.13869905727E+02  0.21740276133E+03  0.21933811279E+03  0.00000000000E+00 0.  1.
        -11    1    4    4    0    0 -0.18794953388E+02 -0.24044630072E+02 -0.12546556605E+01  0.30544535828E+02  0.00000000000E+00 0.  1.
         11    1    4    4    0    0  0.39908499758E+02  0.11118348719E+02 -0.72220378276E+02  0.83259168081E+02  0.00000000000E+00 0. -1.
         21    1    1    2  502  501 -0.28154143656E+02  0.15355931650E+01  0.25366770775E+02  0.37927389984E+02  0.00000000000E+00 0.  1.
<scales pt_clust_5="13000.00000" pt_clust_6="13000.00000" pt_clust_7="13000.00000" pt_clust_8="13000.00000" pt_clust_9="28.19599"></scales>
<clustering>
<clus scale="   28.196">  1  9  2 -1</clus>
<clus scale="   80.595">  5  6 -1 -1</clus>
<clus scale="   83.306">  7  8 -1 -1</clus>
<clus scale="   83.826">  1  5  2 -1</clus>
<clus scale="   86.435">  2  5  1 -1</clus>
</clustering>
</event>
<event>
 9    1  0.2333971E-005  0.9332258E+02  0.7546771E-02  0.1301407E+00
          1   -1    0    0  502    0  0.00000000000E+00  0.00000000000E+00  0.17565969192E+03  0.17565969192E+03  0.00000000000E+00 0. -1.
         -2   -1    0    0    0  501 -0.00000000000E+00 -0.00000000000E+00 -0.34685558106E+03  0.34685558106E+03  0.00000000000E+00 0.  1.
        -24    2    1    2    0    0 -0.78153412984E+01 -0.42158892637E+02 -0.27288048524E+03  0.28765612015E+03  0.80273485333E+02 0.  0.
         23    2    1    2    0    0  0.10424176613E+02  0.16808284871E+02  0.15211422239E+03  0.17835599767E+03  0.90999688746E+02 0.  0.
         11    1    3    3    0    0  0.13699409040E+02  0.19231603966E+02 -0.47039722365E+02  0.52633296299E+02  0.00000000000E+00 0. -1.
        -12    1    3    3    0    0 -0.21514750338E+02 -0.61390496603E+02 -0.22584076287E+03  0.23502282385E+03  0.00000000000E+00 0.  1.
        -13    1    4    4    0    0  0.43290617771E+02  0.14488974175E+02  0.13219318940E+03  0.13985366382E+03  0.00000000000E+00 0. -1.
         13    1    4    4    0    0 -0.32866441158E+02  0.23193106962E+01  0.19921032995E+02  0.38502333852E+02  0.00000000000E+00 0.  1.
         21    1    1    2  502  501 -0.26088353149E+01  0.25350607766E+02 -0.50429626293E+02  0.56503155168E+02  0.00000000000E+00 0. -1.
<scales pt_clust_5="13000.00000" pt_clust_6="13000.00000" pt_clust_7="13000.00000" pt_clust_8="13000.00000" pt_clust_9="25.48449"></scales>
<clustering>
<clus scale="   25.484">  2  9  1 -1</clus>
<clus scale="   80.273">  5  6 -1 -1</clus>
<clus scale="   82.897">  2  5  1 -1</clus>
<clus scale="   91.000">  7  8 -1 -1</clus>
<clus scale="   93.323">  1  5  2 -1</clus>
</clustering>
</event>
<event>
 9    1  0.2333971E-005  0.9604383E+02  0.7546771E-02  0.1294821E+00
          3   -1    0    0  502    0  0.00000000000E+00  0.00000000000E+00  0.91004494955E+02  0.91004494955E+02  0.00000000000E+00 0. -1.
         -4   -1    0    0    0  501 -0.00000000000E+00 -0.00000000000E+00 -0.32302815069E+03  0.32302815069E+03  0.00000000000E+00 0.  1.
        -24    2    1    2    0    0 -0.11134681365E+02 -0.57965842209E+01 -0.95527283744E+02  0.12559937660E+03  0.80573940859E+02 0.  0.
         23    2    1    2    0    0  0.28685133164E+02  0.19568082441E+02  0.43584826199E+02  0.10697553164E+03  0.91314733642E+02 0.  0.
         11    1    3    3    0    0 -0.24690457262E+02 -0.25503323098E+01 -0.10555107593E+03  0.10843040397E+03  0.00000000000E+00 0. -1.
        -12    1    3    3    0    0  0.13555775897E+02 -0.32462519112E+01  0.10023792184E+02  0.17168972636E+02  0.00000000000E+00 0.  1.
        -11    1    4    4    0    0 -0.12614490993E+02  0.33517031270E+02 -0.10679396979E+02  0.37370660791E+02  0.00000000000E+00 0.  1.
         11    1    4    4    0    0  0.41299624157E+02 -0.13948948829E+02  0.54264223178E+02  0.69604870850E+02  0.00000000000E+00 0. -1.
         21    1    1    2  502  501 -0.17550451800E+02 -0.13771498220E+02 -0.18008119819E+03  0.18145773740E+03  0.00000000000E+00 0.  1.
<scales pt_clust_5="13000.00000" pt_clust_6="13000.00000" pt_clust_7="13000.00000" pt_clust_8="13000.00000" pt_clust_9="22.30858"></scales>
<clustering>
<clus scale="   22.309">  2  9  1 -1</clus>
<clus scale="   80.574">  5  6 -1 -1</clus>
<clus scale="   85.896">  2  5  1 -1</clus>
<clus scale="   91.315">  7  8 -1 -1</clus>
<clus scale="   96.044">  1  5  2 -1</clus>
</clustering>
</event>
<event>
 9    1  0.2333971E-005  0.8497076E+02  0.7546771E-02  0.1318838E+00
          1   -1    0    0  502    0  0.00000000000E+00  0.00000000000E+00  0.39009970967E+02  0.39009970967E+02  0.00000000000E+00 0. -1.
         -2   -1    0    0    0  501 -0.00000000000E+00 -0.00000000000E+00 -0.54330714143E+03  0.54330714143E+03  0.00000000000E+00 0.  1.
        -24    2    1    2    0    0 -0.51400620753E+01 -0.22370539046E+02 -0.41250661304E+03  0.42073381037E+03  0.79551066187E+02 0.  0.
         23    2    1    2    0    0  0.93464168928E+01 -0.35011780318E+01 -0.23267986995E+02  0.88218584188E+02  0.84507429384E+02 0.  0.
         11    1    3    3    0    0  0.27813167477E+02  0.16075397889E+02 -0.16618151669E+03  0.16925804912E+03  0.00000000000E+00 0. -1.
        -12    1    3    3    0    0 -0.32953229552E+02 -0.38445936935E+02 -0.24632509635E+03  0.25147576125E+03  0.00000000000E+00 0.  1.
        -13    1    4    4    0    0  0.36723714485E+02 -0.29656888547E+02 -0.14034059367E+02  0.49245477622E+02  0.00000000000E+00 0. -1.
         13    1    4    4    0    0 -0.27377297592E+02  0.26155710516E+02 -0.92339276278E+01  0.38973106567E+02  0.00000000000E+00 0.  1.
         21    1    1    2  502  501 -0.42063548175E+01  0.25871717078E+02 -0.68522570432E+02  0.73364717842E+02  0.00000000000E+00 0. -1.
<scales pt_clust_5="13000.00000" pt_clust_6="13000.00000" pt_clust_7="13000.00000" pt_clust_8="13000.00000" pt_clust_9="26.21143"></scales>
<clustering>
<clus scale="   26.211">  2  9  1 -1</clus>
<clus scale="   79.551">  5  6 -1 -1</clus>
<clus scale="   80.043">  2  5  1 -1</clus>
<clus scale="   84.507">  7  8 -1 -1</clus>
<clus scale="   84.971">  1  5  2 -1</clus>
</clustering>
</event>
<event>
 9    1  0.2333971E-005  0.1067041E+03  0.7546771E-02  0.1270285E+00
         -2   -1    0    0    0  501 -0.00000000000E+00  0.00000000000E+00  0.37012340908E+03  0.37012340908E+03  0.00000000000E+00 0.  1.
          1   -1    0    0  502    0  0.00000000000E+00 -0.00000000000E+00 -0.14911348931E+03  0.14911348931E+03  0.00000000000E+00 0. -1.
         23    2    1    2    0    0  0.38778560428E+02 -0.62353375766E+02  0.57364056641E+02  0.12871539733E+03  0.88799202117E+02 0.  0.
        -24    2    1    2    0    0 -0.56243990338E+02  0.17980493550E+02 -0.88877540256E+02  0.13353499718E+03  0.80285077767E+02 0.  0.
         11    1    4    4    0    0 -0.23957951110E+02  0.19556879820E+02 -0.95635423507E+02  0.10051163713E+03  0.00000000000E+00 0. -1.
        -12    1    4    4    0    0 -0.32286039228E+02 -0.15763862707E+01  0.67578832505E+01  0.33023360046E+02  0.00000000000E+00 0.  1.
        -13    1    3    3    0    0 -0.23175141709E+02 -0.19903429446E+01 -0.26874057758E+01  0.23415183281E+02  0.00000000000E+00 0. -1.
         13    1    3    3    0    0  0.61953702138E+02 -0.60363032821E+02  0.60051462416E+02  0.10530021405E+03  0.00000000000E+00 0.  1.
         21    1    1    2  502  501  0.17465429910E+02  0.44372882216E+02  0.25252340339E+03  0.25698650389E+03  0.00000000000E+00 0.  1.
<scales pt_clust_5="13000.00000" pt_clust_6="13000.00000" pt_clust_7="13000.00000" pt_clust_8="13000.00000" pt_clust_9="47.68641"></scales>
<clustering>
<clus scale="   47.686">  1  9  2 -1</clus>
<clus scale="   80.285">  5  6 -1 -1</clus>
<clus scale="   88.799">  7  8 -1 -1</clus>
<clus scale="   99.730">  2  5  1 -1</clus>
<clus scale="   99.730">  2  5  1 -1</clus>
</clustering>
</event>
<event>
 9    1  0.2333971E-005  0.9071925E+02  0.7546771E-02  0.1309050E+00
         -2   -1    0    0    0  501 -0.00000000000E+00  0.00000000000E+00  0.39082542056E+03  0.39082542056E+03  0.00000000000E+00 0.  1.
          1   -1    0    0  502    0  0.00000000000E+00 -0.00000000000E+00 -0.12267273242E+03  0.12267273242E+03  0.00000000000E+00 0. -1.
        -24    2    1    2    0    0  0.31812713962E+02  0.63184807152E+01  0.76708742141E+02  0.11369311960E+03  0.77394588663E+02 0.  0.
         23    2    1    2    0    0 -0.71900752787E+00  0.15143027055E+02 -0.82736071487E+02  0.12303419518E+03  0.89790463966E+02 0.  0.
         13    1    3    3    0    0 -0.83580155325E+01  0.31967944124E+02  0.47268492771E+02  0.57672491571E+02  0.00000000000E+00 0. -1.
        -14    1    3    3    0    0  0.40170729494E+02 -0.25649463409E+02  0.29440249370E+02  0.56020628024E+02  0.00000000000E+00 0.  1.
        -13    1    4    4    0    0 -0.80367725485E+01  0.48681171902E+02 -0.23684802898E+02  0.54730394655E+02  0.00000000000E+00 0. -1.
         13    1    4    4    0    0  0.73177650206E+01 -0.33538144847E+02 -0.59051268589E+02  0.68303800528E+02  0.00000000000E+00 0.  1.
         21    1    1    2  502  501 -0.31093706434E+02 -0.21461507770E+02  0.27418001748E+03  0.27677083820E+03  0.00000000000E+00 0.  1.
<scales pt_clust_5="13000.00000" pt_clust_6="13000.00000" pt_clust_7="13000.00000" pt_clust_8="13000.00000" pt_clust_9="37.78114"></scales>
<clustering>
<clus scale="   37.781">  1  9  2 -1</clus>
<clus scale="   77.395">  5  6 -1 -1</clus>
<clus scale="   78.470">  1  5  2 -1</clus>
<clus scale="   89.790">  7  8 -1 -1</clus>
<clus scale="   90.719">  2  5  1 -1</clus>
</clustering>
</event>
<event>
 9    1  0.2333971E-005  0.1461711E+03  0.7546771E-02  0.1232864E+00
         -2   -1    0    0    0  501 -0.00000000000E+00  0.00000000000E+00  0.29590992822E+02  0.29590992822E+02  0.00000000000E+00 0.  1.
          1   -1    0    0  502    0  0.00000000000E+00 -0.00000000000E+00 -0.14196808697E+04  0.14196808697E+04  0.00000000000E+00 0. -1.
         23    2    1    2    0    0 -0.11022418298E+03  0.30890952440E+02 -0.23937661628E+03  0.27829035994E+03  0.83909108901E+02 0.  0.
        -24    2    1    2    0    0 -0.20623144119E+02  0.17548959655E+01 -0.40610546885E+03  0.41425993030E+03  0.79128024692E+02 0.  0.
         11    1    4    4    0    0 -0.16888317796E+02 -0.37676731170E+02 -0.17665357286E+03  0.18141454229E+03  0.00000000000E+00 0. -1.
        -12    1    4    4    0    0 -0.37348263237E+01  0.39431627136E+02 -0.22945189599E+03  0.23284538801E+03  0.00000000000E+00 0.  1.
        -13    1    3    3    0    0 -0.86700922730E+02  0.20701009416E+02 -0.23619859319E+03  0.25245862476E+03  0.00000000000E+00 0. -1.
         13    1    3    3    0    0 -0.23523260249E+02  0.10189943024E+02 -0.31780230970E+01  0.25831735179E+02  0.00000000000E+00 0.  1.
         21    1    1    2  502  501  0.13084732710E+03 -0.32645848405E+02 -0.74460779178E+03  0.75672157231E+03  0.00000000000E+00 0. -1.
<scales pt_clust_5="13000.00000" pt_clust_6="13000.00000" pt_clust_7="13000.00000" pt_clust_8="13000.00000" pt_clust_9="119.68816"></scales>
<clustering>
<clus scale="   79.128">  5  6 -1 -1</clus>
<clus scale="   81.790">  2  5  1 -1</clus>
<clus scale="   83.909">  7  8 -1 -1</clus>
<clus scale="  119.688">  2  9  1 -1</clus>
<clus scale="   81.790">  2  5  1 -1</clus>
</clustering>
</event>
<event>
 9    1  0.2333971E-005  0.1455660E+03  0.7546771E-02  0.1228997E+00
          1   -1    0    0  502    0  0.00000000000E+00  0.00000000000E+00  0.69555235417E+03  0.69555235417E+03  0.00000000000E+00 0. -1.
         -2   -1    0    0    0  501 -0.00000000000E+00 -0.00000000000E+00 -0.64290941585E+02  0.64290941585E+02  0.00000000000E+00 0.  1.
         23    2    1    2    0    0  0.33213143565E+02  0.94121488155E+01  0.13204155892E+03  0.15962043876E+03  0.82776867165E+02 0.  0.
        -24    2    1    2    0    0 -0.95573275897E+02  0.81443679160E+02  0.45946823631E+03  0.48307440986E+03  0.80513982327E+02 0.  0.
         13    1    4    4    0    0 -0.70519304513E+02  0.89688061929E+02  0.42268420912E+03  0.43781144503E+03  0.00000000000E+00 0. -1.
        -14    1    4    4    0    0 -0.25053971384E+02 -0.82443827685E+01  0.36784027186E+02  0.45262964832E+02  0.00000000000E+00 0.  1.
        -11    1    3    3    0    0  0.40077314728E+02 -0.21286153545E+02  0.34134794908E+02  0.56784467172E+02  0.00000000000E+00 0.  1.
         11    1    3    3    0    0 -0.68641711635E+01  0.30698302361E+02  0.97906764010E+02  0.10283597159E+03  0.00000000000E+00 0. -1.
         21    1    1    2  502  501  0.62360132332E+02 -0.90855827976E+02  0.39751617356E+02  0.11714844713E+03  0.00000000000E+00 0.  1.
<scales pt_clust_5="13000.00000" pt_clust_6="13000.00000" pt_clust_7="13000.00000" pt_clust_8="13000.00000" pt_clust_9="121.27227"></scales>
<clustering>
<clus scale="   80.514">  5  6 -1 -1</clus>
<clus scale="   82.777">  7  8 -1 -1</clus>
<clus scale="   89.687">  2  7  1 -1</clus>
<clus scale="  121.272">  2  9  1 -1</clus>
<clus scale="  145.566">  1  5  2 -1</clus>
</clustering>
</event>
<event>
 9    1  0.2333971E-005  0.1785447E+03  0.7546771E-02  0.1170893E+00
          1   -1    0    0  502    0  0.00000000000E+00  0.00000000000E+00  0.34094493391E+03  0.34094493391E+03  0.00000000000E+00 0. -1.
         -2   -1    0    0    0  501 -0.00000000000E+00 -0.00000000000E+00 -0.22486940486E+03  0.22486940486E+03  0.00000000000E+00 0.  1.
        -24    2    1    2    0    0 -0.79615399839E+02 -0.17296899217E+03  0.13576610999E+03  0.24746483800E+03  0.80929137397E+02 0.  0.
         23    2    1    2    0    0  0.79632560955E+02  0.94302469426E+02  0.92893768750E+02  0.18100446851E+03  0.94334854867E+02 0.  0.
         13    1    3    3    0    0 -0.14551658560E+02 -0.30015233470E+02  0.69312188728E+02  0.76921027771E+02  0.00000000000E+00 0. -1.
        -14    1    3    3    0    0 -0.65063741278E+02 -0.14295375870E+03  0.66453921262E+02  0.17054381023E+03  0.00000000000E+00 0.  1.
        -13    1    4    4    0    0  0.49761767565E+02  0.75592217682E+02  0.10152466726E+02  0.91068597583E+02  0.00000000000E+00 0.  1.
         13    1    4    4    0    0  0.29870793390E+02  0.18710251744E+02  0.82741302024E+02  0.89935870923E+02  0.00000000000E+00 0. -1.
         21    1    1    2  502  501 -0.17161116206E-01  0.78666522744E+02 -0.11258434969E+03  0.13734503227E+03  0.00000000000E+00 0.  1.
<scales pt_clust_5="13000.00000" pt_clust_6="13000.00000" pt_clust_7="13000.00000" pt_clust_8="13000.00000" pt_clust_9="78.66652"></scales>
<clustering>
<clus scale="   78.667">  2  9  1 -1</clus>
<clus scale="   80.929">  5  6 -1 -1</clus>
<clus scale="   94.335">  7  8 -1 -1</clus>
<clus scale="  171.839">  2  5  1 -1</clus>
<clus scale="  178.545">  1  5  2 -1</clus>
</clustering>
</event>
<event>
 9    1  0.2333971E-005  0.2038495E+03  0.7546771E-02  0.1147338E+00
          1   -1    0    0  502    0  0.00000000000E+00  0.00000000000E+00  0.12483373581E+03  0.12483373581E+03  0.00000000000E+00 0. -1.
         -2   -1    0    0    0  501 -0.00000000000E+00 -0.00000000000E+00 -0.57192482113E+03  0.57192482113E+03  0.00000000000E+00 0.  1.
        -24    2    1    2    0    0 -0.11543782048E+03  0.10835943113E+03 -0.19837306415E+03  0.26667395656E+03  0.81825850543E+02 0.  0.
         23    2    1    2    0    0  0.10313193173E+03 -0.17069325372E+03 -0.54648236538E+02  0.22587876882E+03  0.90897779084E+02 0.  0.
         13    1    3    3    0    0 -0.45319183097E+02  0.56491722448E+02 -0.32737574665E+02  0.79478876795E+02  0.00000000000E+00 0. -1.
        -14    1    3    3    0    0 -0.70118637381E+02  0.51867708682E+02 -0.16563548949E+03  0.18719507977E+03  0.00000000000E+00 0.  1.
        -13    1    4    4    0    0  0.64447911250E+02 -0.15811771891E+03 -0.66917075130E+02  0.18339204247E+03  0.00000000000E+00 0.  1.
         13    1    4    4    0    0  0.38684020475E+02 -0.12575534809E+02  0.12268838592E+02  0.42486726354E+02  0.00000000000E+00 0. -1.
         21    1    1    2  502  501  0.12305888752E+02  0.62333822585E+02 -0.19406978463E+03  0.20420583156E+03  0.00000000000E+00 0.  1.
<scales pt_clust_5="13000.00000" pt_clust_6="13000.00000" pt_clust_7="13000.00000" pt_clust_8="13000.00000" pt_clust_9="63.53692"></scales>
<clustering>
<clus scale="   63.537">  2  9  1 -1</clus>
<clus scale="   81.826">  5  6 -1 -1</clus>
<clus scale="   90.898">  7  8 -1 -1</clus>
<clus scale="  199.969">  2  5  1 -1</clus>
<clus scale="  203.850">  1  5  2 -1</clus>
</clustering>
</event>
<event>
 9    1  0.2333971E-005  0.2017886E+03  0.7546771E-02  0.1148403E+00
          1   -1    0    0  502    0  0.00000000000E+00  0.00000000000E+00  0.15421827213E+04  0.15421827213E+04  0.00000000000E+00 0. -1.
         -2   -1    0    0    0  501 -0.00000000000E+00 -0.00000000000E+00 -0.42187783001E+02  0.42187783001E+02  0.00000000000E+00 0.  1.
         23    2    1    2    0    0 -0.14995096333E+03  0.53163740584E+02  0.38639446615E+03  0.42615905835E+03  0.83661130957E+02 0.  0.
        -24    2    1    2    0    0  0.19375410221E+03 -0.36793829577E+02  0.10793180926E+04  0.11002289442E+04  0.81741951249E+02 0.  0.
         13    1    4    4    0    0  0.87901666899E+02  0.18720863444E+02  0.36005823972E+03  0.37110525429E+03  0.00000000000E+00 0. -1.
        -14    1    4    4    0    0  0.10585243532E+03 -0.55514693022E+02  0.71925985292E+03  0.72912368993E+03  0.00000000000E+00 0.  1.
        -13    1    3    3    0    0 -0.12891063443E+03  0.92469008615E+01  0.30588400447E+03  0.33206698276E+03  0.00000000000E+00 0. -1.
         13    1    3    3    0    0 -0.21040328898E+02  0.43916839723E+02  0.80510461674E+02  0.94092075598E+02  0.00000000000E+00 0.  1.
         21    1    1    2  502  501 -0.43803138883E+02 -0.16369911007E+02  0.34282379553E+02  0.57982501759E+02  0.00000000000E+00 0. -1.
<scales pt_clust_5="13000.00000" pt_clust_6="13000.00000" pt_clust_7="13000.00000" pt_clust_8="13000.00000" pt_clust_9="46.76205"></scales>
<clustering>
<clus scale="   46.762">  2  9  1 -1</clus>
<clus scale="   81.742">  5  6 -1 -1</clus>
<clus scale="   83.661">  7  8 -1 -1</clus>
<clus scale="  201.001">  1  5  2 -1</clus>
<clus scale="  201.001">  1  5  2 -1</clus>
</clustering>
</event>
<event>
 9    1  0.2333971E-005  0.1043074E+03  0.7546771E-02  0.1276972E+00
         -2   -1    0    0    0  501 -0.00000000000E+00  0.00000000000E+00  0.18882476261E+02  0.18882476261E+02  0.00000000000E+00 0.  1.
          1   -1    0    0  502    0  0.00000000000E+00 -0.00000000000E+00 -0.72732901342E+03  0.72732901342E+03  0.00000000000E+00 0. -1.
        -24    2    1    2    0    0  0.55327193949E+02 -0.21341483365E+02 -0.23555914952E+03  0.25495807841E+03  0.77452898734E+02 0.  0.
         23    2    1    2    0    0 -0.37071432295E+02  0.34649423535E+02 -0.43568245728E+03  0.44772662701E+03  0.89805652975E+02 0.  0.
         13    1    3    3    0    0 -0.11244585976E+02  0.17119808710E+02 -0.56150342888E+02  0.59769470221E+02  0.00000000000E+00 0. -1.
        -14    1    3    3    0    0  0.66571779925E+02 -0.38461292075E+02 -0.17940880663E+03  0.19518860819E+03  0.00000000000E+00 0.  1.
        -13    1    4    4    0    0  0.16809417791E+02  0.42505660610E+02 -0.25323769186E+03  0.25732978119E+03  0.00000000000E+00 0.  1.
         13    1    4    4    0    0 -0.53880850086E+02 -0.78562370745E+01 -0.18244476542E+03  0.19039684582E+03  0.00000000000E+00 0. -1.
         21    1    1    2  502  501 -0.18255761654E+02 -0.13307940170E+02 -0.37204930357E+02  0.43526784260E+02  0.00000000000E+00 0. -1.
<scales pt_clust_5="13000.00000" pt_clust_6="13000.00000" pt_clust_7="13000.00000" pt_clust_8="13000.00000" pt_clust_9="22.59146"></scales>
<clustering>
<clus scale="   22.591">  1  9  2 -1</clus>
<clus scale="   77.453">  5  6 -1 -1</clus>
<clus scale="   89.806">  7  8 -1 -1</clus>
<clus scale="   93.882">  1  5  2 -1</clus>
<clus scale="  104.307">  2  5  1 -1</clus>
</clustering>
</event>
<event>
 9    1  0.2333971E-005  0.1048159E+03  0.7546771E-02  0.1274595E+00
          3   -1    0    0  502    0  0.00000000000E+00  0.00000000000E+00  0.90394871390E+02  0.90394871390E+02  0.00000000000E+00 0. -1.
         -4   -1    0    0    0  501 -0.00000000000E+00 -0.00000000000E+00 -0.51851930474E+03  0.51851930474E+03  0.00000000000E+00 0.  1.
        -24    2    1    2    0    0  0.72460153563E+02 -0.47976562095E+02 -0.30136999408E+03  0.32366620259E+03  0.79898141423E+02 0.  0.
         23    2    1    2    0    0 -0.50917284905E+02 -0.19879302740E+02  0.33398534766E+02  0.10998391940E+03  0.89404942937E+02 0.  0.
         13    1    3    3    0    0  0.54915657637E+02 -0.26223338205E+02 -0.79880356812E+02  0.10042043778E+03  0.00000000000E+00 0. -1.
        -14    1    3    3    0    0  0.17544495926E+02 -0.21753223890E+02 -0.22148963727E+03  0.22324576481E+03  0.00000000000E+00 0.  1.
        -13    1    4    4    0    0 -0.11698475506E+01 -0.44284844997E+02  0.31830962874E+02  0.54550217572E+02  0.00000000000E+00 0.  1.
         13    1    4    4    0    0 -0.49747437354E+02  0.24405542257E+02  0.15675718922E+01  0.55433701823E+02  0.00000000000E+00 0. -1.
         21    1    1    2  502  501 -0.21542868658E+02  0.67855864835E+02 -0.16015297403E+03  0.17526405414E+03  0.00000000000E+00 0.  1.
<scales pt_clust_5="13000.00000" pt_clust_6="13000.00000" pt_clust_7="13000.00000" pt_clust_8="13000.00000" pt_clust_9="71.19349"></scales>
<clustering>
<clus scale="   71.193">  2  9  1 -1</clus>
<clus scale="   79.898">  5  6 -1 -1</clus>
<clus scale="   89.405">  7  8 -1 -1</clus>
<clus scale="   96.834">  2  5  1 -1</clus>
<clus scale="  104.816">  1  5  2 -1</clus>
</clustering>
</event>
<event>
 9    1  0.2333971E-005  0.1195328E+03  0.7546771E-02  0.1247952E+00
         -2   -1    0    0    0  501 -0.00000000000E+00  0.00000000000E+00  0.51027140117E+03  0.51027140117E+03  0.00000000000E+00 0.  1.
          1   -1    0    0  502    0  0.00000000000E+00 -0.00000000000E+00 -0.95569087103E+02  0.95569087103E+02  0.00000000000E+00 0. -1.
        -24    2    1    2    0    0 -0.72387963189E+02 -0.32366240781E+02  0.45235594430E+02  0.12164083714E+03  0.80390568469E+02 0.  0.
         23    2    1    2    0    0  0.76434704271E+01  0.95494238733E+02  0.35311314976E+02  0.13802508833E+03  0.92878758459E+02 0.  0.
         13    1    3    3    0    0 -0.41130352428E+02 -0.81180785916E+01 -0.19136118160E+02  0.46084705804E+02  0.00000000000E+00 0. -1.
        -14    1    3    3    0    0 -0.31257610761E+02 -0.24248162190E+02  0.64371712589E+02  0.75556131331E+02  0.00000000000E+00 0.  1.
        -11    1    4    4    0    0  0.37565360149E+02  0.80338418349E+02  0.49545689826E+02  0.10158835133E+03  0.00000000000E+00 0.  1.
         11    1    4    4    0    0 -0.29921889722E+02  0.15155820383E+02 -0.14234374849E+02  0.36436737002E+02  0.00000000000E+00 0. -1.
         21    1    1    2  502  501  0.64744492761E+02 -0.63127997951E+02  0.33415540466E+03  0.34617456280E+03  0.00000000000E+00 0.  1.
<scales pt_clust_5="13000.00000" pt_clust_6="13000.00000" pt_clust_7="13000.00000" pt_clust_8="13000.00000" pt_clust_9="90.42673"></scales>
<clustering>
<clus scale="   80.391">  5  6 -1 -1</clus>
<clus scale="   90.427">  1  9  2 -1</clus>
<clus scale="   92.879">  7  8 -1 -1</clus>
<clus scale="  110.110">  1  5  2 -1</clus>
<clus scale="  119.533">  2  5  1 -1</clus>
</clustering>
</event>
<event>
 9    1  0.2333971E-005  0.1020249E+03  0.7546771E-02  0.1283361E+00
         -2   -1    0    0    0  501 -0.00000000000E+00  0.00000000000E+00  0.82492425880E+02  0.82492425880E+02  0.00000000000E+00 0.  1.
          1   -1    0    0  502    0  0.00000000000E+00 -0.00000000000E+00 -0.18349800763E+03  0.18349800763E+03  0.00000000000E+00 0. -1.
         23    2    1    2    0    0 -0.37544197980E+02  0.44404291862E+02 -0.15315923816E+02  0.11237243412E+03  0.94929860892E+02 0.  0.
        -24    2    1    2    0    0  0.48576210310E+01 -0.15200210909E+02 -0.44348985155E+02  0.93365680910E+02  0.80595750470E+02 0.  0.
         13    1    4    4    0    0  0.27280442939E+02 -0.15757288509E+01 -0.57761172168E+02  0.63898814532E+02  0.00000000000E+00 0. -1.
        -14    1    4    4    0    0 -0.22422821908E+02 -0.13624482058E+02  0.13412187013E+02  0.29466866378E+02  0.00000000000E+00 0.  1.
        -11    1    3    3    0    0  0.97231477424E+01 -0.18807074861E+02 -0.25102192706E+02  0.32838479647E+02  0.00000000000E+00 0. -1.
         11    1    3    3    0    0 -0.47267345723E+02  0.63211366723E+02  0.97862688905E+01  0.79533954469E+02  0.00000000000E+00 0.  1.
         21    1    1    2  502  501  0.32686576949E+02 -0.29204080953E+02 -0.41340672780E+02  0.60252318485E+02  0.00000000000E+00 0. -1.
<scales pt_clust_5="13000.00000" pt_clust_6="13000.00000" pt_clust_7="13000.00000" pt_clust_8="13000.00000" pt_clust_9="43.83253"></scales>
<clustering>
<clus scale="   43.833">  2  9  1 -1</clus>
<clus scale="   80.596">  5  6 -1 -1</clus>
<clus scale="   88.843">  2  5  1 -1</clus>
<clus scale="   94.930">  7  8 -1 -1</clus>
<clus scale="   43.833">  2  5  1 -1</clus>
</clustering>
</event>
<event>
 9    1  0.2333971E-005  0.1097385E+03  0.7546771E-02  0.1272663E+00
         -2   -1    0    0    0  501 -0.00000000000E+00  0.00000000000E+00  0.28436867388E+03  0.28436867388E+03  0.00000000000E+00 0.  1.
          1   -1    0    0  502    0  0.00000000000E+00 -0.00000000000E+00 -0.26557870012E+03  0.26557870012E+03  0.00000000000E+00 0. -1.
        -24    2    1    2    0    0 -0.10611803485E+02  0.38203459578E+02  0.63655634893E+02  0.10877707919E+03  0.78792756060E+02 0.  0.
         23    2    1    2    0    0 -0.12736528787E+02 -0.36759798145E+02 -0.22980021629E+03  0.25476209095E+03  0.10286924543E+03 0.  0.
         11    1    3    3    0    0 -0.41674609950E+02  0.45239679330E+01  0.24826557468E+02  0.48719578775E+02  0.00000000000E+00 0. -1.
        -12    1    3    3    0    0  0.31062806465E+02  0.33679491645E+02  0.38829077424E+02  0.60057500419E+02  0.00000000000E+00 0.  1.
        -13    1    4    4    0    0  0.42656271666E+02  0.14425487090E+01 -0.90906906262E+02  0.10042760609E+03  0.00000000000E+00 0.  1.
         13    1    4    4    0    0 -0.55392800454E+02 -0.38202346854E+02 -0.13889331002E+03  0.15433448486E+03  0.00000000000E+00 0. -1.
         21    1    1    2  502  501  0.23348332272E+02 -0.14436614331E+01  0.18493455515E+03  0.18640820386E+03  0.00000000000E+00 0.  1.
<scales pt_clust_5="13000.00000" pt_clust_6="13000.00000" pt_clust_7="13000.00000" pt_clust_8="13000.00000" pt_clust_9="23.39292"></scales>
<clustering>
<clus scale="   23.393">  1  9  2 -1</clus>
<clus scale="   78.793">  5  6 -1 -1</clus>
<clus scale="   87.571">  1  5  2 -1</clus>
<clus scale="  102.869">  7  8 -1 -1</clus>
<clus scale="  109.739">  2  5  1 -1</clus>
</clustering>
</event>
<event>
 9    1  0.2333971E-005  0.1054738E+03  0.7546771E-02  0.1281998E+00
          3   -1    0    0  502    0  0.00000000000E+00  0.00000000000E+00  0.47071581719E+02  0.47071581719E+02  0.00000000000E+00 0. -1.
         -4   -1    0    0    0  501 -0.00000000000E+00 -0.00000000000E+00 -0.33907491215E+03  0.33907491215E+03  0.00000000000E+00 0.  1.
        -24    2    1    2    0    0  0.32265187400E+02 -0.74510659804E+01 -0.16746649919E+03  0.18929259717E+03  0.81793021016E+02 0.  0.
         23    2    1    2    0    0 -0.36111454514E+00  0.10448005492E+00 -0.51618104008E+02  0.11692278280E+03  0.10491123465E+03 0.  0.
         11    1    3    3    0    0 -0.20292568273E+01  0.21091332133E+02 -0.12794562387E+03  0.12968826023E+03  0.00000000000E+00 0. -1.
        -12    1    3    3    0    0  0.34294444227E+02 -0.28542398114E+02 -0.39520875327E+02  0.59604336936E+02  0.00000000000E+00 0.  1.
        -13    1    4    4    0    0 -0.29177705047E+02 -0.20567904557E+02 -0.68803813240E+02  0.77513494864E+02  0.00000000000E+00 0.  1.
         13    1    4    4    0    0  0.28816590502E+02  0.20672384612E+02  0.17185709232E+02  0.39409287935E+02  0.00000000000E+00 0. -1.
         21    1    1    2  502  501 -0.31904072855E+02  0.73465859254E+01 -0.72918727231E+02  0.79931113907E+02  0.00000000000E+00 0.  1.
<scales pt_clust_5="13000.00000" pt_clust_6="13000.00000" pt_clust_7="13000.00000" pt_clust_8="13000.00000" pt_clust_9="32.73900"></scales>
<clustering>
<clus scale="   32.739">  2  9  1 -1</clus>
<clus scale="   81.793">  5  6 -1 -1</clus>
<clus scale="   82.513">  2  5  1 -1</clus>
<clus scale="  104.911">  7  8 -1 -1</clus>
<clus scale="  105.474">  1  5  2 -1</clus>
</clustering>
</event>
<event>
 9    1  0.2333971E-005  0.2738131E+03  0.7546771E-02  0.1099489E+00
         -2   -1    0    0    0  501 -0.00000000000E+00  0.00000000000E+00  0.27177542816E+03  0.27177542816E+03  0.00000000000E+00 0.  1.
          1   -1    0    0  502    0  0.00000000000E+00 -0.00000000000E+00 -0.64394605789E+03  0.64394605789E+03  0.00000000000E+00 0. -1.
        -24    2    1    2    0    0  0.18213521692E+03 -0.17141551401E+03 -0.17237178490E+02  0.26298501242E+03  0.79419649660E+02 0.  0.
         23    2    1    2    0    0 -0.20640566371E+03  0.16197809856E+03 -0.46418844779E+03  0.54042096415E+03  0.87998301186E+02 0.  0.
         13    1    3    3    0    0  0.87412349058E+02 -0.11684438008E+03  0.20458666493E+02  0.14735021194E+03  0.00000000000E+00 0. -1.
        -14    1    3    3    0    0  0.94722867857E+02 -0.54571133932E+02 -0.37695844983E+02  0.11563480048E+03  0.00000000000E+00 0.  1.
        -13    1    4    4    0    0 -0.14955527525E+03  0.11618677010E+03 -0.24670719487E+03  0.31101541104E+03  0.00000000000E+00 0. -1.
         13    1    4    4    0    0 -0.56850388455E+02  0.45791328465E+02 -0.21748125291E+03  0.22940555311E+03  0.00000000000E+00 0.  1.
         21    1    1    2  502  501  0.24270446794E+02  0.94374154527E+01  0.10925499655E+03  0.11231550947E+03  0.00000000000E+00 0.  1.
<scales pt_clust_5="13000.00000" pt_clust_6="13000.00000" pt_clust_7="13000.00000" pt_clust_8="13000.00000" pt_clust_9="26.04073"></scales>
<clustering>
<clus scale="   26.041">  1  9  2 -1</clus>
<clus scale="   79.420">  5  6 -1 -1</clus>
<clus scale="   87.998">  7  8 -1 -1</clus>
<clus scale="  271.178">  1  5  2 -1</clus>
<clus scale="  273.813">  2  5  1 -1</clus>
</clustering>
</event>
<event>
 9    1  0.2333971E-005  0.9124646E+02  0.7546771E-02  0.1305144E+00
          3   -1    0    0  502    0  0.00000000000E+00  0.00000000000E+00  0.10076581749E+03  0.10076581749E+03  0.00000000000E+00 0. -1.
         -4   -1    0    0    0  501 -0.00000000000E+00 -0.00000000000E+00 -0.14576012036E+03  0.14576012036E+03  0.00000000000E+00 0.  1.
         23    2    1    2    0    0 -0.17072893311E+01  0.88189905933E+01 -0.50328214530E+02  0.10326580988E+03  0.89722956260E+02 0.  0.
        -24    2    1    2    0    0  0.30397345081E+01  0.25173996903E+02  0.40654357710E+02  0.94221036227E+02  0.81128643283E+02 0.  0.
         11    1    4    4    0    0 -0.26999694790E+02  0.39034397869E+02  0.38418515903E+02  0.61062673541E+02  0.00000000000E+00 0. -1.
        -12    1    4    4    0    0  0.30039429298E+02 -0.13860400966E+02  0.22358418072E+01  0.33158362687E+02  0.00000000000E+00 0.  1.
        -11    1    3    3    0    0  0.23695508630E+02 -0.29510473529E+02 -0.41997055523E+02  0.56534041513E+02  0.00000000000E+00 0.  1.
         11    1    3    3    0    0 -0.25402797961E+02  0.38329464123E+02 -0.83311590066E+01  0.46731768365E+02  0.00000000000E+00 0. -1.
         21    1    1    2  502  501 -0.13324451770E+01 -0.33992987497E+02 -0.35320446051E+02  0.49039091736E+02  0.00000000000E+00 0.  1.
<scales pt_clust_5="13000.00000" pt_clust_6="13000.00000" pt_clust_7="13000.00000" pt_clust_8="13000.00000" pt_clust_9="34.01909"></scales>
<clustering>
<clus scale="   34.019">  2  9  1 -1</clus>
<clus scale="   81.129">  5  6 -1 -1</clus>
<clus scale="   82.810">  1  5  2 -1</clus>
<clus scale="   89.723">  7  8 -1 -1</clus>
<clus scale="   82.810">  1  5  2 -1</clus>
</clustering>
</event>
<event>
 9    1  0.2333971E-005  0.1124915E+03  0.7546771E-02  0.1266380E+00
         -4   -1    0    0    0  501 -0.00000000000E+00  0.00000000000E+00  0.18134106691E+03  0.18134106691E+03  0.00000000000E+00 0.  1.
          3   -1    0    0  502    0  0.00000000000E+00 -0.00000000000E+00 -0.14852278033E+03  0.14852278033E+03  0.00000000000E+00 0. -1.
         23    2    1    2    0    0 -0.42623946568E+02  0.21341988925E+02  0.84149036916E+02  0.13295978973E+03  0.91241240457E+02 0.  0.
        -24    2    1    2    0    0  0.69744567817E+02  0.35088750269E-01 -0.99686964170E+02  0.13748326180E+03  0.64030074794E+02 0.  0.
         13    1    4    4    0    0  0.76837081085E+02 -0.14294974555E+02 -0.76884340552E+02  0.10963341256E+03  0.00000000000E+00 0. -1.
        -14    1    4    4    0    0 -0.70925132679E+01  0.14330063306E+02 -0.22802623619E+02  0.27849849240E+02  0.00000000000E+00 0.  1.
        -11    1    3    3    0    0  0.14826528342E+02 -0.24865143437E+02  0.19519842037E+02  0.34915978205E+02  0.00000000000E+00 0. -1.
         11    1    3    3    0    0 -0.57450474910E+02  0.46207132363E+02  0.64629194879E+02  0.98043811530E+02  0.00000000000E+00 0.  1.
         21    1    1    2  502  501 -0.27120621250E+02 -0.21377077675E+02  0.48356213828E+02  0.59420795709E+02  0.00000000000E+00 0.  1.
<scales pt_clust_5="13000.00000" pt_clust_6="13000.00000" pt_clust_7="13000.00000" pt_clust_8="13000.00000" pt_clust_9="34.53270"></scales>
<clustering>
<clus scale="   34.533">  1  9  2 -1</clus>
<clus scale="   64.030">  5  6 -1 -1</clus>
<clus scale="   91.241">  7  8 -1 -1</clus>
<clus scale="   91.811">  2  5  1 -1</clus>
<clus scale="   91.811">  2  5  1 -1</clus>
</clustering>
</event>
<event>
 9    1  0.2333971E-005  0.9131293E+02  0.7546771E-02  0.1303855E+00
         -2   -1    0    0    0  501 -0.00000000000E+00  0.00000000000E+00  0.10426394792E+03  0.10426394792E+03  0.00000000000E+00 0.  1.
          1   -1    0    0  502    0  0.00000000000E+00 -0.00000000000E+00 -0.29094706222E+03  0.29094706222E+03  0.00000000000E+00 0. -1.
        -24    2    1    2    0    0  0.16963531206E+02 -0.62470358233E+02  0.24951442445E+02  0.10660468805E+03  0.80942436244E+02 0.  0.
         23    2    1    2    0    0  0.77759631034E+01  0.18949375099E+02 -0.22004127874E+03  0.23784421490E+03  0.87932711740E+02 0.  0.
         13    1    3    3    0    0  0.42589973356E+01 -0.40433172278E+02 -0.26968694253E+02  0.48788225511E+02  0.00000000000E+00 0. -1.
        -14    1    3    3    0    0  0.12704533870E+02 -0.22037185955E+02  0.51920136698E+02  0.57816462538E+02  0.00000000000E+00 0.  1.
        -13    1    4    4    0    0 -0.15935790450E+02 -0.30207084839E+02 -0.64139618637E+02  0.72665728309E+02  0.00000000000E+00 0.  1.
         13    1    4    4    0    0  0.23711753554E+02  0.49156459939E+02 -0.15590166010E+03  0.16517848659E+03  0.00000000000E+00 0. -1.
         21    1    1    2  502  501 -0.24739494309E+02  0.43520983134E+02  0.84067219898E+01  0.50762107189E+02  0.00000000000E+00 0. -1.
<scales pt_clust_5="13000.00000" pt_clust_6="13000.00000" pt_clust_7="13000.00000" pt_clust_8="13000.00000" pt_clust_9="50.06115"></scales>
<clustering>
<clus scale="   50.061">  1  9  2 -1</clus>
<clus scale="   80.942">  5  6 -1 -1</clus>
<clus scale="   84.602">  1  5  2 -1</clus>
<clus scale="   87.933">  7  8 -1 -1</clus>
<clus scale="   91.313">  2  5  1 -1</clus>
</clustering>
</event>
<event>
 9    1  0.2333971E-005  0.1253468E+03  0.7546771E-02  0.1238757E+00
         -2   -1    0    0    0  501 -0.00000000000E+00  0.00000000000E+00  0.10082184097E+03  0.10082184097E+03  0.00000000000E+00 0.  1.
          1   -1    0    0  502    0  0.00000000000E+00 -0.00000000000E+00 -0.22508133509E+03  0.22508133509E+03  0.00000000000E+00 0. -1.
         23    2    1    2    0    0  0.30905369589E+02  0.58752375939E+02  0.49580838580E+01  0.11569065137E+03  0.94619029122E+02 0.  0.
        -24    2    1    2    0    0 -0.63230087184E+02 -0.63010664336E+02 -0.13077743648E+03  0.17757123876E+03  0.80376732944E+02 0.  0.
         11    1    4    4    0    0 -0.79120258846E+02 -0.32377515004E+02 -0.96734584785E+02  0.12909647064E+03  0.00000000000E+00 0. -1.
        -12    1    4    4    0    0  0.15890171661E+02 -0.30633149332E+02 -0.34042851693E+02  0.48474768126E+02  0.00000000000E+00 0.  1.
        -11    1    3    3    0    0  0.46991758208E+02 -0.64154571865E+01 -0.55423429500E+01  0.47750403095E+02  0.00000000000E+00 0.  1.
         11    1    3    3    0    0 -0.16086388619E+02  0.65167833125E+02  0.10500426808E+02  0.67940248279E+02  0.00000000000E+00 0. -1.
         21    1    1    2  502  501  0.32324717595E+02  0.42582883974E+01  0.15598585044E+01  0.32641285916E+02  0.00000000000E+00 0. -1.
<scales pt_clust_5="13000.00000" pt_clust_6="13000.00000" pt_clust_7="13000.00000" pt_clust_8="13000.00000" pt_clust_9="32.60399"></scales>
<clustering>
<clus scale="   32.604">  1  9  2 -1</clus>
<clus scale="   80.377">  5  6 -1 -1</clus>
<clus scale="   94.619">  7  8 -1 -1</clus>
<clus scale="  114.976">  2  5  1 -1</clus>
<clus scale="  114.976">  2  5  1 -1</clus>
</clustering>
</event>
<event>
 9    1  0.2333971E-005  0.1047374E+03  0.7546771E-02  0.1275087E+00
          1   -1    0    0  502    0  0.00000000000E+00  0.00000000000E+00  0.22813654961E+03  0.22813654961E+03  0.00000000000E+00 0. -1.
         -2   -1    0    0    0  501 -0.00000000000E+00 -0.00000000000E+00 -0.10081193447E+03  0.10081193447E+03  0.00000000000E+00 0.  1.
        -24    2    1    2    0    0  0.30434289722E+02  0.58184368777E+02  0.19390494525E+02  0.10613771317E+03  0.81102133869E+02 0.  0.
         23    2    1    2    0    0 -0.10747689391E+02 -0.45641446329E+02  0.14586735281E+03  0.17827070758E+03  0.91129062941E+02 0.  0.
         11    1    3    3    0    0 -0.17788703952E+02  0.16912856917E+02 -0.19804171876E+02  0.31538673736E+02  0.00000000000E+00 0. -1.
        -12    1    3    3    0    0  0.48222993674E+02  0.41271511860E+02  0.39194666400E+02  0.74599039433E+02  0.00000000000E+00 0.  1.
        -13    1    4    4    0    0  0.28794535380E+02  0.10340888406E+02  0.25813934260E+02  0.40030219119E+02  0.00000000000E+00 0.  1.
         13    1    4    4    0    0 -0.39542224771E+02 -0.55982334735E+02  0.12005341855E+03  0.13824048846E+03  0.00000000000E+00 0. -1.
         21    1    1    2  502  501 -0.19686600332E+02 -0.12542922448E+02 -0.37933232202E+02  0.44540063330E+02  0.00000000000E+00 0. -1.
<scales pt_clust_5="13000.00000" pt_clust_6="13000.00000" pt_clust_7="13000.00000" pt_clust_8="13000.00000" pt_clust_9="23.34282"></scales>
<clustering>
<clus scale="   23.343">  2  9  1 -1</clus>
<clus scale="   81.102">  5  6 -1 -1</clus>
<clus scale="   91.129">  7  8 -1 -1</clus>
<clus scale="   96.140">  2  5  1 -1</clus>
<clus scale="  104.737">  1  5  2 -1</clus>
</clustering>
</event>
<event>
 9    1  0.2333971E-005  0.1026877E+03  0.7546771E-02  0.1280169E+00
         -2   -1    0    0    0  501 -0.00000000000E+00  0.00000000000E+00  0.23751288324E+03  0.23751288324E+03  0.00000000000E+00 0.  1.
          1   -1    0    0  502    0  0.00000000000E+00 -0.00000000000E+00 -0.19399446740E+03  0.19399446740E+03  0.00000000000E+00 0. -1.
        -24    2    1    2    0    0  0.87371889696E+02  0.35244054048E+02  0.15623480555E+03  0.19806799844E+03  0.77107892497E+02 0.  0.
         23    2    1    2    0    0 -0.46252091441E+02 -0.10664608700E+02 -0.14430213752E+03  0.17605776624E+03  0.88995732041E+02 0.  0.
         11    1    3    3    0    0  0.34600600687E+02 -0.19925801404E+02  0.27789217019E+02  0.48646476872E+02  0.00000000000E+00 0. -1.
        -12    1    3    3    0    0  0.52771289009E+02  0.55169855452E+02  0.12844558853E+03  0.14942152157E+03  0.00000000000E+00 0.  1.
        -11    1    4    4    0    0 -0.72563076137E+02 -0.14498778729E+02 -0.10022582418E+03  0.12458262494E+03  0.00000000000E+00 0. -1.
         11    1    4    4    0    0  0.26310984696E+02  0.38341700282E+01 -0.44076313335E+02  0.51475141308E+02  0.00000000000E+00 0.  1.
         21    1    1    2  502  501 -0.41119798255E+02 -0.24579445348E+02  0.31585747804E+02  0.57381585953E+02  0.00000000000E+00 0. -1.
<scales pt_clust_5="13000.00000" pt_clust_6="13000.00000" pt_clust_7="13000.00000" pt_clust_8="13000.00000" pt_clust_9="47.90602"></scales>
<clustering>
<clus scale="   47.906">  1  9  2 -1</clus>
<clus scale="   77.108">  5  6 -1 -1</clus>
<clus scale="   88.996">  7  8 -1 -1</clus>
<clus scale="   92.575">  1  5  2 -1</clus>
<clus scale="  102.688">  2  5  1 -1</clus>
</clustering>
</event>
<event>
 9    1  0.2333971E-005  0.1220151E+03  0.7546771E-02  0.1247112E+00
          1   -1    0    0  502    0  0.00000000000E+00  0.00000000000E+00  0.17737085129E+03  0.17737085129E+03  0.00000000000E+00 0. -1.
         -2   -1    0    0    0  501 -0.00000000000E+00 -0.00000000000E+00 -0.21623960877E+03  0.21623960877E+03  0.00000000000E+00 0.  1.
        -24    2    1    2    0    0 -0.28522772437E+02  0.46925617785E+02 -0.14017140007E+03  0.17016848956E+03  0.79333040326E+02 0.  0.
         23    2    1    2    0    0  0.63947460405E+01 -0.72026289391E+02  0.12988782583E+03  0.17943281273E+03  0.10048187819E+03 0.  0.
         13    1    3    3    0    0  0.20268898987E+02  0.11894741146E+02 -0.86440048677E+02  0.89577871980E+02  0.00000000000E+00 0. -1.
        -14    1    3    3    0    0 -0.48791671425E+02  0.35030876639E+02 -0.53731351395E+02  0.80590617575E+02  0.00000000000E+00 0.  1.
        -13    1    4    4    0    0  0.13154596595E+02  0.20909319557E+02  0.53554794498E+02  0.58977614988E+02  0.00000000000E+00 0.  1.
         13    1    4    4    0    0 -0.67598505540E+01 -0.92935608948E+02  0.76333031330E+02  0.12045519774E+03  0.00000000000E+00 0. -1.
         21    1    1    2  502  501  0.22128026397E+02  0.25100671606E+02 -0.28585183240E+02  0.44009157776E+02  0.00000000000E+00 0.  1.
<scales pt_clust_5="13000.00000" pt_clust_6="13000.00000" pt_clust_7="13000.00000" pt_clust_8="13000.00000" pt_clust_9="33.46182"></scales>
<clustering>
<clus scale="   33.462">  2  9  1 -1</clus>
<clus scale="   79.333">  5  6 -1 -1</clus>
<clus scale="  100.482">  7  8 -1 -1</clus>
<clus scale="  105.284">  2  5  1 -1</clus>
<clus scale="  122.015">  1  5  2 -1</clus>
</clustering>
</event>
<event>
 9    1  0.2333971E-005  0.9749863E+02  0.7546771E-02  0.1290169E+00
          1   -1    0    0  502    0  0.00000000000E+00  0.00000000000E+00  0.39748559554E+03  0.39748559554E+03  0.00000000000E+00 0. -1.
         -2   -1    0    0    0  501 -0.00000000000E+00 -0.00000000000E+00 -0.16132651188E+03  0.16132651188E+03  0.00000000000E+00 0.  1.
         23    2    1    2    0    0  0.84026307875E+02 -0.14083109882E+02 -0.37163593365E+02  0.12807827645E+03  0.88114458674E+02 0.  0.
        -24    2    1    2    0    0 -0.35419244322E+02  0.16152610157E+02  0.33826188348E+03  0.34959179505E+03  0.79233147489E+02 0.  0.
         13    1    4    4    0    0 -0.45831346582E+02  0.40088085670E+02  0.20746508676E+03  0.21621593181E+03  0.00000000000E+00 0. -1.
        -14    1    4    4    0    0  0.10412102260E+02 -0.23935475512E+02  0.13079679672E+03  0.13337586324E+03  0.00000000000E+00 0.  1.
        -11    1    3    3    0    0  0.28514989797E+02 -0.43130604506E+02 -0.39986738869E+02  0.65362779727E+02  0.00000000000E+00 0.  1.
         11    1    3    3    0    0  0.55511318078E+02  0.29047494624E+02  0.28231455043E+01  0.62715496723E+02  0.00000000000E+00 0. -1.
         21    1    1    2  502  501 -0.48607063553E+02 -0.20695002751E+01 -0.64939206457E+02  0.81142035924E+02  0.00000000000E+00 0.  1.
<scales pt_clust_5="13000.00000" pt_clust_6="13000.00000" pt_clust_7="13000.00000" pt_clust_8="13000.00000" pt_clust_9="48.65110"></scales>
<clustering>
<clus scale="   48.651">  2  9  1 -1</clus>
<clus scale="   79.233">  5  6 -1 -1</clus>
<clus scale="   88.114">  7  8 -1 -1</clus>
<clus scale="   89.553">  1  5  2 -1</clus>
<clus scale="   89.553">  1  5  2 -1</clus>
</clustering>
</event>
<event>
 9    1  0.2333971E-005  0.1021658E+03  0.7546771E-02  0.1278413E+00
         -2   -1    0    0    0  501 -0.00000000000E+00  0.00000000000E+00  0.51512160921E+03  0.51512160921E+03  0.00000000000E+00 0.  1.
          1   -1    0    0  502    0  0.00000000000E+00 -0.00000000000E+00 -0.64961672980E+02  0.64961672980E+02  0.00000000000E+00 0. -1.
         23    2    1    2    0    0  0.33771606875E+02  0.37503272009E+02  0.31491610241E+03  0.33206376564E+03  0.92450938612E+02 0.  0.
        -24    2    1    2    0    0 -0.61908686574E+02  0.55533875486E+02  0.67292219678E+02  0.12942344607E+03  0.72838786126E+02 0.  0.
         13    1    4    4    0    0 -0.43235766473E+02  0.59951782249E+02  0.17354142489E+02  0.75925713423E+02  0.00000000000E+00 0. -1.
        -14    1    4    4    0    0 -0.18672920101E+02 -0.44179067634E+01  0.49938077189E+02  0.53497732649E+02  0.00000000000E+00 0.  1.
        -11    1    3    3    0    0 -0.18295725762E+01  0.60638405217E+02  0.15082143935E+03  0.16256527947E+03  0.00000000000E+00 0.  1.
         11    1    3    3    0    0  0.35601179451E+02 -0.23135133208E+02  0.16409466307E+03  0.16949848617E+03  0.00000000000E+00 0. -1.
         21    1    1    2  502  501  0.28137079699E+02 -0.93037147495E+02  0.67951614134E+02  0.11859607047E+03  0.00000000000E+00 0.  1.
<scales pt_clust_5="13000.00000" pt_clust_6="13000.00000" pt_clust_7="13000.00000" pt_clust_8="13000.00000" pt_clust_9="97.19880"></scales>
<clustering>
<clus scale="   72.839">  5  6 -1 -1</clus>
<clus scale="   92.451">  7  8 -1 -1</clus>
<clus scale="   97.199">  2  9  1 -1</clus>
<clus scale="   97.199">  2  5  1 -1</clus>
<clus scale="   97.199">  2  5  1 -1</clus>
</clustering>
</event>
<event>
 9    1  0.2333971E-005  0.1007923E+03  0.7546771E-02  0.1283964E+00
          1   -1    0    0  502    0  0.00000000000E+00  0.00000000000E+00  0.99849929824E+02  0.99849929824E+02  0.00000000000E+00 0. -1.
         -2   -1    0    0    0  501 -0.00000000000E+00 -0.00000000000E+00 -0.33383521594E+03  0.33383521594E+03  0.00000000000E+00 0.  1.
         23    2    1    2    0    0 -0.18124556664E+02  0.50174792909E+01 -0.21847638491E+03  0.23758850055E+03  0.91447745597E+02 0.  0.
        -24    2    1    2    0    0  0.47234329985E+01 -0.46091517002E+02  0.58879063575E+02  0.11007202088E+03  0.80637254996E+02 0.  0.
         11    1    4    4    0    0  0.23143801796E+02 -0.62631395878E+02  0.51234135114E+02  0.84162128729E+02  0.00000000000E+00 0. -1.
        -12    1    4    4    0    0 -0.18420368798E+02  0.16539878876E+02  0.76449284605E+01  0.25909892147E+02  0.00000000000E+00 0.  1.
        -13    1    3    3    0    0 -0.45310399297E+02  0.30123424369E+02 -0.15288540099E+03  0.16227876884E+03  0.00000000000E+00 0.  1.
         13    1    3    3    0    0  0.27185842633E+02 -0.25105945078E+02 -0.65590983927E+02  0.75309731711E+02  0.00000000000E+00 0. -1.
         21    1    1    2  502  501  0.13401123666E+02  0.41074037711E+02 -0.74387964778E+02  0.86024624342E+02  0.00000000000E+00 0.  1.
<scales pt_clust_5="13000.00000" pt_clust_6="13000.00000" pt_clust_7="13000.00000" pt_clust_8="13000.00000" pt_clust_9="43.20494"></scales>
<clustering>
<clus scale="   43.205">  2  9  1 -1</clus>
<clus scale="   80.637">  5  6 -1 -1</clus>
<clus scale="   91.098">  1  5  2 -1</clus>
<clus scale="   91.448">  7  8 -1 -1</clus>
<clus scale="   91.098">  1  5  2 -1</clus>
</clustering>
</event>
<event>
 9    1  0.2333971E-005  0.1100486E+03  0.7546771E-02  0.1265471E+00
          1   -1    0    0  502    0  0.00000000000E+00  0.00000000000E+00  0.35921592676E+03  0.35921592676E+03  0.00000000000E+00 0. -1.
         -2   -1    0    0    0  501 -0.00000000000E+00 -0.00000000000E+00 -0.21059981685E+03  0.21059981685E+03  0.00000000000E+00 0.  1.
        -24    2    1    2    0    0  0.34844448413E+02  0.41264995354E+02 -0.63627230336E+02  0.11604239747E+03  0.80625542755E+02 0.  0.
         23    2    1    2    0    0 -0.14922664959E+02 -0.57950129082E+02  0.32227182720E+03  0.34071787708E+03  0.92998052484E+02 0.  0.
         11    1    3    3    0    0  0.33962185877E+02  0.19395203674E+02  0.90476916608E+01  0.40143053191E+02  0.00000000000E+00 0. -1.
        -12    1    3    3    0    0  0.88226253533E+00  0.21869791680E+02 -0.72674921997E+02  0.75899344283E+02  0.00000000000E+00 0.  1.
        -13    1    4    4    0    0 -0.54404632931E+02 -0.33112812235E+02  0.19730298226E+03  0.20732773386E+03  0.00000000000E+00 0.  1.
         13    1    4    4    0    0  0.39481967973E+02 -0.24837316847E+02  0.12496884494E+03  0.13339014322E+03  0.00000000000E+00 0. -1.
         21    1    1    2  502  501 -0.19921783454E+02  0.16685133728E+02 -0.11002848695E+03  0.11305546906E+03  0.00000000000E+00 0.  1.
<scales pt_clust_5="13000.00000" pt_clust_6="13000.00000" pt_clust_7="13000.00000" pt_clust_8="13000.00000" pt_clust_9="25.98598"></scales>
<clustering>
<clus scale="   25.986">  2  9  1 -1</clus>
<clus scale="   80.626">  5  6 -1 -1</clus>
<clus scale="   92.998">  7  8 -1 -1</clus>
<clus scale="   99.813">  2  5  1 -1</clus>
<clus scale="  110.049">  1  5  2 -1</clus>
</clustering>
</event>
<event>
 9    1  0.2333971E-005  0.9323856E+02  0.7546771E-02  0.1297492E+00
          1   -1    0    0  502    0  0.00000000000E+00  0.00000000000E+00  0.33645848913E+03  0.33645848913E+03  0.00000000000E+00 0. -1.
         -2   -1    0    0    0  501 -0.00000000000E+00 -0.00000000000E+00 -0.21584744256E+03  0.21584744256E+03  0.00000000000E+00 0.  1.
         23    2    1    2    0    0  0.72612086861E+01  0.26857345599E+02 -0.13991592973E+03  0.16644463846E+03  0.85751432138E+02 0.  0.
        -24    2    1    2    0    0 -0.33502004611E+02 -0.16502642554E+02  0.31337938923E+03  0.32595155447E+03  0.81504924637E+02 0.  0.
         11    1    4    4    0    0 -0.32534749677E+02 -0.46920703738E+02  0.16852314701E+03  0.17793289031E+03  0.00000000000E+00 0. -1.
        -12    1    4    4    0    0 -0.96725493405E+00  0.30418061184E+02  0.14485624223E+03  0.14801866416E+03  0.00000000000E+00 0.  1.
        -13    1    3    3    0    0  0.39503733030E+02  0.91308455216E+01 -0.11518196637E+03  0.12210979748E+03  0.00000000000E+00 0.  1.
         13    1    3    3    0    0 -0.32242524344E+02  0.17726500078E+02 -0.24733963367E+02  0.44334840982E+02  0.00000000000E+00 0. -1.
         21    1    1    2  502  501  0.26240795925E+02 -0.10354703045E+02 -0.52852412932E+02  0.59909738763E+02  0.00000000000E+00 0. -1.
<scales pt_clust_5="13000.00000" pt_clust_6="13000.00000" pt_clust_7="13000.00000" pt_clust_8="13000.00000" pt_clust_9="28.20991"></scales>
<clustering>
<clus scale="   28.210">  2  9  1 -1</clus>
<clus scale="   81.505">  5  6 -1 -1</clus>
<clus scale="   85.751">  7  8 -1 -1</clus>
<clus scale="   89.349">  1  5  2 -1</clus>
<clus scale="   89.349">  1  5  2 -1</clus>
</clustering>
</event>
<event>
 9    1  0.2333971E-005  0.9575317E+02  0.7546771E-02  0.1293681E+00
          1   -1    0    0  502    0  0.00000000000E+00  0.00000000000E+00  0.14956221663E+03  0.14956221663E+03  0.00000000000E+00 0. -1.
         -2   -1    0    0    0  501 -0.00000000000E+00 -0.00000000000E+00 -0.36306354587E+03  0.36306354587E+03  0.00000000000E+00 0.  1.
        -24    2    1    2    0    0  0.44504926663E+01 -0.12093299194E+02 -0.23809497599E+03  0.25257411157E+03  0.83297115644E+02 0.  0.
         23    2    1    2    0    0 -0.25795450808E+02  0.17746332218E+02  0.12473623709E+03  0.15750360161E+03  0.90928092948E+02 0.  0.
         11    1    3    3    0    0 -0.37457524966E+02 -0.12319404759E+02 -0.14876387806E+03  0.15390102444E+03  0.00000000000E+00 0. -1.
        -12    1    3    3    0    0  0.41908017633E+02  0.22610556452E+00 -0.89331097933E+02  0.98673087129E+02  0.00000000000E+00 0.  1.
        -11    1    4    4    0    0 -0.58010149413E+02  0.24322403761E+02  0.88458311348E+02  0.10854321539E+03  0.00000000000E+00 0. -1.
         11    1    4    4    0    0  0.32214698605E+02 -0.65760715425E+01  0.36277925738E+02  0.48960386221E+02  0.00000000000E+00 0.  1.
         21    1    1    2  502  501  0.21344958142E+02 -0.56530330239E+01 -0.10014259033E+03  0.10254804932E+03  0.00000000000E+00 0.  1.
<scales pt_clust_5="13000.00000" pt_clust_6="13000.00000" pt_clust_7="13000.00000" pt_clust_8="13000.00000" pt_clust_9="22.08085"></scales>
<clustering>
<clus scale="   22.081">  2  9  1 -1</clus>
<clus scale="   83.297">  5  6 -1 -1</clus>
<clus scale="   88.539">  2  5  1 -1</clus>
<clus scale="   90.928">  7  8 -1 -1</clus>
<clus scale="   95.753">  1  5  2 -1</clus>
</clustering>
</event>
<event>
 9    1  0.2333971E-005  0.8385760E+02  0.7546771E-02  0.1323780E+00
          1   -1    0    0  502    0  0.00000000000E+00  0.00000000000E+00  0.47151210668E+03  0.47151210668E+03  0.00000000000E+00 0. -1.
         -2   -1    0    0    0  501 -0.00000000000E+00 -0.00000000000E+00 -0.18620811892E+02  0.18620811892E+02  0.00000000000E+00 0.  1.
        -24    2    1    2    0    0  0.20230230121E+02  0.16008712548E+02  0.16658649268E+03  0.18785530777E+03  0.82903655082E+02 0.  0.
         23    2    1    2    0    0 -0.57020006985E+01 -0.12757450548E+01  0.23968040901E+03  0.25126816253E+03  0.75198741349E+02 0.  0.
         11    1    3    3    0    0  0.27203027113E+02  0.46106279571E+02  0.83251150745E+02  0.98977511589E+02  0.00000000000E+00 0. -1.
        -12    1    3    3    0    0 -0.69727969924E+01 -0.30097567023E+02  0.83335341935E+02  0.88877796181E+02  0.00000000000E+00 0.  1.
        -11    1    4    4    0    0 -0.18286529924E+02  0.33651245774E+02  0.12090333218E+03  0.12682436379E+03  0.00000000000E+00 0. -1.
         11    1    4    4    0    0  0.12584529225E+02 -0.34926990829E+02  0.11877707683E+03  0.12444379874E+03  0.00000000000E+00 0.  1.
         21    1    1    2  502  501 -0.14528229422E+02 -0.14732967493E+02  0.46624393097E+02  0.51009448272E+02  0.00000000000E+00 0. -1.
<scales pt_clust_5="13000.00000" pt_clust_6="13000.00000" pt_clust_7="13000.00000" pt_clust_8="13000.00000" pt_clust_9="20.69130"></scales>
<clustering>
<clus scale="   20.691">  2  9  1 -1</clus>
<clus scale="   75.199">  7  8 -1 -1</clus>
<clus scale="   76.249">  1  7  2 -1</clus>
<clus scale="   82.904">  5  6 -1 -1</clus>
<clus scale="   76.249">  1  5  2 -1</clus>
</clustering>
</event>
<event>
 9    1  0.2333971E-005  0.9368861E+02  0.7546771E-02  0.1299469E+00
         -4   -1    0    0    0  501 -0.00000000000E+00  0.00000000000E+00  0.97537411570E+02  0.97537411570E+02  0.00000000000E+00 0.  1.
          3   -1    0    0  502    0  0.00000000000E+00 -0.00000000000E+00 -0.18589404191E+03  0.18589404191E+03  0.00000000000E+00 0. -1.
         23    2    1    2    0    0  0.28863674341E+02  0.28536989044E+02  0.23484564184E+00  0.97853462300E+02  0.89038045192E+02 0.  0.
        -24    2    1    2    0    0 -0.77888005988E+01 -0.25878620759E+02 -0.12064630411E+03  0.14712374263E+03  0.79746451479E+02 0.  0.
         11    1    4    4    0    0  0.35331541634E+02 -0.32952225578E+01 -0.53123288597E+02  0.63884740880E+02  0.00000000000E+00 0. -1.
        -12    1    4    4    0    0 -0.43120342233E+02 -0.22583398201E+02 -0.67523015512E+02  0.83239001750E+02  0.00000000000E+00 0.  1.
        -11    1    3    3    0    0 -0.30640101585E+02 -0.79121926369E+00  0.61155534846E+01  0.31254469240E+02  0.00000000000E+00 0.  1.
         11    1    3    3    0    0  0.59503775926E+02  0.29328208307E+02 -0.58807078428E+01  0.66598993060E+02  0.00000000000E+00 0. -1.
         21    1    1    2  502  501 -0.21074873742E+02 -0.26583682852E+01  0.32054828127E+02  0.38454248549E+02  0.00000000000E+00 0.  1.
<scales pt_clust_5="13000.00000" pt_clust_6="13000.00000" pt_clust_7="13000.00000" pt_clust_8="13000.00000" pt_clust_9="21.24187"></scales>
<clustering>
<clus scale="   21.242">  1  9  2 -1</clus>
<clus scale="   79.746">  5  6 -1 -1</clus>
<clus scale="   84.907">  2  5  1 -1</clus>
<clus scale="   89.038">  7  8 -1 -1</clus>
<clus scale="   84.907">  2  5  1 -1</clus>
</clustering>
</event>
<event>
 9    1  0.2333971E-005  0.1190990E+03  0.7546771E-02  0.1248144E+00
          1   -1    0    0  502    0  0.00000000000E+00  0.00000000000E+00  0.25760881189E+03  0.25760881189E+03  0.00000000000E+00 0. -1.
         -2   -1    0    0    0  501 -0.00000000000E+00 -0.00000000000E+00 -0.12413486902E+03  0.12413486902E+03  0.00000000000E+00 0.  1.
         23    2    1    2    0    0  0.41947371661E+02  0.60837844720E+02 -0.52345996918E+02  0.12727711567E+03  0.89434531589E+02 0.  0.
        -24    2    1    2    0    0 -0.12089691469E+02 -0.79674628012E+02  0.18813461449E+03  0.21908771294E+03  0.78170236053E+02 0.  0.
         13    1    4    4    0    0 -0.18378244504E+02 -0.29963891836E+02  0.15518885420E+03  0.15912000237E+03  0.00000000000E+00 0. -1.
        -14    1    4    4    0    0  0.62885530349E+01 -0.49710736176E+02  0.32945760283E+02  0.59967710570E+02  0.00000000000E+00 0.  1.
        -11    1    3    3    0    0  0.29620864670E+02  0.79714385756E+02 -0.59311950771E+02  0.10368069456E+03  0.00000000000E+00 0.  1.
         11    1    3    3    0    0  0.12326506991E+02 -0.18876541036E+02  0.69659538533E+01  0.23596421109E+02  0.00000000000E+00 0. -1.
         21    1    1    2  502  501 -0.29857680192E+02  0.18836783291E+02 -0.23146747057E+01  0.35378852302E+02  0.00000000000E+00 0.  1.
<scales pt_clust_5="13000.00000" pt_clust_6="13000.00000" pt_clust_7="13000.00000" pt_clust_8="13000.00000" pt_clust_9="35.30305"></scales>
<clustering>
<clus scale="   35.303">  2  9  1 -1</clus>
<clus scale="   78.170">  5  6 -1 -1</clus>
<clus scale="   89.435">  7  8 -1 -1</clus>
<clus scale="  110.890">  1  5  2 -1</clus>
<clus scale="  110.890">  1  5  2 -1</clus>
</clustering>
</event>
<event>
 9    1  0.2333971E-005  0.1029658E+03  0.7546771E-02  0.1284737E+00
          3   -1    0    0  502    0  0.00000000000E+00  0.00000000000E+00  0.14772992059E+03  0.14772992059E+03  0.00000000000E+00 0. -1.
         -4   -1    0    0    0  501 -0.00000000000E+00 -0.00000000000E+00 -0.38614159934E+03  0.38614159934E+03  0.00000000000E+00 0.  1.
        -24    2    1    2    0    0  0.51712172560E+02 -0.55094412467E+02 -0.26596298080E+03  0.28780995372E+03  0.79929464073E+02 0.  0.
         23    2    1    2    0    0 -0.17872176898E+02  0.14424044418E+02  0.10873152925E+03  0.14916237409E+03  0.99495731707E+02 0.  0.
         11    1    3    3    0    0  0.51286625062E+01  0.20534521760E+02 -0.50419674730E+02  0.54681929034E+02  0.00000000000E+00 0. -1.
        -12    1    3    3    0    0  0.46583510054E+02 -0.75628934227E+02 -0.21554330607E+03  0.23312802468E+03  0.00000000000E+00 0.  1.
        -13    1    4    4    0    0 -0.37396035058E+02 -0.31740850651E+02  0.36050160409E+02  0.60873303702E+02  0.00000000000E+00 0.  1.
         13    1    4    4    0    0  0.19523858160E+02  0.46164895068E+02  0.72681368842E+02  0.88289070393E+02  0.00000000000E+00 0. -1.
         21    1    1    2  502  501 -0.33839995662E+02  0.40670368050E+02 -0.81180227208E+02  0.96899192119E+02  0.00000000000E+00 0.  1.
<scales pt_clust_5="13000.00000" pt_clust_6="13000.00000" pt_clust_7="13000.00000" pt_clust_8="13000.00000" pt_clust_9="52.90769"></scales>
<clustering>
<clus scale="   52.908">  2  9  1 -1</clus>
<clus scale="   79.929">  5  6 -1 -1</clus>
<clus scale="   84.210">  2  5  1 -1</clus>
<clus scale="   99.496">  7  8 -1 -1</clus>
<clus scale="  102.966">  1  5  2 -1</clus>
</clustering>
</event>
<event>
 9    1  0.2333971E-005  0.1651665E+03  0.7546771E-02  0.1184482E+00
          1   -1    0    0  502    0  0.00000000000E+00  0.00000000000E+00  0.18520442078E+03  0.18520442078E+03  0.00000000000E+00 0. -1.
         -2   -1    0    0    0  501 -0.00000000000E+00 -0.00000000000E+00 -0.24663707312E+03  0.24663707312E+03  0.00000000000E+00 0.  1.
         23    2    1    2    0    0 -0.58167971602E+02  0.14987174825E+03  0.28432231617E+02  0.18661546048E+03  0.90398475937E+02 0.  0.
        -24    2    1    2    0    0  0.61150283546E+02 -0.10183838797E+03  0.55417211021E-01  0.14323702201E+03  0.80040158425E+02 0.  0.
         11    1    4    4    0    0  0.15074713609E+02 -0.66198355082E+02  0.33880751933E+02  0.75877365252E+02  0.00000000000E+00 0. -1.
        -12    1    4    4    0    0  0.46075569937E+02 -0.35640032887E+02 -0.33825334722E+02  0.67359656756E+02  0.00000000000E+00 0.  1.
        -13    1    3    3    0    0 -0.39771374042E+02  0.64071829080E+02 -0.30033079471E+02  0.81172331107E+02  0.00000000000E+00 0.  1.
         13    1    3    3    0    0 -0.18396597560E+02  0.85799919173E+02  0.58465311088E+02  0.10544312938E+03  0.00000000000E+00 0. -1.
         21    1    1    2  502  501 -0.29823119438E+01 -0.48033360284E+02 -0.89920301172E+02  0.10198901141E+03  0.00000000000E+00 0. -1.
<scales pt_clust_5="13000.00000" pt_clust_6="13000.00000" pt_clust_7="13000.00000" pt_clust_8="13000.00000" pt_clust_9="48.12585"></scales>
<clustering>
<clus scale="   48.126">  2  9  1 -1</clus>
<clus scale="   80.040">  5  6 -1 -1</clus>
<clus scale="   90.398">  7  8 -1 -1</clus>
<clus scale="  159.733">  1  5  2 -1</clus>
<clus scale="  159.733">  1  5  2 -1</clus>
</clustering>
</event>
<event>
 9    1  0.2333971E-005  0.1046491E+03  0.7546771E-02  0.1275313E+00
         -2   -1    0    0    0  501 -0.00000000000E+00  0.00000000000E+00  0.51281428676E+03  0.51281428676E+03  0.00000000000E+00 0.  1.
          1   -1    0    0  502    0  0.00000000000E+00 -0.00000000000E+00 -0.71440389863E+02  0.71440389863E+02  0.00000000000E+00 0. -1.
        -24    2    1    2    0    0  0.49966699269E+02  0.29376318809E+02  0.28969888984E+03  0.30606226267E+03  0.79931362507E+02 0.  0.
         23    2    1    2    0    0 -0.51541893118E+02  0.20434885745E+02 -0.12528842682E+02  0.10659246756E+03  0.90171120318E+02 0.  0.
         11    1    3    3    0    0  0.27151259014E+02 -0.73948401340E+01  0.24365073945E+02  0.37222726324E+02  0.00000000000E+00 0. -1.
        -12    1    3    3    0    0  0.22815440255E+02  0.36771158943E+02  0.26533381590E+03  0.26883953635E+03  0.00000000000E+00 0.  1.
        -13    1    4    4    0    0 -0.41080418768E+02 -0.28060643029E+02 -0.24651082949E+02  0.55521855012E+02  0.00000000000E+00 0.  1.
         13    1    4    4    0    0 -0.10461474349E+02  0.48495528774E+02  0.12122240268E+02  0.51070612545E+02  0.00000000000E+00 0. -1.
         21    1    1    2  502  501  0.15751938482E+01 -0.49811204553E+02  0.16420384974E+03  0.17159994640E+03  0.00000000000E+00 0.  1.
<scales pt_clust_5="13000.00000" pt_clust_6="13000.00000" pt_clust_7="13000.00000" pt_clust_8="13000.00000" pt_clust_9="49.83610"></scales>
<clustering>
<clus scale="   49.836">  1  9  2 -1</clus>
<clus scale="   79.931">  5  6 -1 -1</clus>
<clus scale="   90.171">  7  8 -1 -1</clus>
<clus scale="   95.967">  1  5  2 -1</clus>
<clus scale="  104.649">  2  5  1 -1</clus>
</clustering>
</event>
<event>
 9    1  0.2333971E-005  0.1103533E+03  0.7546771E-02  0.1263358E+00
         -2   -1    0    0    0  501 -0.00000000000E+00  0.00000000000E+00  0.95492124201E+02  0.95492124201E+02  0.00000000000E+00 0.  1.
          1   -1    0    0  502    0  0.00000000000E+00 -0.00000000000E+00 -0.26115009479E+03  0.26115009479E+03  0.00000000000E+00 0. -1.
        -24    2    1    2    0    0  0.28023184647E+02  0.37654232842E+02 -0.27157723605E+02  0.98393527206E+02  0.82101182184E+02 0.  0.
         23    2    1    2    0    0  0.53549038491E+01 -0.75263713713E+02 -0.16377239802E+03  0.20197035260E+03  0.90979796547E+02 0.  0.
         11    1    3    3    0    0 -0.28016425841E+02  0.15101564815E+02 -0.19936836277E+02  0.37556022387E+02  0.00000000000E+00 0. -1.
        -12    1    3    3    0    0  0.56039610488E+02  0.22552668028E+02 -0.72208873279E+01  0.60837504819E+02  0.00000000000E+00 0.  1.
        -11    1    4    4    0    0  0.41464597515E+02 -0.45000584071E+02 -0.13097569808E+03  0.14456486054E+03  0.00000000000E+00 0. -1.
         11    1    4    4    0    0 -0.36109693666E+02 -0.30263129642E+02 -0.32796699935E+02  0.57405492063E+02  0.00000000000E+00 0.  1.
         21    1    1    2  502  501 -0.33378088496E+02  0.37609480871E+02  0.25272151037E+02  0.56278339182E+02  0.00000000000E+00 0.  1.
<scales pt_clust_5="13000.00000" pt_clust_6="13000.00000" pt_clust_7="13000.00000" pt_clust_8="13000.00000" pt_clust_9="50.28489"></scales>
<clustering>
<clus scale="   50.285">  1  9  2 -1</clus>
<clus scale="   82.101">  5  6 -1 -1</clus>
<clus scale="   90.980">  7  8 -1 -1</clus>
<clus scale="  103.156">  1  5  2 -1</clus>
<clus scale="  110.353">  2  5  1 -1</clus>
</clustering>
</event>
<event>
 9    1  0.2333971E-005  0.1002919E+03  0.7546771E-02  0.1284753E+00
          1   -1    0    0  502    0  0.00000000000E+00  0.00000000000E+00  0.52368188712E+03  0.52368188712E+03  0.00000000000E+00 0. -1.
         -2   -1    0    0    0  501 -0.00000000000E+00 -0.00000000000E+00 -0.62368338896E+02  0.62368338896E+02  0.00000000000E+00 0.  1.
        -24    2    1    2    0    0  0.15354838831E+02  0.27748739060E+02  0.13785630691E+02  0.88594097951E+02  0.81566580063E+02 0.  0.
         23    2    1    2    0    0 -0.43467325302E+02  0.14792499412E+02  0.43221002199E+03  0.44421416351E+03  0.91719646442E+02 0.  0.
         11    1    3    3    0    0 -0.33017313866E+02  0.40920509404E+01  0.11779376488E+01  0.33290770988E+02  0.00000000000E+00 0. -1.
        -12    1    3    3    0    0  0.48372152697E+02  0.23656688119E+02  0.12607693043E+02  0.55303326963E+02  0.00000000000E+00 0.  1.
        -11    1    4    4    0    0 -0.62159947748E+02 -0.13147790547E+02  0.34394901160E+03  0.34976798893E+03  0.00000000000E+00 0. -1.
         11    1    4    4    0    0  0.18692622446E+02  0.27940289959E+02  0.88261010394E+02  0.94446174579E+02  0.00000000000E+00 0.  1.
         21    1    1    2  502  501  0.28112486472E+02 -0.42541238472E+02  0.15317895544E+02  0.53241964560E+02  0.00000000000E+00 0.  1.
<scales pt_clust_5="13000.00000" pt_clust_6="13000.00000" pt_clust_7="13000.00000" pt_clust_8="13000.00000" pt_clust_9="50.99087"></scales>
<clustering>
<clus scale="   50.991">  2  9  1 -1</clus>
<clus scale="   81.567">  5  6 -1 -1</clus>
<clus scale="   91.099">  2  5  1 -1</clus>
<clus scale="   91.720">  7  8 -1 -1</clus>
<clus scale="  100.292">  1  5  2 -1</clus>
</clustering>
</event>
<event>
 9    1  0.2333971E-005  0.1064489E+03  0.7546771E-02  0.1269988E+00
         -2   -1    0    0    0  501 -0.00000000000E+00  0.00000000000E+00  0.60027629472E+02  0.60027629472E+02  0.00000000000E+00 0.  1.
          1   -1    0    0  502    0  0.00000000000E+00 -0.00000000000E+00 -0.43708607013E+03  0.43708607013E+03  0.00000000000E+00 0. -1.
        -24    2    1    2    0    0 -0.50032104203E+02 -0.52034328229E+02 -0.65170442679E+02  0.12854460701E+03  0.84057995610E+02 0.  0.
         23    2    1    2    0    0  0.52543061461E+02  0.12366293128E+02 -0.31147704495E+03  0.32881954168E+03  0.90502170968E+02 0.  0.
         11    1    3    3    0    0  0.34536539114E+01 -0.31004247010E+02 -0.63843537012E+02  0.71057640519E+02  0.00000000000E+00 0. -1.
        -12    1    3    3    0    0 -0.53485758114E+02 -0.21030081219E+02 -0.13269056671E+01  0.57486966486E+02  0.00000000000E+00 0.  1.
        -11    1    4    4    0    0  0.76493770240E+02  0.88966188805E+01 -0.27031274720E+03  0.28106836893E+03  0.00000000000E+00 0. -1.
         11    1    4    4    0    0 -0.23950708779E+02  0.34696742471E+01 -0.41164297746E+02  0.47751172754E+02  0.00000000000E+00 0.  1.
         21    1    1    2  502  501 -0.25109572581E+01  0.39668035101E+02 -0.41095302732E+00  0.39749550910E+02  0.00000000000E+00 0. -1.
<scales pt_clust_5="13000.00000" pt_clust_6="13000.00000" pt_clust_7="13000.00000" pt_clust_8="13000.00000" pt_clust_9="39.74743"></scales>
<clustering>
<clus scale="   39.747">  1  9  2 -1</clus>
<clus scale="   84.058">  5  6 -1 -1</clus>
<clus scale="   90.502">  7  8 -1 -1</clus>
<clus scale="  101.027">  1  5  2 -1</clus>
<clus scale="  106.449">  2  5  1 -1</clus>
</clustering>
</event>
<event>
 9    1  0.2333971E-005  0.9600032E+02  0.7546771E-02  0.1295390E+00
          1   -1    0    0  502    0  0.00000000000E+00  0.00000000000E+00  0.80652031326E+02  0.80652031326E+02  0.00000000000E+00 0. -1.
         -2   -1    0    0    0  501 -0.00000000000E+00 -0.00000000000E+00 -0.16522032072E+03  0.16522032072E+03  0.00000000000E+00 0.  1.
        -24    2    1    2    0    0  0.47107096264E+01 -0.31654649641E+02 -0.70845033460E+02  0.11184297835E+03  0.80409112733E+02 0.  0.
         23    2    1    2    0    0 -0.30158012166E+02  0.10627026217E+02  0.23910605229E+01  0.97295229521E+02  0.91859703533E+02 0.  0.
         13    1    3    3    0    0 -0.34791620307E+01  0.26878238519E+02 -0.17786381624E+02  0.32417582353E+02  0.00000000000E+00 0. -1.
        -14    1    3    3    0    0  0.81898716571E+01 -0.58532888161E+02 -0.53058651836E+02  0.79425395994E+02  0.00000000000E+00 0.  1.
        -11    1    4    4    0    0 -0.30285640889E+02 -0.37524745658E+02  0.77706031682E+01  0.48843718679E+02  0.00000000000E+00 0.  1.
         11    1    4    4    0    0  0.12762872300E+00  0.48151771876E+02 -0.53795426453E+01  0.48451510843E+02  0.00000000000E+00 0. -1.
         21    1    1    2  502  501  0.25447302539E+02  0.21027623424E+02 -0.16114316454E+02  0.36734144174E+02  0.00000000000E+00 0.  1.
<scales pt_clust_5="13000.00000" pt_clust_6="13000.00000" pt_clust_7="13000.00000" pt_clust_8="13000.00000" pt_clust_9="33.01100"></scales>
<clustering>
<clus scale="   33.011">  2  9  1 -1</clus>
<clus scale="   80.409">  5  6 -1 -1</clus>
<clus scale="   85.109">  2  5  1 -1</clus>
<clus scale="   91.860">  7  8 -1 -1</clus>
<clus scale="   96.000">  1  5  2 -1</clus>
</clustering>
</event>
<event>
 9    1  0.2333971E-005  0.2086616E+03  0.7546771E-02  0.1171746E+00
          1   -1    0    0  502    0  0.00000000000E+00  0.00000000000E+00  0.10202078119E+04  0.10202078119E+04  0.00000000000E+00 0. -1.
         -2   -1    0    0    0  501 -0.00000000000E+00 -0.00000000000E+00 -0.11610585402E+03  0.11610585402E+03  0.00000000000E+00 0.  1.
        -24    2    1    2    0    0 -0.61065412339E+02 -0.28279261530E+02  0.69499581541E+02  0.12640159267E+03  0.81353977032E+02 0.  0.
         23    2    1    2    0    0  0.20668861136E+02 -0.18341632781E+03  0.75127284405E+03  0.77884776438E+03  0.90134359373E+02 0.  0.
         11    1    3    3    0    0 -0.13168650023E+02  0.25589617874E+02  0.40959246804E+01  0.29069201664E+02  0.00000000000E+00 0. -1.
        -12    1    3    3    0    0 -0.47896762317E+02 -0.53868879405E+02  0.65403656861E+02  0.97332391009E+02  0.00000000000E+00 0.  1.
        -13    1    4    4    0    0 -0.67727868575E+01 -0.31330619071E+02  0.41460132637E+02  0.52406306219E+02  0.00000000000E+00 0.  1.
         13    1    4    4    0    0  0.27441647993E+02 -0.15208570873E+03  0.70981271141E+03  0.72644145816E+03  0.00000000000E+00 0. -1.
         21    1    1    2  502  501  0.40396551204E+02  0.21169558934E+03  0.83329532317E+02  0.23106430890E+03  0.00000000000E+00 0.  1.
<scales pt_clust_5="13000.00000" pt_clust_6="13000.00000" pt_clust_7="13000.00000" pt_clust_8="13000.00000" pt_clust_9="188.18995"></scales>
<clustering>
<clus scale="   81.354">  5  6 -1 -1</clus>
<clus scale="   90.134">  7  8 -1 -1</clus>
<clus scale="  105.580">  2  5  1 -1</clus>
<clus scale="  188.190">  2  9  1 -1</clus>
<clus scale="  208.662">  1  5  2 -1</clus>
</clustering>
</event>
<event>
 9    1  0.2333971E-005  0.1215818E+03  0.7546771E-02  0.1245179E+00
          1   -1    0    0  502    0  0.00000000000E+00  0.00000000000E+00  0.47170822331E+03  0.47170822331E+03  0.00000000000E+00 0. -1.
         -2   -1    0    0    0  501 -0.00000000000E+00 -0.00000000000E+00 -0.43477678147E+02  0.43477678147E+02  0.00000000000E+00 0.  1.
        -24    2    1    2    0    0  0.41832142187E+02  0.54855547309E+02  0.87308884833E+02  0.13696070829E+03  0.79851957109E+02 0.  0.
         23    2    1    2    0    0 -0.65405873017E+02 -0.47794546246E+02  0.32717945056E+03  0.35003961439E+03  0.94440943990E+02 0.  0.
         13    1    3    3    0    0  0.14111273534E+02  0.52722121664E+02  0.93696699022E+02  0.10843348911E+03  0.00000000000E+00 0. -1.
        -14    1    3    3    0    0  0.27720868654E+02  0.21334256452E+01 -0.63878141894E+01  0.28527219178E+02  0.00000000000E+00 0.  1.
        -13    1    4    4    0    0  0.52610072288E+01 -0.51971233326E+02  0.11360933674E+03  0.12504306732E+03  0.00000000000E+00 0.  1.
         13    1    4    4    0    0 -0.70666880246E+02  0.41766870798E+01  0.21357011382E+03  0.22499654707E+03  0.00000000000E+00 0. -1.
         21    1    1    2  502  501  0.23573730830E+02 -0.70610010627E+01  0.13742209768E+02  0.28185578769E+02  0.00000000000E+00 0.  1.
<scales pt_clust_5="13000.00000" pt_clust_6="13000.00000" pt_clust_7="13000.00000" pt_clust_8="13000.00000" pt_clust_9="24.60851"></scales>
<clustering>
<clus scale="   24.609">  2  9  1 -1</clus>
<clus scale="   79.852">  5  6 -1 -1</clus>
<clus scale="   94.441">  7  8 -1 -1</clus>
<clus scale="  110.632">  2  5  1 -1</clus>
<clus scale="  121.582">  1  5  2 -1</clus>
</clustering>
</event>
<event>
 9    1  0.2333971E-005  0.1556362E+03  0.7546771E-02  0.1195955E+00
          3   -1    0    0  502    0  0.00000000000E+00  0.00000000000E+00  0.12633409599E+03  0.12633409599E+03  0.00000000000E+00 0. -1.
         -4   -1    0    0    0  501 -0.00000000000E+00 -0.00000000000E+00 -0.46931910250E+03  0.46931910250E+03  0.00000000000E+00 0.  1.
         23    2    1    2    0    0  0.22430659653E+02 -0.10835245639E+03 -0.33691491694E+03  0.36636434490E+03  0.92020555631E+02 0.  0.
        -24    2    1    2    0    0 -0.39451941500E+02  0.12152869125E+03  0.58603766354E+02  0.16112695191E+03  0.78751601342E+02 0.  0.
         13    1    4    4    0    0 -0.30092646567E+02  0.13073855288E+03  0.43321421362E+02  0.14097830378E+03  0.00000000000E+00 0. -1.
        -14    1    4    4    0    0 -0.93592949330E+01 -0.92098616307E+01  0.15282344992E+02  0.20148648127E+02  0.00000000000E+00 0.  1.
        -13    1    3    3    0    0 -0.30472235544E+02 -0.97145194173E+01 -0.75511610574E+02  0.82005684913E+02  0.00000000000E+00 0. -1.
         13    1    3    3    0    0  0.52902895197E+02 -0.98637936970E+02 -0.26140330636E+03  0.28435865998E+03  0.00000000000E+00 0.  1.
         21    1    1    2  502  501  0.17021281846E+02 -0.13176234866E+02 -0.64673855927E+02  0.68161901685E+02  0.00000000000E+00 0.  1.
<scales pt_clust_5="13000.00000" pt_clust_6="13000.00000" pt_clust_7="13000.00000" pt_clust_8="13000.00000" pt_clust_9="21.52527"></scales>
<clustering>
<clus scale="   21.525">  2  9  1 -1</clus>
<clus scale="   78.752">  5  6 -1 -1</clus>
<clus scale="   92.021">  7  8 -1 -1</clus>
<clus scale="  148.178">  1  5  2 -1</clus>
<clus scale="  148.178">  1  5  2 -1</clus>
</clustering>
</event>
<event>
 9    1  0.2333971E-005  0.1126386E+03  0.7546771E-02  0.1256470E+00
         -2   -1    0    0    0  501 -0.00000000000E+00  0.00000000000E+00  0.11478747891E+03  0.11478747891E+03  0.00000000000E+00 0.  1.
          1   -1    0    0  502    0  0.00000000000E+00 -0.00000000000E+00 -0.45345297544E+03  0.45345297544E+03  0.00000000000E+00 0. -1.
         23    2    1    2    0    0  0.24125057600E+02 -0.61618781615E+02  0.65523557260E+02  0.12764536701E+03  0.87298971996E+02 0.  0.
        -24    2    1    2    0    0 -0.61674054989E+01  0.99153800496E+02 -0.31664553427E+03  0.34366613027E+03  0.89288866465E+02 0.  0.
         11    1    4    4    0    0 -0.21314728177E+02 -0.30617047562E+01 -0.19442161203E+02  0.29011882143E+02  0.00000000000E+00 0. -1.
        -12    1    4    4    0    0  0.15147322678E+02  0.10221550525E+03 -0.29720337307E+03  0.31465424812E+03  0.00000000000E+00 0.  1.
        -13    1    3    3    0    0  0.47858465404E+02 -0.67178661810E+02  0.61621023134E+02  0.10295900060E+03  0.00000000000E+00 0.  1.
         13    1    3    3    0    0 -0.23733407803E+02  0.55598801950E+01  0.39025341251E+01  0.24686366406E+02  0.00000000000E+00 0. -1.
         21    1    1    2  502  501 -0.17957652101E+02 -0.37535018881E+02 -0.87543519519E+02  0.96928957082E+02  0.00000000000E+00 0. -1.
<scales pt_clust_5="13000.00000" pt_clust_6="13000.00000" pt_clust_7="13000.00000" pt_clust_8="13000.00000" pt_clust_9="41.60955"></scales>
<clustering>
<clus scale="   41.610">  2  9  1 -1</clus>
<clus scale="   87.299">  7  8 -1 -1</clus>
<clus scale="   89.289">  5  6 -1 -1</clus>
<clus scale="  111.068">  1  7  2 -1</clus>
<clus scale="   41.610">  2  5  1 -1</clus>
</clustering>
</event>
<event>
 9    1  0.2333971E-005  0.1185015E+03  0.7546771E-02  0.1249563E+00
         -2   -1    0    0    0  501 -0.00000000000E+00  0.00000000000E+00  0.17838870086E+03  0.17838870086E+03  0.00000000000E+00 0.  1.
          1   -1    0    0  502    0  0.00000000000E+00 -0.00000000000E+00 -0.62254504688E+03  0.62254504688E+03  0.00000000000E+00 0. -1.
        -24    2    1    2    0    0  0.75909945666E+02 -0.35423646807E+02 -0.22996582118E+03  0.25706009413E+03  0.78603170923E+02 0.  0.
         23    2    1    2    0    0 -0.74487090754E+02 -0.26968016385E+01 -0.36753453904E+03  0.38585599700E+03  0.90816373028E+02 0.  0.
         11    1    3    3    0    0 -0.68935430300E+01 -0.25846353156E+02 -0.28790016210E+02  0.39299108646E+02  0.00000000000E+00 0. -1.
        -12    1    3    3    0    0  0.82803488696E+02 -0.95772936508E+01 -0.20117580497E+03  0.21776098549E+03  0.00000000000E+00 0.  1.
        -13    1    4    4    0    0  0.11685485400E+02 -0.22199423418E+02 -0.45915244359E+02  0.52321837063E+02  0.00000000000E+00 0.  1.
         13    1    4    4    0    0 -0.86172576154E+02  0.19502621780E+02 -0.32161929468E+03  0.33353415994E+03  0.00000000000E+00 0. -1.
         21    1    1    2  502  501 -0.14228549122E+01  0.38120448446E+02  0.15334401420E+03  0.15801765660E+03  0.00000000000E+00 0.  1.
<scales pt_clust_5="13000.00000" pt_clust_6="13000.00000" pt_clust_7="13000.00000" pt_clust_8="13000.00000" pt_clust_9="38.14699"></scales>
<clustering>
<clus scale="   38.147">  1  9  2 -1</clus>
<clus scale="   78.603">  5  6 -1 -1</clus>
<clus scale="   90.816">  7  8 -1 -1</clus>
<clus scale="  109.423">  1  5  2 -1</clus>
<clus scale="  118.501">  2  5  1 -1</clus>
</clustering>
</event>
<event>
 9    1  0.2653894E-005  0.9526554E+02  0.7546771E-02  0.1296203E+00
          1   -1    0    0  502    0  0.00000000000E+00  0.00000000000E+00  0.63945498528E+03  0.63945498528E+03  0.00000000000E+00 0. -1.
         -2   -1    0    0    0  501 -0.00000000000E+00 -0.00000000000E+00 -0.11100233481E+03  0.11100233481E+03  0.00000000000E+00 0.  1.
         23    2    1    2    0    0 -0.17159580440E+02 -0.39186081812E+02 -0.71320354599E+02  0.12378561089E+03  0.91685791021E+02 0.  0.
        -24    2    1    2    0    0 -0.79663844595E+01  0.24394095037E+02  0.58958718409E+03  0.59578695675E+03  0.81795568545E+02 0.  0.
         13    1    4    4    0    0 -0.39172096711E+02  0.21406177741E+02  0.19907119568E+03  0.20401475082E+03  0.00000000000E+00 0. -1.
        -14    1    4    4    0    0  0.31205712251E+02  0.29879172963E+01  0.39051598841E+03  0.39177220592E+03  0.00000000000E+00 0.  1.
        -13    1    3    3    0    0 -0.30505188247E+02  0.15523903771E+02 -0.17405229869E+01  0.34272255813E+02  0.00000000000E+00 0. -1.
         13    1    3    3    0    0  0.13345607807E+02 -0.54709985583E+02 -0.69579831612E+02  0.89513355078E+02  0.00000000000E+00 0.  1.
         21    1    1    2  502  501  0.25125964899E+02  0.14791986775E+02  0.10185820975E+02  0.30884752448E+02  0.00000000000E+00 0.  1.
<scales pt_clust_5="13000.00000" pt_clust_6="13000.00000" pt_clust_7="13000.00000" pt_clust_8="13000.00000" pt_clust_9="29.15677"></scales>
<clustering>
<clus scale="   29.157">  2  9  1 -1</clus>
<clus scale="   81.796">  5  6 -1 -1</clus>
<clus scale="   85.789">  1  5  2 -1</clus>
<clus scale="   91.686">  7  8 -1 -1</clus>
<clus scale="   85.789">  1  5  2 -1</clus>
</clustering>
</event>
<event>
 9    1  0.2333971E-005  0.1032414E+03  0.7546771E-02  0.1280936E+00
         -2   -1    0    0    0  501 -0.00000000000E+00  0.00000000000E+00  0.10667172354E+03  0.10667172354E+03  0.00000000000E+00 0.  1.
          1   -1    0    0  502    0  0.00000000000E+00 -0.00000000000E+00 -0.20992089475E+03  0.20992089475E+03  0.00000000000E+00 0. -1.
         23    2    1    2    0    0 -0.38948257935E+02 -0.23508342114E+01 -0.40722551251E+01  0.99173076629E+02  0.91083602523E+02 0.  0.
        -24    2    1    2    0    0  0.40860367757E+02  0.34232349861E+02 -0.13866489623E+03  0.16663186815E+03  0.75477166116E+02 0.  0.
         11    1    4    4    0    0  0.27513201586E+02 -0.16291783976E+02 -0.22041942168E+02  0.38836139113E+02  0.00000000000E+00 0. -1.
        -12    1    4    4    0    0  0.13347166171E+02  0.50524133837E+02 -0.11662295407E+03  0.12779572904E+03  0.00000000000E+00 0.  1.
        -13    1    3    3    0    0 -0.42195501063E+02 -0.26373332909E+02  0.29437115860E+02  0.57814849207E+02  0.00000000000E+00 0.  1.
         13    1    3    3    0    0  0.32472431281E+01  0.24022498697E+02 -0.33509370985E+02  0.41358227421E+02  0.00000000000E+00 0. -1.
         21    1    1    2  502  501 -0.19121098220E+01 -0.31881515650E+02  0.39487980150E+02  0.50787673509E+02  0.00000000000E+00 0. -1.
<scales pt_clust_5="13000.00000" pt_clust_6="13000.00000" pt_clust_7="13000.00000" pt_clust_8="13000.00000" pt_clust_9="31.93880"></scales>
<clustering>
<clus scale="   31.939">  1  9  2 -1</clus>
<clus scale="   75.477">  5  6 -1 -1</clus>
<clus scale="   89.774">  2  5  1 -1</clus>
<clus scale="   91.084">  7  8 -1 -1</clus>
<clus scale="   89.774">  2  5  1 -1</clus>
</clustering>
</event>
<event>
 9    1  0.2696645E-005  0.1085843E+03  0.7546771E-02  0.1267747E+00
         -2   -1    0    0    0  501 -0.00000000000E+00  0.00000000000E+00  0.32889910433E+03  0.32889910433E+03  0.00000000000E+00 0.  1.
          1   -1    0    0  502    0  0.00000000000E+00 -0.00000000000E+00 -0.31451581250E+03  0.31451581250E+03  0.00000000000E+00 0. -1.
         23    2    1    2    0    0 -0.30274366767E+02  0.73189575919E+02  0.28561548391E+03  0.30983249270E+03  0.90259168941E+02 0.  0.
        -24    2    1    2    0    0  0.12385355640E+02 -0.58581104278E+02 -0.28830256730E+03  0.30486271186E+03  0.78979490743E+02 0.  0.
         11    1    4    4    0    0 -0.29943244320E+02 -0.45745485915E+02 -0.14957197016E+03  0.15925144150E+03  0.00000000000E+00 0. -1.
        -12    1    4    4    0    0  0.42328599960E+02 -0.12835618364E+02 -0.13873059713E+03  0.14561127036E+03  0.00000000000E+00 0.  1.
        -13    1    3    3    0    0 -0.39092268986E+02  0.33109750120E+02  0.53329806014E+02  0.73949504778E+02  0.00000000000E+00 0. -1.
         13    1    3    3    0    0  0.88179022184E+01  0.40079825798E+02  0.23228567790E+03  0.23588298793E+03  0.00000000000E+00 0.  1.
         21    1    1    2  502  501  0.17889011128E+02 -0.14608471640E+02  0.17070375209E+02  0.28719712265E+02  0.00000000000E+00 0.  1.
<scales pt_clust_5="13000.00000" pt_clust_6="13000.00000" pt_clust_7="13000.00000" pt_clust_8="13000.00000" pt_clust_9="23.09598"></scales>
<clustering>
<clus scale="   23.096">  1  9  2 -1</clus>
<clus scale="   78.979">  5  6 -1 -1</clus>
<clus scale="   90.259">  7  8 -1 -1</clus>
<clus scale="   99.406">  2  5  1 -1</clus>
<clus scale="   99.406">  2  5  1 -1</clus>
</clustering>
</event>
<event>
 9    1  0.2333971E-005  0.1536208E+03  0.7546771E-02  0.1197907E+00
         -2   -1    0    0    0  501 -0.00000000000E+00  0.00000000000E+00  0.54514408835E+03  0.54514408835E+03  0.00000000000E+00 0.  1.
          1   -1    0    0  502    0  0.00000000000E+00 -0.00000000000E+00 -0.42251460335E+03  0.42251460335E+03  0.00000000000E+00 0. -1.
         23    2    1    2    0    0 -0.15811119916E+03 -0.49099547935E+02  0.45300835626E+03  0.49051993564E+03  0.89349423647E+02 0.  0.
        -24    2    1    2    0    0  0.12274506174E+03  0.16532414920E+02 -0.38042780734E+03  0.40773934806E+03  0.78653597757E+02 0.  0.
         13    1    4    4    0    0  0.13055626465E+03  0.29939972211E+01 -0.34916647724E+03  0.37278831941E+03  0.00000000000E+00 0. -1.
        -14    1    4    4    0    0 -0.78112029111E+01  0.13538417699E+02 -0.31261330097E+02  0.34951028656E+02  0.00000000000E+00 0.  1.
        -11    1    3    3    0    0 -0.49669074912E+02  0.15351482617E+02  0.69470394449E+02  0.86768777369E+02  0.00000000000E+00 0.  1.
         11    1    3    3    0    0 -0.10844212425E+03 -0.64451030552E+02  0.38353796181E+03  0.40375115827E+03  0.00000000000E+00 0. -1.
         21    1    1    2  502  501  0.35366137425E+02  0.32567133015E+02  0.50048936072E+02  0.69399408002E+02  0.00000000000E+00 0.  1.
<scales pt_clust_5="13000.00000" pt_clust_6="13000.00000" pt_clust_7="13000.00000" pt_clust_8="13000.00000" pt_clust_9="48.07683"></scales>
<clustering>
<clus scale="   48.077">  1  9  2 -1</clus>
<clus scale="   78.654">  5  6 -1 -1</clus>
<clus scale="   89.349">  7  8 -1 -1</clus>
<clus scale="  147.656">  2  5  1 -1</clus>
<clus scale="  147.656">  2  5  1 -1</clus>
</clustering>
</event>
<event>
 9    1  0.2333971E-005  0.1056893E+03  0.7546771E-02  0.1270054E+00
          1   -1    0    0  502    0  0.00000000000E+00  0.00000000000E+00  0.14477615791E+03  0.14477615791E+03  0.00000000000E+00 0. -1.
         -2   -1    0    0    0  501 -0.00000000000E+00 -0.00000000000E+00 -0.14497422441E+03  0.14497422441E+03  0.00000000000E+00 0.  1.
        -24    2    1    2    0    0  0.71753483298E+01 -0.43631887918E+02 -0.75726864517E+02  0.12056449696E+03  0.82740634826E+02 0.  0.
         23    2    1    2    0    0 -0.59698039006E+01  0.65670191853E+02  0.91609031398E+02  0.14187811937E+03  0.85959138351E+02 0.  0.
         11    1    3    3    0    0 -0.25648847663E+02 -0.22323726614E+02  0.14486958669E+01  0.34033966505E+02  0.00000000000E+00 0. -1.
        -12    1    3    3    0    0  0.32824195993E+02 -0.21308161304E+02 -0.77175560384E+02  0.86530530458E+02  0.00000000000E+00 0.  1.
        -11    1    4    4    0    0 -0.43310321786E+02  0.22852657716E+02  0.57845589540E+02  0.75790105998E+02  0.00000000000E+00 0.  1.
         11    1    4    4    0    0  0.37340517886E+02  0.42817534137E+02  0.33763441858E+02  0.66088013373E+02  0.00000000000E+00 0. -1.
         21    1    1    2  502  501 -0.12055444292E+01 -0.22038303935E+02 -0.16080233382E+02  0.27307765989E+02  0.00000000000E+00 0. -1.
<scales pt_clust_5="13000.00000" pt_clust_6="13000.00000" pt_clust_7="13000.00000" pt_clust_8="13000.00000" pt_clust_9="22.07125"></scales>
<clustering>
<clus scale="   22.071">  2  9  1 -1</clus>
<clus scale="   82.741">  5  6 -1 -1</clus>
<clus scale="   85.959">  7  8 -1 -1</clus>
<clus scale="  103.089">  2  5  1 -1</clus>
<clus scale="  105.689">  1  5  2 -1</clus>
</clustering>
</event>
<event>
 9    1  0.2333971E-005  0.1037809E+03  0.7546771E-02  0.1277062E+00
          1   -1    0    0  502    0  0.00000000000E+00  0.00000000000E+00  0.56083684837E+02  0.56083684837E+02  0.00000000000E+00 0. -1.
         -2   -1    0    0    0  501 -0.00000000000E+00 -0.00000000000E+00 -0.45209417577E+03  0.45209417577E+03  0.00000000000E+00 0.  1.
        -24    2    1    2    0    0  0.94449500198E+01  0.22956570828E+02 -0.12585213729E+03  0.15195285080E+03  0.81453650494E+02 0.  0.
         23    2    1    2    0    0  0.94025311648E+01 -0.63453381435E+02 -0.35211743899E+02  0.11706997925E+03  0.91382569039E+02 0.  0.
         13    1    3    3    0    0  0.37577419943E+02 -0.29345292076E+01 -0.28171961485E+02  0.47056703722E+02  0.00000000000E+00 0. -1.
        -14    1    3    3    0    0 -0.28132469924E+02  0.25891100036E+02 -0.97680175808E+02  0.10489614707E+03  0.00000000000E+00 0.  1.
        -13    1    4    4    0    0  0.35005253378E+02 -0.75598329159E+02 -0.25946585488E+02  0.87256520869E+02  0.00000000000E+00 0. -1.
         13    1    4    4    0    0 -0.25602722213E+02  0.12144947724E+02 -0.92651584116E+01  0.29813458376E+02  0.00000000000E+00 0.  1.
         21    1    1    2  502  501 -0.18847481185E+02  0.40496810607E+02 -0.23494660974E+03  0.23915503056E+03  0.00000000000E+00 0.  1.
<scales pt_clust_5="13000.00000" pt_clust_6="13000.00000" pt_clust_7="13000.00000" pt_clust_8="13000.00000" pt_clust_9="44.66788"></scales>
<clustering>
<clus scale="   44.668">  2  9  1 -1</clus>
<clus scale="   81.454">  5  6 -1 -1</clus>
<clus scale="   91.383">  7  8 -1 -1</clus>
<clus scale="   95.155">  2  5  1 -1</clus>
<clus scale="  103.781">  1  5  2 -1</clus>
</clustering>
</event>
<event>
 9    1  0.2333971E-005  0.1446725E+03  0.7546771E-02  0.1208816E+00
          1   -1    0    0  502    0  0.00000000000E+00  0.00000000000E+00  0.29300712897E+03  0.29300712897E+03  0.00000000000E+00 0. -1.
         -2   -1    0    0    0  501 -0.00000000000E+00 -0.00000000000E+00 -0.34662233018E+03  0.34662233018E+03  0.00000000000E+00 0.  1.
        -24    2    1    2    0    0  0.63775942745E+01  0.95611774718E+02  0.35810811315E+02  0.13189926384E+03  0.83262935458E+02 0.  0.
         23    2    1    2    0    0 -0.47466345978E+02 -0.11449516093E+03  0.17865316934E+03  0.23586383929E+03  0.91392559295E+02 0.  0.
         11    1    3    3    0    0  0.42457394050E+02  0.29872308073E+02  0.16321681027E+02  0.54418584791E+02  0.00000000000E+00 0. -1.
        -12    1    3    3    0    0 -0.36079799775E+02  0.65739466645E+02  0.19489130288E+02  0.77480679049E+02  0.00000000000E+00 0.  1.
        -11    1    4    4    0    0  0.51826059748E+01 -0.97351715166E+02  0.99820634621E+02  0.13952911863E+03  0.00000000000E+00 0.  1.
         11    1    4    4    0    0 -0.52648951953E+02 -0.17143445760E+02  0.78832534717E+02  0.96334720658E+02  0.00000000000E+00 0. -1.
         21    1    1    2  502  501  0.41088751704E+02  0.18883386209E+02 -0.26807918185E+03  0.27186635602E+03  0.00000000000E+00 0.  1.
<scales pt_clust_5="13000.00000" pt_clust_6="13000.00000" pt_clust_7="13000.00000" pt_clust_8="13000.00000" pt_clust_9="45.22021"></scales>
<clustering>
<clus scale="   45.220">  2  9  1 -1</clus>
<clus scale="   83.263">  5  6 -1 -1</clus>
<clus scale="   91.393">  7  8 -1 -1</clus>
<clus scale="  139.679">  2  5  1 -1</clus>
<clus scale="  144.673">  1  5  2 -1</clus>
</clustering>
</event>
<event>
 9    1  0.2333971E-005  0.1333446E+03  0.7546771E-02  0.1225462E+00
          3   -1    0    0  502    0  0.00000000000E+00  0.00000000000E+00  0.47594096213E+03  0.47594096213E+03  0.00000000000E+00 0. -1.
         -4   -1    0    0    0  501 -0.00000000000E+00 -0.00000000000E+00 -0.11989401610E+03  0.11989401610E+03  0.00000000000E+00 0.  1.
        -24    2    1    2    0    0  0.22896325489E+02 -0.11124463613E+03 -0.29196494438E+02  0.14196990607E+03  0.80021298124E+02 0.  0.
         23    2    1    2    0    0 -0.32970605353E+02  0.88904208586E+02  0.40270635689E+03  0.42377289266E+03  0.91760751678E+02 0.  0.
         13    1    3    3    0    0  0.50421485623E+02 -0.50681046144E+02 -0.23265585193E+02  0.75180995637E+02  0.00000000000E+00 0. -1.
        -14    1    3    3    0    0 -0.27525160134E+02 -0.60563589981E+02 -0.59309092455E+01  0.66788910429E+02  0.00000000000E+00 0.  1.
        -13    1    4    4    0    0 -0.46750621669E+02  0.51325093699E+02  0.35393586612E+03  0.36068058334E+03  0.00000000000E+00 0. -1.
         13    1    4    4    0    0  0.13780016316E+02  0.37579114886E+02  0.48770490770E+02  0.63092309319E+02  0.00000000000E+00 0.  1.
         21    1    1    2  502  501  0.10074279865E+02  0.22340427540E+02 -0.17462916420E+02  0.30092179504E+02  0.00000000000E+00 0. -1.
<scales pt_clust_5="13000.00000" pt_clust_6="13000.00000" pt_clust_7="13000.00000" pt_clust_8="13000.00000" pt_clust_9="24.50685"></scales>
<clustering>
<clus scale="   24.507">  2  9  1 -1</clus>
<clus scale="   80.021">  5  6 -1 -1</clus>
<clus scale="   91.761">  7  8 -1 -1</clus>
<clus scale="  125.555">  2  5  1 -1</clus>
<clus scale="  133.345">  1  5  2 -1</clus>
</clustering>
</event>
<event>
 9    1  0.2333971E-005  0.1683817E+03  0.7546771E-02  0.1180419E+00
         -2   -1    0    0    0  501 -0.00000000000E+00  0.00000000000E+00  0.19359050349E+03  0.19359050349E+03  0.00000000000E+00 0.  1.
          1   -1    0    0  502    0  0.00000000000E+00 -0.00000000000E+00 -0.55664830799E+03  0.55664830799E+03  0.00000000000E+00 0. -1.
         23    2    1    2    0    0 -0.10705409256E+03  0.19690660037E+02  0.69394696342E+02  0.15712850345E+03  0.89584830695E+02 0.  0.
        -24    2    1    2    0    0  0.14604030881E+03  0.20580251117E+02 -0.48656563321E+03  0.51520072942E+03  0.83272790540E+02 0.  0.
         13    1    4    4    0    0  0.13758858205E+03  0.42068732115E+02 -0.44462102062E+03  0.46732028429E+03  0.00000000000E+00 0. -1.
        -14    1    4    4    0    0  0.84517267593E+01 -0.21488480998E+02 -0.41944612593E+02  0.47880445135E+02  0.00000000000E+00 0.  1.
        -13    1    3    3    0    0 -0.18804328898E+02  0.42336049762E+02  0.40543204255E+02  0.61560501184E+02  0.00000000000E+00 0. -1.
         13    1    3    3    0    0 -0.88249763662E+02 -0.22645389725E+02  0.28851492087E+02  0.95568002270E+02  0.00000000000E+00 0.  1.
         21    1    1    2  502  501 -0.38986216249E+02 -0.40270911153E+02  0.54113132372E+02  0.77909578600E+02  0.00000000000E+00 0.  1.
<scales pt_clust_5="13000.00000" pt_clust_6="13000.00000" pt_clust_7="13000.00000" pt_clust_8="13000.00000" pt_clust_9="56.05061"></scales>
<clustering>
<clus scale="   56.051">  1  9  2 -1</clus>
<clus scale="   83.273">  5  6 -1 -1</clus>
<clus scale="   89.585">  7  8 -1 -1</clus>
<clus scale="  165.110">  2  5  1 -1</clus>
<clus scale="  165.110">  2  5  1 -1</clus>
</clustering>
</event>
<event>
 9    1  0.2333971E-005  0.1084572E+03  0.7546771E-02  0.1268169E+00
          1   -1    0    0  502    0  0.00000000000E+00  0.00000000000E+00  0.23881051260E+03  0.23881051260E+03  0.00000000000E+00 0. -1.
         -2   -1    0    0    0  501 -0.00000000000E+00 -0.00000000000E+00 -0.62653745931E+02  0.62653745931E+02  0.00000000000E+00 0.  1.
        -24    2    1    2    0    0 -0.49059919019E+02  0.39473414587E+02  0.45146319156E+02  0.11198423993E+03  0.80853285312E+02 0.  0.
         23    2    1    2    0    0  0.54534595330E+02 -0.11514678958E+02  0.11060636189E+03  0.15443733479E+03  0.92252442612E+02 0.  0.
         13    1    3    3    0    0 -0.52235597716E+02  0.51239938662E+02  0.88602631673E+01  0.73706127603E+02  0.00000000000E+00 0. -1.
        -14    1    3    3    0    0  0.31756786975E+01 -0.11766524074E+02  0.36286055989E+02  0.38278112326E+02  0.00000000000E+00 0.  1.
        -13    1    4    4    0    0  0.12127583792E+02 -0.47309472855E+02  0.32656086212E+02  0.58751038093E+02  0.00000000000E+00 0.  1.
         13    1    4    4    0    0  0.42407011539E+02  0.35794793896E+02  0.77950275674E+02  0.95686296696E+02  0.00000000000E+00 0. -1.
         21    1    1    2  502  501 -0.54746763112E+01 -0.27958735629E+02  0.20404085631E+02  0.35042683817E+02  0.00000000000E+00 0. -1.
<scales pt_clust_5="13000.00000" pt_clust_6="13000.00000" pt_clust_7="13000.00000" pt_clust_8="13000.00000" pt_clust_9="28.48970"></scales>
<clustering>
<clus scale="   28.490">  2  9  1 -1</clus>
<clus scale="   80.853">  5  6 -1 -1</clus>
<clus scale="   92.252">  7  8 -1 -1</clus>
<clus scale="   98.943">  2  5  1 -1</clus>
<clus scale="  108.457">  1  5  2 -1</clus>
</clustering>
</event>
<event>
 9    1  0.2333971E-005  0.1581234E+03  0.7546771E-02  0.1202798E+00
         -2   -1    0    0    0  501 -0.00000000000E+00  0.00000000000E+00  0.50577414133E+02  0.50577414133E+02  0.00000000000E+00 0.  1.
          1   -1    0    0  502    0  0.00000000000E+00 -0.00000000000E+00 -0.92662611947E+03  0.92662611947E+03  0.00000000000E+00 0. -1.
        -24    2    1    2    0    0  0.51960071426E+02  0.75108053142E+02 -0.21330022038E+03  0.24560683449E+03  0.80527414374E+02 0.  0.
         23    2    1    2    0    0 -0.10242636515E+03  0.60638520081E+02 -0.22185627726E+03  0.26752782734E+03  0.90458500118E+02 0.  0.
         11    1    3    3    0    0  0.56723565363E+02  0.76843615825E+02 -0.21842712749E+03  0.23839654818E+03  0.00000000000E+00 0. -1.
        -12    1    3    3    0    0 -0.47634939365E+01 -0.17355626833E+01  0.51269071048E+01  0.72102863170E+01  0.00000000000E+00 0.  1.
        -11    1    4    4    0    0 -0.78573351284E+02  0.43815258467E+02 -0.22068229554E+03  0.23831538761E+03  0.00000000000E+00 0. -1.
         11    1    4    4    0    0 -0.23853013866E+02  0.16823261614E+02 -0.11739817236E+01  0.29212439729E+02  0.00000000000E+00 0.  1.
         21    1    1    2  502  501  0.50466293724E+02 -0.13574657322E+03 -0.44089220769E+03  0.46406887177E+03  0.00000000000E+00 0. -1.
<scales pt_clust_5="13000.00000" pt_clust_6="13000.00000" pt_clust_7="13000.00000" pt_clust_8="13000.00000" pt_clust_9="129.69295"></scales>
<clustering>
<clus scale="   80.527">  5  6 -1 -1</clus>
<clus scale="   90.459">  7  8 -1 -1</clus>
<clus scale="  121.761">  1  5  2 -1</clus>
<clus scale="  129.693">  2  9  1 -1</clus>
<clus scale="  129.693">  2  5  1 -1</clus>
</clustering>
</event>
<event>
 9    1  0.2333971E-005  0.1117178E+03  0.7546771E-02  0.1260597E+00
         -2   -1    0    0    0  501 -0.00000000000E+00  0.00000000000E+00  0.10715242216E+03  0.10715242216E+03  0.00000000000E+00 0.  1.
          1   -1    0    0  502    0  0.00000000000E+00 -0.00000000000E+00 -0.47202292030E+03  0.47202292030E+03  0.00000000000E+00 0. -1.
        -24    2    1    2    0    0 -0.53344576138E+02 -0.34516556112E+02 -0.17906628051E+02  0.10573153439E+03  0.82592212624E+02 0.  0.
         23    2    1    2    0    0  0.63849249548E+02  0.14761052266E+02 -0.40023884604E+03  0.41566101515E+03  0.91040267480E+02 0.  0.
         11    1    3    3    0    0  0.18018566722E+01 -0.24835541807E+02  0.24929096853E+02  0.35235077611E+02  0.00000000000E+00 0. -1.
        -12    1    3    3    0    0 -0.55146432810E+02 -0.96810143054E+01 -0.42835724904E+02  0.70496456775E+02  0.00000000000E+00 0.  1.
        -13    1    4    4    0    0  0.33936398576E+02  0.42725849428E+02 -0.32898238801E+03  0.33347651938E+03  0.00000000000E+00 0. -1.
         13    1    4    4    0    0  0.29912850971E+02 -0.27964797161E+02 -0.71256458028E+02  0.82184495766E+02  0.00000000000E+00 0.  1.
         21    1    1    2  502  501 -0.10504673410E+02  0.19755503846E+02  0.53274975947E+02  0.57782792922E+02  0.00000000000E+00 0.  1.
<scales pt_clust_5="13000.00000" pt_clust_6="13000.00000" pt_clust_7="13000.00000" pt_clust_8="13000.00000" pt_clust_9="22.37472"></scales>
<clustering>
<clus scale="   22.375">  1  9  2 -1</clus>
<clus scale="   82.592">  5  6 -1 -1</clus>
<clus scale="   91.040">  7  8 -1 -1</clus>
<clus scale="  104.948">  1  5  2 -1</clus>
<clus scale="  111.718">  2  5  1 -1</clus>
</clustering>
</event>
<event>
 9    1  0.2333971E-005  0.1679647E+03  0.7546771E-02  0.1181295E+00
         -2   -1    0    0    0  501 -0.00000000000E+00  0.00000000000E+00  0.91113757771E+02  0.91113757771E+02  0.00000000000E+00 0.  1.
          1   -1    0    0  502    0  0.00000000000E+00 -0.00000000000E+00 -0.43619482831E+03  0.43619482831E+03  0.00000000000E+00 0. -1.
        -24    2    1    2    0    0  0.14622615444E+03  0.20222809317E+02 -0.12710675739E+03  0.21160713447E+03  0.82646242062E+02 0.  0.
         23    2    1    2    0    0 -0.12866465987E+03 -0.48635168758E+02 -0.22721438395E+03  0.28104532417E+03  0.91870145462E+02 0.  0.
         13    1    3    3    0    0  0.10202195382E+03 -0.25833794864E+02 -0.82613526892E+02  0.13379409121E+03  0.00000000000E+00 0. -1.
        -14    1    3    3    0    0  0.44204200619E+02  0.46056604181E+02 -0.44493230500E+02  0.77813043260E+02  0.00000000000E+00 0.  1.
        -11    1    4    4    0    0 -0.11889230426E+03 -0.85481058383E+01 -0.13544457261E+03  0.18042639047E+03  0.00000000000E+00 0.  1.
         11    1    4    4    0    0 -0.97723556040E+01 -0.40087062920E+02 -0.91769811335E+02  0.10061893371E+03  0.00000000000E+00 0. -1.
         21    1    1    2  502  501 -0.17561494569E+02  0.28412359441E+02  0.92400708014E+01  0.34656127437E+02  0.00000000000E+00 0.  1.
<scales pt_clust_5="13000.00000" pt_clust_6="13000.00000" pt_clust_7="13000.00000" pt_clust_8="13000.00000" pt_clust_9="33.40162"></scales>
<clustering>
<clus scale="   33.402">  1  9  2 -1</clus>
<clus scale="   82.646">  5  6 -1 -1</clus>
<clus scale="   91.870">  7  8 -1 -1</clus>
<clus scale="  163.103">  1  5  2 -1</clus>
<clus scale="  167.965">  2  5  1 -1</clus>
</clustering>
</event>
<event>
 9    1  0.2333971E-005  0.9143068E+02  0.7546771E-02  0.1307988E+00
         -2   -1    0    0    0  501 -0.00000000000E+00  0.00000000000E+00  0.95932381949E+02  0.95932381949E+02  0.00000000000E+00 0.  1.
          1   -1    0    0  502    0  0.00000000000E+00 -0.00000000000E+00 -0.21854705465E+03  0.21854705465E+03  0.00000000000E+00 0. -1.
         23    2    1    2    0    0 -0.22343664757E+02 -0.13450934712E+02  0.22660819366E+02  0.97413040523E+02  0.91080298255E+02 0.  0.
        -24    2    1    2    0    0 -0.25862820052E+02 -0.36439967790E+02 -0.63754024299E+02  0.11002099899E+03  0.77738586888E+02 0.  0.
         13    1    4    4    0    0 -0.26463236767E+02  0.13804519800E+02 -0.13178659426E+01  0.29876486368E+02  0.00000000000E+00 0. -1.
        -14    1    4    4    0    0  0.60041671488E+00 -0.50244487590E+02 -0.62436158357E+02  0.80144512624E+02  0.00000000000E+00 0.  1.
        -11    1    3    3    0    0 -0.39101624757E+02  0.35350832867E+01 -0.23280696331E+02  0.45644547255E+02  0.00000000000E+00 0. -1.
         11    1    3    3    0    0  0.16757960000E+02 -0.16986017998E+02  0.45941515696E+02  0.51768493268E+02  0.00000000000E+00 0.  1.
         21    1    1    2  502  501  0.48206484809E+02  0.49890902502E+02 -0.81521467768E+02  0.10704539708E+03  0.00000000000E+00 0. -1.
<scales pt_clust_5="13000.00000" pt_clust_6="13000.00000" pt_clust_7="13000.00000" pt_clust_8="13000.00000" pt_clust_9="69.37555"></scales>
<clustering>
<clus scale="   69.376">  2  9  1 -1</clus>
<clus scale="   77.739">  5  6 -1 -1</clus>
<clus scale="   78.149">  2  5  1 -1</clus>
<clus scale="   91.080">  7  8 -1 -1</clus>
<clus scale="   69.376">  2  5  1 -1</clus>
</clustering>
</event>
<event>
 9    1  0.2333971E-005  0.1056026E+03  0.7546771E-02  0.1270912E+00
          1   -1    0    0  502    0  0.00000000000E+00  0.00000000000E+00  0.67845029266E+03  0.67845029266E+03  0.00000000000E+00 0. -1.
         -2   -1    0    0    0  501 -0.00000000000E+00 -0.00000000000E+00 -0.40285623987E+02  0.40285623987E+02  0.00000000000E+00 0.  1.
        -24    2    1    2    0    0 -0.47903351408E+02  0.50546619287E+02  0.17578819525E+03  0.20742751787E+03  0.85293574095E+02 0.  0.
         23    2    1    2    0    0  0.40670615069E+02 -0.29969058717E+02  0.47501926743E+03  0.48609751393E+03  0.89973580649E+02 0.  0.
         13    1    3    3    0    0 -0.25110291177E+02 -0.19495351143E+02  0.28265462786E+02  0.42538592193E+02  0.00000000000E+00 0. -1.
        -14    1    3    3    0    0 -0.22793060230E+02  0.70041970430E+02  0.14752273247E+03  0.16488892568E+03  0.00000000000E+00 0.  1.
        -11    1    4    4    0    0  0.62662879827E+02 -0.42708301440E+02  0.39228684848E+03  0.39954925480E+03  0.00000000000E+00 0. -1.
         11    1    4    4    0    0 -0.21992264758E+02  0.12739242724E+02  0.82732418946E+02  0.86548259133E+02  0.00000000000E+00 0.  1.
         21    1    1    2  502  501  0.72327363388E+01 -0.20577560570E+02 -0.12642794011E+02  0.25210884839E+02  0.00000000000E+00 0.  1.
<scales pt_clust_5="13000.00000" pt_clust_6="13000.00000" pt_clust_7="13000.00000" pt_clust_8="13000.00000" pt_clust_9="21.81166"></scales>
<clustering>
<clus scale="   21.812">  2  9  1 -1</clus>
<clus scale="   85.294">  5  6 -1 -1</clus>
<clus scale="   89.974">  7  8 -1 -1</clus>
<clus scale="  101.645">  2  5  1 -1</clus>
<clus scale="  105.603">  1  5  2 -1</clus>
</clustering>
</event>
<event>
 9    1  0.2333971E-005  0.1188657E+03  0.7546771E-02  0.1250218E+00
         -2   -1    0    0    0  501 -0.00000000000E+00  0.00000000000E+00  0.83290816641E+03  0.83290816641E+03  0.00000000000E+00 0.  1.
          1   -1    0    0  502    0  0.00000000000E+00 -0.00000000000E+00 -0.20238384852E+02  0.20238384852E+02  0.00000000000E+00 0. -1.
        -24    2    1    2    0    0 -0.23035898553E+02  0.78807948219E+02  0.38288267917E+03  0.39935575874E+03  0.78387056997E+02 0.  0.
         23    2    1    2    0    0  0.39644724365E+02 -0.53971559132E+02  0.32704833638E+03  0.34679568348E+03  0.93925493819E+02 0.  0.
         11    1    3    3    0    0 -0.49889623856E+02  0.68356134880E+02  0.29178297596E+03  0.30380724285E+03  0.00000000000E+00 0. -1.
        -12    1    3    3    0    0  0.26853725304E+02  0.10451813339E+02  0.91099703212E+02  0.95548515897E+02  0.00000000000E+00 0.  1.
        -13    1    4    4    0    0  0.45896219077E+02 -0.93057511592E+00  0.24238810416E+03  0.24669682189E+03  0.00000000000E+00 0.  1.
         13    1    4    4    0    0 -0.62514947123E+01 -0.53040984016E+02  0.84660232221E+02  0.10009886159E+03  0.00000000000E+00 0. -1.
         21    1    1    2  502  501 -0.16608825812E+02 -0.24836389086E+02  0.10273876600E+03  0.10699510904E+03  0.00000000000E+00 0. -1.
<scales pt_clust_5="13000.00000" pt_clust_6="13000.00000" pt_clust_7="13000.00000" pt_clust_8="13000.00000" pt_clust_9="29.87807"></scales>
<clustering>
<clus scale="   29.878">  1  9  2 -1</clus>
<clus scale="   78.387">  5  6 -1 -1</clus>
<clus scale="   93.925">  7  8 -1 -1</clus>
<clus scale="  107.012">  1  5  2 -1</clus>
<clus scale="  118.866">  2  5  1 -1</clus>
</clustering>
</event>
<event>
 9    1  0.2333971E-005  0.1090555E+03  0.7546771E-02  0.1266487E+00
         -2   -1    0    0    0  501 -0.00000000000E+00  0.00000000000E+00  0.58987246645E+02  0.58987246645E+02  0.00000000000E+00 0.  1.
          1   -1    0    0  502    0  0.00000000000E+00 -0.00000000000E+00 -0.43631931245E+03  0.43631931245E+03  0.00000000000E+00 0. -1.
         23    2    1    2    0    0  0.43343012516E+02  0.30089960126E+02 -0.67549719160E+02  0.12476248092E+03  0.90656988982E+02 0.  0.
        -24    2    1    2    0    0 -0.61894473823E+02 -0.14615348924E+02 -0.32583374132E+03  0.34153946511E+03  0.80231196710E+02 0.  0.
         11    1    4    4    0    0  0.12005032513E+01  0.26552735093E+02 -0.99926045617E+02  0.10340069411E+03  0.00000000000E+00 0. -1.
        -12    1    4    4    0    0 -0.63094977074E+02 -0.41168084017E+02 -0.22590769571E+03  0.23813877100E+03  0.00000000000E+00 0.  1.
        -13    1    3    3    0    0  0.64360300136E+01 -0.22579209514E+02  0.86759092669E+01  0.25030273395E+02  0.00000000000E+00 0.  1.
         13    1    3    3    0    0  0.36906982503E+02  0.52669169640E+02 -0.76225628427E+02  0.99732207522E+02  0.00000000000E+00 0. -1.
         21    1    1    2  502  501  0.18551461306E+02 -0.15474611202E+02  0.16051394679E+02  0.29004613074E+02  0.00000000000E+00 0.  1.
<scales pt_clust_5="13000.00000" pt_clust_6="13000.00000" pt_clust_7="13000.00000" pt_clust_8="13000.00000" pt_clust_9="24.15823"></scales>
<clustering>
<clus scale="   24.158">  1  9  2 -1</clus>
<clus scale="   80.231">  5  6 -1 -1</clus>
<clus scale="   90.657">  7  8 -1 -1</clus>
<clus scale="  100.556">  2  5  1 -1</clus>
<clus scale="  100.556">  2  5  1 -1</clus>
</clustering>
</event>
<event>
 9    1  0.2333971E-005  0.1003413E+03  0.7546771E-02  0.1282842E+00
         -2   -1    0    0    0  501 -0.00000000000E+00  0.00000000000E+00  0.23230199593E+03  0.23230199593E+03  0.00000000000E+00 0.  1.
          1   -1    0    0  502    0  0.00000000000E+00 -0.00000000000E+00 -0.15331972129E+03  0.15331972129E+03  0.00000000000E+00 0. -1.
         23    2    1    2    0    0 -0.12722827959E+02 -0.24339842208E+02  0.40887445614E+02  0.10271851206E+03  0.90138844243E+02 0.  0.
        -24    2    1    2    0    0 -0.25304177676E+01  0.49422333983E+02 -0.10143438473E+03  0.14031921450E+03  0.83376120345E+02 0.  0.
         13    1    4    4    0    0 -0.36557904429E+02  0.57212157311E+01 -0.62447234864E+02  0.72586981119E+02  0.00000000000E+00 0. -1.
        -14    1    4    4    0    0  0.34027486662E+02  0.43701118252E+02 -0.38987149862E+02  0.67732233385E+02  0.00000000000E+00 0.  1.
        -11    1    3    3    0    0 -0.38816165013E+02 -0.32167959106E+02 -0.36122099309E+01  0.50542262711E+02  0.00000000000E+00 0. -1.
         11    1    3    3    0    0  0.26093337054E+02  0.78281168979E+01  0.44499655545E+02  0.52176249351E+02  0.00000000000E+00 0.  1.
         21    1    1    2  502  501  0.15253245727E+02 -0.25082491774E+02  0.13952921376E+03  0.14258399065E+03  0.00000000000E+00 0.  1.
<scales pt_clust_5="13000.00000" pt_clust_6="13000.00000" pt_clust_7="13000.00000" pt_clust_8="13000.00000" pt_clust_9="29.35631"></scales>
<clustering>
<clus scale="   29.356">  1  9  2 -1</clus>
<clus scale="   83.376">  5  6 -1 -1</clus>
<clus scale="   90.139">  7  8 -1 -1</clus>
<clus scale="   94.313">  2  5  1 -1</clus>
<clus scale="   94.313">  2  5  1 -1</clus>
</clustering>
</event>
<event>
 9    1  0.2333971E-005  0.9131471E+02  0.7546771E-02  0.1302372E+00
          1   -1    0    0  502    0  0.00000000000E+00  0.00000000000E+00  0.94482588128E+02  0.94482588128E+02  0.00000000000E+00 0. -1.
         -2   -1    0    0    0  501 -0.00000000000E+00 -0.00000000000E+00 -0.15319811091E+03  0.15319811091E+03  0.00000000000E+00 0.  1.
        -24    2    1    2    0    0 -0.21808777097E+01  0.17934242645E+02 -0.80461265735E+02  0.11894749709E+03  0.85721050463E+02 0.  0.
         23    2    1    2    0    0  0.22055820229E+02  0.22018436395E+01 -0.32612791894E+00  0.92849461981E+02  0.90164343891E+02 0.  0.
         13    1    3    3    0    0  0.31087750761E+02  0.36748409869E+02 -0.34771920745E+02  0.59379965877E+02  0.00000000000E+00 0. -1.
        -14    1    3    3    0    0 -0.33268628471E+02 -0.18814167224E+02 -0.45689344990E+02  0.59567531208E+02  0.00000000000E+00 0.  1.
        -11    1    4    4    0    0  0.18866661427E+02  0.25046305542E+02  0.37291670605E+02  0.48723064674E+02  0.00000000000E+00 0. -1.
         11    1    4    4    0    0  0.31891588024E+01 -0.22844461903E+02 -0.37617798524E+02  0.44126397307E+02  0.00000000000E+00 0.  1.
         21    1    1    2  502  501 -0.19874942520E+02 -0.20136086284E+02  0.22071870868E+02  0.35883739976E+02  0.00000000000E+00 0.  1.
<scales pt_clust_5="13000.00000" pt_clust_6="13000.00000" pt_clust_7="13000.00000" pt_clust_8="13000.00000" pt_clust_9="28.29267"></scales>
<clustering>
<clus scale="   28.293">  1  9  2 -1</clus>
<clus scale="   85.721">  5  6 -1 -1</clus>
<clus scale="   86.930">  2  5  1 -1</clus>
<clus scale="   90.164">  7  8 -1 -1</clus>
<clus scale="   28.293">  1  5  2 -1</clus>
</clustering>
</event>
<event>
 9    1  0.2333971E-005  0.1051547E+03  0.7546771E-02  0.1277037E+00
         -2   -1    0    0    0  501 -0.00000000000E+00  0.00000000000E+00  0.49448587475E+02  0.49448587475E+02  0.00000000000E+00 0.  1.
          1   -1    0    0  502    0  0.00000000000E+00 -0.00000000000E+00 -0.27769226203E+03  0.27769226203E+03  0.00000000000E+00 0. -1.
        -24    2    1    2    0    0 -0.25375983350E+02  0.52818374759E+02 -0.66106588962E+02  0.11946631665E+03  0.80426354306E+02 0.  0.
         23    2    1    2    0    0  0.92171601408E+01 -0.33748697757E+02 -0.14565290984E+03  0.17773312008E+03  0.95657520289E+02 0.  0.
         13    1    3    3    0    0 -0.46289076731E+02  0.37713549553E+02 -0.71458104877E+02  0.93119553248E+02  0.00000000000E+00 0. -1.
        -14    1    3    3    0    0  0.20913093381E+02  0.15104825206E+02  0.53515159147E+01  0.26346763404E+02  0.00000000000E+00 0.  1.
        -11    1    4    4    0    0 -0.12904184282E+02 -0.63243437831E+02 -0.10046430831E+03  0.11941242667E+03  0.00000000000E+00 0. -1.
         11    1    4    4    0    0  0.22121344423E+02  0.29494740073E+02 -0.45188601532E+02  0.58320693407E+02  0.00000000000E+00 0.  1.
         21    1    1    2  502  501  0.16158823209E+02 -0.19069677001E+02 -0.16484175751E+02  0.29941412769E+02  0.00000000000E+00 0.  1.
<scales pt_clust_5="13000.00000" pt_clust_6="13000.00000" pt_clust_7="13000.00000" pt_clust_8="13000.00000" pt_clust_9="24.99520"></scales>
<clustering>
<clus scale="   24.995">  1  9  2 -1</clus>
<clus scale="   80.426">  5  6 -1 -1</clus>
<clus scale="   91.518">  1  5  2 -1</clus>
<clus scale="   95.658">  7  8 -1 -1</clus>
<clus scale="  105.155">  2  5  1 -1</clus>
</clustering>
</event>
<event>
 9    1  0.2333971E-005  0.1225674E+03  0.7546771E-02  0.1262024E+00
          1   -1    0    0  502    0  0.00000000000E+00  0.00000000000E+00  0.39948852395E+03  0.39948852395E+03  0.00000000000E+00 0. -1.
         -2   -1    0    0    0  501 -0.00000000000E+00 -0.00000000000E+00 -0.14382651077E+03  0.14382651077E+03  0.00000000000E+00 0.  1.
         23    2    1    2    0    0  0.60249131576E+02 -0.52350465843E+02 -0.17033125048E+02  0.12307188314E+03  0.92119660993E+02 0.  0.
        -24    2    1    2    0    0 -0.29965984863E+01 -0.54955023449E+01  0.31789031527E+03  0.32714850829E+03  0.77024111718E+02 0.  0.
         11    1    4    4    0    0  0.63192730804E+01  0.33802576667E+02  0.10583939527E+03  0.11128578073E+03  0.00000000000E+00 0. -1.
        -12    1    4    4    0    0 -0.93158715668E+01 -0.39298079012E+02  0.21205092000E+03  0.21586272756E+03  0.00000000000E+00 0.  1.
        -11    1    3    3    0    0  0.79171952561E+02 -0.31915493901E+02 -0.32350185794E+02  0.91287082023E+02  0.00000000000E+00 0.  1.
         11    1    3    3    0    0 -0.18922820985E+02 -0.20434971942E+02  0.15317060745E+02  0.31784801119E+02  0.00000000000E+00 0. -1.
         21    1    1    2  502  501 -0.57252533090E+02  0.57845968188E+02 -0.45195177042E+02  0.93094643287E+02  0.00000000000E+00 0.  1.
<scales pt_clust_5="13000.00000" pt_clust_6="13000.00000" pt_clust_7="13000.00000" pt_clust_8="13000.00000" pt_clust_9="80.85010"></scales>
<clustering>
<clus scale="   77.024">  5  6 -1 -1</clus>
<clus scale="   77.278">  1  5  2 -1</clus>
<clus scale="   80.850">  2  9  1 -1</clus>
<clus scale="   92.120">  7  8 -1 -1</clus>
<clus scale="   77.278">  1  5  2 -1</clus>
</clustering>
</event>
<event>
 9    1  0.2333971E-005  0.1225299E+03  0.7546771E-02  0.1243680E+00
         -2   -1    0    0    0  501 -0.00000000000E+00  0.00000000000E+00  0.31264956709E+03  0.31264956709E+03  0.00000000000E+00 0.  1.
          1   -1    0    0  502    0  0.00000000000E+00 -0.00000000000E+00 -0.10678518321E+03  0.10678518321E+03  0.00000000000E+00 0. -1.
        -24    2    1    2    0    0 -0.57347176294E+02 -0.25249853301E+02  0.17005874174E+03  0.19818073261E+03  0.80183373688E+02 0.  0.
         23    2    1    2    0    0  0.68431064469E+02  0.43074335458E+02 -0.48871804380E+02  0.13401391974E+03  0.95042456104E+02 0.  0.
         13    1    3    3    0    0  0.18429923281E+02 -0.14549028488E+02  0.57096196706E+02  0.61735824125E+02  0.00000000000E+00 0. -1.
        -14    1    3    3    0    0 -0.75777099575E+02 -0.10700824813E+02  0.11296254503E+03  0.13644490849E+03  0.00000000000E+00 0.  1.
        -13    1    4    4    0    0  0.59186489337E+02  0.70794630157E+02 -0.23273272196E+02  0.95165988556E+02  0.00000000000E+00 0. -1.
         13    1    4    4    0    0  0.92445751327E+01 -0.27720294700E+02 -0.25598532184E+02  0.38847931188E+02  0.00000000000E+00 0.  1.
         21    1    1    2  502  501 -0.11083888176E+02 -0.17824482157E+02  0.84677446515E+02  0.87240097946E+02  0.00000000000E+00 0.  1.
<scales pt_clust_5="13000.00000" pt_clust_6="13000.00000" pt_clust_7="13000.00000" pt_clust_8="13000.00000" pt_clust_9="20.98963"></scales>
<clustering>
<clus scale="   20.990">  1  9  2 -1</clus>
<clus scale="   80.183">  5  6 -1 -1</clus>
<clus scale="   95.042">  7  8 -1 -1</clus>
<clus scale="  111.400">  1  5  2 -1</clus>
<clus scale="  122.530">  2  5  1 -1</clus>
</clustering>
</event>
<event>
 9    1  0.2333971E-005  0.1643616E+03  0.7546771E-02  0.1205324E+00
         -2   -1    0    0    0  501 -0.00000000000E+00  0.00000000000E+00  0.17519160889E+03  0.17519160889E+03  0.00000000000E+00 0.  1.
          1   -1    0    0  502    0  0.00000000000E+00 -0.00000000000E+00 -0.31846844095E+03  0.31846844095E+03  0.00000000000E+00 0. -1.
        -24    2    1    2    0    0 -0.79132770992E+02 -0.15989982332E+03 -0.85519323745E+02  0.21353777714E+03  0.80342259066E+02 0.  0.
         23    2    1    2    0    0  0.29358740518E+02  0.37586568793E+02 -0.98143962270E+02  0.14203153440E+03  0.90917730035E+02 0.  0.
         11    1    3    3    0    0  0.28962845148E+01 -0.43855320851E+02 -0.50943913072E+02  0.67282686554E+02  0.00000000000E+00 0. -1.
        -12    1    3    3    0    0 -0.82029055507E+02 -0.11604450247E+03 -0.34575410673E+02  0.14625509059E+03  0.00000000000E+00 0.  1.
        -11    1    4    4    0    0  0.15290562305E+02  0.56622449459E+02 -0.22580191280E+02  0.62847180658E+02  0.00000000000E+00 0.  1.
         11    1    4    4    0    0  0.14068178213E+02 -0.19035880666E+02 -0.75563770990E+02  0.79184353740E+02  0.00000000000E+00 0. -1.
         21    1    1    2  502  501  0.49774030474E+02  0.12231325452E+03  0.40386453949E+02  0.13809073830E+03  0.00000000000E+00 0.  1.
<scales pt_clust_5="13000.00000" pt_clust_6="13000.00000" pt_clust_7="13000.00000" pt_clust_8="13000.00000" pt_clust_9="143.38710"></scales>
<clustering>
<clus scale="   80.342">  5  6 -1 -1</clus>
<clus scale="   90.918">  7  8 -1 -1</clus>
<clus scale="  102.668">  2  7  1 -1</clus>
<clus scale="  143.387">  1  9  2 -1</clus>
<clus scale="  102.668">  2  5  1 -1</clus>
</clustering>
</event>
<event>
 9    1  0.2333971E-005  0.1084586E+03  0.7546771E-02  0.1267813E+00
          1   -1    0    0  502    0  0.00000000000E+00  0.00000000000E+00  0.12480224865E+03  0.12480224865E+03  0.00000000000E+00 0. -1.
         -2   -1    0    0    0  501 -0.00000000000E+00 -0.00000000000E+00 -0.18568628448E+03  0.18568628448E+03  0.00000000000E+00 0.  1.
        -24    2    1    2    0    0  0.29781999463E+02  0.30457426921E+02 -0.88326811202E+02  0.12717408837E+03  0.80975310000E+02 0.  0.
         23    2    1    2    0    0 -0.65980597073E+02 -0.26808604817E+01  0.59400175845E+02  0.12760850650E+03  0.91623816981E+02 0.  0.
         13    1    3    3    0    0  0.16462488533E+01  0.36907758393E+02 -0.29643705801E+01  0.37063192764E+02  0.00000000000E+00 0. -1.
        -14    1    3    3    0    0  0.28135750610E+02 -0.64503314720E+01 -0.85362440622E+02  0.90110895609E+02  0.00000000000E+00 0.  1.
        -11    1    4    4    0    0 -0.46293890093E+02 -0.46044151538E+02  0.35657534856E+02  0.74395214516E+02  0.00000000000E+00 0.  1.
         11    1    4    4    0    0 -0.19686706980E+02  0.43363291056E+02  0.23742640989E+02  0.53213291987E+02  0.00000000000E+00 0. -1.
         21    1    1    2  502  501  0.36198597610E+02 -0.27776566440E+02 -0.31957400469E+02  0.55705938255E+02  0.00000000000E+00 0.  1.
<scales pt_clust_5="13000.00000" pt_clust_6="13000.00000" pt_clust_7="13000.00000" pt_clust_8="13000.00000" pt_clust_9="45.62758"></scales>
<clustering>
<clus scale="   45.628">  2  9  1 -1</clus>
<clus scale="   80.975">  5  6 -1 -1</clus>
<clus scale="   91.624">  7  8 -1 -1</clus>
<clus scale="   99.626">  2  5  1 -1</clus>
<clus scale="  108.459">  1  5  2 -1</clus>
</clustering>
</event>
<event>
 9    1  0.2333971E-005  0.9477169E+02  0.7546771E-02  0.1297551E+00
          3   -1    0    0  502    0  0.00000000000E+00  0.00000000000E+00  0.48863564787E+03  0.48863564787E+03  0.00000000000E+00 0. -1.
         -4   -1    0    0    0  501 -0.00000000000E+00 -0.00000000000E+00 -0.53530969052E+02  0.53530969052E+02  0.00000000000E+00 0.  1.
        -24    2    1    2    0    0  0.58343377678E+01  0.51671949599E+02  0.99937994019E+01  0.96008135966E+02  0.80085306221E+02 0.  0.
         23    2    1    2    0    0  0.46751175451E+01 -0.25187697189E+02  0.38885521360E+03  0.40004625285E+03  0.90401053450E+02 0.  0.
         11    1    3    3    0    0 -0.34091168588E+02  0.13329813070E+02  0.16726871699E+02  0.40245247285E+02  0.00000000000E+00 0. -1.
        -12    1    3    3    0    0  0.39925506356E+02  0.38342136530E+02 -0.67330722971E+01  0.55762888681E+02  0.00000000000E+00 0.  1.
        -13    1    4    4    0    0 -0.11229643588E+01 -0.57707021190E+02  0.29378331175E+03  0.29939939146E+03  0.00000000000E+00 0. -1.
         13    1    4    4    0    0  0.57980819039E+01  0.32519324000E+02  0.95071901849E+02  0.10064686139E+03  0.00000000000E+00 0.  1.
         21    1    1    2  502  501 -0.10509455313E+02 -0.26484252410E+02  0.36255665812E+02  0.46112228098E+02  0.00000000000E+00 0. -1.
<scales pt_clust_5="13000.00000" pt_clust_6="13000.00000" pt_clust_7="13000.00000" pt_clust_8="13000.00000" pt_clust_9="28.49323"></scales>
<clustering>
<clus scale="   28.493">  2  9  1 -1</clus>
<clus scale="   80.085">  5  6 -1 -1</clus>
<clus scale="   84.988">  2  5  1 -1</clus>
<clus scale="   90.401">  7  8 -1 -1</clus>
<clus scale="   94.772">  1  5  2 -1</clus>
</clustering>
</event>
<event>
 9    1  0.2333971E-005  0.1514102E+03  0.7546771E-02  0.1199957E+00
          1   -1    0    0  502    0  0.00000000000E+00  0.00000000000E+00  0.80148424467E+03  0.80148424467E+03  0.00000000000E+00 0. -1.
         -2   -1    0    0    0  501 -0.00000000000E+00 -0.00000000000E+00 -0.17034428379E+03  0.17034428379E+03  0.00000000000E+00 0.  1.
         23    2    1    2    0    0  0.79689599357E+02  0.11935420101E+02 -0.10740833649E+03  0.16034309947E+03  0.87638303849E+02 0.  0.
        -24    2    1    2    0    0 -0.11401352993E+03 -0.53742288020E+02  0.74232678225E+03  0.75726160247E+03  0.80676913658E+02 0.  0.
         11    1    4    4    0    0 -0.93541097723E+02 -0.54639404066E+02  0.40267694241E+03  0.41699415031E+03  0.00000000000E+00 0. -1.
        -12    1    4    4    0    0 -0.20472432203E+02  0.89711604662E+00  0.33964983983E+03  0.34026745216E+03  0.00000000000E+00 0.  1.
        -13    1    3    3    0    0  0.35862972623E+02  0.46440162577E+02 -0.77016315923E+02  0.96821249857E+02  0.00000000000E+00 0.  1.
         13    1    3    3    0    0  0.43826626735E+02 -0.34504742476E+02 -0.30392020570E+02  0.63521849616E+02  0.00000000000E+00 0. -1.
         21    1    1    2  502  501  0.34323930568E+02  0.41806867918E+02 -0.37784848712E+01  0.54223826522E+02  0.00000000000E+00 0.  1.
<scales pt_clust_5="13000.00000" pt_clust_6="13000.00000" pt_clust_7="13000.00000" pt_clust_8="13000.00000" pt_clust_9="54.09202"></scales>
<clustering>
<clus scale="   54.092">  2  9  1 -1</clus>
<clus scale="   80.677">  5  6 -1 -1</clus>
<clus scale="   87.638">  7  8 -1 -1</clus>
<clus scale="  147.490">  1  5  2 -1</clus>
<clus scale="  147.490">  1  5  2 -1</clus>
</clustering>
</event>
<event>
 9    1  0.2333971E-005  0.1982967E+03  0.7546771E-02  0.1151919E+00
         -2   -1    0    0    0  501 -0.00000000000E+00  0.00000000000E+00  0.52001582208E+02  0.52001582208E+02  0.00000000000E+00 0.  1.
          1   -1    0    0  502    0  0.00000000000E+00 -0.00000000000E+00 -0.13305684580E+04  0.13305684580E+04  0.00000000000E+00 0. -1.
        -24    2    1    2    0    0 -0.22494528858E+03 -0.25967966279E+02 -0.64712585814E+03  0.69043460835E+03  0.81568094290E+02 0.  0.
         23    2    1    2    0    0  0.13383518169E+03  0.61916738483E+02 -0.49497687602E+03  0.52415975579E+03  0.89419256491E+02 0.  0.
         11    1    3    3    0    0 -0.83319270900E+02  0.27672692589E+02 -0.27492467385E+03  0.28860259027E+03  0.00000000000E+00 0. -1.
        -12    1    3    3    0    0 -0.14162601768E+03 -0.53640658869E+02 -0.37220118429E+03  0.40183201808E+03  0.00000000000E+00 0.  1.
        -11    1    4    4    0    0  0.34822354258E+00  0.32857807144E+02 -0.62396575057E+02  0.70520134208E+02  0.00000000000E+00 0.  1.
         11    1    4    4    0    0  0.13348695815E+03  0.29058931339E+02 -0.43258030096E+03  0.45363962158E+03  0.00000000000E+00 0. -1.
         21    1    1    2  502  501  0.91110106885E+02 -0.35948772203E+02 -0.13646414162E+03  0.16797567606E+03  0.00000000000E+00 0.  1.
<scales pt_clust_5="13000.00000" pt_clust_6="13000.00000" pt_clust_7="13000.00000" pt_clust_8="13000.00000" pt_clust_9="97.94573"></scales>
<clustering>
<clus scale="   81.568">  5  6 -1 -1</clus>
<clus scale="   89.419">  7  8 -1 -1</clus>
<clus scale="   97.946">  1  9  2 -1</clus>
<clus scale="  194.882">  1  5  2 -1</clus>
<clus scale="  198.297">  2  5  1 -1</clus>
</clustering>
</event>
<event>
 9    1  0.2333971E-005  0.1839989E+03  0.7546771E-02  0.1166382E+00
         -2   -1    0    0    0  501 -0.00000000000E+00  0.00000000000E+00  0.42012415051E+02  0.42012415051E+02  0.00000000000E+00 0.  1.
          1   -1    0    0  502    0  0.00000000000E+00 -0.00000000000E+00 -0.12933767446E+04  0.12933767446E+04  0.00000000000E+00 0. -1.
         23    2    1    2    0    0 -0.17860809331E+03  0.45059480365E+02 -0.46880564487E+03  0.51163260377E+03  0.89766256553E+02 0.  0.
        -24    2    1    2    0    0  0.12333589308E+03 -0.91320293641E+02 -0.66568856530E+03  0.68644776603E+03  0.67217043749E+02 0.  0.
         13    1    4    4    0    0  0.21328894870E+02 -0.45866662116E+02 -0.29489907582E+03  0.29920584448E+03  0.00000000000E+00 0. -1.
        -14    1    4    4    0    0  0.10200699821E+03 -0.45453631525E+02 -0.37078948948E+03  0.38724192155E+03  0.00000000000E+00 0.  1.
        -13    1    3    3    0    0 -0.71572521277E+02  0.33585600498E+02 -0.30898060643E+03  0.31893515565E+03  0.00000000000E+00 0.  1.
         13    1    3    3    0    0 -0.10703557203E+03  0.11473879867E+02 -0.15982503844E+03  0.19269744812E+03  0.00000000000E+00 0. -1.
         21    1    1    2  502  501  0.55272200231E+02  0.46260813275E+02 -0.11687011934E+03  0.13730878981E+03  0.00000000000E+00 0.  1.
<scales pt_clust_5="13000.00000" pt_clust_6="13000.00000" pt_clust_7="13000.00000" pt_clust_8="13000.00000" pt_clust_9="72.07690"></scales>
<clustering>
<clus scale="   67.217">  5  6 -1 -1</clus>
<clus scale="   72.077">  1  9  2 -1</clus>
<clus scale="   89.766">  7  8 -1 -1</clus>
<clus scale="  174.114">  2  5  1 -1</clus>
<clus scale="  174.114">  2  5  1 -1</clus>
</clustering>
</event>
<event>
 9    1  0.2333971E-005  0.3118636E+03  0.7546771E-02  0.1079793E+00
          3   -1    0    0  502    0  0.00000000000E+00  0.00000000000E+00  0.60853222063E+03  0.60853222063E+03  0.00000000000E+00 0. -1.
         -4   -1    0    0    0  501 -0.00000000000E+00 -0.00000000000E+00 -0.51631580626E+03  0.51631580626E+03  0.00000000000E+00 0.  1.
        -24    2    1    2    0    0 -0.31142195727E+03 -0.43762824541E+02 -0.20182353615E+03  0.38216913071E+03  0.80135413174E+02 0.  0.
         23    2    1    2    0    0  0.29530442706E+03  0.20815487129E+02  0.47094793614E+03  0.56356220111E+03  0.90401365181E+02 0.  0.
         13    1    3    3    0    0 -0.30118826980E+02 -0.49909132123E+01  0.49122516830E+01  0.30922211595E+02  0.00000000000E+00 0. -1.
        -14    1    3    3    0    0 -0.28130313029E+03 -0.38771911328E+02 -0.20673578783E+03  0.35124691912E+03  0.00000000000E+00 0.  1.
        -13    1    4    4    0    0  0.37804573437E+02  0.35144315605E+02  0.80782921394E+02  0.95865473873E+02  0.00000000000E+00 0.  1.
         13    1    4    4    0    0  0.25749985362E+03 -0.14328828476E+02  0.39016501475E+03  0.46769672724E+03  0.00000000000E+00 0. -1.
         21    1    1    2  502  501  0.16117530212E+02  0.22947337412E+02 -0.17690798562E+03  0.17911669507E+03  0.00000000000E+00 0.  1.
<scales pt_clust_5="13000.00000" pt_clust_6="13000.00000" pt_clust_7="13000.00000" pt_clust_8="13000.00000" pt_clust_9="28.04202"></scales>
<clustering>
<clus scale="   28.042">  2  9  1 -1</clus>
<clus scale="   80.135">  5  6 -1 -1</clus>
<clus scale="   90.401">  7  8 -1 -1</clus>
<clus scale="  309.044">  2  5  1 -1</clus>
<clus scale="  311.864">  1  5  2 -1</clus>
</clustering>
</event>
<event>
 9    1  0.2333971E-005  0.9914606E+02  0.7546771E-02  0.1282227E+00
          1   -1    0    0  502    0  0.00000000000E+00  0.00000000000E+00  0.35489291897E+02  0.35489291897E+02  0.00000000000E+00 0. -1.
         -2   -1    0    0    0  501 -0.00000000000E+00 -0.00000000000E+00 -0.47491161687E+03  0.47491161687E+03  0.00000000000E+00 0.  1.
         23    2    1    2    0    0 -0.41444045905E+02 -0.74983575030E+00 -0.30605401310E+03  0.31871300041E+03  0.78681297014E+02 0.  0.
        -24    2    1    2    0    0  0.65459581798E+02  0.69718046315E+01 -0.72065843800E+02  0.12555583253E+03  0.78976061765E+02 0.  0.
         13    1    4    4    0    0  0.29263957129E+02 -0.12845924687E+02  0.10177280333E+02  0.33540632118E+02  0.00000000000E+00 0. -1.
        -14    1    4    4    0    0  0.36195624669E+02  0.19817729319E+02 -0.82243124133E+02  0.92015200417E+02  0.00000000000E+00 0.  1.
        -13    1    3    3    0    0 -0.48574425414E+02  0.26080761401E+02 -0.25183858933E+03  0.25780294023E+03  0.00000000000E+00 0.  1.
         13    1    3    3    0    0  0.71303795087E+01 -0.26830597151E+02 -0.54215423776E+02  0.60910060176E+02  0.00000000000E+00 0. -1.
         21    1    1    2  502  501 -0.24015535893E+02 -0.62219688812E+01 -0.61302468076E+02  0.66132075827E+02  0.00000000000E+00 0.  1.
<scales pt_clust_5="13000.00000" pt_clust_6="13000.00000" pt_clust_7="13000.00000" pt_clust_8="13000.00000" pt_clust_9="24.80844"></scales>
<clustering>
<clus scale="   24.808">  2  9  1 -1</clus>
<clus scale="   78.681">  7  8 -1 -1</clus>
<clus scale="   78.976">  5  6 -1 -1</clus>
<clus scale="   98.911">  2  7  1 -1</clus>
<clus scale="   99.146">  1  5  2 -1</clus>
</clustering>
</event>
<event>
 9    1  0.2333971E-005  0.9712578E+02  0.7546771E-02  0.1290745E+00
          1   -1    0    0  502    0  0.00000000000E+00  0.00000000000E+00  0.25147271695E+03  0.25147271695E+03  0.00000000000E+00 0. -1.
         -2   -1    0    0    0  501 -0.00000000000E+00 -0.00000000000E+00 -0.67333485309E+02  0.67333485309E+02  0.00000000000E+00 0.  1.
        -24    2    1    2    0    0 -0.47449400123E+02 -0.41389689733E+01  0.44612861632E+02  0.10560751206E+03  0.83030491648E+02 0.  0.
         23    2    1    2    0    0  0.25014228168E+02  0.14050656149E+02  0.15652541273E+03  0.18335667390E+03  0.91084205460E+02 0.  0.
         11    1    3    3    0    0 -0.43732086179E+02 -0.39718858086E+02  0.34581569407E+02  0.68454130568E+02  0.00000000000E+00 0. -1.
        -12    1    3    3    0    0 -0.37173139443E+01  0.35579889112E+02  0.10031292224E+02  0.37153381487E+02  0.00000000000E+00 0.  1.
        -11    1    4    4    0    0  0.10190557104E+02 -0.24139474423E+02  0.13413635266E+03  0.13667158733E+03  0.00000000000E+00 0. -1.
         11    1    4    4    0    0  0.14823671065E+02  0.38190130572E+02  0.22389060072E+02  0.46685086568E+02  0.00000000000E+00 0.  1.
         21    1    1    2  502  501  0.22435171955E+02 -0.99116871761E+01 -0.16999042724E+02  0.29842016300E+02  0.00000000000E+00 0. -1.
<scales pt_clust_5="13000.00000" pt_clust_6="13000.00000" pt_clust_7="13000.00000" pt_clust_8="13000.00000" pt_clust_9="24.52710"></scales>
<clustering>
<clus scale="   24.527">  2  9  1 -1</clus>
<clus scale="   83.030">  5  6 -1 -1</clus>
<clus scale="   89.617">  2  5  1 -1</clus>
<clus scale="   91.084">  7  8 -1 -1</clus>
<clus scale="   97.126">  1  5  2 -1</clus>
</clustering>
</event>
<event>
 9    1  0.2333971E-005  0.9216723E+02  0.7546771E-02  0.1304426E+00
         -2   -1    0    0    0  501 -0.00000000000E+00  0.00000000000E+00  0.52515110209E+02  0.52515110209E+02  0.00000000000E+00 0.  1.
          1   -1    0    0  502    0  0.00000000000E+00 -0.00000000000E+00 -0.33805484825E+03  0.33805484825E+03  0.00000000000E+00 0. -1.
        -24    2    1    2    0    0 -0.17241184367E+02 -0.28962067084E+02 -0.42370346092E+02  0.97017314070E+02  0.80504988872E+02 0.  0.
         23    2    1    2    0    0 -0.93220992518E+01  0.64304085770E+01 -0.24175592315E+03  0.25869175562E+03  0.91363265915E+02 0.  0.
         13    1    3    3    0    0 -0.31785369798E+01 -0.41509912653E+02 -0.58778672062E+02  0.72028523761E+02  0.00000000000E+00 0. -1.
        -14    1    3    3    0    0 -0.14062647388E+02  0.12547845569E+02  0.16408325970E+02  0.24988790309E+02  0.00000000000E+00 0.  1.
        -13    1    4    4    0    0 -0.31305648126E+02  0.38433217772E+02 -0.17031675645E+03  0.17738363329E+03  0.00000000000E+00 0.  1.
         13    1    4    4    0    0  0.21983548874E+02 -0.32002809195E+02 -0.71439166704E+02  0.81308122330E+02  0.00000000000E+00 0. -1.
         21    1    1    2  502  501  0.26563283619E+02  0.22531658507E+02 -0.14134687973E+01  0.34860888769E+02  0.00000000000E+00 0.  1.
<scales pt_clust_5="13000.00000" pt_clust_6="13000.00000" pt_clust_7="13000.00000" pt_clust_8="13000.00000" pt_clust_9="34.83222"></scales>
<clustering>
<clus scale="   34.832">  1  9  2 -1</clus>
<clus scale="   80.505">  5  6 -1 -1</clus>
<clus scale="   81.416">  1  5  2 -1</clus>
<clus scale="   91.363">  7  8 -1 -1</clus>
<clus scale="   92.167">  2  5  1 -1</clus>
</clustering>
</event>
<event>
 9    1  0.2333971E-005  0.1303130E+03  0.7546771E-02  0.1232948E+00
          1   -1    0    0  502    0  0.00000000000E+00  0.00000000000E+00  0.23046496933E+03  0.23046496933E+03  0.00000000000E+00 0. -1.
         -2   -1    0    0    0  501 -0.00000000000E+00 -0.00000000000E+00 -0.11739531521E+03  0.11739531521E+03  0.00000000000E+00 0.  1.
        -24    2    1    2    0    0  0.32666088108E+02 -0.77351496001E+02 -0.28169252478E+02  0.11928397179E+03  0.79905143114E+02 0.  0.
         23    2    1    2    0    0 -0.68812825426E+02  0.54986357056E+02  0.12536884316E+03  0.18320401974E+03  0.10043735165E+03 0.  0.
         11    1    3    3    0    0  0.31105213778E+02 -0.67947950226E+02  0.14018501283E+02  0.76032734018E+02  0.00000000000E+00 0. -1.
        -12    1    3    3    0    0  0.15608743306E+01 -0.94035457744E+01 -0.42187753761E+02  0.43251237776E+02  0.00000000000E+00 0.  1.
        -11    1    4    4    0    0  0.21688216280E+02  0.34400816929E+02  0.34804037283E+02  0.53526777804E+02  0.00000000000E+00 0.  1.
         11    1    4    4    0    0 -0.90501041706E+02  0.20585540127E+02  0.90564805878E+02  0.12967724194E+03  0.00000000000E+00 0. -1.
         21    1    1    2  502  501  0.36146737317E+02  0.22365138944E+02  0.15870063440E+02  0.45372293002E+02  0.00000000000E+00 0.  1.
<scales pt_clust_5="13000.00000" pt_clust_6="13000.00000" pt_clust_7="13000.00000" pt_clust_8="13000.00000" pt_clust_9="42.50631"></scales>
<clustering>
<clus scale="   42.506">  1  9  2 -1</clus>
<clus scale="   79.905">  5  6 -1 -1</clus>
<clus scale="  100.437">  7  8 -1 -1</clus>
<clus scale="  115.233">  2  5  1 -1</clus>
<clus scale="   42.506">  1  5  2 -1</clus>
</clustering>
</event>
<event>
 9    1  0.2333971E-005  0.1247838E+03  0.7546771E-02  0.1236500E+00
          1   -1    0    0  502    0  0.00000000000E+00  0.00000000000E+00  0.20080015076E+03  0.20080015076E+03  0.00000000000E+00 0. -1.
         -2   -1    0    0    0  501 -0.00000000000E+00 -0.00000000000E+00 -0.13760093451E+03  0.13760093451E+03  0.00000000000E+00 0.  1.
         23    2    1    2    0    0  0.82662212499E+01  0.88767623042E+02 -0.46553428476E+02  0.13611992280E+03  0.91724535251E+02 0.  0.
        -24    2    1    2    0    0 -0.27890827709E+02 -0.79172989051E+02  0.12597704585E+03  0.17507062458E+03  0.87938882440E+02 0.  0.
         11    1    4    4    0    0 -0.46088385852E+02 -0.53085004955E+02  0.12480339670E+03  0.14324121226E+03  0.00000000000E+00 0. -1.
        -12    1    4    4    0    0  0.18197558143E+02 -0.26087984096E+02  0.11736491519E+01  0.31829412324E+02  0.00000000000E+00 0.  1.
        -13    1    3    3    0    0 -0.36874971238E+02  0.64570145327E+02 -0.14675434793E+02  0.75792054714E+02  0.00000000000E+00 0.  1.
         13    1    3    3    0    0  0.45141192488E+02  0.24197477715E+02 -0.31877993684E+02  0.60327868090E+02  0.00000000000E+00 0. -1.
         21    1    1    2  502  501  0.19624606459E+02 -0.95946339914E+01 -0.16224401124E+02  0.27210537884E+02  0.00000000000E+00 0. -1.
<scales pt_clust_5="13000.00000" pt_clust_6="13000.00000" pt_clust_7="13000.00000" pt_clust_8="13000.00000" pt_clust_9="21.84450"></scales>
<clustering>
<clus scale="   21.844">  2  9  1 -1</clus>
<clus scale="   87.939">  5  6 -1 -1</clus>
<clus scale="   91.725">  7  8 -1 -1</clus>
<clus scale="  122.028">  1  5  2 -1</clus>
<clus scale="  122.028">  1  5  2 -1</clus>
</clustering>
</event>
<event>
 9    1  0.2333971E-005  0.1099870E+03  0.7546771E-02  0.1265125E+00
          1   -1    0    0  502    0  0.00000000000E+00  0.00000000000E+00  0.63735093946E+02  0.63735093946E+02  0.00000000000E+00 0. -1.
         -2   -1    0    0    0  501 -0.00000000000E+00 -0.00000000000E+00 -0.26405365219E+03  0.26405365219E+03  0.00000000000E+00 0.  1.
        -24    2    1    2    0    0 -0.49608101711E+02 -0.47933965260E+02 -0.12901240363E+03  0.16625526508E+03  0.78980909690E+02 0.  0.
         23    2    1    2    0    0  0.57977499048E+02  0.19652190255E+02 -0.35063552895E+02  0.11480627497E+03  0.90572783181E+02 0.  0.
         13    1    3    3    0    0 -0.36548282089E+02  0.14599893346E+02 -0.35478774701E+02  0.52987519886E+02  0.00000000000E+00 0. -1.
        -14    1    3    3    0    0 -0.13059819622E+02 -0.62533858606E+02 -0.93533628924E+02  0.11326774519E+03  0.00000000000E+00 0.  1.
        -11    1    4    4    0    0  0.20076456793E+02  0.29539948563E+02  0.24646642502E+02  0.43395041941E+02  0.00000000000E+00 0. -1.
         11    1    4    4    0    0  0.37901042255E+02 -0.98877583082E+01 -0.59710195397E+02  0.71411233029E+02  0.00000000000E+00 0.  1.
         21    1    1    2  502  501 -0.83693973372E+01  0.28281775005E+02 -0.36242601719E+02  0.46727206086E+02  0.00000000000E+00 0. -1.
<scales pt_clust_5="13000.00000" pt_clust_6="13000.00000" pt_clust_7="13000.00000" pt_clust_8="13000.00000" pt_clust_9="29.49416"></scales>
<clustering>
<clus scale="   29.494">  2  9  1 -1</clus>
<clus scale="   78.981">  5  6 -1 -1</clus>
<clus scale="   90.573">  7  8 -1 -1</clus>
<clus scale="  100.656">  2  5  1 -1</clus>
<clus scale="  109.987">  1  5  2 -1</clus>
</clustering>
</event>
<event>
 9    1  0.2333971E-005  0.1338777E+03  0.7546771E-02  0.1222299E+00
          1   -1    0    0  502    0  0.00000000000E+00  0.00000000000E+00  0.11997056485E+03  0.11997056485E+03  0.00000000000E+00 0. -1.
         -2   -1    0    0    0  501 -0.00000000000E+00 -0.00000000000E+00 -0.31340756177E+03  0.31340756177E+03  0.00000000000E+00 0.  1.
         23    2    1    2    0    0  0.71479013179E+00 -0.14039019369E+03 -0.14655024908E+03  0.22263102900E+03  0.91529679115E+02 0.  0.
        -24    2    1    2    0    0 -0.27336698678E+02  0.78393894768E+02  0.57710059577E+01  0.12516026375E+03  0.93482026517E+02 0.  0.
         13    1    4    4    0    0  0.15998352317E+02  0.78266490783E+02  0.13855037948E+02  0.81077450212E+02  0.00000000000E+00 0. -1.
        -14    1    4    4    0    0 -0.43335050995E+02  0.12740398419E+00 -0.80840319903E+01  0.44082813542E+02  0.00000000000E+00 0.  1.
        -13    1    3    3    0    0 -0.24174520585E+02 -0.93811547936E+02 -0.42181040894E+02  0.10566103436E+03  0.00000000000E+00 0.  1.
         13    1    3    3    0    0  0.24889310717E+02 -0.46578645758E+02 -0.10436920819E+03  0.11696999464E+03  0.00000000000E+00 0. -1.
         21    1    1    2  502  501  0.26621908546E+02  0.61996298927E+02 -0.52657753795E+02  0.85586833859E+02  0.00000000000E+00 0. -1.
<scales pt_clust_5="13000.00000" pt_clust_6="13000.00000" pt_clust_7="13000.00000" pt_clust_8="13000.00000" pt_clust_9="67.47049"></scales>
<clustering>
<clus scale="   67.470">  2  9  1 -1</clus>
<clus scale="   91.530">  7  8 -1 -1</clus>
<clus scale="   93.482">  5  6 -1 -1</clus>
<clus scale="  132.522">  2  7  1 -1</clus>
<clus scale="  133.878">  1  5  2 -1</clus>
</clustering>
</event>
<event>
 9    1  0.2333971E-005  0.9293227E+02  0.7546771E-02  0.1299495E+00
          1   -1    0    0  502    0  0.00000000000E+00  0.00000000000E+00  0.24249384954E+03  0.24249384954E+03  0.00000000000E+00 0. -1.
         -2   -1    0    0    0  501 -0.00000000000E+00 -0.00000000000E+00 -0.18195367407E+03  0.18195367407E+03  0.00000000000E+00 0.  1.
         23    2    1    2    0    0  0.41548707353E+00  0.43806444738E+02 -0.12792961768E+03  0.16331495901E+03  0.91578444660E+02 0.  0.
        -24    2    1    2    0    0  0.16007729102E+02 -0.24215308584E+01  0.19739027116E+03  0.21572322576E+03  0.85507191396E+02 0.  0.
         13    1    4    4    0    0 -0.90286623072E+01 -0.40143376868E+02  0.81354189233E+02  0.91167491767E+02  0.00000000000E+00 0. -1.
        -14    1    4    4    0    0  0.25036391409E+02  0.37721846009E+02  0.11603608193E+03  0.12455573399E+03  0.00000000000E+00 0.  1.
        -11    1    3    3    0    0  0.24143947297E+02  0.49533523924E+02 -0.30723107929E+02  0.63090486955E+02  0.00000000000E+00 0.  1.
         11    1    3    3    0    0 -0.23728460223E+02 -0.57270791860E+01 -0.97206509752E+02  0.10022447205E+03  0.00000000000E+00 0. -1.
         21    1    1    2  502  501 -0.16423216175E+02 -0.41384913880E+02 -0.89204780056E+01  0.45409338844E+02  0.00000000000E+00 0. -1.
<scales pt_clust_5="13000.00000" pt_clust_6="13000.00000" pt_clust_7="13000.00000" pt_clust_8="13000.00000" pt_clust_9="44.52452"></scales>
<clustering>
<clus scale="   44.525">  2  9  1 -1</clus>
<clus scale="   85.507">  5  6 -1 -1</clus>
<clus scale="   86.956">  1  5  2 -1</clus>
<clus scale="   91.578">  7  8 -1 -1</clus>
<clus scale="   86.956">  1  5  2 -1</clus>
</clustering>
</event>
<event>
 9    1  0.2333971E-005  0.1155590E+03  0.7546771E-02  0.1253237E+00
         -2   -1    0    0    0  501 -0.00000000000E+00  0.00000000000E+00  0.70836819375E+02  0.70836819375E+02  0.00000000000E+00 0.  1.
          1   -1    0    0  502    0  0.00000000000E+00 -0.00000000000E+00 -0.38531162501E+03  0.38531162501E+03  0.00000000000E+00 0. -1.
         23    2    1    2    0    0 -0.44815585469E+02 -0.66032714158E+01  0.33567280470E+01  0.99190719155E+02  0.88178746016E+02 0.  0.
        -24    2    1    2    0    0  0.81076829051E+02 -0.38981378703E+01 -0.28465338858E+03  0.30669892804E+03  0.80299645948E+02 0.  0.
         11    1    4    4    0    0  0.38246604807E+02  0.37233306761E+02 -0.15900345795E+03  0.16772364637E+03  0.00000000000E+00 0. -1.
        -12    1    4    4    0    0  0.42830224245E+02 -0.41131444632E+02 -0.12564993063E+03  0.13897528167E+03  0.00000000000E+00 0.  1.
        -13    1    3    3    0    0 -0.33311837171E+02  0.32832240362E+02 -0.21177092159E+02  0.51343000840E+02  0.00000000000E+00 0. -1.
         13    1    3    3    0    0 -0.11503748298E+02 -0.39435511778E+02  0.24533820206E+02  0.47847718315E+02  0.00000000000E+00 0.  1.
         21    1    1    2  502  501 -0.36261243582E+02  0.10501409286E+02 -0.33178145100E+02  0.50258797194E+02  0.00000000000E+00 0. -1.
<scales pt_clust_5="13000.00000" pt_clust_6="13000.00000" pt_clust_7="13000.00000" pt_clust_8="13000.00000" pt_clust_9="37.75126"></scales>
<clustering>
<clus scale="   37.751">  1  9  2 -1</clus>
<clus scale="   80.300">  5  6 -1 -1</clus>
<clus scale="   88.179">  7  8 -1 -1</clus>
<clus scale="  109.665">  2  5  1 -1</clus>
<clus scale="  109.665">  2  5  1 -1</clus>
</clustering>
</event>
<event>
 9    1  0.2333971E-005  0.9146104E+02  0.7546771E-02  0.1305536E+00
         -4   -1    0    0    0  501 -0.00000000000E+00  0.00000000000E+00  0.69172267253E+03  0.69172267253E+03  0.00000000000E+00 0.  1.
          3   -1    0    0  502    0  0.00000000000E+00 -0.00000000000E+00 -0.73586460907E+02  0.73586460907E+02  0.00000000000E+00 0. -1.
        -24    2    1    2    0    0  0.85662942363E+01 -0.67118274037E+02  0.32149525455E+03  0.33847304737E+03  0.81403691498E+02 0.  0.
         23    2    1    2    0    0  0.65434668950E+01 -0.11167622706E+02 -0.24974138173E+02  0.95485431927E+02  0.91248163690E+02 0.  0.
         13    1    3    3    0    0 -0.27352408197E+02  0.23628885341E+01  0.75083700078E+02  0.79945603342E+02  0.00000000000E+00 0. -1.
        -14    1    3    3    0    0  0.35918702434E+02 -0.69481162571E+02  0.24641155448E+03  0.25852744403E+03  0.00000000000E+00 0.  1.
        -13    1    4    4    0    0  0.37182701653E+02 -0.30452131062E+02  0.52197420222E+01  0.48343885810E+02  0.00000000000E+00 0.  1.
         13    1    4    4    0    0 -0.30639234758E+02  0.19284508356E+02 -0.30193880195E+02  0.47141546117E+02  0.00000000000E+00 0. -1.
         21    1    1    2  502  501 -0.15109761131E+02  0.78285896744E+02  0.32161509524E+03  0.33135065414E+03  0.00000000000E+00 0.  1.
<scales pt_clust_5="13000.00000" pt_clust_6="13000.00000" pt_clust_7="13000.00000" pt_clust_8="13000.00000" pt_clust_9="79.73071"></scales>
<clustering>
<clus scale="   79.731">  1  9  2 -1</clus>
<clus scale="   81.404">  5  6 -1 -1</clus>
<clus scale="   81.642">  1  5  2 -1</clus>
<clus scale="   91.248">  7  8 -1 -1</clus>
<clus scale="   91.461">  2  5  1 -1</clus>
</clustering>
</event>
<event>
 9    1  0.2333971E-005  0.1192065E+03  0.7546771E-02  0.1248404E+00
          1   -1    0    0  502    0  0.00000000000E+00  0.00000000000E+00  0.24147899004E+03  0.24147899004E+03  0.00000000000E+00 0. -1.
         -2   -1    0    0    0  501 -0.00000000000E+00 -0.00000000000E+00 -0.12529011170E+03  0.12529011170E+03  0.00000000000E+00 0.  1.
         23    2    1    2    0    0  0.93492904650E+02  0.54934185197E+02  0.79750226545E+02  0.16362537278E+03  0.93029436520E+02 0.  0.
        -24    2    1    2    0    0 -0.55594100965E+01 -0.63974509600E+02  0.48151110683E+02  0.11397417910E+03  0.80919337137E+02 0.  0.
         13    1    4    4    0    0 -0.42433334679E+02 -0.29444723568E+02  0.32769358409E+02  0.61167070295E+02  0.00000000000E+00 0. -1.
        -14    1    4    4    0    0  0.36873924582E+02 -0.34529786032E+02  0.15381752274E+02  0.52807108807E+02  0.00000000000E+00 0.  1.
        -11    1    3    3    0    0  0.76794637562E+02  0.26714346212E+02  0.43742905575E+01  0.81426083473E+02  0.00000000000E+00 0. -1.
         11    1    3    3    0    0  0.16698267088E+02  0.28219838985E+02  0.75375935988E+02  0.82199289304E+02  0.00000000000E+00 0.  1.
         21    1    1    2  502  501 -0.87933494553E+02  0.90403244030E+01 -0.11712458881E+02  0.89169549863E+02  0.00000000000E+00 0.  1.
<scales pt_clust_5="13000.00000" pt_clust_6="13000.00000" pt_clust_7="13000.00000" pt_clust_8="13000.00000" pt_clust_9="88.39698"></scales>
<clustering>
<clus scale="   80.919">  5  6 -1 -1</clus>
<clus scale="   88.397">  2  9  1 -1</clus>
<clus scale="   93.029">  7  8 -1 -1</clus>
<clus scale="  110.017">  1  5  2 -1</clus>
<clus scale="  110.017">  1  5  2 -1</clus>
</clustering>
</event>
<event>
 9    1  0.2333971E-005  0.1434630E+03  0.7546771E-02  0.1211596E+00
          1   -1    0    0  502    0  0.00000000000E+00  0.00000000000E+00  0.51823005638E+03  0.51823005638E+03  0.00000000000E+00 0. -1.
         -2   -1    0    0    0  501 -0.00000000000E+00 -0.00000000000E+00 -0.13695595443E+03  0.13695595443E+03  0.00000000000E+00 0.  1.
        -24    2    1    2    0    0  0.74734695527E+02  0.77705848809E+02 -0.81727205291E+02  0.15735704585E+03  0.80364358640E+02 0.  0.
         23    2    1    2    0    0 -0.63876352142E+02 -0.99472604951E+02  0.43642867132E+03  0.46180396983E+03  0.93903854568E+02 0.  0.
         13    1    3    3    0    0  0.41878974273E+02  0.29660893743E+02  0.64283666571E+01  0.51719831802E+02  0.00000000000E+00 0. -1.
        -14    1    3    3    0    0  0.32855721254E+02  0.48044955066E+02 -0.88155571948E+02  0.10563721405E+03  0.00000000000E+00 0.  1.
        -13    1    4    4    0    0 -0.46110553140E+02 -0.11029293055E+03  0.41526376592E+03  0.43212811633E+03  0.00000000000E+00 0. -1.
         13    1    4    4    0    0 -0.17765799002E+02  0.10820325599E+02  0.21164905403E+02  0.29675853500E+02  0.00000000000E+00 0.  1.
         21    1    1    2  502  501 -0.10858343385E+02  0.21766756142E+02  0.26572635921E+02  0.36024995126E+02  0.00000000000E+00 0.  1.
<scales pt_clust_5="13000.00000" pt_clust_6="13000.00000" pt_clust_7="13000.00000" pt_clust_8="13000.00000" pt_clust_9="24.32479"></scales>
<clustering>
<clus scale="   24.325">  1  9  2 -1</clus>
<clus scale="   80.364">  5  6 -1 -1</clus>
<clus scale="   93.904">  7  8 -1 -1</clus>
<clus scale="  134.989">  2  5  1 -1</clus>
<clus scale="   24.325">  1  5  2 -1</clus>
</clustering>
</event>
<event>
 9    1  0.2333971E-005  0.1113163E+03  0.7546771E-02  0.1263509E+00
          1   -1    0    0  502    0  0.00000000000E+00  0.00000000000E+00  0.24693546972E+03  0.24693546972E+03  0.00000000000E+00 0. -1.
         -2   -1    0    0    0  501 -0.00000000000E+00 -0.00000000000E+00 -0.16422378187E+03  0.16422378187E+03  0.00000000000E+00 0.  1.
         23    2    1    2    0    0  0.50218663405E+02  0.37959174980E+02 -0.10141996482E+03  0.15249762514E+03  0.94903652674E+02 0.  0.
        -24    2    1    2    0    0 -0.58855664726E+02  0.77769879758E+01  0.18651283145E+03  0.21205621467E+03  0.81586341212E+02 0.  0.
         13    1    4    4    0    0 -0.27233317526E+02  0.25024035246E+02  0.16708827398E+03  0.17113254285E+03  0.00000000000E+00 0. -1.
        -14    1    4    4    0    0 -0.31622347200E+02 -0.17247047270E+02  0.19424557478E+02  0.40923671820E+02  0.00000000000E+00 0.  1.
        -13    1    3    3    0    0 -0.10955033945E+02  0.39575927681E+02 -0.96289902507E+01  0.42178006992E+02  0.00000000000E+00 0. -1.
         13    1    3    3    0    0  0.61173697349E+02 -0.16167527016E+01 -0.91790974569E+02  0.11031961815E+03  0.00000000000E+00 0.  1.
         21    1    1    2  502  501  0.86370013212E+01 -0.45736162955E+02 -0.23811787843E+01  0.46605411768E+02  0.00000000000E+00 0.  1.
<scales pt_clust_5="13000.00000" pt_clust_6="13000.00000" pt_clust_7="13000.00000" pt_clust_8="13000.00000" pt_clust_9="46.54454"></scales>
<clustering>
<clus scale="   46.545">  2  9  1 -1</clus>
<clus scale="   81.586">  5  6 -1 -1</clus>
<clus scale="   94.904">  7  8 -1 -1</clus>
<clus scale="  100.205">  1  5  2 -1</clus>
<clus scale="  100.205">  1  5  2 -1</clus>
</clustering>
</event>
<event>
 9    1  0.2333971E-005  0.1587671E+03  0.7546771E-02  0.1192574E+00
          1   -1    0    0  502    0  0.00000000000E+00  0.00000000000E+00  0.24370445004E+03  0.24370445004E+03  0.00000000000E+00 0. -1.
         -2   -1    0    0    0  501 -0.00000000000E+00 -0.00000000000E+00 -0.28153133719E+03  0.28153133719E+03  0.00000000000E+00 0.  1.
         23    2    1    2    0    0 -0.10651994601E+03  0.62790053695E+02 -0.17139445302E+03  0.23009434958E+03  0.90984951730E+02 0.  0.
        -24    2    1    2    0    0  0.17142920152E+03 -0.33875599122E+02  0.11241832116E+03  0.22100273194E+03  0.75291442036E+02 0.  0.
         13    1    4    4    0    0  0.15079086617E+03 -0.30026214287E+02  0.12354886690E+03  0.19724041517E+03  0.00000000000E+00 0. -1.
        -14    1    4    4    0    0  0.20638335347E+02 -0.38493848354E+01 -0.11130545745E+02  0.23762316766E+02  0.00000000000E+00 0.  1.
        -13    1    3    3    0    0 -0.67212723463E+02  0.12776718806E+02 -0.14667904734E+03  0.16185035579E+03  0.00000000000E+00 0.  1.
         13    1    3    3    0    0 -0.39307222542E+02  0.50013334889E+02 -0.24715405678E+02  0.68243993791E+02  0.00000000000E+00 0. -1.
         21    1    1    2  502  501 -0.64909255510E+02 -0.28914454572E+02  0.21149244713E+02  0.74138705721E+02  0.00000000000E+00 0.  1.
<scales pt_clust_5="13000.00000" pt_clust_6="13000.00000" pt_clust_7="13000.00000" pt_clust_8="13000.00000" pt_clust_9="71.05813"></scales>
<clustering>
<clus scale="   71.058">  1  9  2 -1</clus>
<clus scale="   75.291">  5  6 -1 -1</clus>
<clus scale="   90.985">  7  8 -1 -1</clus>
<clus scale="  150.325">  1  5  2 -1</clus>
<clus scale="   71.058">  1  5  2 -1</clus>
</clustering>
</event>
<event>
 9    1  0.2333971E-005  0.2569780E+03  0.7546771E-02  0.1116974E+00
         -2   -1    0    0    0  501 -0.00000000000E+00  0.00000000000E+00  0.12505591749E+04  0.12505591749E+04  0.00000000000E+00 0.  1.
          1   -1    0    0  502    0  0.00000000000E+00 -0.00000000000E+00 -0.14900921784E+03  0.14900921784E+03  0.00000000000E+00 0. -1.
        -24    2    1    2    0    0  0.15987208122E+03 -0.10985580999E+03  0.38538783514E+03  0.43880686232E+03  0.80001859996E+02 0.  0.
         23    2    1    2    0    0 -0.16085234863E+03 -0.18076232219E+03  0.95651887021E+02  0.27556607561E+03  0.90768294870E+02 0.  0.
         11    1    3    3    0    0  0.52472565652E+02 -0.30646557341E+01  0.59170561664E+02  0.79144915367E+02  0.00000000000E+00 0. -1.
        -12    1    3    3    0    0  0.10739951557E+03 -0.10679115426E+03  0.32621727348E+03  0.35966194696E+03  0.00000000000E+00 0.  1.
        -11    1    4    4    0    0 -0.39777595813E+02 -0.11162701967E+03  0.35364154928E+02  0.12366677849E+03  0.00000000000E+00 0.  1.
         11    1    4    4    0    0 -0.12107475282E+03 -0.69135302522E+02  0.60287732093E+02  0.15189929712E+03  0.00000000000E+00 0. -1.
         21    1    1    2  502  501  0.98026740972E+00  0.29061813218E+03  0.62051023487E+03  0.68519545479E+03  0.00000000000E+00 0.  1.
<scales pt_clust_5="13000.00000" pt_clust_6="13000.00000" pt_clust_7="13000.00000" pt_clust_8="13000.00000" pt_clust_9="240.41387"></scales>
<clustering>
<clus scale="   80.002">  5  6 -1 -1</clus>
<clus scale="   90.768">  7  8 -1 -1</clus>
<clus scale="  209.828">  1  5  2 -1</clus>
<clus scale="  240.414">  1  9  2 -1</clus>
<clus scale="  256.978">  2  5  1 -1</clus>
</clustering>
</event>
<event>
 9    1  0.2333971E-005  0.1067124E+03  0.7546771E-02  0.1271278E+00
         -2   -1    0    0    0  501 -0.00000000000E+00  0.00000000000E+00  0.23354552488E+03  0.23354552488E+03  0.00000000000E+00 0.  1.
          1   -1    0    0  502    0  0.00000000000E+00 -0.00000000000E+00 -0.20589409482E+03  0.20589409482E+03  0.00000000000E+00 0. -1.
        -24    2    1    2    0    0  0.57163186116E+02 -0.59985191815E+01  0.19674142942E+03  0.22010933682E+03  0.80232898649E+02 0.  0.
         23    2    1    2    0    0 -0.31888949471E+02  0.48553642341E+01 -0.16836187049E+03  0.19401973147E+03  0.90870551358E+02 0.  0.
         13    1    3    3    0    0  0.53271463744E+02  0.99677085915E+01  0.54283287323E+02  0.76706449185E+02  0.00000000000E+00 0. -1.
        -14    1    3    3    0    0  0.38917223721E+01 -0.15966227773E+02  0.14245814209E+03  0.14340288763E+03  0.00000000000E+00 0.  1.
        -13    1    4    4    0    0  0.31026368836E+02  0.11557210709E+02 -0.60693798434E+02  0.69137123536E+02  0.00000000000E+00 0. -1.
         13    1    4    4    0    0 -0.62915318307E+02 -0.67018464745E+01 -0.10766807205E+03  0.12488260793E+03  0.00000000000E+00 0.  1.
         21    1    1    2  502  501 -0.25274236645E+02  0.11431549473E+01 -0.72812887809E+00  0.25310551414E+02  0.00000000000E+00 0.  1.
<scales pt_clust_5="13000.00000" pt_clust_6="13000.00000" pt_clust_7="13000.00000" pt_clust_8="13000.00000" pt_clust_9="25.30008"></scales>
<clustering>
<clus scale="   25.300">  2  9  1 -1</clus>
<clus scale="   80.233">  5  6 -1 -1</clus>
<clus scale="   90.871">  7  8 -1 -1</clus>
<clus scale="   97.813">  1  5  2 -1</clus>
<clus scale="   25.300">  2  5  1 -1</clus>
</clustering>
</event>
<event>
 9    1  0.2333971E-005  0.1012670E+03  0.7546771E-02  0.1282523E+00
          1   -1    0    0  502    0  0.00000000000E+00  0.00000000000E+00  0.12150063420E+03  0.12150063420E+03  0.00000000000E+00 0. -1.
         -2   -1    0    0    0  501 -0.00000000000E+00 -0.00000000000E+00 -0.17716655164E+03  0.17716655164E+03  0.00000000000E+00 0.  1.
         23    2    1    2    0    0  0.35344569448E+02  0.51109860618E+02 -0.50537236492E+02  0.12086236606E+03  0.90511009356E+02 0.  0.
        -24    2    1    2    0    0 -0.17458007973E+02 -0.36968590392E+02  0.60333186506E+02  0.10848555337E+03  0.80358964510E+02 0.  0.
         13    1    4    4    0    0  0.28861808572E+02 -0.32663673614E+02  0.31055288055E+02  0.53519627093E+02  0.00000000000E+00 0. -1.
        -14    1    4    4    0    0 -0.46319816545E+02 -0.43049167783E+01  0.29277898451E+02  0.54965926272E+02  0.00000000000E+00 0.  1.
        -11    1    3    3    0    0  0.28322856827E+00  0.43810316302E+02 -0.68099307848E+02  0.80974932925E+02  0.00000000000E+00 0.  1.
         11    1    3    3    0    0  0.35061340880E+02  0.72995443158E+01  0.17562071355E+02  0.39887433131E+02  0.00000000000E+00 0. -1.
         21    1    1    2  502  501 -0.17886561475E+02 -0.14141270226E+02 -0.65461867456E+02  0.69319266412E+02  0.00000000000E+00 0.  1.
<scales pt_clust_5="13000.00000" pt_clust_6="13000.00000" pt_clust_7="13000.00000" pt_clust_8="13000.00000" pt_clust_9="22.80142"></scales>
<clustering>
<clus scale="   22.801">  2  9  1 -1</clus>
<clus scale="   80.359">  5  6 -1 -1</clus>
<clus scale="   90.511">  7  8 -1 -1</clus>
<clus scale="   92.306">  1  5  2 -1</clus>
<clus scale="   92.306">  1  5  2 -1</clus>
</clustering>
</event>
<event>
 9    1  0.2333971E-005  0.1033273E+03  0.7546771E-02  0.1276996E+00
          1   -1    0    0  502    0  0.00000000000E+00  0.00000000000E+00  0.47925973980E+03  0.47925973980E+03  0.00000000000E+00 0. -1.
         -2   -1    0    0    0  501 -0.00000000000E+00 -0.00000000000E+00 -0.55794336962E+02  0.55794336962E+02  0.00000000000E+00 0.  1.
        -24    2    1    2    0    0 -0.37137631461E+02 -0.53025659136E+02  0.22812352721E+02  0.10825987496E+03  0.83719011534E+02 0.  0.
         23    2    1    2    0    0  0.31546776928E+02  0.32920236250E+02  0.39037605624E+03  0.40353259637E+03  0.91466660404E+02 0.  0.
         13    1    3    3    0    0 -0.51067202690E+02 -0.27070565202E+02  0.43436505803E+02  0.72300793407E+02  0.00000000000E+00 0. -1.
        -14    1    3    3    0    0  0.13929571229E+02 -0.25955093934E+02 -0.20624153082E+02  0.35959081552E+02  0.00000000000E+00 0.  1.
        -11    1    4    4    0    0 -0.94040809620E+01  0.48265628886E+02  0.28859453689E+03  0.29275384607E+03  0.00000000000E+00 0. -1.
         11    1    4    4    0    0  0.40950857890E+02 -0.15345392637E+02  0.10178151935E+03  0.11077875030E+03  0.00000000000E+00 0.  1.
         21    1    1    2  502  501  0.55908545327E+01  0.20105422886E+02  0.10276993879E+02  0.23261605426E+02  0.00000000000E+00 0. -1.
<scales pt_clust_5="13000.00000" pt_clust_6="13000.00000" pt_clust_7="13000.00000" pt_clust_8="13000.00000" pt_clust_9="20.86829"></scales>
<clustering>
<clus scale="   20.868">  2  9  1 -1</clus>
<clus scale="   83.719">  5  6 -1 -1</clus>
<clus scale="   91.467">  7  8 -1 -1</clus>
<clus scale="   96.536">  2  5  1 -1</clus>
<clus scale="  103.327">  1  5  2 -1</clus>
</clustering>
</event>
<event>
 9    1  0.2333971E-005  0.3041734E+03  0.7546771E-02  0.1083560E+00
         -2   -1    0    0    0  501 -0.00000000000E+00  0.00000000000E+00  0.11486961513E+03  0.11486961513E+03  0.00000000000E+00 0.  1.
          1   -1    0    0  502    0  0.00000000000E+00 -0.00000000000E+00 -0.11379171075E+04  0.11379171075E+04  0.00000000000E+00 0. -1.
        -24    2    1    2    0    0 -0.23988982839E+03  0.14804224718E+03 -0.19499198617E+03  0.35197810241E+03  0.80019205119E+02 0.  0.
         23    2    1    2    0    0  0.23743994326E+03 -0.17228899669E+03 -0.81916251650E+03  0.87486652960E+03  0.91120750334E+02 0.  0.
         11    1    3    3    0    0 -0.20656942887E+03  0.10503569913E+03 -0.18530634016E+03  0.29671849747E+03  0.00000000000E+00 0. -1.
        -12    1    3    3    0    0 -0.33320399521E+02  0.43006548053E+02 -0.96856460106E+01  0.55259604941E+02  0.00000000000E+00 0.  1.
        -11    1    4    4    0    0  0.13421755605E+03 -0.75304614933E+02 -0.54454983250E+03  0.56587954324E+03  0.00000000000E+00 0. -1.
         11    1    4    4    0    0  0.10322238721E+03 -0.96984381756E+02 -0.27461268400E+03  0.30898698636E+03  0.00000000000E+00 0.  1.
         21    1    1    2  502  501  0.24498851301E+01  0.24246749510E+02 -0.88929896686E+01  0.25942090591E+02  0.00000000000E+00 0. -1.
<scales pt_clust_5="13000.00000" pt_clust_6="13000.00000" pt_clust_7="13000.00000" pt_clust_8="13000.00000" pt_clust_9="24.37020"></scales>
<clustering>
<clus scale="   24.370">  1  9  2 -1</clus>
<clus scale="   80.019">  5  6 -1 -1</clus>
<clus scale="   91.121">  7  8 -1 -1</clus>
<clus scale="  301.034">  1  5  2 -1</clus>
<clus scale="  304.173">  2  5  1 -1</clus>
</clustering>
</event>
<event>
 9    1  0.2333971E-005  0.9502968E+02  0.7546771E-02  0.1297426E+00
          1   -1    0    0  502    0  0.00000000000E+00  0.00000000000E+00  0.27126565165E+03  0.27126565165E+03  0.00000000000E+00 0. -1.
         -2   -1    0    0    0  501 -0.00000000000E+00 -0.00000000000E+00 -0.76339799288E+02  0.76339799288E+02  0.00000000000E+00 0.  1.
         23    2    1    2    0    0  0.20419061636E+02 -0.37629657889E+02 -0.46675376895E+01  0.10204003949E+03  0.92506510687E+02 0.  0.
        -24    2    1    2    0    0 -0.24320858706E+01  0.18641765284E+02  0.20259853883E+03  0.21923857567E+03  0.81645297922E+02 0.  0.
         11    1    4    4    0    0 -0.32323380989E+02 -0.16662762190E+02  0.71472803301E+02  0.80192332639E+02  0.00000000000E+00 0. -1.
        -12    1    4    4    0    0  0.29891295119E+02  0.35304527474E+02  0.13112573553E+03  0.13904624303E+03  0.00000000000E+00 0.  1.
        -11    1    3    3    0    0  0.29132537133E+02 -0.63938811593E+02  0.95203708988E+01  0.70904963224E+02  0.00000000000E+00 0.  1.
         11    1    3    3    0    0 -0.87134754974E+01  0.26309153704E+02 -0.14187908588E+02  0.31135076264E+02  0.00000000000E+00 0. -1.
         21    1    1    2  502  501 -0.17986975766E+02  0.18987892605E+02 -0.30051487796E+01  0.26326835776E+02  0.00000000000E+00 0. -1.
<scales pt_clust_5="13000.00000" pt_clust_6="13000.00000" pt_clust_7="13000.00000" pt_clust_8="13000.00000" pt_clust_9="26.15476"></scales>
<clustering>
<clus scale="   26.155">  2  9  1 -1</clus>
<clus scale="   81.645">  5  6 -1 -1</clus>
<clus scale="   84.493">  1  5  2 -1</clus>
<clus scale="   92.507">  7  8 -1 -1</clus>
<clus scale="   84.493">  1  5  2 -1</clus>
</clustering>
</event>
<event>
 9    1  0.2333971E-005  0.1276073E+03  0.7546771E-02  0.1234348E+00
          1   -1    0    0  502    0  0.00000000000E+00  0.00000000000E+00  0.89042848618E+03  0.89042848618E+03  0.00000000000E+00 0. -1.
         -2   -1    0    0    0  501 -0.00000000000E+00 -0.00000000000E+00 -0.10149093736E+03  0.10149093736E+03  0.00000000000E+00 0.  1.
         23    2    1    2    0    0  0.11607424105E+03  0.32716243014E+02  0.64932815060E+02  0.16428624032E+03  0.90719988385E+02 0.  0.
        -24    2    1    2    0    0 -0.87143744355E+02 -0.35683502691E+01  0.76241997744E+03  0.77139881440E+03  0.78518428167E+02 0.  0.
         11    1    4    4    0    0 -0.61221339637E+02 -0.39125389698E+02  0.43308802304E+03  0.43914016469E+03  0.00000000000E+00 0. -1.
        -12    1    4    4    0    0 -0.25922404718E+02  0.35557039429E+02  0.32933195440E+03  0.33225864971E+03  0.00000000000E+00 0.  1.
        -13    1    3    3    0    0  0.89535503169E+02 -0.19463391854E+02  0.47488499425E+02  0.10320168375E+03  0.00000000000E+00 0.  1.
         13    1    3    3    0    0  0.26538737882E+02  0.52179634868E+02  0.17444315635E+02  0.61084556570E+02  0.00000000000E+00 0. -1.
         21    1    1    2  502  501 -0.28930496697E+02 -0.29147892745E+02 -0.38415243678E+02  0.56234368828E+02  0.00000000000E+00 0.  1.
<scales pt_clust_5="13000.00000" pt_clust_6="13000.00000" pt_clust_7="13000.00000" pt_clust_8="13000.00000" pt_clust_9="41.06791"></scales>
<clustering>
<clus scale="   41.068">  2  9  1 -1</clus>
<clus scale="   78.518">  5  6 -1 -1</clus>
<clus scale="   90.720">  7  8 -1 -1</clus>
<clus scale="  119.242">  1  5  2 -1</clus>
<clus scale="  119.242">  1  5  2 -1</clus>
</clustering>
</event>
<event>
 9    1  0.2333971E-005  0.9737752E+02  0.7546771E-02  0.1289182E+00
         -2   -1    0    0    0  501 -0.00000000000E+00  0.00000000000E+00  0.50454295449E+03  0.50454295449E+03  0.00000000000E+00 0.  1.
          1   -1    0    0  502    0  0.00000000000E+00 -0.00000000000E+00 -0.21769806434E+03  0.21769806434E+03  0.00000000000E+00 0. -1.
        -24    2    1    2    0    0  0.33825226437E+01 -0.15513809071E+02  0.20224379797E+03  0.21828948894E+03  0.80595455411E+02 0.  0.
         23    2    1    2    0    0  0.44699266841E+02  0.10235273553E+02 -0.19592896835E+03  0.21928183310E+03  0.87141129255E+02 0.  0.
         13    1    3    3    0    0 -0.88285502912E+01  0.27038857421E+02  0.34050284304E+02  0.44367386356E+02  0.00000000000E+00 0. -1.
        -14    1    3    3    0    0  0.12211072935E+02 -0.42552666492E+02  0.16819351366E+03  0.17392210258E+03  0.00000000000E+00 0.  1.
        -11    1    4    4    0    0 -0.25092303836E+02 -0.79861789106E+01 -0.51285620531E+02  0.57650825134E+02  0.00000000000E+00 0.  1.
         11    1    4    4    0    0  0.69791570677E+02  0.18221452463E+02 -0.14464334781E+03  0.16163100796E+03  0.00000000000E+00 0. -1.
         21    1    1    2  502  501 -0.48081789485E+02  0.52785355182E+01  0.28053006052E+03  0.28466969680E+03  0.00000000000E+00 0.  1.
<scales pt_clust_5="13000.00000" pt_clust_6="13000.00000" pt_clust_7="13000.00000" pt_clust_8="13000.00000" pt_clust_9="48.37067"></scales>
<clustering>
<clus scale="   48.371">  1  9  2 -1</clus>
<clus scale="   80.595">  5  6 -1 -1</clus>
<clus scale="   87.141">  7  8 -1 -1</clus>
<clus scale="   91.567">  1  5  2 -1</clus>
<clus scale="   97.378">  2  5  1 -1</clus>
</clustering>
</event>
<event>
 9    1  0.2333971E-005  0.1197632E+03  0.7546771E-02  0.1247365E+00
          1   -1    0    0  502    0  0.00000000000E+00  0.00000000000E+00  0.29065826431E+03  0.29065826431E+03  0.00000000000E+00 0. -1.
         -2   -1    0    0    0  501 -0.00000000000E+00 -0.00000000000E+00 -0.33828623551E+03  0.33828623551E+03  0.00000000000E+00 0.  1.
        -24    2    1    2    0    0 -0.25988987903E+02 -0.16758319367E+02 -0.26044200024E+03  0.27465507784E+03  0.81542059904E+02 0.  0.
         23    2    1    2    0    0  0.30897718330E+02  0.71047695489E+02  0.25694330593E+03  0.28415508607E+03  0.93390612163E+02 0.  0.
         11    1    3    3    0    0 -0.16458277081E+02  0.32576514005E+02 -0.95832499538E+02  0.10254741399E+03  0.00000000000E+00 0. -1.
        -12    1    3    3    0    0 -0.95307108225E+01 -0.49334833372E+02 -0.16460950070E+03  0.17210766384E+03  0.00000000000E+00 0.  1.
        -11    1    4    4    0    0 -0.18468290297E+02  0.48422291866E+02  0.57307870109E+02  0.77265697903E+02  0.00000000000E+00 0.  1.
         11    1    4    4    0    0  0.49366008628E+02  0.22625403623E+02  0.19963543583E+03  0.20688938816E+03  0.00000000000E+00 0. -1.
         21    1    1    2  502  501 -0.49087304271E+01 -0.54289376122E+02 -0.44129276903E+02  0.70134335914E+02  0.00000000000E+00 0.  1.
<scales pt_clust_5="13000.00000" pt_clust_6="13000.00000" pt_clust_7="13000.00000" pt_clust_8="13000.00000" pt_clust_9="54.51084"></scales>
<clustering>
<clus scale="   54.511">  2  9  1 -1</clus>
<clus scale="   81.542">  5  6 -1 -1</clus>
<clus scale="   93.391">  7  8 -1 -1</clus>
<clus scale="  110.772">  2  5  1 -1</clus>
<clus scale="  119.763">  1  5  2 -1</clus>
</clustering>
</event>
<event>
 9    1  0.3815265E-005  0.1033759E+03  0.7546771E-02  0.1278846E+00
          1   -1    0    0  502    0  0.00000000000E+00  0.00000000000E+00  0.28039883452E+03  0.28039883452E+03  0.00000000000E+00 0. -1.
         -2   -1    0    0    0  501 -0.00000000000E+00 -0.00000000000E+00 -0.26132763143E+03  0.26132763143E+03  0.00000000000E+00 0.  1.
         23    2    1    2    0    0  0.31139667880E+02  0.15213258772E+02 -0.21968847358E+03  0.24068193029E+03  0.91998065112E+02 0.  0.
        -24    2    1    2    0    0 -0.26553359241E+02 -0.39701160809E+02  0.25483127434E+03  0.27139680683E+03  0.80224592984E+02 0.  0.
         11    1    4    4    0    0 -0.46179729326E+01 -0.59945554835E+02  0.20152163839E+03  0.21029922957E+03  0.00000000000E+00 0. -1.
        -12    1    4    4    0    0 -0.21935386308E+02  0.20244394026E+02  0.53309635954E+02  0.61097577264E+02  0.00000000000E+00 0.  1.
        -13    1    3    3    0    0  0.85164399308E+01 -0.26305677802E+02 -0.16793092877E+02  0.32350060310E+02  0.00000000000E+00 0. -1.
         13    1    3    3    0    0  0.22623227949E+02  0.41518936574E+02 -0.20289538070E+03  0.20833186998E+03  0.00000000000E+00 0.  1.
         21    1    1    2  502  501 -0.45863086392E+01  0.24487902036E+02 -0.16071597671E+02  0.29647728830E+02  0.00000000000E+00 0.  1.
<scales pt_clust_5="13000.00000" pt_clust_6="13000.00000" pt_clust_7="13000.00000" pt_clust_8="13000.00000" pt_clust_9="24.91368"></scales>
<clustering>
<clus scale="   24.914">  2  9  1 -1</clus>
<clus scale="   80.225">  5  6 -1 -1</clus>
<clus scale="   91.998">  7  8 -1 -1</clus>
<clus scale="   93.053">  1  5  2 -1</clus>
<clus scale="   93.053">  1  5  2 -1</clus>
</clustering>
</event>
<event>
 9    1  0.2333971E-005  0.1167257E+03  0.7546771E-02  0.1258364E+00
         -2   -1    0    0    0  501 -0.00000000000E+00  0.00000000000E+00  0.93052573387E+02  0.93052573387E+02  0.00000000000E+00 0.  1.
          1   -1    0    0  502    0  0.00000000000E+00 -0.00000000000E+00 -0.46060754897E+03  0.46060754897E+03  0.00000000000E+00 0. -1.
         23    2    1    2    0    0 -0.19518745250E+02  0.12619833373E+01 -0.51478761145E+02  0.10905695239E+03  0.94131726836E+02 0.  0.
        -24    2    1    2    0    0 -0.81475772952E+02 -0.33322694233E+01 -0.32361886240E+03  0.34330622860E+03  0.80502129771E+02 0.  0.
         11    1    4    4    0    0 -0.78178910985E+02  0.28022667639E+02 -0.23647615407E+03  0.25063555906E+03  0.00000000000E+00 0. -1.
        -12    1    4    4    0    0 -0.32968619665E+01 -0.31354937063E+02 -0.87142708331E+02  0.92670669536E+02  0.00000000000E+00 0.  1.
        -13    1    3    3    0    0 -0.15541716553E+02 -0.39467004388E+02 -0.53270501278E+02  0.68095048977E+02  0.00000000000E+00 0. -1.
         13    1    3    3    0    0 -0.39770286968E+01  0.40728987725E+02  0.17917401329E+01  0.40961903411E+02  0.00000000000E+00 0.  1.
         21    1    1    2  502  501  0.10099451820E+03  0.20702860860E+01  0.75426479668E+01  0.10129694136E+03  0.00000000000E+00 0.  1.
<scales pt_clust_5="13000.00000" pt_clust_6="13000.00000" pt_clust_7="13000.00000" pt_clust_8="13000.00000" pt_clust_9="84.52390"></scales>
<clustering>
<clus scale="   80.502">  5  6 -1 -1</clus>
<clus scale="   94.132">  7  8 -1 -1</clus>
<clus scale="   96.142">  1  7  2 -1</clus>
<clus scale="   84.524">  1  9  2 -1</clus>
<clus scale="  116.726">  2  5  1 -1</clus>
</clustering>
</event>
<event>
 9    1  0.2333971E-005  0.1326667E+03  0.7546771E-02  0.1226116E+00
         -2   -1    0    0    0  501 -0.00000000000E+00  0.00000000000E+00  0.38695154550E+03  0.38695154550E+03  0.00000000000E+00 0.  1.
          1   -1    0    0  502    0  0.00000000000E+00 -0.00000000000E+00 -0.17315667677E+03  0.17315667677E+03  0.00000000000E+00 0. -1.
        -24    2    1    2    0    0  0.11771058892E+03 -0.14868646129E+03  0.14616734099E+03  0.25319658898E+03  0.82341815500E+02 0.  0.
         23    2    1    2    0    0 -0.67883827208E+02  0.39479581319E+02 -0.56817945130E+02  0.13400841027E+03  0.92537148204E+02 0.  0.
         11    1    3    3    0    0  0.93420824075E+02 -0.14828343235E+03  0.14721112809E+03  0.22888106718E+03  0.00000000000E+00 0. -1.
        -12    1    3    3    0    0  0.24289764848E+02 -0.40302894085E+00 -0.10437870941E+01  0.24315521796E+02  0.00000000000E+00 0.  1.
        -11    1    4    4    0    0 -0.18447602040E+02 -0.10641274023E+02  0.20417611218E+02  0.29503043601E+02  0.00000000000E+00 0. -1.
         11    1    4    4    0    0 -0.49436225168E+02  0.50120855342E+02 -0.77235556348E+02  0.10450536667E+03  0.00000000000E+00 0.  1.
         21    1    1    2  502  501 -0.49826761715E+02  0.10920687997E+03  0.12444547286E+03  0.17290322303E+03  0.00000000000E+00 0.  1.
<scales pt_clust_5="13000.00000" pt_clust_6="13000.00000" pt_clust_7="13000.00000" pt_clust_8="13000.00000" pt_clust_9="120.03686"></scales>
<clustering>
<clus scale="   82.342">  5  6 -1 -1</clus>
<clus scale="   92.537">  7  8 -1 -1</clus>
<clus scale="  120.037">  1  9  2 -1</clus>
<clus scale="  125.768">  1  5  2 -1</clus>
<clus scale="  132.667">  2  5  1 -1</clus>
</clustering>
</event>
<event>
 9    1  0.2333971E-005  0.1408237E+03  0.7546771E-02  0.1214913E+00
         -4   -1    0    0    0  501 -0.00000000000E+00  0.00000000000E+00  0.32917105883E+02  0.32917105883E+02  0.00000000000E+00 0.  1.
          3   -1    0    0  502    0  0.00000000000E+00 -0.00000000000E+00 -0.91423613101E+03  0.91423613101E+03  0.00000000000E+00 0. -1.
        -24    2    1    2    0    0 -0.81246363344E+02 -0.83415202963E+02 -0.23220292351E+03  0.27192009048E+03  0.80394466722E+02 0.  0.
         23    2    1    2    0    0  0.48607879806E+02  0.90873463238E+02 -0.59987103244E+03  0.61568507262E+03  0.92747726575E+02 0.  0.
         11    1    3    3    0    0 -0.62200660555E+02 -0.25039866234E+02 -0.17728217775E+03  0.18953861776E+03  0.00000000000E+00 0. -1.
        -12    1    3    3    0    0 -0.19045702789E+02 -0.58375336729E+02 -0.54920745755E+02  0.82381472719E+02  0.00000000000E+00 0.  1.
        -13    1    4    4    0    0  0.50993111632E+02  0.99850393558E+01 -0.15400234366E+03  0.16253221311E+03  0.00000000000E+00 0.  1.
         13    1    4    4    0    0 -0.23852318256E+01  0.80888423882E+02 -0.44586868878E+03  0.45315285951E+03  0.00000000000E+00 0. -1.
         21    1    1    2  502  501  0.32638483538E+02 -0.74582602748E+01 -0.49245069176E+02  0.59548073790E+02  0.00000000000E+00 0.  1.
<scales pt_clust_5="13000.00000" pt_clust_6="13000.00000" pt_clust_7="13000.00000" pt_clust_8="13000.00000" pt_clust_9="33.47979"></scales>
<clustering>
<clus scale="   33.480">  1  9  2 -1</clus>
<clus scale="   80.394">  5  6 -1 -1</clus>
<clus scale="   92.748">  7  8 -1 -1</clus>
<clus scale="  133.013">  1  5  2 -1</clus>
<clus scale="  140.824">  2  5  1 -1</clus>
</clustering>
</event>
<event>
 9    1  0.2333971E-005  0.1188668E+03  0.7546771E-02  0.1247452E+00
         -2   -1    0    0    0  501 -0.00000000000E+00  0.00000000000E+00  0.11633395419E+03  0.11633395419E+03  0.00000000000E+00 0.  1.
          1   -1    0    0  502    0  0.00000000000E+00 -0.00000000000E+00 -0.20625876895E+03  0.20625876895E+03  0.00000000000E+00 0. -1.
        -24    2    1    2    0    0  0.28793499845E+02 -0.41756829080E+02 -0.14390047760E+02  0.11087323778E+03  0.97535137118E+02 0.  0.
         23    2    1    2    0    0 -0.87512571077E+00  0.82222005433E+02 -0.98964086282E+02  0.15726033449E+03  0.90419568719E+02 0.  0.
         13    1    3    3    0    0  0.17420469874E+02  0.26121082774E+02 -0.26385103250E+02  0.41011674063E+02  0.00000000000E+00 0. -1.
        -14    1    3    3    0    0  0.11373029971E+02 -0.67877911855E+02  0.11995055490E+02  0.69861563715E+02  0.00000000000E+00 0.  1.
        -13    1    4    4    0    0  0.77039045953E+01  0.43140591147E+02 -0.10772750170E+03  0.11629993711E+03  0.00000000000E+00 0. -1.
         13    1    4    4    0    0 -0.85790303060E+01  0.39081414286E+02  0.87634154136E+01  0.40960397377E+02  0.00000000000E+00 0.  1.
         21    1    1    2  502  501 -0.27918374135E+02 -0.40465176353E+02  0.23429319286E+02  0.54459150873E+02  0.00000000000E+00 0.  1.
<scales pt_clust_5="13000.00000" pt_clust_6="13000.00000" pt_clust_7="13000.00000" pt_clust_8="13000.00000" pt_clust_9="49.16163"></scales>
<clustering>
<clus scale="   49.162">  1  9  2 -1</clus>
<clus scale="   90.420">  7  8 -1 -1</clus>
<clus scale="   97.535">  5  6 -1 -1</clus>
<clus scale="  113.101">  2  7  1 -1</clus>
<clus scale="  113.101">  2  5  1 -1</clus>
</clustering>
</event>
<event>
 9    1  0.2333971E-005  0.9365272E+02  0.7546771E-02  0.1301287E+00
         -2   -1    0    0    0  501 -0.00000000000E+00  0.00000000000E+00  0.43339095674E+02  0.43339095674E+02  0.00000000000E+00 0.  1.
          1   -1    0    0  502    0  0.00000000000E+00 -0.00000000000E+00 -0.52499230933E+03  0.52499230933E+03  0.00000000000E+00 0. -1.
         23    2    1    2    0    0  0.59013554335E+02  0.36668122478E+01 -0.10382965374E+03  0.15106235274E+03  0.92429390947E+02 0.  0.
        -24    2    1    2    0    0 -0.62935527600E+01  0.23911323588E+01 -0.34603642278E+03  0.35541018592E+03  0.80807598917E+02 0.  0.
         11    1    4    4    0    0  0.37056535070E+02  0.27962074973E+01 -0.18094367349E+03  0.18472037934E+03  0.00000000000E+00 0. -1.
        -12    1    4    4    0    0 -0.43350087830E+02 -0.40507513852E+00 -0.16509274929E+03  0.17068980657E+03  0.00000000000E+00 0.  1.
        -11    1    3    3    0    0  0.13458871397E+02 -0.36786773097E+02 -0.72851693724E+02  0.82715035952E+02  0.00000000000E+00 0.  1.
         11    1    3    3    0    0  0.45554682938E+02  0.40453585345E+02 -0.30977960020E+02  0.68347316785E+02  0.00000000000E+00 0. -1.
         21    1    1    2  502  501 -0.52720001575E+02 -0.60579446066E+01 -0.31787137131E+02  0.61858866348E+02  0.00000000000E+00 0.  1.
<scales pt_clust_5="13000.00000" pt_clust_6="13000.00000" pt_clust_7="13000.00000" pt_clust_8="13000.00000" pt_clust_9="53.06691"></scales>
<clustering>
<clus scale="   53.067">  1  9  2 -1</clus>
<clus scale="   80.808">  5  6 -1 -1</clus>
<clus scale="   82.204">  2  5  1 -1</clus>
<clus scale="   92.429">  7  8 -1 -1</clus>
<clus scale="   82.204">  2  5  1 -1</clus>
</clustering>
</event>
<event>
 9    1  0.2333971E-005  0.1040075E+03  0.7546771E-02  0.1276974E+00
         -2   -1    0    0    0  501 -0.00000000000E+00  0.00000000000E+00  0.18884125220E+03  0.18884125220E+03  0.00000000000E+00 0.  1.
          1   -1    0    0  502    0  0.00000000000E+00 -0.00000000000E+00 -0.21393751453E+03  0.21393751453E+03  0.00000000000E+00 0. -1.
        -24    2    1    2    0    0 -0.11145030527E+02 -0.38624207942E+01  0.42302766430E+02  0.92067782595E+02  0.80918616798E+02 0.  0.
         23    2    1    2    0    0  0.54879785887E+02  0.19037125818E+02 -0.16798777938E+03  0.19998114511E+03  0.91642573718E+02 0.  0.
         13    1    3    3    0    0  0.20868210554E+02 -0.12649713959E+02 -0.12937134567E+02  0.27620045724E+02  0.00000000000E+00 0. -1.
        -14    1    3    3    0    0 -0.32013241081E+02  0.87872931651E+01  0.55239900996E+02  0.64447736871E+02  0.00000000000E+00 0.  1.
        -13    1    4    4    0    0  0.66962497611E+02 -0.18075658385E+02 -0.11181067256E+03  0.13157633530E+03  0.00000000000E+00 0. -1.
         13    1    4    4    0    0 -0.12082711724E+02  0.37112784203E+02 -0.56177106825E+02  0.68404809810E+02  0.00000000000E+00 0.  1.
         21    1    1    2  502  501 -0.43734755360E+02 -0.15174705024E+02  0.10058875062E+03  0.11072983903E+03  0.00000000000E+00 0.  1.
<scales pt_clust_5="13000.00000" pt_clust_6="13000.00000" pt_clust_7="13000.00000" pt_clust_8="13000.00000" pt_clust_9="46.29255"></scales>
<clustering>
<clus scale="   46.293">  1  9  2 -1</clus>
<clus scale="   80.919">  5  6 -1 -1</clus>
<clus scale="   91.643">  7  8 -1 -1</clus>
<clus scale="   94.694">  1  5  2 -1</clus>
<clus scale="  104.008">  2  5  1 -1</clus>
</clustering>
</event>
<event>
 9    1  0.2333971E-005  0.1344472E+03  0.7546771E-02  0.1222966E+00
         -2   -1    0    0    0  501 -0.00000000000E+00  0.00000000000E+00  0.67432412473E+02  0.67432412473E+02  0.00000000000E+00 0.  1.
          1   -1    0    0  502    0  0.00000000000E+00 -0.00000000000E+00 -0.71966835967E+03  0.71966835967E+03  0.00000000000E+00 0. -1.
         23    2    1    2    0    0  0.10903818900E+03 -0.22229395517E+02 -0.81142658016E+02  0.16491331518E+03  0.90712721747E+02 0.  0.
        -24    2    1    2    0    0 -0.83094447873E+02  0.52345566980E+02 -0.56802126456E+03  0.58231893778E+03  0.82476921975E+02 0.  0.
         11    1    4    4    0    0 -0.73822736967E+02  0.63603101334E+02 -0.33612498045E+03  0.34996450316E+03  0.00000000000E+00 0. -1.
        -12    1    4    4    0    0 -0.92717109067E+01 -0.11257534354E+02 -0.23189628411E+03  0.23235443462E+03  0.00000000000E+00 0.  1.
        -11    1    3    3    0    0  0.73432027922E+02 -0.48224798530E+02 -0.20971049795E+02  0.90319869616E+02  0.00000000000E+00 0.  1.
         11    1    3    3    0    0  0.35606161079E+02  0.25995403012E+02 -0.60171608221E+02  0.74593445560E+02  0.00000000000E+00 0. -1.
         21    1    1    2  502  501 -0.25943741127E+02 -0.30116171463E+02 -0.30720246294E+01  0.39868519192E+02  0.00000000000E+00 0. -1.
<scales pt_clust_5="13000.00000" pt_clust_6="13000.00000" pt_clust_7="13000.00000" pt_clust_8="13000.00000" pt_clust_9="39.74999"></scales>
<clustering>
<clus scale="   39.750">  1  9  2 -1</clus>
<clus scale="   82.477">  5  6 -1 -1</clus>
<clus scale="   90.713">  7  8 -1 -1</clus>
<clus scale="  129.034">  2  5  1 -1</clus>
<clus scale="  129.034">  2  5  1 -1</clus>
</clustering>
</event>
<event>
 9    1  0.2333971E-005  0.8474932E+02  0.7546771E-02  0.1317300E+00
          1   -1    0    0  502    0  0.00000000000E+00  0.00000000000E+00  0.23441424388E+03  0.23441424388E+03  0.00000000000E+00 0. -1.
         -2   -1    0    0    0  501 -0.00000000000E+00 -0.00000000000E+00 -0.11014568238E+03  0.11014568238E+03  0.00000000000E+00 0.  1.
         23    2    1    2    0    0 -0.21565756377E+02 -0.24268715366E+02 -0.25247195763E+02  0.89870529724E+02  0.79907689401E+02 0.  0.
        -24    2    1    2    0    0  0.17271983752E+02 -0.19354785507E+02  0.18127398585E+03  0.20055963213E+03  0.81798404312E+02 0.  0.
         13    1    4    4    0    0 -0.27724496008E+02 -0.28470412963E+02  0.77962348881E+02  0.87506227986E+02  0.00000000000E+00 0. -1.
        -14    1    4    4    0    0  0.44996479760E+02  0.91156274553E+01  0.10331163697E+03  0.11305340414E+03  0.00000000000E+00 0.  1.
        -13    1    3    3    0    0  0.19023799427E+02  0.17923108232E+02 -0.15870893674E+02  0.30578227865E+02  0.00000000000E+00 0.  1.
         13    1    3    3    0    0 -0.40589555805E+02 -0.42191823598E+02 -0.93763020889E+01  0.59292301859E+02  0.00000000000E+00 0. -1.
         21    1    1    2  502  501  0.42937726254E+01  0.43623500873E+02 -0.31758228591E+02  0.54129764409E+02  0.00000000000E+00 0.  1.
<scales pt_clust_5="13000.00000" pt_clust_6="13000.00000" pt_clust_7="13000.00000" pt_clust_8="13000.00000" pt_clust_9="43.83431"></scales>
<clustering>
<clus scale="   43.834">  2  9  1 -1</clus>
<clus scale="   79.908">  7  8 -1 -1</clus>
<clus scale="   81.798">  5  6 -1 -1</clus>
<clus scale="   82.926">  2  7  1 -1</clus>
<clus scale="   84.749">  1  5  2 -1</clus>
</clustering>
</event>
<event>
 9    1  0.2333971E-005  0.2410179E+03  0.7546771E-02  0.1119513E+00
          3   -1    0    0  502    0  0.00000000000E+00  0.00000000000E+00  0.75311049651E+03  0.75311049651E+03  0.00000000000E+00 0. -1.
         -4   -1    0    0    0  501 -0.00000000000E+00 -0.00000000000E+00 -0.90128711963E+02  0.90128711963E+02  0.00000000000E+00 0.  1.
        -24    2    1    2    0    0  0.22602314877E+03  0.32920560772E+01  0.26410418633E+03  0.35760108794E+03  0.83846380032E+02 0.  0.
         23    2    1    2    0    0 -0.21837338032E+03 -0.39487160285E+02  0.33611932835E+03  0.41278755455E+03  0.90394652758E+02 0.  0.
         11    1    3    3    0    0  0.16597846644E+03  0.28444532308E+02  0.22708686103E+03  0.28271254870E+03  0.00000000000E+00 0. -1.
        -12    1    3    3    0    0  0.60044682337E+02 -0.25152476231E+02  0.37017325299E+02  0.74888539242E+02  0.00000000000E+00 0.  1.
        -11    1    4    4    0    0 -0.15636753200E+03 -0.69013748706E+02  0.23723686110E+03  0.29239533313E+03  0.00000000000E+00 0.  1.
         11    1    4    4    0    0 -0.62005848314E+02  0.29526588421E+02  0.98882467247E+02  0.12039222142E+03  0.00000000000E+00 0. -1.
         21    1    1    2  502  501 -0.76497684577E+01  0.36195104208E+02  0.62758269871E+02  0.72850565977E+02  0.00000000000E+00 0.  1.
<scales pt_clust_5="13000.00000" pt_clust_6="13000.00000" pt_clust_7="13000.00000" pt_clust_8="13000.00000" pt_clust_9="36.99466"></scales>
<clustering>
<clus scale="   36.995">  1  9  2 -1</clus>
<clus scale="   83.846">  5  6 -1 -1</clus>
<clus scale="   90.395">  7  8 -1 -1</clus>
<clus scale="  238.639">  2  5  1 -1</clus>
<clus scale="   36.995">  1  5  2 -1</clus>
</clustering>
</event>
<event>
 9    1  0.2333971E-005  0.1238862E+03  0.7546771E-02  0.1239018E+00
         -2   -1    0    0    0  501 -0.00000000000E+00  0.00000000000E+00  0.32587086869E+02  0.32587086869E+02  0.00000000000E+00 0.  1.
          1   -1    0    0  502    0  0.00000000000E+00 -0.00000000000E+00 -0.71976436439E+03  0.71976436439E+03  0.00000000000E+00 0. -1.
        -24    2    1    2    0    0  0.13345597632E+02  0.91752525336E+02 -0.18115029831E+03  0.21888088921E+03  0.80602619084E+02 0.  0.
         23    2    1    2    0    0 -0.35380585108E+02 -0.77776842897E+02 -0.48385985139E+03  0.49923254329E+03  0.88384124118E+02 0.  0.
         13    1    3    3    0    0  0.18103094250E+02  0.60148752611E+02 -0.17553000237E+03  0.18643062032E+03  0.00000000000E+00 0. -1.
        -14    1    3    3    0    0 -0.47574966176E+01  0.31603772725E+02 -0.56202959386E+01  0.32450268889E+02  0.00000000000E+00 0.  1.
        -11    1    4    4    0    0 -0.52162897523E+02 -0.13032044877E+02 -0.16897995013E+03  0.17732745309E+03  0.00000000000E+00 0.  1.
         11    1    4    4    0    0  0.16782312415E+02 -0.64744798020E+02 -0.31487990126E+03  0.32190509020E+03  0.00000000000E+00 0. -1.
         21    1    1    2  502  501  0.22034987476E+02 -0.13975682439E+02 -0.22167127819E+02  0.34238018757E+02  0.00000000000E+00 0.  1.
<scales pt_clust_5="13000.00000" pt_clust_6="13000.00000" pt_clust_7="13000.00000" pt_clust_8="13000.00000" pt_clust_9="26.09330"></scales>
<clustering>
<clus scale="   26.093">  1  9  2 -1</clus>
<clus scale="   80.603">  5  6 -1 -1</clus>
<clus scale="   88.384">  7  8 -1 -1</clus>
<clus scale="  118.460">  1  5  2 -1</clus>
<clus scale="  123.886">  2  5  1 -1</clus>
</clustering>
</event>
<event>
 9    1  0.2333971E-005  0.1571768E+03  0.7546771E-02  0.1193391E+00
         -2   -1    0    0    0  501 -0.00000000000E+00  0.00000000000E+00  0.14970842823E+03  0.14970842823E+03  0.00000000000E+00 0.  1.
          1   -1    0    0  502    0  0.00000000000E+00 -0.00000000000E+00 -0.44999568710E+03  0.44999568710E+03  0.00000000000E+00 0. -1.
         23    2    1    2    0    0 -0.74942233446E+02  0.10604894209E+03  0.84483779155E+02  0.18020443472E+03  0.92051142744E+02 0.  0.
        -24    2    1    2    0    0  0.54868649153E+02 -0.93725999866E+02 -0.36088532624E+03  0.38595372826E+03  0.83228180008E+02 0.  0.
         13    1    4    4    0    0  0.49010691251E+02 -0.93223759941E+02 -0.36425577330E+03  0.37917672088E+03  0.00000000000E+00 0. -1.
        -14    1    4    4    0    0  0.58579579024E+01 -0.50223992513E+00  0.33704470524E+01  0.67770073824E+01  0.00000000000E+00 0.  1.
        -13    1    3    3    0    0  0.14603032737E+02  0.25134526527E+02  0.44333055722E+02  0.53013326801E+02  0.00000000000E+00 0.  1.
         13    1    3    3    0    0 -0.89545266183E+02  0.80914415563E+02  0.40150723433E+02  0.12719110792E+03  0.00000000000E+00 0. -1.
         21    1    1    2  502  501  0.20073584293E+02 -0.12322942224E+02 -0.23885711779E+02  0.33545952343E+02  0.00000000000E+00 0.  1.
<scales pt_clust_5="13000.00000" pt_clust_6="13000.00000" pt_clust_7="13000.00000" pt_clust_8="13000.00000" pt_clust_9="23.55427"></scales>
<clustering>
<clus scale="   23.554">  2  9  1 -1</clus>
<clus scale="   83.228">  5  6 -1 -1</clus>
<clus scale="   92.051">  7  8 -1 -1</clus>
<clus scale="  152.178">  2  5  1 -1</clus>
<clus scale="   23.554">  2  5  1 -1</clus>
</clustering>
</event>
<event>
 9    1  0.2333971E-005  0.1844494E+03  0.7546771E-02  0.1164569E+00
          1   -1    0    0  502    0  0.00000000000E+00  0.00000000000E+00  0.56384738873E+03  0.56384738873E+03  0.00000000000E+00 0. -1.
         -2   -1    0    0    0  501 -0.00000000000E+00 -0.00000000000E+00 -0.12004832671E+03  0.12004832671E+03  0.00000000000E+00 0.  1.
         23    2    1    2    0    0  0.17973219422E+03 -0.15160505788E+02  0.14415681950E+03  0.24782590335E+03  0.90016593984E+02 0.  0.
        -24    2    1    2    0    0 -0.14824714965E+03  0.41716740091E+02  0.33776194572E+03  0.37994803926E+03  0.80993066234E+02 0.  0.
         11    1    4    4    0    0 -0.84700589211E+02  0.61861542461E+02  0.23647725596E+03  0.25869389794E+03  0.00000000000E+00 0. -1.
        -12    1    4    4    0    0 -0.63546560438E+02 -0.20144802370E+02  0.10128468977E+03  0.12125414132E+03  0.00000000000E+00 0.  1.
        -11    1    3    3    0    0  0.76148047552E+02 -0.44692838613E+02  0.94141893363E+02  0.12906847429E+03  0.00000000000E+00 0.  1.
         11    1    3    3    0    0  0.10358414666E+03  0.29532332825E+02  0.50014926135E+02  0.11875742907E+03  0.00000000000E+00 0. -1.
         21    1    1    2  502  501 -0.31485044567E+02 -0.26556234302E+02 -0.38119703205E+02  0.56121772817E+02  0.00000000000E+00 0.  1.
<scales pt_clust_5="13000.00000" pt_clust_6="13000.00000" pt_clust_7="13000.00000" pt_clust_8="13000.00000" pt_clust_9="41.18910"></scales>
<clustering>
<clus scale="   41.189">  2  9  1 -1</clus>
<clus scale="   80.993">  5  6 -1 -1</clus>
<clus scale="   90.017">  7  8 -1 -1</clus>
<clus scale="  180.218">  1  5  2 -1</clus>
<clus scale="  180.218">  1  5  2 -1</clus>
</clustering>
</event>
<event>
 9    1  0.2333971E-005  0.9995563E+02  0.7546771E-02  0.1284273E+00
         -2   -1    0    0    0  501 -0.00000000000E+00  0.00000000000E+00  0.13669078020E+04  0.13669078020E+04  0.00000000000E+00 0.  1.
          1   -1    0    0  502    0  0.00000000000E+00 -0.00000000000E+00 -0.16940791019E+02  0.16940791019E+02  0.00000000000E+00 0. -1.
        -24    2    1    2    0    0  0.34011049981E+02 -0.30036803898E+02  0.93649876020E+03  0.94111151762E+03  0.81252690038E+02 0.  0.
         23    2    1    2    0    0 -0.47182628710E+02 -0.44268463655E+01  0.18056446112E+03  0.20692908377E+03  0.89276669233E+02 0.  0.
         11    1    3    3    0    0 -0.66174217934E+01  0.21052709423E+02  0.12034721564E+03  0.12235382772E+03  0.00000000000E+00 0. -1.
        -12    1    3    3    0    0  0.40628471774E+02 -0.51089513320E+02  0.81615154456E+03  0.81875768990E+03  0.00000000000E+00 0.  1.
        -11    1    4    4    0    0 -0.76597467283E+01  0.39711730686E+02  0.90478928516E+02  0.99106658603E+02  0.00000000000E+00 0.  1.
         11    1    4    4    0    0 -0.39522881982E+02 -0.44138577052E+02  0.90085532603E+02  0.10782242517E+03  0.00000000000E+00 0. -1.
         21    1    1    2  502  501  0.13171578729E+02  0.34463650263E+02  0.23290378962E+03  0.23580799158E+03  0.00000000000E+00 0.  1.
<scales pt_clust_5="13000.00000" pt_clust_6="13000.00000" pt_clust_7="13000.00000" pt_clust_8="13000.00000" pt_clust_9="36.89490"></scales>
<clustering>
<clus scale="   36.895">  1  9  2 -1</clus>
<clus scale="   81.253">  5  6 -1 -1</clus>
<clus scale="   89.277">  7  8 -1 -1</clus>
<clus scale="   92.859">  1  5  2 -1</clus>
<clus scale="   99.956">  2  5  1 -1</clus>
</clustering>
</event>
<event>
 9    1  0.2333971E-005  0.1117135E+03  0.7546771E-02  0.1262056E+00
          1   -1    0    0  502    0  0.00000000000E+00  0.00000000000E+00  0.22460327922E+03  0.22460327922E+03  0.00000000000E+00 0. -1.
         -2   -1    0    0    0  501 -0.00000000000E+00 -0.00000000000E+00 -0.11151094836E+03  0.11151094836E+03  0.00000000000E+00 0.  1.
        -24    2    1    2    0    0 -0.61639207823E+02  0.18742301207E+02  0.75168059843E+02  0.12762818558E+03  0.80548437219E+02 0.  0.
         23    2    1    2    0    0  0.63163912892E+02  0.93986876912E+01  0.93460443947E+02  0.14620838561E+03  0.92542002447E+02 0.  0.
         11    1    3    3    0    0 -0.44804766428E+02  0.88216704086E+01  0.91434498658E+02  0.10220350536E+03  0.00000000000E+00 0. -1.
        -12    1    3    3    0    0 -0.16834441396E+02  0.99206307979E+01 -0.16266438815E+02  0.25424680219E+02  0.00000000000E+00 0.  1.
        -13    1    4    4    0    0 -0.54251397625E+01 -0.20501233080E+02  0.61121508598E+02  0.64695993018E+02  0.00000000000E+00 0. -1.
         13    1    4    4    0    0  0.68589052654E+02  0.29899920771E+02  0.32338935349E+02  0.81512392589E+02  0.00000000000E+00 0.  1.
         21    1    1    2  502  501 -0.15247050684E+01 -0.28140988898E+02 -0.55536172930E+02  0.62277656389E+02  0.00000000000E+00 0.  1.
<scales pt_clust_5="13000.00000" pt_clust_6="13000.00000" pt_clust_7="13000.00000" pt_clust_8="13000.00000" pt_clust_9="28.18226"></scales>
<clustering>
<clus scale="   28.182">  2  9  1 -1</clus>
<clus scale="   80.548">  5  6 -1 -1</clus>
<clus scale="   92.542">  7  8 -1 -1</clus>
<clus scale="  102.000">  2  5  1 -1</clus>
<clus scale="  111.713">  1  5  2 -1</clus>
</clustering>
</event>
<event>
 9    1  0.2333971E-005  0.1058902E+03  0.7546771E-02  0.1272935E+00
          3   -1    0    0  502    0  0.00000000000E+00  0.00000000000E+00  0.29779245914E+03  0.29779245914E+03  0.00000000000E+00 0. -1.
         -4   -1    0    0    0  501 -0.00000000000E+00 -0.00000000000E+00 -0.65541077583E+02  0.65541077583E+02  0.00000000000E+00 0.  1.
         23    2    1    2    0    0  0.18814407333E+02 -0.33583329458E+02  0.12003069648E+02  0.99538146193E+02  0.91005202740E+02 0.  0.
        -24    2    1    2    0    0 -0.21274845986E+02  0.53942359389E+02  0.22207318445E+03  0.24320718959E+03  0.80441535322E+02 0.  0.
         13    1    4    4    0    0 -0.21985844579E+02 -0.55233043577E+01  0.13640511458E+02  0.26456526713E+02  0.00000000000E+00 0. -1.
        -14    1    4    4    0    0  0.71099859315E+00  0.59465663747E+02  0.20843267300E+03  0.21675066287E+03  0.00000000000E+00 0.  1.
        -11    1    3    3    0    0 -0.27096278601E+02 -0.42687306566E+02  0.14703868652E+02  0.52655656953E+02  0.00000000000E+00 0. -1.
         11    1    3    3    0    0  0.45910685934E+02  0.91039771076E+01 -0.27007990038E+01  0.46882489240E+02  0.00000000000E+00 0.  1.
         21    1    1    2  502  501  0.24604386529E+01 -0.20359029931E+02 -0.18248725496E+01  0.20588200939E+02  0.00000000000E+00 0. -1.
<scales pt_clust_5="13000.00000" pt_clust_6="13000.00000" pt_clust_7="13000.00000" pt_clust_8="13000.00000" pt_clust_9="20.50717"></scales>
<clustering>
<clus scale="   20.507">  2  9  1 -1</clus>
<clus scale="   80.442">  5  6 -1 -1</clus>
<clus scale="   91.005">  7  8 -1 -1</clus>
<clus scale="   96.962">  1  5  2 -1</clus>
<clus scale="   96.962">  1  5  2 -1</clus>
</clustering>
</event>
<event>
 9    1  0.2333971E-005  0.9659080E+02  0.7546771E-02  0.1294084E+00
         -2   -1    0    0    0  501 -0.00000000000E+00  0.00000000000E+00  0.21392713005E+03  0.21392713005E+03  0.00000000000E+00 0.  1.
          1   -1    0    0  502    0  0.00000000000E+00 -0.00000000000E+00 -0.32970400319E+03  0.32970400319E+03  0.00000000000E+00 0. -1.
        -24    2    1    2    0    0  0.50469287602E+02 -0.93683487922E+01  0.16960846184E+03  0.19425269787E+03  0.79574904028E+02 0.  0.
         23    2    1    2    0    0 -0.30756138506E+02  0.14330094993E+01 -0.30537102648E+03  0.32020643301E+03  0.91283636833E+02 0.  0.
         13    1    3    3    0    0  0.16610294744E+02  0.22114142624E+02  0.12261212909E+02  0.30253504549E+02  0.00000000000E+00 0. -1.
        -14    1    3    3    0    0  0.33858992858E+02 -0.31482491416E+02  0.15734724893E+03  0.16399919332E+03  0.00000000000E+00 0.  1.
        -11    1    4    4    0    0 -0.52868711768E+02  0.12352722594E+02 -0.27846316947E+03  0.28370658645E+03  0.00000000000E+00 0. -1.
         11    1    4    4    0    0  0.22112573263E+02 -0.10919713095E+02 -0.26907857011E+02  0.36499846565E+02  0.00000000000E+00 0.  1.
         21    1    1    2  502  501 -0.19713149097E+02  0.79353392929E+01  0.19985691506E+02  0.29172002365E+02  0.00000000000E+00 0. -1.
<scales pt_clust_5="13000.00000" pt_clust_6="13000.00000" pt_clust_7="13000.00000" pt_clust_8="13000.00000" pt_clust_9="21.25036"></scales>
<clustering>
<clus scale="   21.250">  1  9  2 -1</clus>
<clus scale="   79.575">  5  6 -1 -1</clus>
<clus scale="   85.611">  1  5  2 -1</clus>
<clus scale="   91.284">  7  8 -1 -1</clus>
<clus scale="   96.591">  2  5  1 -1</clus>
</clustering>
</event>
<event>
 9    1  0.2333971E-005  0.1213271E+03  0.7546771E-02  0.1241870E+00
         -2   -1    0    0    0  501 -0.00000000000E+00  0.00000000000E+00  0.65810629821E+02  0.65810629821E+02  0.00000000000E+00 0.  1.
          1   -1    0    0  502    0  0.00000000000E+00 -0.00000000000E+00 -0.53408297601E+03  0.53408297601E+03  0.00000000000E+00 0. -1.
        -24    2    1    2    0    0 -0.67073463704E+02  0.46111511015E+02 -0.88216448080E+02  0.14474613102E+03  0.80896104674E+02 0.  0.
         23    2    1    2    0    0  0.88012368969E+02 -0.21581920594E+02 -0.39899929805E+03  0.41774438722E+03  0.84249491545E+02 0.  0.
         13    1    3    3    0    0 -0.45637963604E+02 -0.14519589474E+02 -0.52974907042E+02  0.71414165097E+02  0.00000000000E+00 0. -1.
        -14    1    3    3    0    0 -0.21435500099E+02  0.60631100489E+02 -0.35241541038E+02  0.73331965920E+02  0.00000000000E+00 0.  1.
        -11    1    4    4    0    0  0.65824750515E+01  0.21238933324E+02 -0.29372940066E+02  0.36840071589E+02  0.00000000000E+00 0.  1.
         11    1    4    4    0    0  0.81429893917E+02 -0.42820853918E+02 -0.36962635798E+03  0.38090431563E+03  0.00000000000E+00 0. -1.
         21    1    1    2  502  501 -0.20938905265E+02 -0.24529590421E+02  0.18943399941E+02  0.37403087590E+02  0.00000000000E+00 0.  1.
<scales pt_clust_5="13000.00000" pt_clust_6="13000.00000" pt_clust_7="13000.00000" pt_clust_8="13000.00000" pt_clust_9="32.25118"></scales>
<clustering>
<clus scale="   32.251">  1  9  2 -1</clus>
<clus scale="   80.896">  5  6 -1 -1</clus>
<clus scale="   84.249">  7  8 -1 -1</clus>
<clus scale="  119.023">  1  5  2 -1</clus>
<clus scale="  121.327">  2  5  1 -1</clus>
</clustering>
</event>
<event>
 9    1  0.2333971E-005  0.1135627E+03  0.7546771E-02  0.1259882E+00
          1   -1    0    0  502    0  0.00000000000E+00  0.00000000000E+00  0.40974704837E+03  0.40974704837E+03  0.00000000000E+00 0. -1.
         -2   -1    0    0    0  501 -0.00000000000E+00 -0.00000000000E+00 -0.22863028937E+03  0.22863028937E+03  0.00000000000E+00 0.  1.
        -24    2    1    2    0    0  0.21856956707E+02 -0.39367286810E+02 -0.15594317300E+03  0.18031952341E+03  0.78545193927E+02 0.  0.
         23    2    1    2    0    0 -0.35057825652E+02  0.54677922825E+02  0.38737840201E+03  0.40383026653E+03  0.93798355199E+02 0.  0.
         13    1    3    3    0    0 -0.18171835212E+02 -0.23302444379E+02 -0.15431706593E+02  0.33337022623E+02  0.00000000000E+00 0. -1.
        -14    1    3    3    0    0  0.40028791919E+02 -0.16064842431E+02 -0.14051146641E+03  0.14698250078E+03  0.00000000000E+00 0.  1.
        -13    1    4    4    0    0 -0.34977567183E+02 -0.16445036529E+02  0.87901193260E+02  0.96023378450E+02  0.00000000000E+00 0.  1.
         13    1    4    4    0    0 -0.80258468970E-01  0.71122959354E+02  0.29947720875E+03  0.30780688808E+03  0.00000000000E+00 0. -1.
         21    1    1    2  502  501  0.13200868944E+02 -0.15310636015E+02 -0.50318470010E+02  0.54227547798E+02  0.00000000000E+00 0.  1.
<scales pt_clust_5="13000.00000" pt_clust_6="13000.00000" pt_clust_7="13000.00000" pt_clust_8="13000.00000" pt_clust_9="20.21580"></scales>
<clustering>
<clus scale="   20.216">  2  9  1 -1</clus>
<clus scale="   78.545">  5  6 -1 -1</clus>
<clus scale="   93.798">  7  8 -1 -1</clus>
<clus scale="  101.330">  2  5  1 -1</clus>
<clus scale="  113.563">  1  5  2 -1</clus>
</clustering>
</event>
<event>
 9    1  0.2333971E-005  0.1005384E+03  0.7546771E-02  0.1284066E+00
          1   -1    0    0  502    0  0.00000000000E+00  0.00000000000E+00  0.24112946785E+03  0.24112946785E+03  0.00000000000E+00 0. -1.
         -2   -1    0    0    0  501 -0.00000000000E+00 -0.00000000000E+00 -0.17604162381E+03  0.17604162381E+03  0.00000000000E+00 0.  1.
         23    2    1    2    0    0 -0.53967692441E+02  0.36292602334E+02 -0.25559879735E+02  0.11449605249E+03  0.90699359265E+02 0.  0.
        -24    2    1    2    0    0  0.29110310678E+02 -0.27816631764E+02  0.18442343014E+03  0.20529118728E+03  0.80692594449E+02 0.  0.
         13    1    4    4    0    0 -0.23396941734E+01 -0.38173693730E+02  0.15902815617E+03  0.16356240251E+03  0.00000000000E+00 0. -1.
        -14    1    4    4    0    0  0.31450004851E+02  0.10357061967E+02  0.25395273970E+02  0.41728784762E+02  0.00000000000E+00 0.  1.
        -11    1    3    3    0    0  0.54682610484E+01  0.50022481555E+02 -0.74903243334E+01  0.50874900476E+02  0.00000000000E+00 0.  1.
         11    1    3    3    0    0 -0.59435953490E+02 -0.13729879221E+02 -0.18069555402E+02  0.63621152010E+02  0.00000000000E+00 0. -1.
         21    1    1    2  502  501  0.24857381763E+02 -0.84759705706E+01 -0.93775706366E+02  0.97383851894E+02  0.00000000000E+00 0.  1.
<scales pt_clust_5="13000.00000" pt_clust_6="13000.00000" pt_clust_7="13000.00000" pt_clust_8="13000.00000" pt_clust_9="26.26274"></scales>
<clustering>
<clus scale="   26.263">  2  9  1 -1</clus>
<clus scale="   80.693">  5  6 -1 -1</clus>
<clus scale="   90.699">  7  8 -1 -1</clus>
<clus scale="   91.613">  1  5  2 -1</clus>
<clus scale="   91.613">  1  5  2 -1</clus>
</clustering>
</event>
<event>
 9    1  0.2333971E-005  0.1719544E+03  0.7546771E-02  0.1176755E+00
          1   -1    0    0  502    0  0.00000000000E+00  0.00000000000E+00  0.91046774269E+03  0.91046774269E+03  0.00000000000E+00 0. -1.
         -2   -1    0    0    0  501 -0.00000000000E+00 -0.00000000000E+00 -0.64121661285E+02  0.64121661285E+02  0.00000000000E+00 0.  1.
        -24    2    1    2    0    0  0.13788476208E+03 -0.19424973905E+02  0.34905280424E+03  0.38516913998E+03  0.84426707976E+02 0.  0.
         23    2    1    2    0    0 -0.14484966050E+03  0.45125876779E+02  0.52314412084E+03  0.55230810510E+03  0.91360291599E+02 0.  0.
         13    1    3    3    0    0  0.13148028698E+03 -0.21511122154E+02  0.35303982402E+03  0.37734190277E+03  0.00000000000E+00 0. -1.
        -14    1    3    3    0    0  0.64044750920E+01  0.20861482495E+01 -0.39870197740E+01  0.78272372138E+01  0.00000000000E+00 0.  1.
        -13    1    4    4    0    0 -0.35450380900E+02 -0.26771485983E+02  0.16906229817E+03  0.17480132331E+03  0.00000000000E+00 0.  1.
         13    1    4    4    0    0 -0.10939927960E+03  0.71897362762E+02  0.35408182267E+03  0.37750678178E+03  0.00000000000E+00 0. -1.
         21    1    1    2  502  501  0.69648984195E+01 -0.25700902874E+02 -0.25850843685E+02  0.37112158894E+02  0.00000000000E+00 0.  1.
<scales pt_clust_5="13000.00000" pt_clust_6="13000.00000" pt_clust_7="13000.00000" pt_clust_8="13000.00000" pt_clust_9="26.62792"></scales>
<clustering>
<clus scale="   26.628">  2  9  1 -1</clus>
<clus scale="   84.427">  5  6 -1 -1</clus>
<clus scale="   91.360">  7  8 -1 -1</clus>
<clus scale="  168.373">  2  5  1 -1</clus>
<clus scale="  171.954">  1  5  2 -1</clus>
</clustering>
</event>
<event>
 9    1  0.2333971E-005  0.2202009E+03  0.7546771E-02  0.1134651E+00
          1   -1    0    0  502    0  0.00000000000E+00  0.00000000000E+00  0.16157164160E+03  0.16157164160E+03  0.00000000000E+00 0. -1.
         -2   -1    0    0    0  501 -0.00000000000E+00 -0.00000000000E+00 -0.64619135217E+03  0.64619135217E+03  0.00000000000E+00 0.  1.
        -24    2    1    2    0    0 -0.19145942868E+03 -0.54743877754E+02 -0.45475571470E+03  0.50273542561E+03  0.79287723656E+02 0.  0.
         23    2    1    2    0    0  0.18551306392E+03  0.76317848041E+02  0.46536761147E+02  0.22541682064E+03  0.91692759129E+02 0.  0.
         11    1    3    3    0    0 -0.13235156943E+02 -0.31582416219E+02 -0.62470470813E+02  0.71240284370E+02  0.00000000000E+00 0. -1.
        -12    1    3    3    0    0 -0.17822427174E+03 -0.23161461535E+02 -0.39228524389E+03  0.43149514124E+03  0.00000000000E+00 0.  1.
        -13    1    4    4    0    0  0.14027136649E+03  0.87027985216E+02  0.62128452184E+02  0.17637990543E+03  0.00000000000E+00 0. -1.
         13    1    4    4    0    0  0.45241697428E+02 -0.10710137175E+02 -0.15591691036E+02  0.49036915216E+02  0.00000000000E+00 0.  1.
         21    1    1    2  502  501  0.59463647651E+01 -0.21573970287E+02 -0.76400757013E+02  0.79610747516E+02  0.00000000000E+00 0.  1.
<scales pt_clust_5="13000.00000" pt_clust_6="13000.00000" pt_clust_7="13000.00000" pt_clust_8="13000.00000" pt_clust_9="22.37846"></scales>
<clustering>
<clus scale="   22.378">  2  9  1 -1</clus>
<clus scale="   79.288">  5  6 -1 -1</clus>
<clus scale="   91.693">  7  8 -1 -1</clus>
<clus scale="  215.331">  2  5  1 -1</clus>
<clus scale="  220.201">  1  5  2 -1</clus>
</clustering>
</event>
<event>
 9    1  0.2333971E-005  0.1173082E+03  0.7546771E-02  0.1261482E+00
          3   -1    0    0  502    0  0.00000000000E+00  0.00000000000E+00  0.23604463854E+03  0.23604463854E+03  0.00000000000E+00 0. -1.
         -4   -1    0    0    0  501 -0.00000000000E+00 -0.00000000000E+00 -0.67612653644E+02  0.67612653644E+02  0.00000000000E+00 0.  1.
         23    2    1    2    0    0 -0.49180699703E+02 -0.29801840038E+02  0.93490984039E+02  0.15585021685E+03  0.11064282672E+03 0.  0.
        -24    2    1    2    0    0  0.14199503530E+02  0.25923007363E+02  0.73366586057E+02  0.11257629035E+03  0.80107034569E+02 0.  0.
         11    1    4    4    0    0 -0.23964035401E+02  0.24614674589E+02  0.56216645478E+01  0.34810347745E+02  0.00000000000E+00 0. -1.
        -12    1    4    4    0    0  0.38163538931E+02  0.13083327738E+01  0.67744921509E+02  0.77765942602E+02  0.00000000000E+00 0.  1.
        -11    1    3    3    0    0  0.23257002662E+02 -0.23182927219E+02  0.73363372261E+02  0.80377364207E+02  0.00000000000E+00 0.  1.
         11    1    3    3    0    0 -0.72437702365E+02 -0.66189128189E+01  0.20127611778E+02  0.75472852647E+02  0.00000000000E+00 0. -1.
         21    1    1    2  502  501  0.34981196173E+02  0.38788326742E+01  0.15744148016E+01  0.35230784984E+02  0.00000000000E+00 0.  1.
<scales pt_clust_5="13000.00000" pt_clust_6="13000.00000" pt_clust_7="13000.00000" pt_clust_8="13000.00000" pt_clust_9="35.19559"></scales>
<clustering>
<clus scale="   35.196">  2  9  1 -1</clus>
<clus scale="   80.107">  5  6 -1 -1</clus>
<clus scale="   89.087">  1  5  2 -1</clus>
<clus scale="  110.643">  7  8 -1 -1</clus>
<clus scale="   89.087">  1  5  2 -1</clus>
</clustering>
</event>
<event>
 9    1  0.2333971E-005  0.1027545E+03  0.7546771E-02  0.1280084E+00
         -2   -1    0    0    0  501 -0.00000000000E+00  0.00000000000E+00  0.41766426687E+03  0.41766426687E+03  0.00000000000E+00 0.  1.
          1   -1    0    0  502    0  0.00000000000E+00 -0.00000000000E+00 -0.10672267638E+03  0.10672267638E+03  0.00000000000E+00 0. -1.
        -24    2    1    2    0    0 -0.12953819488E+02 -0.18678507864E+02  0.19174732840E+03  0.20934748547E+03  0.80886609712E+02 0.  0.
         23    2    1    2    0    0  0.36950266372E+02  0.30911421929E+02 -0.68969961891E+02  0.12495724178E+03  0.92393822520E+02 0.  0.
         11    1    3    3    0    0 -0.29531899384E+02  0.22015162751E+02  0.11678032252E+03  0.12245180358E+03  0.00000000000E+00 0. -1.
        -12    1    3    3    0    0  0.16578079897E+02 -0.40693670616E+02  0.74967005876E+02  0.86895681891E+02  0.00000000000E+00 0.  1.
        -11    1    4    4    0    0  0.65135459137E+02  0.33763938856E+02 -0.36755959861E+02  0.82058711843E+02  0.00000000000E+00 0.  1.
         11    1    4    4    0    0 -0.28185192766E+02 -0.28525169269E+01 -0.32214002030E+02  0.42898529938E+02  0.00000000000E+00 0. -1.
         21    1    1    2  502  501 -0.23996446884E+02 -0.12232914064E+02  0.18816422399E+03  0.19008221600E+03  0.00000000000E+00 0.  1.
<scales pt_clust_5="13000.00000" pt_clust_6="13000.00000" pt_clust_7="13000.00000" pt_clust_8="13000.00000" pt_clust_9="26.93462"></scales>
<clustering>
<clus scale="   26.935">  1  9  2 -1</clus>
<clus scale="   80.887">  5  6 -1 -1</clus>
<clus scale="   92.394">  7  8 -1 -1</clus>
<clus scale="   92.545">  1  5  2 -1</clus>
<clus scale="  102.755">  2  5  1 -1</clus>
</clustering>
</event>
<event>
 9    1  0.2333971E-005  0.9622139E+02  0.7546771E-02  0.1293649E+00
         -2   -1    0    0    0  501 -0.00000000000E+00  0.00000000000E+00  0.28384938436E+03  0.28384938436E+03  0.00000000000E+00 0.  1.
          1   -1    0    0  502    0  0.00000000000E+00 -0.00000000000E+00 -0.17252645629E+03  0.17252645629E+03  0.00000000000E+00 0. -1.
         23    2    1    2    0    0 -0.29688721272E+02  0.39064057596E+02  0.31861908661E+02  0.10831788702E+03  0.91160093565E+02 0.  0.
        -24    2    1    2    0    0  0.26947729042E+02 -0.90345108705E+01 -0.11911396615E+03  0.14720648710E+03  0.81693392788E+02 0.  0.
         13    1    4    4    0    0  0.46685984565E+02 -0.26529613776E+02 -0.10338124509E+03  0.11649499302E+03  0.00000000000E+00 0. -1.
        -14    1    4    4    0    0 -0.19738255523E+02  0.17495102906E+02 -0.15732721058E+02  0.30711494080E+02  0.00000000000E+00 0.  1.
        -13    1    3    3    0    0 -0.28885991788E+02  0.63265513720E+02  0.42890421315E+02  0.81709938125E+02  0.00000000000E+00 0.  1.
         13    1    3    3    0    0 -0.80272948315E+00 -0.24201456124E+02 -0.11028512653E+02  0.26607948897E+02  0.00000000000E+00 0. -1.
         21    1    1    2  502  501  0.27409922293E+01 -0.30029546726E+02  0.19857498556E+03  0.20085146653E+03  0.00000000000E+00 0. -1.
<scales pt_clust_5="13000.00000" pt_clust_6="13000.00000" pt_clust_7="13000.00000" pt_clust_8="13000.00000" pt_clust_9="30.15438"></scales>
<clustering>
<clus scale="   30.154">  1  9  2 -1</clus>
<clus scale="   81.693">  5  6 -1 -1</clus>
<clus scale="   87.305">  2  5  1 -1</clus>
<clus scale="   91.160">  7  8 -1 -1</clus>
<clus scale="   87.305">  2  5  1 -1</clus>
</clustering>
</event>
<event>
 9    1  0.2333971E-005  0.1184680E+03  0.7546771E-02  0.1249340E+00
          1   -1    0    0  502    0  0.00000000000E+00  0.00000000000E+00  0.17128962013E+03  0.17128962013E+03  0.00000000000E+00 0. -1.
         -2   -1    0    0    0  501 -0.00000000000E+00 -0.00000000000E+00 -0.16505041227E+03  0.16505041227E+03  0.00000000000E+00 0.  1.
        -24    2    1    2    0    0  0.29644821123E+02  0.47494952272E+02 -0.86752900952E+02  0.13092462817E+03  0.80502214420E+02 0.  0.
         23    2    1    2    0    0 -0.46216831297E+02 -0.64604241786E+02  0.11913434350E+03  0.17004909621E+03  0.91727857095E+02 0.  0.
         13    1    3    3    0    0 -0.10493322378E+02  0.53058405829E+02 -0.32121582047E+02  0.62905486858E+02  0.00000000000E+00 0. -1.
        -14    1    3    3    0    0  0.40138143501E+02 -0.55634535574E+01 -0.54631318905E+02  0.68019141309E+02  0.00000000000E+00 0.  1.
        -13    1    4    4    0    0 -0.72891670464E+02 -0.42178986201E+02  0.98322577894E+02  0.12945884220E+03  0.00000000000E+00 0. -1.
         13    1    4    4    0    0  0.26674839167E+02 -0.22425255585E+02  0.20811765608E+02  0.40590254007E+02  0.00000000000E+00 0.  1.
         21    1    1    2  502  501  0.16572010174E+02  0.17109289514E+02 -0.26142234684E+02  0.35366308023E+02  0.00000000000E+00 0.  1.
<scales pt_clust_5="13000.00000" pt_clust_6="13000.00000" pt_clust_7="13000.00000" pt_clust_8="13000.00000" pt_clust_9="23.81931"></scales>
<clustering>
<clus scale="   23.819">  2  9  1 -1</clus>
<clus scale="   80.502">  5  6 -1 -1</clus>
<clus scale="   91.728">  7  8 -1 -1</clus>
<clus scale="  110.006">  2  5  1 -1</clus>
<clus scale="  118.468">  1  5  2 -1</clus>
</clustering>
</event>
<event>
 9    1  0.2333971E-005  0.1571561E+03  0.7546771E-02  0.1194042E+00
         -2   -1    0    0    0  501 -0.00000000000E+00  0.00000000000E+00  0.14123257566E+03  0.14123257566E+03  0.00000000000E+00 0.  1.
          1   -1    0    0  502    0  0.00000000000E+00 -0.00000000000E+00 -0.51843823246E+03  0.51843823246E+03  0.00000000000E+00 0. -1.
         23    2    1    2    0    0 -0.15066623239E+03 -0.39589744712E+02  0.17266574294E+02  0.18290159400E+03  0.94271931305E+02 0.  0.
        -24    2    1    2    0    0  0.11348603791E+03  0.44864641984E+02 -0.41043819574E+03  0.43596353522E+03  0.81931523987E+02 0.  0.
         13    1    4    4    0    0  0.62041299351E+02  0.65283318852E+02 -0.28409301533E+03  0.29802663624E+03  0.00000000000E+00 0. -1.
        -14    1    4    4    0    0  0.51444738560E+02 -0.20418676868E+02 -0.12634518040E+03  0.13793689898E+03  0.00000000000E+00 0.  1.
        -11    1    3    3    0    0 -0.13003330605E+03 -0.42038830143E+02  0.48822758107E+02  0.14511921179E+03  0.00000000000E+00 0.  1.
         11    1    3    3    0    0 -0.20632926346E+02  0.24490854301E+01 -0.31556183813E+02  0.37782382216E+02  0.00000000000E+00 0. -1.
         21    1    1    2  502  501  0.37180194481E+02 -0.52748972717E+01  0.15965964637E+02  0.40805678890E+02  0.00000000000E+00 0. -1.
<scales pt_clust_5="13000.00000" pt_clust_6="13000.00000" pt_clust_7="13000.00000" pt_clust_8="13000.00000" pt_clust_9="37.55252"></scales>
<clustering>
<clus scale="   37.553">  1  9  2 -1</clus>
<clus scale="   81.932">  5  6 -1 -1</clus>
<clus scale="   94.272">  7  8 -1 -1</clus>
<clus scale="  150.079">  2  5  1 -1</clus>
<clus scale="  150.079">  2  5  1 -1</clus>
</clustering>
</event>
<event>
 9    1  0.2333971E-005  0.9444012E+02  0.7546771E-02  0.1298548E+00
          1   -1    0    0  502    0  0.00000000000E+00  0.00000000000E+00  0.25201487261E+03  0.25201487261E+03  0.00000000000E+00 0. -1.
         -2   -1    0    0    0  501 -0.00000000000E+00 -0.00000000000E+00 -0.15856216853E+03  0.15856216853E+03  0.00000000000E+00 0.  1.
         23    2    1    2    0    0  0.15151545698E+02 -0.44347329797E+02 -0.77368421281E+02  0.12803117001E+03  0.90608238508E+02 0.  0.
        -24    2    1    2    0    0 -0.68550472316E+01  0.24133702142E+02  0.21635921960E+03  0.23203705352E+03  0.80002844024E+02 0.  0.
         11    1    4    4    0    0  0.17564288162E+02 -0.23835026249E+02  0.66111160344E+02  0.72438237257E+02  0.00000000000E+00 0. -1.
        -12    1    4    4    0    0 -0.24419335393E+02  0.47968728391E+02  0.15024805925E+03  0.15959881627E+03  0.00000000000E+00 0.  1.
        -13    1    3    3    0    0  0.34418234073E+02  0.31682780335E+01  0.77002731350E+00  0.34572326570E+02  0.00000000000E+00 0. -1.
         13    1    3    3    0    0 -0.19266688375E+02 -0.47515607831E+02 -0.78138448594E+02  0.93458843440E+02  0.00000000000E+00 0.  1.
         21    1    1    2  502  501 -0.82964984662E+01  0.20213627655E+02 -0.45538094231E+02  0.50508817606E+02  0.00000000000E+00 0.  1.
<scales pt_clust_5="13000.00000" pt_clust_6="13000.00000" pt_clust_7="13000.00000" pt_clust_8="13000.00000" pt_clust_9="21.85000"></scales>
<clustering>
<clus scale="   21.850">  2  9  1 -1</clus>
<clus scale="   80.003">  5  6 -1 -1</clus>
<clus scale="   84.318">  1  5  2 -1</clus>
<clus scale="   90.608">  7  8 -1 -1</clus>
<clus scale="   84.318">  1  5  2 -1</clus>
</clustering>
</event>
<event>
 9    1  0.2333971E-005  0.9574385E+02  0.7546771E-02  0.1294998E+00
          1   -1    0    0  502    0  0.00000000000E+00  0.00000000000E+00  0.22716568852E+03  0.22716568852E+03  0.00000000000E+00 0. -1.
         -2   -1    0    0    0  501 -0.00000000000E+00 -0.00000000000E+00 -0.13771122807E+03  0.13771122807E+03  0.00000000000E+00 0.  1.
        -24    2    1    2    0    0  0.19585891190E+02 -0.22728232020E+02 -0.56791666178E+02  0.10478916803E+03  0.82796719285E+02 0.  0.
         23    2    1    2    0    0  0.70038129715E+01  0.24747632144E+02  0.18768558295E+03  0.21080977291E+03  0.92484504735E+02 0.  0.
         13    1    3    3    0    0 -0.91322054293E+01  0.28083785427E+02 -0.22171688228E+02  0.36928037300E+02  0.00000000000E+00 0. -1.
        -14    1    3    3    0    0  0.28718096619E+02 -0.50812017447E+02 -0.34619977950E+02  0.67861130728E+02  0.00000000000E+00 0.  1.
        -11    1    4    4    0    0 -0.23140903559E+01  0.59015339763E+02  0.13404309090E+03  0.14647769646E+03  0.00000000000E+00 0. -1.
         11    1    4    4    0    0  0.93179033274E+01 -0.34267707619E+02  0.53642492045E+02  0.64332076453E+02  0.00000000000E+00 0.  1.
         21    1    1    2  502  501 -0.26589704161E+02 -0.20194001243E+01 -0.41439456318E+02  0.49277975650E+02  0.00000000000E+00 0. -1.
<scales pt_clust_5="13000.00000" pt_clust_6="13000.00000" pt_clust_7="13000.00000" pt_clust_8="13000.00000" pt_clust_9="26.66628"></scales>
<clustering>
<clus scale="   26.666">  2  9  1 -1</clus>
<clus scale="   82.797">  5  6 -1 -1</clus>
<clus scale="   86.422">  2  5  1 -1</clus>
<clus scale="   92.485">  7  8 -1 -1</clus>
<clus scale="   95.744">  1  5  2 -1</clus>
</clustering>
</event>
<event>
 9    1  0.2333971E-005  0.1059464E+03  0.7546771E-02  0.1276612E+00
         -2   -1    0    0    0  501 -0.00000000000E+00  0.00000000000E+00  0.54361923835E+02  0.54361923835E+02  0.00000000000E+00 0.  1.
          1   -1    0    0  502    0  0.00000000000E+00 -0.00000000000E+00 -0.31516430644E+03  0.31516430644E+03  0.00000000000E+00 0. -1.
        -24    2    1    2    0    0 -0.26185016845E+02 -0.21055208888E+02 -0.19057592062E+02  0.85412920668E+02  0.76178725859E+02 0.  0.
         23    2    1    2    0    0  0.45596513900E+02  0.28139305293E+02 -0.24001485085E+03  0.26337727018E+03  0.94284650064E+02 0.  0.
         13    1    3    3    0    0 -0.32603881141E+02  0.21850962449E+02 -0.38338835328E+01  0.39435723505E+02  0.00000000000E+00 0. -1.
        -14    1    3    3    0    0  0.64188642963E+01 -0.42906171337E+02 -0.15223708530E+02  0.45977197164E+02  0.00000000000E+00 0.  1.
        -13    1    4    4    0    0  0.47333704438E+02 -0.22155246424E+02 -0.79343392586E+02  0.95008991506E+02  0.00000000000E+00 0.  1.
         13    1    4    4    0    0 -0.17371905385E+01  0.50294551718E+02 -0.16067145827E+03  0.16836827868E+03  0.00000000000E+00 0. -1.
         21    1    1    2  502  501 -0.19411497055E+02 -0.70840964052E+01 -0.17299396960E+01  0.20736039428E+02  0.00000000000E+00 0. -1.
<scales pt_clust_5="13000.00000" pt_clust_6="13000.00000" pt_clust_7="13000.00000" pt_clust_8="13000.00000" pt_clust_9="20.66375"></scales>
<clustering>
<clus scale="   20.664">  1  9  2 -1</clus>
<clus scale="   76.179">  5  6 -1 -1</clus>
<clus scale="   90.212">  1  5  2 -1</clus>
<clus scale="   94.285">  7  8 -1 -1</clus>
<clus scale="  105.946">  2  5  1 -1</clus>
</clustering>
</event>
<event>
 9    1  0.2333971E-005  0.2090356E+03  0.7546771E-02  0.1143505E+00
          1   -1    0    0  502    0  0.00000000000E+00  0.00000000000E+00  0.27823197479E+03  0.27823197479E+03  0.00000000000E+00 0. -1.
         -2   -1    0    0    0  501 -0.00000000000E+00 -0.00000000000E+00 -0.37156863334E+03  0.37156863334E+03  0.00000000000E+00 0.  1.
        -24    2    1    2    0    0  0.18326063583E+03  0.22072059768E+02 -0.22283012389E+02  0.20138425337E+03  0.77378604238E+02 0.  0.
         23    2    1    2    0    0 -0.19027493192E+03  0.31337606401E+01  0.12847242743E+03  0.24718219321E+03  0.91539619083E+02 0.  0.
         13    1    3    3    0    0  0.13760315459E+03 -0.13492685010E+02  0.28395935017E+01  0.13829224126E+03  0.00000000000E+00 0. -1.
        -14    1    3    3    0    0  0.45657481247E+02  0.35564744779E+02 -0.25122605891E+02  0.63092012108E+02  0.00000000000E+00 0.  1.
        -11    1    4    4    0    0 -0.70795410714E+02  0.31105952081E+02  0.89836307665E+02  0.11853325528E+03  0.00000000000E+00 0. -1.
         11    1    4    4    0    0 -0.11947952120E+03 -0.27972191440E+02  0.38636119761E+02  0.12864893793E+03  0.00000000000E+00 0.  1.
         21    1    1    2  502  501  0.70142960821E+01 -0.25205820409E+02 -0.19952607359E+03  0.20123416155E+03  0.00000000000E+00 0. -1.
<scales pt_clust_5="13000.00000" pt_clust_6="13000.00000" pt_clust_7="13000.00000" pt_clust_8="13000.00000" pt_clust_9="26.16360"></scales>
<clustering>
<clus scale="   26.164">  2  9  1 -1</clus>
<clus scale="   77.379">  5  6 -1 -1</clus>
<clus scale="   91.540">  7  8 -1 -1</clus>
<clus scale="  203.233">  2  5  1 -1</clus>
<clus scale="  209.036">  1  5  2 -1</clus>
</clustering>
</event>
<event>
 9    1  0.2333971E-005  0.1105536E+03  0.7546771E-02  0.1262534E+00
          1   -1    0    0  502    0  0.00000000000E+00  0.00000000000E+00  0.39432082915E+03  0.39432082915E+03  0.00000000000E+00 0. -1.
         -2   -1    0    0    0  501 -0.00000000000E+00 -0.00000000000E+00 -0.16837674170E+03  0.16837674170E+03  0.00000000000E+00 0.  1.
        -24    2    1    2    0    0  0.13999894892E+02  0.48772469717E+01 -0.11297207496E+03  0.13912203410E+03  0.79827727361E+02 0.  0.
         23    2    1    2    0    0 -0.70820002216E+02  0.14691076533E+01  0.34785194594E+03  0.36570802393E+03  0.87884876285E+02 0.  0.
         13    1    3    3    0    0 -0.19487030305E+02 -0.24123988359E+02 -0.73554108336E+02  0.79824294658E+02  0.00000000000E+00 0. -1.
        -14    1    3    3    0    0  0.33486925197E+02  0.29001235331E+02 -0.39417966623E+02  0.59297739439E+02  0.00000000000E+00 0.  1.
        -13    1    4    4    0    0  0.78073247928E+01  0.28617481723E+02  0.95325052335E+02  0.99833762742E+02  0.00000000000E+00 0.  1.
         13    1    4    4    0    0 -0.78627327009E+02 -0.27148374070E+02  0.25252689361E+03  0.26587426119E+03  0.00000000000E+00 0. -1.
         21    1    1    2  502  501  0.56820107324E+02 -0.63463546250E+01 -0.89357835350E+01  0.57867512826E+02  0.00000000000E+00 0.  1.
<scales pt_clust_5="13000.00000" pt_clust_6="13000.00000" pt_clust_7="13000.00000" pt_clust_8="13000.00000" pt_clust_9="57.17343"></scales>
<clustering>
<clus scale="   57.173">  2  9  1 -1</clus>
<clus scale="   79.828">  5  6 -1 -1</clus>
<clus scale="   87.885">  7  8 -1 -1</clus>
<clus scale="  104.263">  2  5  1 -1</clus>
<clus scale="  110.554">  1  5  2 -1</clus>
</clustering>
</event>
<event>
 9    1  0.2333971E-005  0.1200093E+03  0.7546771E-02  0.1247661E+00
          1   -1    0    0  502    0  0.00000000000E+00  0.00000000000E+00  0.29211742395E+03  0.29211742395E+03  0.00000000000E+00 0. -1.
         -2   -1    0    0    0  501 -0.00000000000E+00 -0.00000000000E+00 -0.90499586234E+02  0.90499586234E+02  0.00000000000E+00 0.  1.
         23    2    1    2    0    0 -0.33515828844E+02  0.34985862109E+02 -0.19593291398E+01  0.10612626719E+03  0.94401399816E+02 0.  0.
        -24    2    1    2    0    0  0.11151772893E+02 -0.83803639457E+02  0.18669486026E+03  0.22020274552E+03  0.80541084305E+02 0.  0.
         11    1    4    4    0    0 -0.31307731779E+02 -0.13560102661E+02  0.45296672338E+02  0.56708367797E+02  0.00000000000E+00 0. -1.
        -12    1    4    4    0    0  0.42459504672E+02 -0.70243536796E+02  0.14139818792E+03  0.16349437772E+03  0.00000000000E+00 0.  1.
        -13    1    3    3    0    0 -0.13282384875E+02  0.28650122819E+02 -0.46839116314E+02  0.56490300960E+02  0.00000000000E+00 0.  1.
         13    1    3    3    0    0 -0.20233443969E+02  0.63357392902E+01  0.44879787174E+02  0.49635966234E+02  0.00000000000E+00 0. -1.
         21    1    1    2  502  501  0.22364055951E+02  0.48817777348E+02  0.16882306598E+02  0.56287997476E+02  0.00000000000E+00 0. -1.
<scales pt_clust_5="13000.00000" pt_clust_6="13000.00000" pt_clust_7="13000.00000" pt_clust_8="13000.00000" pt_clust_9="53.69661"></scales>
<clustering>
<clus scale="   53.697">  2  9  1 -1</clus>
<clus scale="   80.541">  5  6 -1 -1</clus>
<clus scale="   94.401">  7  8 -1 -1</clus>
<clus scale="  109.442">  1  5  2 -1</clus>
<clus scale="  109.442">  1  5  2 -1</clus>
</clustering>
</event>
<event>
 9    1  0.2333971E-005  0.1156703E+03  0.7546771E-02  0.1253537E+00
         -2   -1    0    0    0  501 -0.00000000000E+00  0.00000000000E+00  0.10227033031E+04  0.10227033031E+04  0.00000000000E+00 0.  1.
          1   -1    0    0  502    0  0.00000000000E+00 -0.00000000000E+00 -0.18527766544E+02  0.18527766544E+02  0.00000000000E+00 0. -1.
        -24    2    1    2    0    0 -0.46002292806E+02  0.49812202941E+02  0.49482116020E+03  0.50605202158E+03  0.81505836958E+02 0.  0.
         23    2    1    2    0    0  0.21218968837E+02 -0.74460567846E+02  0.29784899558E+03  0.32080488653E+03  0.90593213028E+02 0.  0.
         13    1    3    3    0    0 -0.29805040018E+02 -0.14761493638E+02  0.93345572760E+02  0.99094086901E+02  0.00000000000E+00 0. -1.
        -14    1    3    3    0    0 -0.16197252788E+02  0.64573696579E+02  0.40147558744E+03  0.40695793467E+03  0.00000000000E+00 0.  1.
        -13    1    4    4    0    0  0.52917458438E+02 -0.24192703258E+02  0.17324299285E+03  0.18275305434E+03  0.00000000000E+00 0.  1.
         13    1    4    4    0    0 -0.31698489601E+02 -0.50267864588E+02  0.12460600273E+03  0.13805183218E+03  0.00000000000E+00 0. -1.
         21    1    1    2  502  501  0.24783323969E+02  0.24648364905E+02  0.21150538081E+03  0.21437416157E+03  0.00000000000E+00 0.  1.
<scales pt_clust_5="13000.00000" pt_clust_6="13000.00000" pt_clust_7="13000.00000" pt_clust_8="13000.00000" pt_clust_9="34.95361"></scales>
<clustering>
<clus scale="   34.954">  1  9  2 -1</clus>
<clus scale="   81.506">  5  6 -1 -1</clus>
<clus scale="   90.593">  7  8 -1 -1</clus>
<clus scale="  108.700">  1  5  2 -1</clus>
<clus scale="  115.670">  2  5  1 -1</clus>
</clustering>
</event>
<event>
 9    1  0.2333971E-005  0.1102448E+03  0.7546771E-02  0.1264936E+00
          1   -1    0    0  502    0  0.00000000000E+00  0.00000000000E+00  0.68686292691E+02  0.68686292691E+02  0.00000000000E+00 0. -1.
         -2   -1    0    0    0  501 -0.00000000000E+00 -0.00000000000E+00 -0.59731278110E+03  0.59731278110E+03  0.00000000000E+00 0.  1.
        -24    2    1    2    0    0 -0.24819631122E+02  0.14535018355E+02 -0.40854700693E+03  0.41740202237E+03  0.80538876078E+02 0.  0.
         23    2    1    2    0    0  0.19440955368E+02 -0.61745005342E+02  0.67195375966E+01  0.11318765639E+03  0.92606138797E+02 0.  0.
         13    1    3    3    0    0 -0.15942368973E+02 -0.32861617358E+02 -0.20436443560E+03  0.20760266752E+03  0.00000000000E+00 0. -1.
        -14    1    3    3    0    0 -0.88772621485E+01  0.47396635713E+02 -0.20418257133E+03  0.20979935485E+03  0.00000000000E+00 0.  1.
        -11    1    4    4    0    0  0.80023242504E+01  0.19038385074E+02 -0.18565728859E+02  0.27770192432E+02  0.00000000000E+00 0.  1.
         11    1    4    4    0    0  0.11438631118E+02 -0.80783390417E+02  0.25285266455E+02  0.85417463957E+02  0.00000000000E+00 0. -1.
         21    1    1    2  502  501  0.53786757539E+01  0.47209986988E+02 -0.12679901908E+03  0.13540939504E+03  0.00000000000E+00 0.  1.
<scales pt_clust_5="13000.00000" pt_clust_6="13000.00000" pt_clust_7="13000.00000" pt_clust_8="13000.00000" pt_clust_9="47.51540"></scales>
<clustering>
<clus scale="   47.515">  2  9  1 -1</clus>
<clus scale="   80.539">  5  6 -1 -1</clus>
<clus scale="   92.606">  7  8 -1 -1</clus>
<clus scale="  100.322">  2  5  1 -1</clus>
<clus scale="  110.245">  1  5  2 -1</clus>
</clustering>
</event>
<event>
 9    1  0.2333971E-005  0.2424428E+03  0.7546771E-02  0.1118301E+00
          1   -1    0    0  502    0  0.00000000000E+00  0.00000000000E+00  0.26869660881E+03  0.26869660881E+03  0.00000000000E+00 0. -1.
         -2   -1    0    0    0  501 -0.00000000000E+00 -0.00000000000E+00 -0.47508058621E+03  0.47508058621E+03  0.00000000000E+00 0.  1.
         23    2    1    2    0    0 -0.22484683551E+03  0.13080631921E+03 -0.30948193325E+03  0.41268946466E+03  0.82868176305E+02 0.  0.
        -24    2    1    2    0    0  0.17982232382E+03 -0.13016874695E+03  0.13851651220E+03  0.27379822621E+03  0.80614351694E+02 0.  0.
         11    1    4    4    0    0  0.18015537300E+03 -0.10217367663E+03  0.13001444470E+03  0.24453869724E+03  0.00000000000E+00 0. -1.
        -12    1    4    4    0    0 -0.33304917909E+00 -0.27995070321E+02  0.85020674949E+01  0.29259528973E+02  0.00000000000E+00 0.  1.
        -11    1    3    3    0    0 -0.21083415573E+03  0.89142576388E+02 -0.26448254504E+03  0.34978344269E+03  0.00000000000E+00 0.  1.
         11    1    3    3    0    0 -0.14012679786E+02  0.41663742823E+02 -0.44999388205E+02  0.62906021967E+02  0.00000000000E+00 0. -1.
         21    1    1    2  502  501  0.45024511697E+02 -0.63757226311E+00 -0.35418556352E+02  0.57289504152E+02  0.00000000000E+00 0. -1.
<scales pt_clust_5="13000.00000" pt_clust_6="13000.00000" pt_clust_7="13000.00000" pt_clust_8="13000.00000" pt_clust_9="45.02903"></scales>
<clustering>
<clus scale="   45.029">  2  9  1 -1</clus>
<clus scale="   80.614">  5  6 -1 -1</clus>
<clus scale="   82.868">  7  8 -1 -1</clus>
<clus scale="  241.682">  1  5  2 -1</clus>
<clus scale="  241.682">  1  5  2 -1</clus>
</clustering>
</event>
<event>
 9    1  0.2333971E-005  0.1819132E+03  0.7546771E-02  0.1167275E+00
         -2   -1    0    0    0  501 -0.00000000000E+00  0.00000000000E+00  0.15033860069E+03  0.15033860069E+03  0.00000000000E+00 0.  1.
          1   -1    0    0  502    0  0.00000000000E+00 -0.00000000000E+00 -0.41305352172E+03  0.41305352172E+03  0.00000000000E+00 0. -1.
        -24    2    1    2    0    0 -0.18369507121E+02  0.12893964965E+03  0.51159001382E+02  0.16157143579E+03  0.80778792991E+02 0.  0.
         23    2    1    2    0    0  0.64213494617E+01 -0.16346923713E+03 -0.31337443161E+03  0.36527892456E+03  0.91987679189E+02 0.  0.
         11    1    3    3    0    0 -0.25699359349E+02  0.16936245099E+01  0.10093315895E+02  0.27662256971E+02  0.00000000000E+00 0. -1.
        -12    1    3    3    0    0  0.73298522279E+01  0.12724602514E+03  0.41065685487E+02  0.13390917882E+03  0.00000000000E+00 0.  1.
        -11    1    4    4    0    0  0.20485781794E+02 -0.81918067636E+02 -0.74967364996E+02  0.11291741617E+03  0.00000000000E+00 0.  1.
         11    1    4    4    0    0 -0.14064432332E+02 -0.81551169497E+02 -0.23840706661E+03  0.25236150839E+03  0.00000000000E+00 0. -1.
         21    1    1    2  502  501  0.11948157660E+02  0.34529587483E+02 -0.49949079500E+00  0.36541762057E+02  0.00000000000E+00 0.  1.
<scales pt_clust_5="13000.00000" pt_clust_6="13000.00000" pt_clust_7="13000.00000" pt_clust_8="13000.00000" pt_clust_9="36.53835"></scales>
<clustering>
<clus scale="   36.538">  1  9  2 -1</clus>
<clus scale="   80.779">  5  6 -1 -1</clus>
<clus scale="   91.988">  7  8 -1 -1</clus>
<clus scale="  176.510">  1  5  2 -1</clus>
<clus scale="  181.913">  2  5  1 -1</clus>
</clustering>
</event>
<event>
 9    1  0.2333971E-005  0.9466081E+02  0.7546771E-02  0.1299448E+00
          1   -1    0    0  502    0  0.00000000000E+00  0.00000000000E+00  0.24420290505E+03  0.24420290505E+03  0.00000000000E+00 0. -1.
         -2   -1    0    0    0  501 -0.00000000000E+00 -0.00000000000E+00 -0.11027575698E+03  0.11027575698E+03  0.00000000000E+00 0.  1.
        -24    2    1    2    0    0  0.22398327054E+02 -0.33383488132E+02  0.13936587538E+02  0.89884550250E+02  0.79176142662E+02 0.  0.
         23    2    1    2    0    0 -0.22427257961E+02 -0.65044811180E+01  0.17357573675E+03  0.19779274923E+03  0.91913791591E+02 0.  0.
         11    1    3    3    0    0  0.85375241745E+01 -0.36348156816E+02  0.43362789488E+02  0.57222454816E+02  0.00000000000E+00 0. -1.
        -12    1    3    3    0    0  0.13860802880E+02  0.29646686848E+01 -0.29426201951E+02  0.32662095434E+02  0.00000000000E+00 0.  1.
        -11    1    4    4    0    0 -0.44010564287E+02 -0.17009342768E+02  0.16606997120E+03  0.17264264492E+03  0.00000000000E+00 0.  1.
         11    1    4    4    0    0  0.21583306326E+02  0.10504861650E+02  0.75057655490E+01  0.25150104308E+02  0.00000000000E+00 0. -1.
         21    1    1    2  502  501  0.28930907133E-01  0.39887969250E+02 -0.53585176224E+02  0.66801362552E+02  0.00000000000E+00 0.  1.
<scales pt_clust_5="13000.00000" pt_clust_6="13000.00000" pt_clust_7="13000.00000" pt_clust_8="13000.00000" pt_clust_9="39.88798"></scales>
<clustering>
<clus scale="   39.888">  2  9  1 -1</clus>
<clus scale="   79.176">  5  6 -1 -1</clus>
<clus scale="   82.349">  2  5  1 -1</clus>
<clus scale="   91.914">  7  8 -1 -1</clus>
<clus scale="   94.661">  1  5  2 -1</clus>
</clustering>
</event>
<event>
 9    1  0.2333971E-005  0.1134350E+03  0.7546771E-02  0.1257973E+00
          1   -1    0    0  502    0  0.00000000000E+00  0.00000000000E+00  0.40830635125E+03  0.40830635125E+03  0.00000000000E+00 0. -1.
         -2   -1    0    0    0  501 -0.00000000000E+00 -0.00000000000E+00 -0.88616692596E+02  0.88616692596E+02  0.00000000000E+00 0.  1.
         23    2    1    2    0    0  0.77020700456E+01 -0.28219338498E+02  0.85928525721E+02  0.12839093776E+03  0.90801257795E+02 0.  0.
        -24    2    1    2    0    0 -0.96268206095E+02  0.44612296582E+02  0.24382330445E+03  0.27790133413E+03  0.80755948432E+02 0.  0.
         13    1    4    4    0    0 -0.56470495104E+02 -0.12781183091E+02  0.15113166607E+03  0.16184268889E+03  0.00000000000E+00 0. -1.
        -14    1    4    4    0    0 -0.39797710991E+02  0.57393479673E+02  0.92691638386E+02  0.11605864524E+03  0.00000000000E+00 0.  1.
        -13    1    3    3    0    0  0.12463467746E+02  0.21093908535E+02 -0.48472388839E+01  0.24975722819E+02  0.00000000000E+00 0.  1.
         13    1    3    3    0    0 -0.47613977005E+01 -0.49313247033E+02  0.90775764605E+02  0.10341521494E+03  0.00000000000E+00 0. -1.
         21    1    1    2  502  501  0.88566136049E+02 -0.16392958084E+02 -0.10062171522E+02  0.90630771955E+02  0.00000000000E+00 0.  1.
<scales pt_clust_5="13000.00000" pt_clust_6="13000.00000" pt_clust_7="13000.00000" pt_clust_8="13000.00000" pt_clust_9="90.07047"></scales>
<clustering>
<clus scale="   80.756">  5  6 -1 -1</clus>
<clus scale="   90.070">  2  9  1 -1</clus>
<clus scale="   90.801">  7  8 -1 -1</clus>
<clus scale="  105.566">  1  5  2 -1</clus>
<clus scale="  105.566">  1  5  2 -1</clus>
</clustering>
</event>
<event>
 9    1  0.2333971E-005  0.9762003E+02  0.7546771E-02  0.1291925E+00
          1   -1    0    0  502    0  0.00000000000E+00  0.00000000000E+00  0.47733190162E+02  0.47733190162E+02  0.00000000000E+00 0. -1.
         -2   -1    0    0    0  501 -0.00000000000E+00 -0.00000000000E+00 -0.34729902961E+03  0.34729902961E+03  0.00000000000E+00 0.  1.
        -24    2    1    2    0    0 -0.79756603669E+01 -0.35357550513E+02 -0.21693781754E+03  0.23455179771E+03  0.81478595937E+02 0.  0.
         23    2    1    2    0    0 -0.15298814484E+02  0.38039479001E+01 -0.40624022907E+02  0.10302028849E+03  0.93350655379E+02 0.  0.
         11    1    3    3    0    0 -0.34182894555E+02 -0.41955855293E+02 -0.92107357391E+02  0.10682944051E+03  0.00000000000E+00 0. -1.
        -12    1    3    3    0    0  0.26207234188E+02  0.65983047801E+01 -0.12483046015E+03  0.12772235721E+03  0.00000000000E+00 0.  1.
        -11    1    4    4    0    0 -0.28438235777E+02 -0.21876078843E+02  0.16143966402E+02  0.39343661889E+02  0.00000000000E+00 0. -1.
         11    1    4    4    0    0  0.13139421293E+02  0.25680026743E+02 -0.56767989309E+02  0.63676626603E+02  0.00000000000E+00 0.  1.
         21    1    1    2  502  501  0.23274474851E+02  0.31553602613E+02 -0.42003999007E+02  0.57460133572E+02  0.00000000000E+00 0.  1.
<scales pt_clust_5="13000.00000" pt_clust_6="13000.00000" pt_clust_7="13000.00000" pt_clust_8="13000.00000" pt_clust_9="39.20881"></scales>
<clustering>
<clus scale="   39.209">  1  9  2 -1</clus>
<clus scale="   81.479">  5  6 -1 -1</clus>
<clus scale="   86.337">  2  5  1 -1</clus>
<clus scale="   93.351">  7  8 -1 -1</clus>
<clus scale="   39.209">  1  5  2 -1</clus>
</clustering>
</event>
<event>
 9    1  0.2333971E-005  0.1091205E+03  0.7546771E-02  0.1275776E+00
          1   -1    0    0  502    0  0.00000000000E+00  0.00000000000E+00  0.59328756786E+02  0.59328756786E+02  0.00000000000E+00 0. -1.
         -2   -1    0    0    0  501 -0.00000000000E+00 -0.00000000000E+00 -0.43554054840E+03  0.43554054840E+03  0.00000000000E+00 0.  1.
         23    2    1    2    0    0  0.35761033929E+02 -0.32254835827E+01 -0.33721904441E+03  0.35532824534E+03  0.10607649473E+03 0.  0.
        -24    2    1    2    0    0  0.13442745539E+02  0.17148092699E+02 -0.22685966902E+02  0.85868328947E+02  0.79899639117E+02 0.  0.
         13    1    4    4    0    0  0.97600925151E+01 -0.31776999393E+02 -0.13867330365E+02  0.36018605578E+02  0.00000000000E+00 0. -1.
        -14    1    4    4    0    0  0.36826530241E+01  0.48925092092E+02 -0.88186365379E+01  0.49849723369E+02  0.00000000000E+00 0.  1.
        -13    1    3    3    0    0  0.68583248882E+01  0.43027252399E+02 -0.23939122644E+03  0.24332394121E+03  0.00000000000E+00 0. -1.
         13    1    3    3    0    0  0.28902709040E+02 -0.46252735981E+02 -0.97827817962E+02  0.11200430413E+03  0.00000000000E+00 0.  1.
         21    1    1    2  502  501 -0.49203779468E+02 -0.13922609116E+02 -0.16306780307E+02  0.53672730902E+02  0.00000000000E+00 0. -1.
<scales pt_clust_5="13000.00000" pt_clust_6="13000.00000" pt_clust_7="13000.00000" pt_clust_8="13000.00000" pt_clust_9="51.13561"></scales>
<clustering>
<clus scale="   51.136">  1  9  2 -1</clus>
<clus scale="   79.900">  5  6 -1 -1</clus>
<clus scale="   83.899">  1  5  2 -1</clus>
<clus scale="  106.076">  7  8 -1 -1</clus>
<clus scale="   51.136">  1  5  2 -1</clus>
</clustering>
</event>
<event>
 9    1  0.2333971E-005  0.1101301E+03  0.7546771E-02  0.1263710E+00
         -2   -1    0    0    0  501 -0.00000000000E+00  0.00000000000E+00  0.64812715487E+02  0.64812715487E+02  0.00000000000E+00 0.  1.
          1   -1    0    0  502    0  0.00000000000E+00 -0.00000000000E+00 -0.51202972542E+03  0.51202972542E+03  0.00000000000E+00 0. -1.
        -24    2    1    2    0    0 -0.32254134956E+02 -0.96987618525E+02 -0.58391636825E+02  0.14322607523E+03  0.81591654021E+02 0.  0.
         23    2    1    2    0    0  0.42803563583E+02  0.38184437152E+02 -0.34005224273E+03  0.35649358803E+03  0.90343534524E+02 0.  0.
         13    1    3    3    0    0 -0.30175303011E+02 -0.99175998616E+02 -0.73975202289E+02  0.12735288833E+03  0.00000000000E+00 0. -1.
        -14    1    3    3    0    0 -0.20788319455E+01  0.21883800908E+01  0.15583565464E+02  0.15873186897E+02  0.00000000000E+00 0.  1.
        -11    1    4    4    0    0  0.54924695687E+02 -0.90803385093E+01 -0.14208904045E+03  0.15260560331E+03  0.00000000000E+00 0.  1.
         11    1    4    4    0    0 -0.12121132105E+02  0.47264775662E+02 -0.19796320227E+03  0.20388798473E+03  0.00000000000E+00 0. -1.
         21    1    1    2  502  501 -0.10549428627E+02  0.58803181373E+02 -0.48773130376E+02  0.77122777638E+02  0.00000000000E+00 0. -1.
<scales pt_clust_5="13000.00000" pt_clust_6="13000.00000" pt_clust_7="13000.00000" pt_clust_8="13000.00000" pt_clust_9="59.74198"></scales>
<clustering>
<clus scale="   59.742">  1  9  2 -1</clus>
<clus scale="   81.592">  5  6 -1 -1</clus>
<clus scale="   90.344">  7  8 -1 -1</clus>
<clus scale="  103.072">  1  5  2 -1</clus>
<clus scale="  110.130">  2  5  1 -1</clus>
</clustering>
</event>
<event>
 9    1  0.2333971E-005  0.1186812E+03  0.7546771E-02  0.1248434E+00
         -2   -1    0    0    0  501 -0.00000000000E+00  0.00000000000E+00  0.45850301106E+02  0.45850301106E+02  0.00000000000E+00 0.  1.
          1   -1    0    0  502    0  0.00000000000E+00 -0.00000000000E+00 -0.42248522415E+03  0.42248522415E+03  0.00000000000E+00 0. -1.
        -24    2    1    2    0    0  0.27520515850E+02  0.59851792719E+02 -0.14138837136E+03  0.17578937179E+03  0.81065503120E+02 0.  0.
         23    2    1    2    0    0 -0.32510152601E+02 -0.79410393134E+02 -0.24108889866E+03  0.27153262585E+03  0.90792011121E+02 0.  0.
         13    1    3    3    0    0  0.22154886789E+02 -0.16980197233E+01 -0.97511519955E+02  0.10001109340E+03  0.00000000000E+00 0. -1.
        -14    1    3    3    0    0  0.53656290612E+01  0.61549812443E+02 -0.43876851403E+02  0.75778278391E+02  0.00000000000E+00 0.  1.
        -11    1    4    4    0    0  0.33910642259E+01 -0.87407897489E+02 -0.18202733780E+03  0.20195442943E+03  0.00000000000E+00 0. -1.
         11    1    4    4    0    0 -0.35901216827E+02  0.79975043552E+01 -0.59061560853E+02  0.69578196412E+02  0.00000000000E+00 0.  1.
         21    1    1    2  502  501  0.49896367512E+01  0.19558600414E+02  0.58423469652E+01  0.21013527622E+02  0.00000000000E+00 0.  1.
<scales pt_clust_5="13000.00000" pt_clust_6="13000.00000" pt_clust_7="13000.00000" pt_clust_8="13000.00000" pt_clust_9="20.18503"></scales>
<clustering>
<clus scale="   20.185">  1  9  2 -1</clus>
<clus scale="   81.066">  5  6 -1 -1</clus>
<clus scale="   90.792">  7  8 -1 -1</clus>
<clus scale="  111.417">  1  5  2 -1</clus>
<clus scale="  118.681">  2  5  1 -1</clus>
</clustering>
</event>
<event>
 9    1  0.2333971E-005  0.1352033E+03  0.7546771E-02  0.1221827E+00
          1   -1    0    0  502    0  0.00000000000E+00  0.00000000000E+00  0.58360437515E+03  0.58360437515E+03  0.00000000000E+00 0. -1.
         -2   -1    0    0    0  501 -0.00000000000E+00 -0.00000000000E+00 -0.10848615711E+03  0.10848615711E+03  0.00000000000E+00 0.  1.
        -24    2    1    2    0    0  0.11025194158E+03 -0.34139981027E+01 -0.25304943451E+02  0.14083498367E+03  0.83827241732E+02 0.  0.
         23    2    1    2    0    0 -0.96359546677E+02 -0.19968196598E+02  0.50591923659E+03  0.52350789092E+03  0.91773344634E+02 0.  0.
         13    1    3    3    0    0  0.18986417143E+02  0.21666724366E+02 -0.35409331113E+02  0.45648129322E+02  0.00000000000E+00 0. -1.
        -14    1    3    3    0    0  0.91265524435E+02 -0.25080722468E+02  0.10104387662E+02  0.95186854344E+02  0.00000000000E+00 0.  1.
        -11    1    4    4    0    0 -0.54084728231E+02 -0.50113962593E+02  0.19885193210E+03  0.21208172476E+03  0.00000000000E+00 0. -1.
         11    1    4    4    0    0 -0.42274818446E+02  0.30145765995E+02  0.30706730449E+03  0.31142616616E+03  0.00000000000E+00 0.  1.
         21    1    1    2  502  501 -0.13892394900E+02  0.23382194701E+02 -0.54960751079E+01  0.27747657679E+02  0.00000000000E+00 0.  1.
<scales pt_clust_5="13000.00000" pt_clust_6="13000.00000" pt_clust_7="13000.00000" pt_clust_8="13000.00000" pt_clust_9="27.19790"></scales>
<clustering>
<clus scale="   27.198">  2  9  1 -1</clus>
<clus scale="   83.827">  5  6 -1 -1</clus>
<clus scale="   91.773">  7  8 -1 -1</clus>
<clus scale="  129.941">  2  5  1 -1</clus>
<clus scale="  135.203">  1  5  2 -1</clus>
</clustering>
</event>
<event>
 9    1  0.2333971E-005  0.3916153E+03  0.7546771E-02  0.1099503E+00
         -2   -1    0    0    0  501 -0.00000000000E+00  0.00000000000E+00  0.10617392895E+03  0.10617392895E+03  0.00000000000E+00 0.  1.
          1   -1    0    0  502    0  0.00000000000E+00 -0.00000000000E+00 -0.17774192214E+04  0.17774192214E+04  0.00000000000E+00 0. -1.
        -24    2    1    2    0    0  0.44170938808E+02  0.23038737424E+02 -0.14196059714E+03  0.16952342706E+03  0.78125065907E+02 0.  0.
         23    2    1    2    0    0  0.34065253121E+03 -0.12766642052E+03 -0.72704681045E+03  0.81817816789E+03  0.92062956099E+02 0.  0.
         11    1    3    3    0    0  0.47658606334E+02  0.14317435032E+02 -0.32002652766E+02  0.59165036024E+02  0.00000000000E+00 0. -1.
        -12    1    3    3    0    0 -0.34876675258E+01  0.87213023925E+01 -0.10995794438E+03  0.11035839103E+03  0.00000000000E+00 0.  1.
        -13    1    4    4    0    0  0.35096034184E+02 -0.17720902617E+02 -0.30864496646E+02  0.49983788954E+02  0.00000000000E+00 0. -1.
         13    1    4    4    0    0  0.30555649702E+03 -0.10994551790E+03 -0.69618231380E+03  0.76819437894E+03  0.00000000000E+00 0.  1.
         21    1    1    2  502  501 -0.38482347001E+03  0.10462768310E+03 -0.80223788481E+03  0.89589155536E+03  0.00000000000E+00 0. -1.
<scales pt_clust_5="13000.00000" pt_clust_6="13000.00000" pt_clust_7="13000.00000" pt_clust_8="13000.00000" pt_clust_9="380.64016"></scales>
<clustering>
<clus scale="   78.125">  5  6 -1 -1</clus>
<clus scale="   92.063">  7  8 -1 -1</clus>
<clus scale="   92.657">  1  5  2 -1</clus>
<clus scale="  380.640">  1  9  2 -1</clus>
<clus scale="  391.615">  2  5  1 -1</clus>
</clustering>
</event>
<event>
 9    1  0.2333971E-005  0.2579034E+03  0.7546771E-02  0.1108665E+00
         -2   -1    0    0    0  501 -0.00000000000E+00  0.00000000000E+00  0.21723765435E+03  0.21723765435E+03  0.00000000000E+00 0.  1.
          1   -1    0    0  502    0  0.00000000000E+00 -0.00000000000E+00 -0.74666214102E+03  0.74666214102E+03  0.00000000000E+00 0. -1.
         23    2    1    2    0    0  0.17621871997E+02  0.24415421720E+03  0.98211956752E+02  0.27693719338E+03  0.84420426910E+02 0.  0.
        -24    2    1    2    0    0  0.97468459542E+00 -0.23648359302E+03 -0.61386031353E+03  0.66258121263E+03  0.79145050591E+02 0.  0.
         13    1    4    4    0    0  0.16336529878E+01 -0.11018626570E+03 -0.39301270613E+03  0.40816990231E+03  0.00000000000E+00 0. -1.
        -14    1    4    4    0    0 -0.65896839238E+00 -0.12629732732E+03 -0.22084760740E+03  0.25441131032E+03  0.00000000000E+00 0.  1.
        -11    1    3    3    0    0 -0.14122452943E+02  0.16048654769E+03  0.28743771151E+02  0.16365078688E+03  0.00000000000E+00 0. -1.
         11    1    3    3    0    0  0.31744324940E+02  0.83667669507E+02  0.69468185601E+02  0.11328640650E+03  0.00000000000E+00 0.  1.
         21    1    1    2  502  501 -0.18596556593E+02 -0.76706241775E+01 -0.13776129898E+02  0.24381389365E+02  0.00000000000E+00 0. -1.
<scales pt_clust_5="13000.00000" pt_clust_6="13000.00000" pt_clust_7="13000.00000" pt_clust_8="13000.00000" pt_clust_9="20.11642"></scales>
<clustering>
<clus scale="   20.116">  2  9  1 -1</clus>
<clus scale="   79.145">  5  6 -1 -1</clus>
<clus scale="   84.420">  7  8 -1 -1</clus>
<clus scale="  256.225">  2  5  1 -1</clus>
<clus scale="   20.116">  2  5  1 -1</clus>
</clustering>
</event>
<event>
 9    1  0.2333971E-005  0.1832366E+03  0.7546771E-02  0.1165943E+00
         -4   -1    0    0    0  501 -0.00000000000E+00  0.00000000000E+00  0.12776503388E+03  0.12776503388E+03  0.00000000000E+00 0.  1.
          3   -1    0    0  502    0  0.00000000000E+00 -0.00000000000E+00 -0.42044853437E+03  0.42044853437E+03  0.00000000000E+00 0. -1.
        -24    2    1    2    0    0 -0.10813361280E+03 -0.92003086449E+02 -0.53543875213E+01  0.16343381181E+03  0.80774347681E+02 0.  0.
         23    2    1    2    0    0  0.12899278378E+03  0.10195510642E+03 -0.30311672345E+03  0.35679053781E+03  0.91573783612E+02 0.  0.
         11    1    3    3    0    0 -0.11472589248E+03 -0.64644749489E+02  0.87114613078E+01  0.13197296541E+03  0.00000000000E+00 0. -1.
        -12    1    3    3    0    0  0.65922796808E+01 -0.27358336960E+02 -0.14065848829E+02  0.31460846395E+02  0.00000000000E+00 0.  1.
        -13    1    4    4    0    0  0.11017655998E+03  0.54803714291E+02 -0.14217673123E+03  0.18803335973E+03  0.00000000000E+00 0.  1.
         13    1    4    4    0    0  0.18816223798E+02  0.47151392124E+02 -0.16093999222E+03  0.16875717807E+03  0.00000000000E+00 0. -1.
         21    1    1    2  502  501 -0.20859170975E+02 -0.99520199667E+01  0.15787610478E+02  0.27989218635E+02  0.00000000000E+00 0. -1.
<scales pt_clust_5="13000.00000" pt_clust_6="13000.00000" pt_clust_7="13000.00000" pt_clust_8="13000.00000" pt_clust_9="23.11164"></scales>
<clustering>
<clus scale="   23.112">  1  9  2 -1</clus>
<clus scale="   80.774">  5  6 -1 -1</clus>
<clus scale="   91.574">  7  8 -1 -1</clus>
<clus scale="  178.085">  1  5  2 -1</clus>
<clus scale="  183.237">  2  5  1 -1</clus>
</clustering>
</event>
<event>
 9    1  0.2333971E-005  0.1181929E+03  0.7546771E-02  0.1251156E+00
          3   -1    0    0  502    0  0.00000000000E+00  0.00000000000E+00  0.10359087088E+03  0.10359087088E+03  0.00000000000E+00 0. -1.
         -4   -1    0    0    0  501 -0.00000000000E+00 -0.00000000000E+00 -0.49920392890E+03  0.49920392890E+03  0.00000000000E+00 0.  1.
         23    2    1    2    0    0 -0.10119975970E+03 -0.11046644848E+02 -0.20551667886E+02  0.13874922217E+03  0.92008455442E+02 0.  0.
        -24    2    1    2    0    0  0.48895859901E+02  0.32395609315E+02 -0.12949348298E+02  0.97553276120E+02  0.76867909052E+02 0.  0.
         11    1    4    4    0    0 -0.84893808930E+01  0.29726873432E+02  0.14191934673E+02  0.34017166280E+02  0.00000000000E+00 0. -1.
        -12    1    4    4    0    0  0.57385240794E+02  0.26687358829E+01 -0.27141282971E+02  0.63536109840E+02  0.00000000000E+00 0.  1.
        -11    1    3    3    0    0 -0.36013670776E+02  0.20422972295E+02  0.29420513100E+02  0.50790243858E+02  0.00000000000E+00 0. -1.
         11    1    3    3    0    0 -0.65186088925E+02 -0.31469617143E+02 -0.49972180986E+02  0.87958978308E+02  0.00000000000E+00 0.  1.
         21    1    1    2  502  501  0.52303899800E+02 -0.21348964467E+02 -0.36211204183E+03  0.36649230150E+03  0.00000000000E+00 0.  1.
<scales pt_clust_5="13000.00000" pt_clust_6="13000.00000" pt_clust_7="13000.00000" pt_clust_8="13000.00000" pt_clust_9="56.49315"></scales>
<clustering>
<clus scale="   56.493">  2  9  1 -1</clus>
<clus scale="   76.868">  5  6 -1 -1</clus>
<clus scale="   92.008">  7  8 -1 -1</clus>
<clus scale="  106.830">  1  5  2 -1</clus>
<clus scale="  106.830">  1  5  2 -1</clus>
</clustering>
</event>
<event>
 9    1  0.2333971E-005  0.2070451E+03  0.7546771E-02  0.1145079E+00
         -2   -1    0    0    0  501 -0.00000000000E+00  0.00000000000E+00  0.29718882673E+03  0.29718882673E+03  0.00000000000E+00 0.  1.
          1   -1    0    0  502    0  0.00000000000E+00 -0.00000000000E+00 -0.57242439675E+03  0.57242439675E+03  0.00000000000E+00 0. -1.
         23    2    1    2    0    0  0.33058028962E+02  0.17190094008E+03  0.99860273676E+02  0.22180098923E+03  0.92632813235E+02 0.  0.
        -24    2    1    2    0    0  0.46311056143E+02 -0.18264329282E+03 -0.47655629559E+03  0.51854865427E+03  0.79268642254E+02 0.  0.
         11    1    4    4    0    0  0.28397395595E+02 -0.14609529988E+03 -0.43756778453E+03  0.46218590933E+03  0.00000000000E+00 0. -1.
        -12    1    4    4    0    0  0.17913660548E+02 -0.36547992945E+02 -0.38988511054E+02  0.56362744936E+02  0.00000000000E+00 0.  1.
        -13    1    3    3    0    0 -0.29841643846E+02  0.34250393224E+02  0.12757242001E+02  0.47184323318E+02  0.00000000000E+00 0. -1.
         13    1    3    3    0    0  0.62899672809E+02  0.13765054685E+03  0.87103031675E+02  0.17461666591E+03  0.00000000000E+00 0.  1.
         21    1    1    2  502  501 -0.79369085105E+02  0.10742352744E+02  0.10146045188E+03  0.12926357998E+03  0.00000000000E+00 0.  1.
<scales pt_clust_5="13000.00000" pt_clust_6="13000.00000" pt_clust_7="13000.00000" pt_clust_8="13000.00000" pt_clust_9="80.09276"></scales>
<clustering>
<clus scale="   79.269">  5  6 -1 -1</clus>
<clus scale="   80.093">  1  9  2 -1</clus>
<clus scale="   92.633">  7  8 -1 -1</clus>
<clus scale="  201.421">  2  5  1 -1</clus>
<clus scale="  201.421">  2  5  1 -1</clus>
</clustering>
</event>
<event>
 9    1  0.2333971E-005  0.1226715E+03  0.7546771E-02  0.1240774E+00
          1   -1    0    0  502    0  0.00000000000E+00  0.00000000000E+00  0.77698806701E+02  0.77698806701E+02  0.00000000000E+00 0. -1.
         -2   -1    0    0    0  501 -0.00000000000E+00 -0.00000000000E+00 -0.49465123965E+03  0.49465123965E+03  0.00000000000E+00 0.  1.
        -24    2    1    2    0    0  0.28944112719E+02 -0.31245769685E+02 -0.19794862198E+03  0.22003371835E+03  0.86122705981E+02 0.  0.
         23    2    1    2    0    0 -0.96573422028E+02  0.93765203009E+01 -0.13544518607E+02  0.13491000710E+03  0.92751878992E+02 0.  0.
         13    1    3    3    0    0 -0.25453805681E+02 -0.30623546008E+02 -0.10551940833E+03  0.11278316952E+03  0.00000000000E+00 0. -1.
        -14    1    3    3    0    0  0.54397918401E+02 -0.62222367694E+00 -0.92429213648E+02  0.10725054883E+03  0.00000000000E+00 0.  1.
        -13    1    4    4    0    0 -0.80422292855E+02  0.35714662908E+02 -0.37660693764E+02  0.95716300542E+02  0.00000000000E+00 0.  1.
         13    1    4    4    0    0 -0.16151129173E+02 -0.26338142608E+02  0.24116175158E+02  0.39193706559E+02  0.00000000000E+00 0. -1.
         21    1    1    2  502  501  0.67629309309E+02  0.21869249384E+02 -0.20545929237E+03  0.21740632090E+03  0.00000000000E+00 0.  1.
<scales pt_clust_5="13000.00000" pt_clust_6="13000.00000" pt_clust_7="13000.00000" pt_clust_8="13000.00000" pt_clust_9="71.07733"></scales>
<clustering>
<clus scale="   71.077">  2  9  1 -1</clus>
<clus scale="   86.123">  5  6 -1 -1</clus>
<clus scale="   92.752">  7  8 -1 -1</clus>
<clus scale="  117.739">  2  5  1 -1</clus>
<clus scale="  122.672">  1  5  2 -1</clus>
</clustering>
</event>
<event>
 9    1  0.2333971E-005  0.1389288E+03  0.7546771E-02  0.1233039E+00
         -2   -1    0    0    0  501 -0.00000000000E+00  0.00000000000E+00  0.22878236788E+03  0.22878236788E+03  0.00000000000E+00 0.  1.
          1   -1    0    0  502    0  0.00000000000E+00 -0.00000000000E+00 -0.51699375158E+03  0.51699375158E+03  0.00000000000E+00 0. -1.
         23    2    1    2    0    0  0.10775213550E+02 -0.22445979511E+02  0.24735937021E+02  0.98087779272E+02  0.91593769652E+02 0.  0.
        -24    2    1    2    0    0 -0.56390429848E+02 -0.97931070614E+02 -0.44338609422E+03  0.46442444362E+03  0.79551619182E+02 0.  0.
         11    1    4    4    0    0 -0.71246586351E+02 -0.10042276881E+03 -0.39634820673E+03  0.41503338365E+03  0.00000000000E+00 0. -1.
        -12    1    4    4    0    0  0.14856156504E+02  0.24916981946E+01 -0.47037887488E+02  0.49391059973E+02  0.00000000000E+00 0.  1.
        -13    1    3    3    0    0  0.18205781528E+02 -0.56862677889E+02  0.15852673607E+02  0.61774767326E+02  0.00000000000E+00 0. -1.
         13    1    3    3    0    0 -0.74305679783E+01  0.34416698378E+02  0.88832634137E+01  0.36313011946E+02  0.00000000000E+00 0.  1.
         21    1    1    2  502  501  0.45615216298E+02  0.12037705012E+03  0.13043877350E+03  0.18326389657E+03  0.00000000000E+00 0.  1.
<scales pt_clust_5="13000.00000" pt_clust_6="13000.00000" pt_clust_7="13000.00000" pt_clust_8="13000.00000" pt_clust_9="113.89800"></scales>
<clustering>
<clus scale="   79.552">  5  6 -1 -1</clus>
<clus scale="   91.594">  7  8 -1 -1</clus>
<clus scale="   94.918">  1  7  2 -1</clus>
<clus scale="  113.898">  1  9  2 -1</clus>
<clus scale="  138.929">  2  5  1 -1</clus>
</clustering>
</event>
<event>
 9    1  0.2333971E-005  0.1269328E+03  0.7546771E-02  0.1235677E+00
         -2   -1    0    0    0  501 -0.00000000000E+00  0.00000000000E+00  0.18145853435E+03  0.18145853435E+03  0.00000000000E+00 0.  1.
          1   -1    0    0  502    0  0.00000000000E+00 -0.00000000000E+00 -0.20502091179E+03  0.20502091179E+03  0.00000000000E+00 0. -1.
        -24    2    1    2    0    0 -0.60076663132E+02  0.34473714465E+02  0.68908249528E+02  0.12704080675E+03  0.81199613820E+02 0.  0.
         23    2    1    2    0    0  0.72586828232E+02 -0.52471677803E+02 -0.14974312042E+03  0.19811515757E+03  0.93832238279E+02 0.  0.
         13    1    3    3    0    0 -0.84878658523E+01  0.29021737809E+02 -0.10654743077E+02  0.32059767345E+02  0.00000000000E+00 0. -1.
        -14    1    3    3    0    0 -0.51588797279E+02  0.54519766560E+01  0.79562992605E+02  0.94981039405E+02  0.00000000000E+00 0.  1.
        -11    1    4    4    0    0  0.29462891657E+02 -0.58755201208E+02 -0.13819811091E+03  0.15303252436E+03  0.00000000000E+00 0. -1.
         11    1    4    4    0    0  0.43123936575E+02  0.62835234045E+01 -0.11545009512E+02  0.45082633206E+02  0.00000000000E+00 0.  1.
         21    1    1    2  502  501 -0.12510165100E+02  0.17997963338E+02  0.57272493458E+02  0.61323481816E+02  0.00000000000E+00 0.  1.
<scales pt_clust_5="13000.00000" pt_clust_6="13000.00000" pt_clust_7="13000.00000" pt_clust_8="13000.00000" pt_clust_9="21.91873"></scales>
<clustering>
<clus scale="   21.919">  1  9  2 -1</clus>
<clus scale="   81.200">  5  6 -1 -1</clus>
<clus scale="   93.832">  7  8 -1 -1</clus>
<clus scale="  117.902">  1  5  2 -1</clus>
<clus scale="  126.933">  2  5  1 -1</clus>
</clustering>
</event>
<event>
 9    1  0.2333971E-005  0.9073091E+02  0.7546771E-02  0.1308836E+00
          1   -1    0    0  502    0  0.00000000000E+00  0.00000000000E+00  0.57814619344E+02  0.57814619344E+02  0.00000000000E+00 0. -1.
         -2   -1    0    0    0  501 -0.00000000000E+00 -0.00000000000E+00 -0.37098571017E+03  0.37098571017E+03  0.00000000000E+00 0.  1.
        -24    2    1    2    0    0  0.31046229434E+00  0.87044721229E+01 -0.22369284122E+03  0.24137247730E+03  0.90256974047E+02 0.  0.
         23    2    1    2    0    0  0.10214377347E+02  0.53270034459E+02 -0.79027719339E+02  0.12370324709E+03  0.78198995136E+02 0.  0.
         13    1    3    3    0    0 -0.23946663397E+02  0.27984925465E+02 -0.19718347666E+03  0.20059392366E+03  0.00000000000E+00 0. -1.
        -14    1    3    3    0    0  0.24257125692E+02 -0.19280453342E+02 -0.26509364562E+02  0.40778553645E+02  0.00000000000E+00 0.  1.
        -11    1    4    4    0    0  0.62262630985E+00 -0.20176251606E+02 -0.10310781151E+02  0.22666737753E+02  0.00000000000E+00 0. -1.
         11    1    4    4    0    0  0.95917510369E+01  0.73446286065E+02 -0.68716938188E+02  0.10103650934E+03  0.00000000000E+00 0.  1.
         21    1    1    2  502  501 -0.10524839641E+02 -0.61974506582E+02 -0.10450530268E+02  0.63724605126E+02  0.00000000000E+00 0. -1.
<scales pt_clust_5="13000.00000" pt_clust_6="13000.00000" pt_clust_7="13000.00000" pt_clust_8="13000.00000" pt_clust_9="62.86185"></scales>
<clustering>
<clus scale="   62.862">  1  9  2 -1</clus>
<clus scale="   78.199">  7  8 -1 -1</clus>
<clus scale="   78.746">  1  7  2 -1</clus>
<clus scale="   90.257">  5  6 -1 -1</clus>
<clus scale="   62.862">  1  5  2 -1</clus>
</clustering>
</event>
<event>
 9    1  0.2333971E-005  0.1084534E+03  0.7546771E-02  0.1268883E+00
          1   -1    0    0  502    0  0.00000000000E+00  0.00000000000E+00  0.20898717817E+03  0.20898717817E+03  0.00000000000E+00 0. -1.
         -2   -1    0    0    0  501 -0.00000000000E+00 -0.00000000000E+00 -0.24406089956E+03  0.24406089956E+03  0.00000000000E+00 0.  1.
        -24    2    1    2    0    0 -0.33080504739E+01  0.88004356953E+02 -0.16656464556E+03  0.20449636322E+03  0.79493844923E+02 0.  0.
         23    2    1    2    0    0 -0.27063225770E+02 -0.47704648990E+02  0.15832782453E+03  0.19139666132E+03  0.92503136284E+02 0.  0.
         13    1    3    3    0    0 -0.37988099480E+02  0.33685648313E+02 -0.98172610310E+02  0.11052456749E+03  0.00000000000E+00 0. -1.
        -14    1    3    3    0    0  0.34680049006E+02  0.54318708641E+02 -0.68392035251E+02  0.93971795733E+02  0.00000000000E+00 0.  1.
        -13    1    4    4    0    0 -0.42328881366E+02  0.84672003345E+01  0.37106177962E+02  0.56923598992E+02  0.00000000000E+00 0.  1.
         13    1    4    4    0    0  0.15265655596E+02 -0.56171849324E+02  0.12122164656E+03  0.13447306233E+03  0.00000000000E+00 0. -1.
         21    1    1    2  502  501  0.30371276244E+02 -0.40299707964E+02 -0.26836900358E+02  0.57155053175E+02  0.00000000000E+00 0.  1.
<scales pt_clust_5="13000.00000" pt_clust_6="13000.00000" pt_clust_7="13000.00000" pt_clust_8="13000.00000" pt_clust_9="50.46267"></scales>
<clustering>
<clus scale="   50.463">  2  9  1 -1</clus>
<clus scale="   79.494">  5  6 -1 -1</clus>
<clus scale="   92.503">  7  8 -1 -1</clus>
<clus scale="   97.594">  2  5  1 -1</clus>
<clus scale="  108.453">  1  5  2 -1</clus>
</clustering>
</event>
<event>
 9    1  0.2333971E-005  0.2056454E+03  0.7546771E-02  0.1145926E+00
         -4   -1    0    0    0  501 -0.00000000000E+00  0.00000000000E+00  0.99913395186E+03  0.99913395186E+03  0.00000000000E+00 0.  1.
          3   -1    0    0  502    0  0.00000000000E+00 -0.00000000000E+00 -0.62528792830E+02  0.62528792830E+02  0.00000000000E+00 0. -1.
         23    2    1    2    0    0  0.17383279830E+03 -0.10906179381E+03  0.55217986941E+03  0.59601456544E+03  0.90655597780E+02 0.  0.
        -24    2    1    2    0    0 -0.11783886244E+03  0.13238819285E+03  0.24042854763E+03  0.30939676821E+03  0.80671200307E+02 0.  0.
         11    1    4    4    0    0 -0.85103557816E+02  0.74815332743E+02  0.88892582125E+02  0.14402027886E+03  0.00000000000E+00 0. -1.
        -12    1    4    4    0    0 -0.32735304627E+02  0.57572860106E+02  0.15153596550E+03  0.16537648935E+03  0.00000000000E+00 0.  1.
        -13    1    3    3    0    0  0.16197444049E+03 -0.58276382049E+02  0.41816092274E+03  0.45220616247E+03  0.00000000000E+00 0.  1.
         13    1    3    3    0    0  0.11858357812E+02 -0.50785411765E+02  0.13401894667E+03  0.14380840297E+03  0.00000000000E+00 0. -1.
         21    1    1    2  502  501 -0.55993935854E+02 -0.23326399035E+02  0.14399674199E+03  0.15625141103E+03  0.00000000000E+00 0. -1.
<scales pt_clust_5="13000.00000" pt_clust_6="13000.00000" pt_clust_7="13000.00000" pt_clust_8="13000.00000" pt_clust_9="60.65840"></scales>
<clustering>
<clus scale="   60.658">  1  9  2 -1</clus>
<clus scale="   80.671">  5  6 -1 -1</clus>
<clus scale="   90.656">  7  8 -1 -1</clus>
<clus scale="  201.443">  2  5  1 -1</clus>
<clus scale="  201.443">  2  5  1 -1</clus>
</clustering>
</event>
<event>
 9    1  0.2333971E-005  0.1053400E+03  0.7546771E-02  0.1275850E+00
         -2   -1    0    0    0  501 -0.00000000000E+00  0.00000000000E+00  0.36397531034E+03  0.36397531034E+03  0.00000000000E+00 0.  1.
          1   -1    0    0  502    0  0.00000000000E+00 -0.00000000000E+00 -0.76065369793E+02  0.76065369793E+02  0.00000000000E+00 0. -1.
        -24    2    1    2    0    0 -0.42945982244E+02  0.14849153029E+02  0.26211851306E+03  0.27712166853E+03  0.77623769211E+02 0.  0.
         23    2    1    2    0    0  0.38030535274E+02 -0.36913878991E+02 -0.23513610591E+02  0.10867880022E+03  0.91919723990E+02 0.  0.
         13    1    3    3    0    0 -0.51985435345E+02 -0.90134392945E+01  0.10056329253E+03  0.11356365343E+03  0.00000000000E+00 0. -1.
        -14    1    3    3    0    0  0.90394531008E+01  0.23862592323E+02  0.16155522053E+03  0.16355801510E+03  0.00000000000E+00 0.  1.
        -13    1    4    4    0    0  0.13647601036E+02 -0.17534372744E+02  0.35540371354E+02  0.41914546849E+02  0.00000000000E+00 0.  1.
         13    1    4    4    0    0  0.24382934238E+02 -0.19379506247E+02 -0.59053981945E+02  0.66764253370E+02  0.00000000000E+00 0. -1.
         21    1    1    2  502  501  0.49154469702E+01  0.22064725962E+02  0.49305038086E+02  0.54240211387E+02  0.00000000000E+00 0.  1.
<scales pt_clust_5="13000.00000" pt_clust_6="13000.00000" pt_clust_7="13000.00000" pt_clust_8="13000.00000" pt_clust_9="22.60561"></scales>
<clustering>
<clus scale="   22.606">  1  9  2 -1</clus>
<clus scale="   77.624">  5  6 -1 -1</clus>
<clus scale="   91.920">  7  8 -1 -1</clus>
<clus scale="   93.127">  1  5  2 -1</clus>
<clus scale="  105.340">  2  5  1 -1</clus>
</clustering>
</event>
<event>
 9    1  0.2333971E-005  0.1224220E+03  0.7546771E-02  0.1261138E+00
         -2   -1    0    0    0  501 -0.00000000000E+00  0.00000000000E+00  0.23701814491E+03  0.23701814491E+03  0.00000000000E+00 0.  1.
          1   -1    0    0  502    0  0.00000000000E+00 -0.00000000000E+00 -0.11125930624E+03  0.11125930624E+03  0.00000000000E+00 0. -1.
        -24    2    1    2    0    0 -0.18209038893E+02  0.11251642336E+02  0.73234956067E+02  0.10765968156E+03  0.75954458012E+02 0.  0.
         23    2    1    2    0    0 -0.28741063909E+02 -0.80169939098E+02 -0.26119612928E+02  0.12599297658E+03  0.89099540277E+02 0.  0.
         11    1    3    3    0    0  0.12528013721E+02 -0.24750856163E+02  0.11911022134E+02  0.30189873416E+02  0.00000000000E+00 0. -1.
        -12    1    3    3    0    0 -0.30737052614E+02  0.36002498500E+02  0.61323933933E+02  0.77469808149E+02  0.00000000000E+00 0.  1.
        -11    1    4    4    0    0  0.60551987126E+01 -0.28582489864E+02 -0.51162387136E+02  0.58917009562E+02  0.00000000000E+00 0. -1.
         11    1    4    4    0    0 -0.34796262622E+02 -0.51587449234E+02  0.25042774208E+02  0.67075967015E+02  0.00000000000E+00 0.  1.
         21    1    1    2  502  501  0.46950102802E+02  0.68918296762E+02  0.78643495539E+02  0.11462479301E+03  0.00000000000E+00 0.  1.
<scales pt_clust_5="13000.00000" pt_clust_6="13000.00000" pt_clust_7="13000.00000" pt_clust_8="13000.00000" pt_clust_9="83.95479"></scales>
<clustering>
<clus scale="   75.954">  5  6 -1 -1</clus>
<clus scale="   78.913">  1  5  2 -1</clus>
<clus scale="   83.955">  1  9  2 -1</clus>
<clus scale="   89.100">  7  8 -1 -1</clus>
<clus scale="  122.422">  2  5  1 -1</clus>
</clustering>
</event>
<event>
 9    1  0.2333971E-005  0.1121883E+03  0.7546771E-02  0.1266074E+00
          1   -1    0    0  502    0  0.00000000000E+00  0.00000000000E+00  0.42907041532E+03  0.42907041532E+03  0.00000000000E+00 0. -1.
         -2   -1    0    0    0  501 -0.00000000000E+00 -0.00000000000E+00 -0.10831243073E+03  0.10831243073E+03  0.00000000000E+00 0.  1.
         23    2    1    2    0    0  0.18123283705E+01  0.41823261476E+02 -0.34857457400E+02  0.11564168464E+03  0.10200728972E+03 0.  0.
        -24    2    1    2    0    0  0.48540500153E+02 -0.51428504846E+02  0.62299470492E+02  0.12397963405E+03  0.80552184147E+02 0.  0.
         13    1    4    4    0    0  0.15797127756E+02 -0.68475342343E+02  0.41117028287E+02  0.81418866176E+02  0.00000000000E+00 0. -1.
        -14    1    4    4    0    0  0.32743372397E+02  0.17046837497E+02  0.21182442205E+02  0.42560767878E+02  0.00000000000E+00 0.  1.
        -11    1    3    3    0    0  0.47590154342E+02  0.43127570602E+02 -0.24110358243E+02  0.68601162607E+02  0.00000000000E+00 0.  1.
         11    1    3    3    0    0 -0.45777825972E+02 -0.13043091263E+01 -0.10747099157E+02  0.47040522035E+02  0.00000000000E+00 0. -1.
         21    1    1    2  502  501 -0.50352828523E+02  0.96052433699E+01  0.29331597150E+03  0.29776152736E+03  0.00000000000E+00 0. -1.
<scales pt_clust_5="13000.00000" pt_clust_6="13000.00000" pt_clust_7="13000.00000" pt_clust_8="13000.00000" pt_clust_9="51.26078"></scales>
<clustering>
<clus scale="   51.261">  1  9  2 -1</clus>
<clus scale="   80.552">  5  6 -1 -1</clus>
<clus scale="   93.110">  1  5  2 -1</clus>
<clus scale="  102.007">  7  8 -1 -1</clus>
<clus scale="   51.261">  1  5  2 -1</clus>
</clustering>
</event>
<event>
 9    1  0.2333971E-005  0.9741299E+02  0.7546771E-02  0.1294376E+00
          1   -1    0    0  502    0  0.00000000000E+00  0.00000000000E+00  0.17045409075E+03  0.17045409075E+03  0.00000000000E+00 0. -1.
         -2   -1    0    0    0  501 -0.00000000000E+00 -0.00000000000E+00 -0.30340704574E+03  0.30340704574E+03  0.00000000000E+00 0.  1.
        -24    2    1    2    0    0 -0.34710390049E+02  0.44486933133E+01 -0.20063589837E+03  0.21840588587E+03  0.78878166931E+02 0.  0.
         23    2    1    2    0    0 -0.21491633146E+02  0.20922075438E+02  0.13304729005E+03  0.16559513081E+03  0.93917742856E+02 0.  0.
         11    1    3    3    0    0 -0.48505743318E+02  0.24062790266E+02 -0.88623303051E+02  0.10385525915E+03  0.00000000000E+00 0. -1.
        -12    1    3    3    0    0  0.13795353269E+02 -0.19614096952E+02 -0.11201259532E+03  0.11455062672E+03  0.00000000000E+00 0.  1.
        -11    1    4    4    0    0 -0.30196070485E+02 -0.32186387973E+02  0.69407921699E+02  0.82250992930E+02  0.00000000000E+00 0.  1.
         11    1    4    4    0    0  0.87044373384E+01  0.53108463410E+02  0.63639368347E+02  0.83344137879E+02  0.00000000000E+00 0. -1.
         21    1    1    2  502  501  0.56202023195E+02 -0.25370768751E+02 -0.65364346668E+02  0.89860119817E+02  0.00000000000E+00 0. -1.
<scales pt_clust_5="13000.00000" pt_clust_6="13000.00000" pt_clust_7="13000.00000" pt_clust_8="13000.00000" pt_clust_9="61.66314"></scales>
<clustering>
<clus scale="   61.663">  2  9  1 -1</clus>
<clus scale="   78.878">  5  6 -1 -1</clus>
<clus scale="   83.009">  2  5  1 -1</clus>
<clus scale="   93.918">  7  8 -1 -1</clus>
<clus scale="   97.413">  1  5  2 -1</clus>
</clustering>
</event>
<event>
 9    1  0.2333971E-005  0.1202460E+03  0.7546771E-02  0.1245054E+00
          1   -1    0    0  502    0  0.00000000000E+00  0.00000000000E+00  0.54107118288E+03  0.54107118288E+03  0.00000000000E+00 0. -1.
         -2   -1    0    0    0  501 -0.00000000000E+00 -0.00000000000E+00 -0.46872429170E+02  0.46872429170E+02  0.00000000000E+00 0.  1.
        -24    2    1    2    0    0 -0.36987244774E+02 -0.90779355692E+02  0.10253174453E+03  0.16235599682E+03  0.78979512365E+02 0.  0.
         23    2    1    2    0    0  0.23577505877E+02  0.75234520300E+02  0.38718460804E+03  0.40457440689E+03  0.86904534846E+02 0.  0.
         11    1    3    3    0    0  0.21683001395E+02 -0.48596636322E+02  0.37073791808E+02  0.64855621579E+02  0.00000000000E+00 0. -1.
        -12    1    3    3    0    0 -0.58670246169E+02 -0.42182719369E+02  0.65457952718E+02  0.97500375245E+02  0.00000000000E+00 0.  1.
        -11    1    4    4    0    0 -0.20441312728E+02  0.14138334430E+02  0.27396857573E+02  0.36990912011E+02  0.00000000000E+00 0.  1.
         11    1    4    4    0    0  0.44018818605E+02  0.61096185870E+02  0.35978775047E+03  0.36758349488E+03  0.00000000000E+00 0. -1.
         21    1    1    2  502  501  0.13409738897E+02  0.15544835392E+02  0.44824011430E+01  0.21013208338E+02  0.00000000000E+00 0.  1.
<scales pt_clust_5="13000.00000" pt_clust_6="13000.00000" pt_clust_7="13000.00000" pt_clust_8="13000.00000" pt_clust_9="20.52956"></scales>
<clustering>
<clus scale="   20.530">  2  9  1 -1</clus>
<clus scale="   78.980">  5  6 -1 -1</clus>
<clus scale="   86.905">  7  8 -1 -1</clus>
<clus scale="  114.649">  2  5  1 -1</clus>
<clus scale="  120.246">  1  5  2 -1</clus>
</clustering>
</event>
<event>
 9    1  0.2333971E-005  0.1149222E+03  0.7546771E-02  0.1268167E+00
         -2   -1    0    0    0  501 -0.00000000000E+00  0.00000000000E+00  0.14204402289E+03  0.14204402289E+03  0.00000000000E+00 0.  1.
          1   -1    0    0  502    0  0.00000000000E+00 -0.00000000000E+00 -0.21551224262E+03  0.21551224262E+03  0.00000000000E+00 0. -1.
        -24    2    1    2    0    0  0.45165379192E+02 -0.60228573043E+00  0.31685647370E+02  0.97272931939E+02  0.80110978106E+02 0.  0.
         23    2    1    2    0    0 -0.93799032836E+01  0.17900797163E+02 -0.15738810416E+03  0.19464604001E+03  0.11272818830E+03 0.  0.
         13    1    3    3    0    0  0.41675451638E+02 -0.93587972082E+01 -0.18254759162E+02  0.46450689839E+02  0.00000000000E+00 0. -1.
        -14    1    3    3    0    0  0.34899275538E+01  0.87565114778E+01  0.49940406532E+02  0.50822242101E+02  0.00000000000E+00 0.  1.
        -11    1    4    4    0    0 -0.58081762487E+00  0.63935728674E+02 -0.65718119631E+02  0.91689617722E+02  0.00000000000E+00 0. -1.
         11    1    4    4    0    0 -0.87990856587E+01 -0.46034931510E+02 -0.91669984527E+02  0.10295642229E+03  0.00000000000E+00 0.  1.
         21    1    1    2  502  501 -0.35785475908E+02 -0.17298511433E+02  0.52234237059E+02  0.65637293553E+02  0.00000000000E+00 0. -1.
<scales pt_clust_5="13000.00000" pt_clust_6="13000.00000" pt_clust_7="13000.00000" pt_clust_8="13000.00000" pt_clust_9="39.74719"></scales>
<clustering>
<clus scale="   39.747">  1  9  2 -1</clus>
<clus scale="   80.111">  5  6 -1 -1</clus>
<clus scale="   83.170">  1  5  2 -1</clus>
<clus scale="  112.728">  7  8 -1 -1</clus>
<clus scale="  114.922">  2  5  1 -1</clus>
</clustering>
</event>
<event>
 9    1  0.2333971E-005  0.9925447E+02  0.7546771E-02  0.1288787E+00
         -2   -1    0    0    0  501 -0.00000000000E+00  0.00000000000E+00  0.72819838415E+02  0.72819838415E+02  0.00000000000E+00 0.  1.
          1   -1    0    0  502    0  0.00000000000E+00 -0.00000000000E+00 -0.27456971680E+03  0.27456971680E+03  0.00000000000E+00 0. -1.
        -24    2    1    2    0    0  0.52579294195E+02  0.11718692432E+02 -0.61771181653E+02  0.11519769931E+03  0.80950114961E+02 0.  0.
         23    2    1    2    0    0 -0.20705732669E+02  0.15684384129E+02 -0.15866923206E+03  0.18618980552E+03  0.93893509920E+02 0.  0.
         11    1    3    3    0    0 -0.32398661375E-01  0.36407704337E+02 -0.11015576941E+02  0.38037677638E+02  0.00000000000E+00 0. -1.
        -12    1    3    3    0    0  0.52611692857E+02 -0.24689011904E+02 -0.50755604712E+02  0.77160021668E+02  0.00000000000E+00 0.  1.
        -11    1    4    4    0    0 -0.57265957905E+02  0.23637174573E+01 -0.79867101202E+02  0.98304277371E+02  0.00000000000E+00 0. -1.
         11    1    4    4    0    0  0.36560225235E+02  0.13320666672E+02 -0.78802130857E+02  0.87885528145E+02  0.00000000000E+00 0.  1.
         21    1    1    2  502  501 -0.31873561526E+02 -0.27403076561E+02  0.18690535328E+02  0.46002050392E+02  0.00000000000E+00 0. -1.
<scales pt_clust_5="13000.00000" pt_clust_6="13000.00000" pt_clust_7="13000.00000" pt_clust_8="13000.00000" pt_clust_9="42.03394"></scales>
<clustering>
<clus scale="   42.034">  1  9  2 -1</clus>
<clus scale="   80.950">  5  6 -1 -1</clus>
<clus scale="   87.111">  1  5  2 -1</clus>
<clus scale="   93.894">  7  8 -1 -1</clus>
<clus scale="   99.254">  2  5  1 -1</clus>
</clustering>
</event>
<event>
 9    1  0.2333971E-005  0.1242196E+03  0.7546771E-02  0.1247070E+00
          1   -1    0    0  502    0  0.00000000000E+00  0.00000000000E+00  0.60321438623E+02  0.60321438623E+02  0.00000000000E+00 0. -1.
         -2   -1    0    0    0  501 -0.00000000000E+00 -0.00000000000E+00 -0.78125922176E+03  0.78125922176E+03  0.00000000000E+00 0.  1.
        -24    2    1    2    0    0 -0.69840428145E+02  0.18729035103E+02 -0.20873839004E+03  0.23572296030E+03  0.82250449073E+02 0.  0.
         23    2    1    2    0    0 -0.13439846875E+02  0.41322958247E+02 -0.18457614385E+02  0.10155343662E+03  0.89912182699E+02 0.  0.
         11    1    3    3    0    0 -0.71510744224E+02  0.43750094211E+02 -0.17050478509E+03  0.18999931321E+03  0.00000000000E+00 0. -1.
        -12    1    3    3    0    0  0.16703160792E+01 -0.25021059108E+02 -0.38233604957E+02  0.45723647084E+02  0.00000000000E+00 0.  1.
        -11    1    4    4    0    0  0.13468062631E+02  0.63239228318E+02 -0.16827387218E+02  0.66811298969E+02  0.00000000000E+00 0. -1.
         11    1    4    4    0    0 -0.26907909506E+02 -0.21916270071E+02 -0.16302271672E+01  0.34742137649E+02  0.00000000000E+00 0.  1.
         21    1    1    2  502  501  0.83280275020E+02 -0.60051993350E+02 -0.49374177871E+03  0.50430426347E+03  0.00000000000E+00 0.  1.
<scales pt_clust_5="13000.00000" pt_clust_6="13000.00000" pt_clust_7="13000.00000" pt_clust_8="13000.00000" pt_clust_9="93.08796"></scales>
<clustering>
<clus scale="   82.250">  5  6 -1 -1</clus>
<clus scale="   89.912">  7  8 -1 -1</clus>
<clus scale="   99.862">  1  7  2 -1</clus>
<clus scale="   93.088">  2  9  1 -1</clus>
<clus scale="   99.862">  1  5  2 -1</clus>
</clustering>
</event>
<event>
 9    1  0.2333971E-005  0.2080951E+03  0.7546771E-02  0.1144500E+00
          1   -1    0    0  502    0  0.00000000000E+00  0.00000000000E+00  0.23574761954E+03  0.23574761954E+03  0.00000000000E+00 0. -1.
         -2   -1    0    0    0  501 -0.00000000000E+00 -0.00000000000E+00 -0.22132866434E+03  0.22132866434E+03  0.00000000000E+00 0.  1.
         23    2    1    2    0    0 -0.45076221767E+02 -0.19880264208E+03 -0.23475457919E+02  0.22691997397E+03  0.96887673084E+02 0.  0.
        -24    2    1    2    0    0  0.46303370199E+02  0.16618646181E+03  0.47027685039E+02  0.19626327574E+03  0.80905673864E+02 0.  0.
         13    1    4    4    0    0  0.49841963106E+02  0.58627406895E+02  0.43917658184E+02  0.88601099462E+02  0.00000000000E+00 0. -1.
        -14    1    4    4    0    0 -0.35385929074E+01  0.10755905491E+03  0.31100268548E+01  0.10766217628E+03  0.00000000000E+00 0.  1.
        -11    1    3    3    0    0 -0.39987799999E+02 -0.14153558282E+03  0.28038542160E+02  0.14972476481E+03  0.00000000000E+00 0.  1.
         11    1    3    3    0    0 -0.50884217676E+01 -0.57267059267E+02 -0.51514000079E+02  0.77195209161E+02  0.00000000000E+00 0. -1.
         21    1    1    2  502  501 -0.12271484322E+01  0.32616180277E+02 -0.91332719211E+01  0.33893034168E+02  0.00000000000E+00 0.  1.
<scales pt_clust_5="13000.00000" pt_clust_6="13000.00000" pt_clust_7="13000.00000" pt_clust_8="13000.00000" pt_clust_9="32.63926"></scales>
<clustering>
<clus scale="   32.639">  2  9  1 -1</clus>
<clus scale="   80.906">  5  6 -1 -1</clus>
<clus scale="   96.888">  7  8 -1 -1</clus>
<clus scale="  201.152">  1  5  2 -1</clus>
<clus scale="  201.152">  1  5  2 -1</clus>
</clustering>
</event>
<event>
 9    1  0.2333971E-005  0.1563931E+03  0.7546771E-02  0.1194709E+00
          1   -1    0    0  502    0  0.00000000000E+00  0.00000000000E+00  0.43698324300E+03  0.43698324300E+03  0.00000000000E+00 0. -1.
         -2   -1    0    0    0  501 -0.00000000000E+00 -0.00000000000E+00 -0.10829619482E+03  0.10829619482E+03  0.00000000000E+00 0.  1.
         23    2    1    2    0    0  0.52346951738E+01  0.11828118768E+03  0.71262214077E+01  0.14977813656E+03  0.91459640098E+02 0.  0.
        -24    2    1    2    0    0  0.18734649069E+02 -0.15988931342E+03  0.27520535503E+03  0.32875854621E+03  0.80178642065E+02 0.  0.
         11    1    4    4    0    0  0.38900485484E+02 -0.15286667187E+03  0.25130939489E+03  0.29671177782E+03  0.00000000000E+00 0. -1.
        -12    1    4    4    0    0 -0.20165836415E+02 -0.70226415542E+01  0.23895960141E+02  0.32046768383E+02  0.00000000000E+00 0.  1.
        -11    1    3    3    0    0 -0.13290365665E+02  0.17792149173E+02 -0.33186143744E+02  0.39931372733E+02  0.00000000000E+00 0.  1.
         11    1    3    3    0    0  0.18525060838E+02  0.10048903850E+03  0.40312365152E+02  0.10984676382E+03  0.00000000000E+00 0. -1.
         21    1    1    2  502  501 -0.23969344242E+02  0.41608125747E+02  0.46355471741E+02  0.66742755052E+02  0.00000000000E+00 0.  1.
<scales pt_clust_5="13000.00000" pt_clust_6="13000.00000" pt_clust_7="13000.00000" pt_clust_8="13000.00000" pt_clust_9="48.01839"></scales>
<clustering>
<clus scale="   48.018">  1  9  2 -1</clus>
<clus scale="   80.179">  5  6 -1 -1</clus>
<clus scale="   91.460">  7  8 -1 -1</clus>
<clus scale="  150.075">  1  5  2 -1</clus>
<clus scale="   48.018">  1  5  2 -1</clus>
</clustering>
</event>
<event>
 9    1  0.2333971E-005  0.1118326E+03  0.7546771E-02  0.1279586E+00
          1   -1    0    0  502    0  0.00000000000E+00  0.00000000000E+00  0.10921333352E+03  0.10921333352E+03  0.00000000000E+00 0. -1.
         -2   -1    0    0    0  501 -0.00000000000E+00 -0.00000000000E+00 -0.23295540035E+03  0.23295540035E+03  0.00000000000E+00 0.  1.
         23    2    1    2    0    0  0.43083328056E+02  0.41089300485E+02 -0.15680936197E+03  0.19124957470E+03  0.91884275316E+02 0.  0.
        -24    2    1    2    0    0  0.80295858786E+01  0.12542855546E+02  0.23667724806E+02  0.76237902799E+02  0.70924319884E+02 0.  0.
         13    1    4    4    0    0 -0.24477144967E+02 -0.35455675493E+01 -0.10068502858E+02  0.26703490872E+02  0.00000000000E+00 0. -1.
        -14    1    4    4    0    0  0.32506730845E+02  0.16088423096E+02  0.33736227663E+02  0.49534411927E+02  0.00000000000E+00 0.  1.
        -11    1    3    3    0    0  0.36980881005E+02 -0.15109560721E+02 -0.23254742267E+02  0.46224100024E+02  0.00000000000E+00 0. -1.
         11    1    3    3    0    0  0.61024470513E+01  0.56198861206E+02 -0.13355461970E+03  0.14502547467E+03  0.00000000000E+00 0.  1.
         21    1    1    2  502  501 -0.51112913935E+02 -0.53632156031E+02  0.93995703339E+01  0.74681256376E+02  0.00000000000E+00 0. -1.
<scales pt_clust_5="13000.00000" pt_clust_6="13000.00000" pt_clust_7="13000.00000" pt_clust_8="13000.00000" pt_clust_9="63.74795"></scales>
<clustering>
<clus scale="   70.924">  5  6 -1 -1</clus>
<clus scale="   72.471">  1  5  2 -1</clus>
<clus scale="   63.748">  1  9  2 -1</clus>
<clus scale="   91.884">  7  8 -1 -1</clus>
<clus scale="   72.471">  1  5  2 -1</clus>
</clustering>
</event>
<event>
 9    1  0.2333971E-005  0.9155125E+02  0.7546771E-02  0.1301408E+00
          1   -1    0    0  502    0  0.00000000000E+00  0.00000000000E+00  0.19740488078E+03  0.19740488078E+03  0.00000000000E+00 0. -1.
         -2   -1    0    0    0  501 -0.00000000000E+00 -0.00000000000E+00 -0.33182709296E+03  0.33182709296E+03  0.00000000000E+00 0.  1.
         23    2    1    2    0    0 -0.68417856974E+01 -0.14968177246E+02 -0.16389308577E+03  0.18455298087E+03  0.83234625136E+02 0.  0.
        -24    2    1    2    0    0  0.39690846415E+02 -0.62315266176E+01  0.17380973701E+03  0.19513904595E+03  0.79089995345E+02 0.  0.
         13    1    4    4    0    0  0.44100150363E+02  0.27761336809E+02  0.12564042384E+03  0.13601849575E+03  0.00000000000E+00 0. -1.
        -14    1    4    4    0    0 -0.44093039477E+01 -0.33992863426E+02  0.48169313165E+02  0.59120550200E+02  0.00000000000E+00 0.  1.
        -11    1    3    3    0    0 -0.22495638165E+02  0.18332833371E+02 -0.13410882936E+03  0.13721269849E+03  0.00000000000E+00 0.  1.
         11    1    3    3    0    0  0.15653852468E+02 -0.33301010617E+02 -0.29784256415E+02  0.47340282376E+02  0.00000000000E+00 0. -1.
         21    1    1    2  502  501 -0.32849060718E+02  0.21199703863E+02 -0.14433886342E+03  0.14953994692E+03  0.00000000000E+00 0.  1.
<scales pt_clust_5="13000.00000" pt_clust_6="13000.00000" pt_clust_7="13000.00000" pt_clust_8="13000.00000" pt_clust_9="39.09589"></scales>
<clustering>
<clus scale="   39.096">  2  9  1 -1</clus>
<clus scale="   79.090">  5  6 -1 -1</clus>
<clus scale="   83.235">  7  8 -1 -1</clus>
<clus scale="   87.800">  1  5  2 -1</clus>
<clus scale="   87.800">  1  5  2 -1</clus>
</clustering>
</event>
<event>
 9    1  0.2333971E-005  0.2721940E+03  0.7546771E-02  0.1100545E+00
         -4   -1    0    0    0  501 -0.00000000000E+00  0.00000000000E+00  0.21182361974E+03  0.21182361974E+03  0.00000000000E+00 0.  1.
          3   -1    0    0  502    0  0.00000000000E+00 -0.00000000000E+00 -0.46200250465E+03  0.46200250465E+03  0.00000000000E+00 0. -1.
         23    2    1    2    0    0 -0.17093987846E+03  0.13458887077E+03 -0.74811840024E+01  0.23640528378E+03  0.92178543617E+02 0.  0.
        -24    2    1    2    0    0  0.23336249818E+03 -0.15552070118E+03 -0.22695274990E+03  0.36972572660E+03  0.80900050487E+02 0.  0.
         11    1    4    4    0    0  0.14789564648E+03 -0.14009639789E+03 -0.14268299020E+03  0.24871380871E+03  0.00000000000E+00 0. -1.
        -12    1    4    4    0    0  0.85466851700E+02 -0.15424303290E+02 -0.84269759700E+02  0.12101191789E+03  0.00000000000E+00 0.  1.
        -11    1    3    3    0    0 -0.13133459877E+03  0.59417811603E+02  0.23328352287E+02  0.14602556348E+03  0.00000000000E+00 0.  1.
         11    1    3    3    0    0 -0.39605279691E+02  0.75171059165E+02 -0.30809536289E+02  0.90379720301E+02  0.00000000000E+00 0. -1.
         21    1    1    2  502  501 -0.62422619726E+02  0.20931830414E+02 -0.15744951012E+02  0.67695114006E+02  0.00000000000E+00 0. -1.
<scales pt_clust_5="13000.00000" pt_clust_6="13000.00000" pt_clust_7="13000.00000" pt_clust_8="13000.00000" pt_clust_9="65.83863"></scales>
<clustering>
<clus scale="   65.839">  1  9  2 -1</clus>
<clus scale="   80.900">  5  6 -1 -1</clus>
<clus scale="   92.179">  7  8 -1 -1</clus>
<clus scale="  268.584">  2  5  1 -1</clus>
<clus scale="  268.584">  2  5  1 -1</clus>
</clustering>
</event>
<event>
 9    1  0.2333971E-005  0.2727468E+03  0.7546771E-02  0.1099945E+00
         -2   -1    0    0    0  501 -0.00000000000E+00  0.00000000000E+00  0.48522622044E+03  0.48522622044E+03  0.00000000000E+00 0.  1.
          1   -1    0    0  502    0  0.00000000000E+00 -0.00000000000E+00 -0.26886559531E+03  0.26886559531E+03  0.00000000000E+00 0. -1.
        -24    2    1    2    0    0 -0.18475920853E+03  0.94782928935E+02  0.24055357181E+03  0.32716218870E+03  0.77777297786E+02 0.  0.
         23    2    1    2    0    0  0.27745367363E+03 -0.52918307214E+02 -0.87438023447E+02  0.30715963854E+03  0.83191029280E+02 0.  0.
         11    1    3    3    0    0 -0.13280398413E+02  0.24924246244E+02  0.69664752068E+01  0.29088121452E+02  0.00000000000E+00 0. -1.
        -12    1    3    3    0    0 -0.17147881012E+03  0.69858682691E+02  0.23358709661E+03  0.29807406725E+03  0.00000000000E+00 0.  1.
        -11    1    4    4    0    0  0.13500625532E+02  0.15952458550E+02 -0.12137523922E+02  0.24167484572E+02  0.00000000000E+00 0.  1.
         11    1    4    4    0    0  0.26395304810E+03 -0.68870765764E+02 -0.75300499525E+02  0.28299215397E+03  0.00000000000E+00 0. -1.
         21    1    1    2  502  501 -0.92694465100E+02 -0.41864621721E+02  0.63245076766E+02  0.11976998851E+03  0.00000000000E+00 0.  1.
<scales pt_clust_5="13000.00000" pt_clust_6="13000.00000" pt_clust_7="13000.00000" pt_clust_8="13000.00000" pt_clust_9="101.70993"></scales>
<clustering>
<clus scale="   77.777">  5  6 -1 -1</clus>
<clus scale="   83.191">  7  8 -1 -1</clus>
<clus scale="  101.710">  1  9  2 -1</clus>
<clus scale="  271.145">  1  5  2 -1</clus>
<clus scale="  272.747">  2  5  1 -1</clus>
</clustering>
</event>
<event>
 9    1  0.2333971E-005  0.9945862E+02  0.7546771E-02  0.1286799E+00
         -2   -1    0    0    0  501 -0.00000000000E+00  0.00000000000E+00  0.84295099884E+02  0.84295099884E+02  0.00000000000E+00 0.  1.
          1   -1    0    0  502    0  0.00000000000E+00 -0.00000000000E+00 -0.48337657302E+03  0.48337657302E+03  0.00000000000E+00 0. -1.
        -24    2    1    2    0    0 -0.20731760274E+02  0.36896325445E+01 -0.62504817477E+01  0.83671242827E+02  0.80736541180E+02 0.  0.
         23    2    1    2    0    0  0.41479505674E+02  0.91800441676E+01 -0.42883609269E+03  0.44049796075E+03  0.91286562166E+02 0.  0.
         13    1    3    3    0    0  0.18849005088E+02 -0.26609984263E+02  0.37718434630E+01  0.32826864888E+02  0.00000000000E+00 0. -1.
        -14    1    3    3    0    0 -0.39580765362E+02  0.30299616808E+02 -0.10022325211E+02  0.50844377938E+02  0.00000000000E+00 0.  1.
        -13    1    4    4    0    0 -0.12366757280E+02  0.32890758940E+02 -0.90463472581E+02  0.97048331159E+02  0.00000000000E+00 0.  1.
         13    1    4    4    0    0  0.53846262954E+02 -0.23710714772E+02 -0.33837262011E+03  0.34344962959E+03  0.00000000000E+00 0. -1.
         21    1    1    2  502  501 -0.20747745401E+02 -0.12869676712E+02  0.36005101300E+02  0.43502469327E+02  0.00000000000E+00 0.  1.
<scales pt_clust_5="13000.00000" pt_clust_6="13000.00000" pt_clust_7="13000.00000" pt_clust_8="13000.00000" pt_clust_9="24.41511"></scales>
<clustering>
<clus scale="   24.415">  1  9  2 -1</clus>
<clus scale="   80.737">  5  6 -1 -1</clus>
<clus scale="   89.873">  1  5  2 -1</clus>
<clus scale="   91.287">  7  8 -1 -1</clus>
<clus scale="   99.459">  2  5  1 -1</clus>
</clustering>
</event>
<event>
 9    1  0.2333971E-005  0.1132793E+03  0.7546771E-02  0.1258466E+00
          1   -1    0    0  502    0  0.00000000000E+00  0.00000000000E+00  0.17145109714E+03  0.17145109714E+03  0.00000000000E+00 0. -1.
         -2   -1    0    0    0  501 -0.00000000000E+00 -0.00000000000E+00 -0.21837258914E+03  0.21837258914E+03  0.00000000000E+00 0.  1.
         23    2    1    2    0    0  0.17708404677E+02  0.55743176378E+02 -0.97046507026E+02  0.14474903458E+03  0.90074242591E+02 0.  0.
        -24    2    1    2    0    0  0.30976226452E+02 -0.12431216800E+03  0.55986628686E+02  0.16077602516E+03  0.79381269552E+02 0.  0.
         11    1    4    4    0    0 -0.12305794840E+02 -0.32794088827E+02  0.47729608563E+02  0.59203043690E+02  0.00000000000E+00 0. -1.
        -12    1    4    4    0    0  0.43282021291E+02 -0.91518079177E+02  0.82570201224E+01  0.10157298147E+03  0.00000000000E+00 0.  1.
        -11    1    3    3    0    0 -0.30411014873E+02  0.47571575205E+02 -0.37613005969E+02  0.67842632696E+02  0.00000000000E+00 0.  1.
         11    1    3    3    0    0  0.48119419550E+02  0.81716011721E+01 -0.59433501057E+02  0.76906401888E+02  0.00000000000E+00 0. -1.
         21    1    1    2  502  501 -0.48684631129E+02  0.68568991626E+02 -0.58616136605E+01  0.84298626533E+02  0.00000000000E+00 0.  1.
<scales pt_clust_5="13000.00000" pt_clust_6="13000.00000" pt_clust_7="13000.00000" pt_clust_8="13000.00000" pt_clust_9="84.09459"></scales>
<clustering>
<clus scale="   79.381">  5  6 -1 -1</clus>
<clus scale="   84.095">  1  9  2 -1</clus>
<clus scale="   90.074">  7  8 -1 -1</clus>
<clus scale="  104.977">  1  5  2 -1</clus>
<clus scale="   84.095">  1  5  2 -1</clus>
</clustering>
</event>
<event>
 9    1  0.2333971E-005  0.9612509E+02  0.7546771E-02  0.1295076E+00
         -2   -1    0    0    0  501 -0.00000000000E+00  0.00000000000E+00  0.32378536862E+02  0.32378536862E+02  0.00000000000E+00 0.  1.
          1   -1    0    0  502    0  0.00000000000E+00 -0.00000000000E+00 -0.38992609522E+03  0.38992609522E+03  0.00000000000E+00 0. -1.
         23    2    1    2    0    0  0.36251579564E+01 -0.12517023536E+02 -0.98886609103E+02  0.13548078847E+03  0.91687866898E+02 0.  0.
        -24    2    1    2    0    0 -0.17750399004E+02  0.30887882393E+02 -0.24421699266E+03  0.25951745660E+03  0.80238599387E+02 0.  0.
         11    1    4    4    0    0  0.46027687236E+01  0.45981370527E+02 -0.21434813402E+03  0.21927287674E+03  0.00000000000E+00 0. -1.
        -12    1    4    4    0    0 -0.22353167727E+02 -0.15093488134E+02 -0.29868858637E+02  0.40244579856E+02  0.00000000000E+00 0.  1.
        -11    1    3    3    0    0 -0.36464548541E+02 -0.31282649990E+02 -0.56903081031E+02  0.74473002635E+02  0.00000000000E+00 0.  1.
         11    1    3    3    0    0  0.40089706497E+02  0.18765626453E+02 -0.41983528073E+02  0.61007785836E+02  0.00000000000E+00 0. -1.
         21    1    1    2  502  501  0.14125241047E+02 -0.18370858856E+02 -0.14443956598E+02  0.27306387018E+02  0.00000000000E+00 0.  1.
<scales pt_clust_5="13000.00000" pt_clust_6="13000.00000" pt_clust_7="13000.00000" pt_clust_8="13000.00000" pt_clust_9="23.17350"></scales>
<clustering>
<clus scale="   23.173">  1  9  2 -1</clus>
<clus scale="   80.239">  5  6 -1 -1</clus>
<clus scale="   85.274">  2  5  1 -1</clus>
<clus scale="   91.688">  7  8 -1 -1</clus>
<clus scale="   85.274">  2  5  1 -1</clus>
</clustering>
</event>
<event>
 9    1  0.2333971E-005  0.1518519E+03  0.7546771E-02  0.1200229E+00
         -2   -1    0    0    0  501 -0.00000000000E+00  0.00000000000E+00  0.51725531392E+03  0.51725531392E+03  0.00000000000E+00 0.  1.
          1   -1    0    0  502    0  0.00000000000E+00 -0.00000000000E+00 -0.15668933704E+03  0.15668933704E+03  0.00000000000E+00 0. -1.
        -24    2    1    2    0    0  0.19931283026E+02  0.70173146865E+02  0.63137255061E+02  0.12553604637E+03  0.80320977190E+02 0.  0.
         23    2    1    2    0    0 -0.14965472619E+02 -0.15607853767E+03 -0.51732884546E+02  0.18880017476E+03  0.91568222401E+02 0.  0.
         11    1    3    3    0    0 -0.14492443602E+02  0.46745745038E+02 -0.11355075183E+01  0.48953906668E+02  0.00000000000E+00 0. -1.
        -12    1    3    3    0    0  0.34423726628E+02  0.23427401828E+02  0.64272762579E+02  0.76582139699E+02  0.00000000000E+00 0.  1.
        -11    1    4    4    0    0 -0.84598404734E+01 -0.11786539763E+03 -0.78345582957E+02  0.14178099741E+03  0.00000000000E+00 0. -1.
         11    1    4    4    0    0 -0.65056321461E+01 -0.38213140043E+02  0.26612698411E+02  0.47019177346E+02  0.00000000000E+00 0.  1.
         21    1    1    2  502  501 -0.49658104064E+01  0.85905390805E+02  0.34916160637E+03  0.35960842983E+03  0.00000000000E+00 0.  1.
<scales pt_clust_5="13000.00000" pt_clust_6="13000.00000" pt_clust_7="13000.00000" pt_clust_8="13000.00000" pt_clust_9="86.04880"></scales>
<clustering>
<clus scale="   80.321">  5  6 -1 -1</clus>
<clus scale="   86.049">  1  9  2 -1</clus>
<clus scale="   91.568">  7  8 -1 -1</clus>
<clus scale="  145.347">  1  5  2 -1</clus>
<clus scale="  151.852">  2  5  1 -1</clus>
</clustering>
</event>
<event>
 9    1  0.2333971E-005  0.1186205E+03  0.7546771E-02  0.1248287E+00
          1   -1    0    0  502    0  0.00000000000E+00  0.00000000000E+00  0.79042375688E+02  0.79042375688E+02  0.00000000000E+00 0. -1.
         -2   -1    0    0    0  501 -0.00000000000E+00 -0.00000000000E+00 -0.32012104394E+03  0.32012104394E+03  0.00000000000E+00 0.  1.
         23    2    1    2    0    0 -0.38159488764E+02 -0.73054100101E+02 -0.97476314546E+02  0.15650679762E+03  0.90552182076E+02 0.  0.
        -24    2    1    2    0    0 -0.12900823860E+01  0.76969336493E+02 -0.21399196901E+02  0.11418402076E+03  0.81572801198E+02 0.  0.
         13    1    4    4    0    0  0.22641207330E+01  0.35747494146E+02  0.31033460638E+02  0.47392881951E+02  0.00000000000E+00 0. -1.
        -14    1    4    4    0    0 -0.35542031190E+01  0.41221842347E+02 -0.52432657539E+02  0.66791138805E+02  0.00000000000E+00 0.  1.
        -13    1    3    3    0    0 -0.53378623278E+02 -0.62145950689E+01 -0.46762675642E+02  0.71236552753E+02  0.00000000000E+00 0. -1.
         13    1    3    3    0    0  0.15219134514E+02 -0.66839505032E+02 -0.50713638904E+02  0.85270244865E+02  0.00000000000E+00 0.  1.
         21    1    1    2  502  501  0.39449571150E+02 -0.39152363917E+01 -0.12220315680E+03  0.12847260125E+03  0.00000000000E+00 0.  1.
<scales pt_clust_5="13000.00000" pt_clust_6="13000.00000" pt_clust_7="13000.00000" pt_clust_8="13000.00000" pt_clust_9="39.64338"></scales>
<clustering>
<clus scale="   39.643">  2  9  1 -1</clus>
<clus scale="   81.573">  5  6 -1 -1</clus>
<clus scale="   90.552">  7  8 -1 -1</clus>
<clus scale="  111.916">  1  5  2 -1</clus>
<clus scale="  111.916">  1  5  2 -1</clus>
</clustering>
</event>
<event>
 9    1  0.2333971E-005  0.1149922E+03  0.7546771E-02  0.1262001E+00
          1   -1    0    0  502    0  0.00000000000E+00  0.00000000000E+00  0.14981439028E+03  0.14981439028E+03  0.00000000000E+00 0. -1.
         -2   -1    0    0    0  501 -0.00000000000E+00 -0.00000000000E+00 -0.10596844095E+03  0.10596844095E+03  0.00000000000E+00 0.  1.
         23    2    1    2    0    0 -0.55469598755E+02 -0.36700812716E+02 -0.10874872561E+02  0.11410361603E+03  0.92073591746E+02 0.  0.
        -24    2    1    2    0    0  0.42336018533E+02  0.57011279991E+02  0.65134950794E+02  0.11534558479E+03  0.63398876992E+02 0.  0.
         11    1    4    4    0    0  0.21563698520E+02  0.31295917366E+02  0.72154165322E+02  0.81551524271E+02  0.00000000000E+00 0. -1.
        -12    1    4    4    0    0  0.20772320013E+02  0.25715362625E+02 -0.70192145278E+01  0.33794060518E+02  0.00000000000E+00 0.  1.
        -11    1    3    3    0    0 -0.32268483288E+02 -0.65199402997E+02 -0.21485009500E+02  0.75853957037E+02  0.00000000000E+00 0.  1.
         11    1    3    3    0    0 -0.23201115467E+02  0.28498590281E+02  0.10610136939E+02  0.38249658989E+02  0.00000000000E+00 0. -1.
         21    1    1    2  502  501  0.13133580222E+02 -0.20310467275E+02 -0.10414128898E+02  0.26333630419E+02  0.00000000000E+00 0.  1.
<scales pt_clust_5="13000.00000" pt_clust_6="13000.00000" pt_clust_7="13000.00000" pt_clust_8="13000.00000" pt_clust_9="24.18690"></scales>
<clustering>
<clus scale="   24.187">  2  9  1 -1</clus>
<clus scale="   63.399">  5  6 -1 -1</clus>
<clus scale="   92.074">  7  8 -1 -1</clus>
<clus scale="   93.622">  1  5  2 -1</clus>
<clus scale="   93.622">  1  5  2 -1</clus>
</clustering>
</event>
<event>
 9    1  0.2333971E-005  0.1416756E+03  0.7546771E-02  0.1213554E+00
          1   -1    0    0  502    0  0.00000000000E+00  0.00000000000E+00  0.35885974929E+03  0.35885974929E+03  0.00000000000E+00 0. -1.
         -2   -1    0    0    0  501 -0.00000000000E+00 -0.00000000000E+00 -0.13256386077E+03  0.13256386077E+03  0.00000000000E+00 0.  1.
        -24    2    1    2    0    0 -0.18183270870E+02  0.12337337272E+03  0.55867014613E+02  0.15872924708E+03  0.80760325169E+02 0.  0.
         23    2    1    2    0    0  0.33006948756E+02 -0.96148691311E+02  0.22866554471E+03  0.26672137965E+03  0.92294818463E+02 0.  0.
         13    1    3    3    0    0 -0.24950617933E+02  0.55543888204E+01  0.27115093136E+02  0.37264095939E+02  0.00000000000E+00 0. -1.
        -14    1    3    3    0    0  0.67673470627E+01  0.11781898390E+03  0.28751921477E+02  0.12146515114E+03  0.00000000000E+00 0.  1.
        -11    1    4    4    0    0  0.26231733690E+02  0.91561465820E+01  0.77816821358E+02  0.82628061570E+02  0.00000000000E+00 0.  1.
         11    1    4    4    0    0  0.67752150665E+01 -0.10530483789E+03  0.15084872335E+03  0.18409331808E+03  0.00000000000E+00 0. -1.
         21    1    1    2  502  501 -0.14823677886E+02 -0.27224681407E+02 -0.58236670805E+02  0.65972983336E+02  0.00000000000E+00 0. -1.
<scales pt_clust_5="13000.00000" pt_clust_6="13000.00000" pt_clust_7="13000.00000" pt_clust_8="13000.00000" pt_clust_9="30.99879"></scales>
<clustering>
<clus scale="   30.999">  2  9  1 -1</clus>
<clus scale="   80.760">  5  6 -1 -1</clus>
<clus scale="   92.295">  7  8 -1 -1</clus>
<clus scale="  134.447">  2  5  1 -1</clus>
<clus scale="  141.676">  1  5  2 -1</clus>
</clustering>
</event>
<event>
 9    1  0.2333971E-005  0.9065399E+02  0.7546771E-02  0.1308588E+00
         -4   -1    0    0    0  501 -0.00000000000E+00  0.00000000000E+00  0.45849348718E+03  0.45849348718E+03  0.00000000000E+00 0.  1.
          3   -1    0    0  502    0  0.00000000000E+00 -0.00000000000E+00 -0.70795129163E+02  0.70795129163E+02  0.00000000000E+00 0. -1.
        -24    2    1    2    0    0 -0.29670281975E+02 -0.38622191465E+02  0.18277906357E+03  0.20495405175E+03  0.78904866428E+02 0.  0.
         23    2    1    2    0    0 -0.33369712222E+01 -0.16806766638E+02 -0.16783574965E+02  0.93436295935E+02  0.90305316719E+02 0.  0.
         11    1    3    3    0    0 -0.16638247130E+02 -0.59247073844E+02  0.16058368031E+03  0.17197140869E+03  0.00000000000E+00 0. -1.
        -12    1    3    3    0    0 -0.13032034844E+02  0.20624882378E+02  0.22195383259E+02  0.32982643061E+02  0.00000000000E+00 0.  1.
        -11    1    4    4    0    0 -0.24297090135E+02  0.68864128713E+01 -0.44638223120E+02  0.51286862203E+02  0.00000000000E+00 0. -1.
         11    1    4    4    0    0  0.20960118913E+02 -0.23693179509E+02  0.27854648155E+02  0.42149433732E+02  0.00000000000E+00 0.  1.
         21    1    1    2  502  501  0.33007253197E+02  0.55428958104E+02  0.22170286941E+03  0.23089826865E+03  0.00000000000E+00 0.  1.
<scales pt_clust_5="13000.00000" pt_clust_6="13000.00000" pt_clust_7="13000.00000" pt_clust_8="13000.00000" pt_clust_9="64.51239"></scales>
<clustering>
<clus scale="   64.512">  1  9  2 -1</clus>
<clus scale="   78.905">  5  6 -1 -1</clus>
<clus scale="   79.304">  1  5  2 -1</clus>
<clus scale="   90.305">  7  8 -1 -1</clus>
<clus scale="   90.654">  2  5  1 -1</clus>
</clustering>
</event>
<event>
 9    1  0.2333971E-005  0.3899750E+03  0.7546771E-02  0.1047316E+00
         -2   -1    0    0    0  501 -0.00000000000E+00  0.00000000000E+00  0.56656588908E+03  0.56656588908E+03  0.00000000000E+00 0.  1.
          1   -1    0    0  502    0  0.00000000000E+00 -0.00000000000E+00 -0.63467952435E+03  0.63467952435E+03  0.00000000000E+00 0. -1.
        -24    2    1    2    0    0 -0.37817264759E+03  0.18100235735E+03 -0.16655778629E+03  0.46051981414E+03  0.92523501284E+02 0.  0.
         23    2    1    2    0    0  0.35345644512E+03 -0.47239855217E+02 -0.19539643381E+03  0.41692691657E+03  0.92115280453E+02 0.  0.
         11    1    3    3    0    0 -0.21312160105E+03  0.11631321455E+03 -0.48670270277E+02  0.24762547511E+03  0.00000000000E+00 0. -1.
        -12    1    3    3    0    0 -0.16505104654E+03  0.64689142799E+02 -0.11788751602E+03  0.21289433903E+03  0.00000000000E+00 0.  1.
        -13    1    4    4    0    0  0.28260056641E+03  0.87930977456E+00 -0.14697027739E+03  0.31853432430E+03  0.00000000000E+00 0.  1.
         13    1    4    4    0    0  0.70855878717E+02 -0.48119164992E+02 -0.48426156421E+02  0.98392592272E+02  0.00000000000E+00 0. -1.
         21    1    1    2  502  501  0.24716202464E+02 -0.13376250213E+03  0.29384058483E+03  0.32379868272E+03  0.00000000000E+00 0.  1.
<scales pt_clust_5="13000.00000" pt_clust_6="13000.00000" pt_clust_7="13000.00000" pt_clust_8="13000.00000" pt_clust_9="136.02683"></scales>
<clustering>
<clus scale="   92.115">  7  8 -1 -1</clus>
<clus scale="   92.524">  5  6 -1 -1</clus>
<clus scale="  136.027">  1  9  2 -1</clus>
<clus scale="  389.878">  2  7  1 -1</clus>
<clus scale="  389.878">  2  5  1 -1</clus>
</clustering>
</event>
<event>
 9    1  0.2333971E-005  0.1046566E+03  0.7546771E-02  0.1276340E+00
         -2   -1    0    0    0  501 -0.00000000000E+00  0.00000000000E+00  0.89000260997E+02  0.89000260997E+02  0.00000000000E+00 0.  1.
          1   -1    0    0  502    0  0.00000000000E+00 -0.00000000000E+00 -0.26917670077E+03  0.26917670077E+03  0.00000000000E+00 0. -1.
         23    2    1    2    0    0  0.42726383150E+02 -0.35066821971E+02 -0.33570147797E+02  0.11423766008E+03  0.94170389913E+02 0.  0.
        -24    2    1    2    0    0 -0.46559672959E+02 -0.98550822428E+01 -0.16878241885E+03  0.19369537477E+03  0.82252461975E+02 0.  0.
         13    1    4    4    0    0 -0.59050473966E+02 -0.30209045613E+02 -0.14741720218E+03  0.16165202260E+03  0.00000000000E+00 0. -1.
        -14    1    4    4    0    0  0.12490801008E+02  0.20353963370E+02 -0.21365216677E+02  0.32043352171E+02  0.00000000000E+00 0.  1.
        -11    1    3    3    0    0  0.30132267760E+02 -0.67650930009E+02 -0.19542712931E+02  0.76593208055E+02  0.00000000000E+00 0. -1.
         11    1    3    3    0    0  0.12594115390E+02  0.32584108038E+02 -0.14027434865E+02  0.37644452021E+02  0.00000000000E+00 0.  1.
         21    1    1    2  502  501  0.38332898084E+01  0.44921904214E+02  0.22176126879E+02  0.50243926920E+02  0.00000000000E+00 0.  1.
<scales pt_clust_5="13000.00000" pt_clust_6="13000.00000" pt_clust_7="13000.00000" pt_clust_8="13000.00000" pt_clust_9="45.08516"></scales>
<clustering>
<clus scale="   45.085">  1  9  2 -1</clus>
<clus scale="   82.252">  5  6 -1 -1</clus>
<clus scale="   94.077">  2  5  1 -1</clus>
<clus scale="   94.170">  7  8 -1 -1</clus>
<clus scale="   94.077">  2  5  1 -1</clus>
</clustering>
</event>
<event>
 9    1  0.2333971E-005  0.1692937E+03  0.7546771E-02  0.1217599E+00
          1   -1    0    0  502    0  0.00000000000E+00  0.00000000000E+00  0.36860176196E+03  0.36860176196E+03  0.00000000000E+00 0. -1.
         -2   -1    0    0    0  501 -0.00000000000E+00 -0.00000000000E+00 -0.13813049232E+03  0.13813049232E+03  0.00000000000E+00 0.  1.
         23    2    1    2    0    0  0.85080957072E+01  0.14366151153E+02 -0.44265691694E+02  0.84805627912E+02  0.70383016936E+02 0.  0.
        -24    2    1    2    0    0 -0.60872630637E+02 -0.14640472667E+03  0.14233358977E+03  0.22774402482E+03  0.80428035606E+02 0.  0.
         13    1    4    4    0    0 -0.21341753870E+02 -0.53792917426E+01 -0.20197552763E+01  0.22101734079E+02  0.00000000000E+00 0. -1.
        -14    1    4    4    0    0 -0.39530876767E+02 -0.14102543492E+03  0.14435334505E+03  0.20564229074E+03  0.00000000000E+00 0.  1.
        -13    1    3    3    0    0 -0.24700923262E+02 -0.14127284343E+02 -0.19878182052E+02  0.34711063000E+02  0.00000000000E+00 0.  1.
         13    1    3    3    0    0  0.33209018969E+02  0.28493435496E+02 -0.24387509641E+02  0.50094564912E+02  0.00000000000E+00 0. -1.
         21    1    1    2  502  501  0.52364534930E+02  0.13203857551E+03  0.13240337157E+03  0.19418260155E+03  0.00000000000E+00 0. -1.
<scales pt_clust_5="13000.00000" pt_clust_6="13000.00000" pt_clust_7="13000.00000" pt_clust_8="13000.00000" pt_clust_9="148.96871"></scales>
<clustering>
<clus scale="   70.383">  7  8 -1 -1</clus>
<clus scale="   72.336">  2  7  1 -1</clus>
<clus scale="   80.428">  5  6 -1 -1</clus>
<clus scale="  148.969">  1  9  2 -1</clus>
<clus scale="  148.969">  1  5  2 -1</clus>
</clustering>
</event>
<event>
 9    1  0.2333971E-005  0.1126884E+03  0.7546771E-02  0.1261538E+00
          1   -1    0    0  502    0  0.00000000000E+00  0.00000000000E+00  0.12964595322E+03  0.12964595322E+03  0.00000000000E+00 0. -1.
         -2   -1    0    0    0  501 -0.00000000000E+00 -0.00000000000E+00 -0.28650883323E+03  0.28650883323E+03  0.00000000000E+00 0.  1.
        -24    2    1    2    0    0  0.64566064216E+02  0.42003382746E+02 -0.17548190440E+03  0.20672467351E+03  0.77512134902E+02 0.  0.
         23    2    1    2    0    0  0.23913023100E+02 -0.60518640582E+02 -0.11860111247E+02  0.11403440353E+03  0.92891573454E+02 0.  0.
         11    1    3    3    0    0 -0.10461200031E+02  0.21275281535E+02 -0.14182849714E+02  0.27626573013E+02  0.00000000000E+00 0. -1.
        -12    1    3    3    0    0  0.75027264247E+02  0.20728101211E+02 -0.16129905468E+03  0.17909810050E+03  0.00000000000E+00 0.  1.
        -13    1    4    4    0    0  0.39198841702E+01 -0.31505662105E+02  0.40166809837E+02  0.51199070783E+02  0.00000000000E+00 0. -1.
         13    1    4    4    0    0  0.19993138930E+02 -0.29012978477E+02 -0.52026921084E+02  0.62835332750E+02  0.00000000000E+00 0.  1.
         21    1    1    2  502  501 -0.88479087316E+02  0.18515257836E+02  0.30479135635E+02  0.95395709411E+02  0.00000000000E+00 0.  1.
<scales pt_clust_5="13000.00000" pt_clust_6="13000.00000" pt_clust_7="13000.00000" pt_clust_8="13000.00000" pt_clust_9="90.39560"></scales>
<clustering>
<clus scale="   77.512">  5  6 -1 -1</clus>
<clus scale="   90.396">  1  9  2 -1</clus>
<clus scale="   92.892">  7  8 -1 -1</clus>
<clus scale="  100.389">  2  5  1 -1</clus>
<clus scale="   90.396">  1  5  2 -1</clus>
</clustering>
</event>
<event>
 9    1  0.2333971E-005  0.1141814E+03  0.7546771E-02  0.1256692E+00
         -2   -1    0    0    0  501 -0.00000000000E+00  0.00000000000E+00  0.93844512460E+02  0.93844512460E+02  0.00000000000E+00 0.  1.
          1   -1    0    0  502    0  0.00000000000E+00 -0.00000000000E+00 -0.37761909450E+03  0.37761909450E+03  0.00000000000E+00 0. -1.
        -24    2    1    2    0    0  0.56461150778E+02 -0.52349695157E+02  0.93157869459E+01  0.11176589770E+03  0.80476579647E+02 0.  0.
         23    2    1    2    0    0 -0.70308074222E+02  0.47489731153E+01 -0.28772901418E+03  0.30983479565E+03  0.90795577815E+02 0.  0.
         13    1    3    3    0    0  0.38829605837E+02  0.56262897945E+01 -0.20458364052E+02  0.44248594170E+02  0.00000000000E+00 0. -1.
        -14    1    3    3    0    0  0.17631544941E+02 -0.57975984952E+02  0.29774150998E+02  0.67517303529E+02  0.00000000000E+00 0.  1.
        -11    1    4    4    0    0 -0.52264118996E+02 -0.40041204776E+02 -0.14758602527E+03  0.16160591286E+03  0.00000000000E+00 0. -1.
         11    1    4    4    0    0 -0.18043955226E+02  0.44790177891E+02 -0.14014298891E+03  0.14822888280E+03  0.00000000000E+00 0.  1.
         21    1    1    2  502  501  0.13846923444E+02  0.47600722042E+02 -0.53613548022E+01  0.49862913604E+02  0.00000000000E+00 0. -1.
<scales pt_clust_5="13000.00000" pt_clust_6="13000.00000" pt_clust_7="13000.00000" pt_clust_8="13000.00000" pt_clust_9="49.57384"></scales>
<clustering>
<clus scale="   49.574">  1  9  2 -1</clus>
<clus scale="   80.477">  5  6 -1 -1</clus>
<clus scale="   90.796">  7  8 -1 -1</clus>
<clus scale="  106.160">  1  5  2 -1</clus>
<clus scale="  114.181">  2  5  1 -1</clus>
</clustering>
</event>
<event>
 9    1  0.2333971E-005  0.1169843E+03  0.7546771E-02  0.1253652E+00
          1   -1    0    0  502    0  0.00000000000E+00  0.00000000000E+00  0.20400650413E+03  0.20400650413E+03  0.00000000000E+00 0. -1.
         -2   -1    0    0    0  501 -0.00000000000E+00 -0.00000000000E+00 -0.12293761778E+03  0.12293761778E+03  0.00000000000E+00 0.  1.
         23    2    1    2    0    0 -0.38405153854E+02  0.80763998920E+02 -0.38970892484E+02  0.13379608144E+03  0.91568999033E+02 0.  0.
        -24    2    1    2    0    0  0.31164948045E+02 -0.62081122860E+02  0.13399404235E+03  0.16873099912E+03  0.75434918168E+02 0.  0.
         13    1    4    4    0    0  0.24000082944E+02 -0.34006516242E+01  0.94684978970E+02  0.97738496282E+02  0.00000000000E+00 0. -1.
        -14    1    4    4    0    0  0.71648651010E+01 -0.58680471235E+02  0.39309063375E+02  0.70992502842E+02  0.00000000000E+00 0.  1.
        -13    1    3    3    0    0  0.11395118909E+02  0.76606897864E+02 -0.29817328179E+02  0.82991195889E+02  0.00000000000E+00 0.  1.
         13    1    3    3    0    0 -0.49800272763E+02  0.41571010559E+01 -0.91535643046E+01  0.50804885552E+02  0.00000000000E+00 0. -1.
         21    1    1    2  502  501  0.72402058081E+01 -0.18682876061E+02 -0.13954263510E+02  0.24417041347E+02  0.00000000000E+00 0. -1.
<scales pt_clust_5="13000.00000" pt_clust_6="13000.00000" pt_clust_7="13000.00000" pt_clust_8="13000.00000" pt_clust_9="20.03673"></scales>
<clustering>
<clus scale="   20.037">  2  9  1 -1</clus>
<clus scale="   75.435">  5  6 -1 -1</clus>
<clus scale="   91.569">  7  8 -1 -1</clus>
<clus scale="  104.837">  1  5  2 -1</clus>
<clus scale="  104.837">  1  5  2 -1</clus>
</clustering>
</event>
<event>
 9    1  0.2333971E-005  0.1023831E+03  0.7546771E-02  0.1279145E+00
          1   -1    0    0  502    0  0.00000000000E+00  0.00000000000E+00  0.24897940361E+03  0.24897940361E+03  0.00000000000E+00 0. -1.
         -2   -1    0    0    0  501 -0.00000000000E+00 -0.00000000000E+00 -0.27125302181E+03  0.27125302181E+03  0.00000000000E+00 0.  1.
        -24    2    1    2    0    0 -0.39875850191E+02 -0.24412441302E+02 -0.53692594415E+02  0.10764078419E+03  0.80731610948E+02 0.  0.
         23    2    1    2    0    0  0.50127877809E+02 -0.18983804081E+02  0.20689821200E+03  0.23153557153E+03  0.89043033434E+02 0.  0.
         13    1    3    3    0    0 -0.66612127557E+01 -0.29327476900E+02  0.13161846372E+02  0.32828445846E+02  0.00000000000E+00 0. -1.
        -14    1    3    3    0    0 -0.33214637435E+02  0.49150355987E+01 -0.66854440787E+02  0.74812338340E+02  0.00000000000E+00 0.  1.
        -13    1    4    4    0    0  0.44257348995E+02  0.30725357677E+02  0.10738889236E+03  0.12014630559E+03  0.00000000000E+00 0.  1.
         13    1    4    4    0    0  0.58705288139E+01 -0.49709161758E+02  0.99509319648E+02  0.11138926595E+03  0.00000000000E+00 0. -1.
         21    1    1    2  502  501 -0.10252027618E+02  0.43396245382E+02 -0.17547923579E+03  0.18105606970E+03  0.00000000000E+00 0.  1.
<scales pt_clust_5="13000.00000" pt_clust_6="13000.00000" pt_clust_7="13000.00000" pt_clust_8="13000.00000" pt_clust_9="44.59079"></scales>
<clustering>
<clus scale="   44.591">  2  9  1 -1</clus>
<clus scale="   80.732">  5  6 -1 -1</clus>
<clus scale="   89.043">  7  8 -1 -1</clus>
<clus scale="   95.243">  2  5  1 -1</clus>
<clus scale="  102.383">  1  5  2 -1</clus>
</clustering>
</event>
<event>
 9    1  0.2333971E-005  0.1115310E+03  0.7546771E-02  0.1264590E+00
          1   -1    0    0  502    0  0.00000000000E+00  0.00000000000E+00  0.13932292586E+03  0.13932292586E+03  0.00000000000E+00 0. -1.
         -2   -1    0    0    0  501 -0.00000000000E+00 -0.00000000000E+00 -0.19926322162E+03  0.19926322162E+03  0.00000000000E+00 0.  1.
        -24    2    1    2    0    0  0.35046936654E+02 -0.58946920543E+02 -0.13733952550E+03  0.17287681024E+03  0.79506094386E+02 0.  0.
         23    2    1    2    0    0 -0.13149449404E+02  0.53249957898E+02  0.87332520767E+02  0.14099849747E+03  0.96151656613E+02 0.  0.
         13    1    3    3    0    0 -0.24707246937E+02 -0.16814824980E+02 -0.25648538033E+02  0.39383167642E+02  0.00000000000E+00 0. -1.
        -14    1    3    3    0    0  0.59754183591E+02 -0.42132095563E+02 -0.11169098746E+03  0.13349364260E+03  0.00000000000E+00 0.  1.
        -13    1    4    4    0    0  0.25349968397E+02 -0.16720656669E+02  0.18448275276E+02  0.35532240540E+02  0.00000000000E+00 0.  1.
         13    1    4    4    0    0 -0.38499417800E+02  0.69970614567E+02  0.68884245491E+02  0.10546625693E+03  0.00000000000E+00 0. -1.
         21    1    1    2  502  501 -0.21897487251E+02  0.56969626451E+01 -0.99332910343E+01  0.24710839768E+02  0.00000000000E+00 0. -1.
<scales pt_clust_5="13000.00000" pt_clust_6="13000.00000" pt_clust_7="13000.00000" pt_clust_8="13000.00000" pt_clust_9="22.62643"></scales>
<clustering>
<clus scale="   22.626">  2  9  1 -1</clus>
<clus scale="   79.506">  5  6 -1 -1</clus>
<clus scale="   96.152">  7  8 -1 -1</clus>
<clus scale="   97.546">  2  5  1 -1</clus>
<clus scale="  111.531">  1  5  2 -1</clus>
</clustering>
</event>
<event>
 9    1  0.2333971E-005  0.9784677E+02  0.7546771E-02  0.1291646E+00
          1   -1    0    0  502    0  0.00000000000E+00  0.00000000000E+00  0.38401210240E+02  0.38401210240E+02  0.00000000000E+00 0. -1.
         -2   -1    0    0    0  501 -0.00000000000E+00 -0.00000000000E+00 -0.42061624524E+03  0.42061624524E+03  0.00000000000E+00 0.  1.
         23    2    1    2    0    0  0.47912931380E+02 -0.45498856607E+02 -0.16738050345E+03  0.20222511056E+03  0.92265743699E+02 0.  0.
        -24    2    1    2    0    0 -0.12970798358E+02  0.55770944498E+01 -0.89738961893E+02  0.12091150999E+03  0.79794525963E+02 0.  0.
         11    1    4    4    0    0 -0.24552889202E+02 -0.22371420526E+02 -0.85936775721E+01  0.34310000273E+02  0.00000000000E+00 0. -1.
        -12    1    4    4    0    0  0.11582090843E+02  0.27948514975E+02 -0.81145284321E+02  0.86601509716E+02  0.00000000000E+00 0.  1.
        -11    1    3    3    0    0 -0.27176688750E+02 -0.18606269555E+02 -0.60240118620E+02  0.68655936156E+02  0.00000000000E+00 0. -1.
         11    1    3    3    0    0  0.75089620130E+02 -0.26892587052E+02 -0.10714038483E+03  0.13356917440E+03  0.00000000000E+00 0.  1.
         21    1    1    2  502  501 -0.34942133021E+02  0.39921762157E+02 -0.12509556966E+03  0.13588083493E+03  0.00000000000E+00 0.  1.
<scales pt_clust_5="13000.00000" pt_clust_6="13000.00000" pt_clust_7="13000.00000" pt_clust_8="13000.00000" pt_clust_9="53.05374"></scales>
<clustering>
<clus scale="   53.054">  2  9  1 -1</clus>
<clus scale="   79.795">  5  6 -1 -1</clus>
<clus scale="   86.187">  1  5  2 -1</clus>
<clus scale="   92.266">  7  8 -1 -1</clus>
<clus scale="   86.187">  1  5  2 -1</clus>
</clustering>
</event>
<event>
 9    1  0.2333971E-005  0.1437124E+03  0.7546771E-02  0.1210592E+00
         -2   -1    0    0    0  501 -0.00000000000E+00  0.00000000000E+00  0.86756107045E+02  0.86756107045E+02  0.00000000000E+00 0.  1.
          1   -1    0    0  502    0  0.00000000000E+00 -0.00000000000E+00 -0.69451601425E+03  0.69451601425E+03  0.00000000000E+00 0. -1.
        -24    2    1    2    0    0 -0.67538597014E+02  0.50782761666E+02 -0.19950507934E+01  0.11777803333E+03  0.82020326367E+02 0.  0.
         23    2    1    2    0    0  0.95592811281E+02 -0.61743884231E+02 -0.61479833862E+03  0.63204907331E+03  0.92513464374E+02 0.  0.
         11    1    3    3    0    0 -0.31328130143E+02  0.59792277451E+02  0.24719809903E+02  0.71886279516E+02  0.00000000000E+00 0. -1.
        -12    1    3    3    0    0 -0.36210466872E+02 -0.90095157846E+01 -0.26714860696E+02  0.45891753810E+02  0.00000000000E+00 0.  1.
        -13    1    4    4    0    0  0.37812572803E+02  0.13611322184E+02 -0.87750468902E+02  0.96515302135E+02  0.00000000000E+00 0.  1.
         13    1    4    4    0    0  0.57780238478E+02 -0.75355206415E+02 -0.52704786972E+03  0.53553377117E+03  0.00000000000E+00 0. -1.
         21    1    1    2  502  501 -0.28054214267E+02  0.10961122565E+02  0.90334822109E+01  0.31445014658E+02  0.00000000000E+00 0.  1.
<scales pt_clust_5="13000.00000" pt_clust_6="13000.00000" pt_clust_7="13000.00000" pt_clust_8="13000.00000" pt_clust_9="30.11951"></scales>
<clustering>
<clus scale="   30.120">  1  9  2 -1</clus>
<clus scale="   82.020">  5  6 -1 -1</clus>
<clus scale="   92.513">  7  8 -1 -1</clus>
<clus scale="  137.193">  1  5  2 -1</clus>
<clus scale="  143.712">  2  5  1 -1</clus>
</clustering>
</event>
<event>
 9    1  0.2333971E-005  0.1180774E+03  0.7546771E-02  0.1249811E+00
          1   -1    0    0  502    0  0.00000000000E+00  0.00000000000E+00  0.10085061303E+03  0.10085061303E+03  0.00000000000E+00 0. -1.
         -2   -1    0    0    0  501 -0.00000000000E+00 -0.00000000000E+00 -0.21240825087E+03  0.21240825087E+03  0.00000000000E+00 0.  1.
         23    2    1    2    0    0 -0.17186442389E+02 -0.77477588650E+02 -0.66411768781E+02  0.13822424477E+03  0.91636609852E+02 0.  0.
        -24    2    1    2    0    0  0.36962489692E+02  0.63365241149E+02  0.14837588918E+02  0.11031780810E+03  0.81046192438E+02 0.  0.
         11    1    4    4    0    0 -0.95516076886E+01  0.19029143215E+02  0.36710275005E+02  0.42438022950E+02  0.00000000000E+00 0. -1.
        -12    1    4    4    0    0  0.46514097381E+02  0.44336097934E+02 -0.21872686087E+02  0.67879785149E+02  0.00000000000E+00 0.  1.
        -13    1    3    3    0    0 -0.12131019666E+02  0.17841619665E+02  0.62268414457E+00  0.21584085942E+02  0.00000000000E+00 0. -1.
         13    1    3    3    0    0 -0.50554227228E+01 -0.95319208315E+02 -0.67034452926E+02  0.11664015883E+03  0.00000000000E+00 0.  1.
         21    1    1    2  502  501 -0.19776047304E+02  0.14112347501E+02 -0.59983457976E+02  0.64716811028E+02  0.00000000000E+00 0. -1.
<scales pt_clust_5="13000.00000" pt_clust_6="13000.00000" pt_clust_7="13000.00000" pt_clust_8="13000.00000" pt_clust_9="24.29507"></scales>
<clustering>
<clus scale="   24.295">  2  9  1 -1</clus>
<clus scale="   81.046">  5  6 -1 -1</clus>
<clus scale="   91.637">  7  8 -1 -1</clus>
<clus scale="  110.061">  1  5  2 -1</clus>
<clus scale="  110.061">  1  5  2 -1</clus>
</clustering>
</event>
<event>
 9    1  0.2333971E-005  0.2452707E+03  0.7546771E-02  0.1133734E+00
          1   -1    0    0  502    0  0.00000000000E+00  0.00000000000E+00  0.31275191201E+03  0.31275191201E+03  0.00000000000E+00 0. -1.
         -2   -1    0    0    0  501 -0.00000000000E+00 -0.00000000000E+00 -0.48396445973E+03  0.48396445973E+03  0.00000000000E+00 0.  1.
        -24    2    1    2    0    0  0.10489507937E+03 -0.19815805693E+03 -0.24401338342E+03  0.34010735786E+03  0.76556452235E+02 0.  0.
         23    2    1    2    0    0 -0.94011013958E+02 -0.90109033337E+02  0.10432373331E+01  0.15934561025E+03  0.91827155725E+02 0.  0.
         13    1    3    3    0    0  0.88816115618E+02 -0.11605519234E+03 -0.19311439254E+03  0.24217819611E+03  0.00000000000E+00 0. -1.
        -14    1    3    3    0    0  0.16078963753E+02 -0.82102864588E+02 -0.50898990878E+02  0.97929161752E+02  0.00000000000E+00 0.  1.
        -11    1    4    4    0    0 -0.13883696987E+02 -0.56811177682E+02  0.32671702694E+02  0.66990350862E+02  0.00000000000E+00 0.  1.
         11    1    4    4    0    0 -0.80127316971E+02 -0.33297855654E+02 -0.31628465361E+02  0.92355259392E+02  0.00000000000E+00 0. -1.
         21    1    1    2  502  501 -0.10884065413E+02  0.28826709027E+03  0.71757598369E+02  0.29726340363E+03  0.00000000000E+00 0.  1.
<scales pt_clust_5="13000.00000" pt_clust_6="13000.00000" pt_clust_7="13000.00000" pt_clust_8="13000.00000" pt_clust_9="233.01676"></scales>
<clustering>
<clus scale="   76.556">  5  6 -1 -1</clus>
<clus scale="   91.827">  7  8 -1 -1</clus>
<clus scale="  159.342">  1  7  2 -1</clus>
<clus scale="  233.017">  1  9  2 -1</clus>
<clus scale="  159.342">  1  5  2 -1</clus>
</clustering>
</event>
<event>
 9    1  0.2333971E-005  0.1124667E+03  0.7546771E-02  0.1263394E+00
         -4   -1    0    0    0  501 -0.00000000000E+00  0.00000000000E+00  0.85660614696E+02  0.85660614696E+02  0.00000000000E+00 0.  1.
          3   -1    0    0  502    0  0.00000000000E+00 -0.00000000000E+00 -0.36851621713E+03  0.36851621713E+03  0.00000000000E+00 0. -1.
        -24    2    1    2    0    0 -0.36979842258E+02  0.11170597143E+02  0.32168362105E+02  0.94882853840E+02  0.80471494694E+02 0.  0.
         23    2    1    2    0    0  0.57632879320E+02  0.83599997256E+00 -0.31548315401E+03  0.33540010494E+03  0.98190438736E+02 0.  0.
         13    1    3    3    0    0  0.11969506249E+02 -0.24259858189E+02  0.18946025602E+02  0.33026681416E+02  0.00000000000E+00 0. -1.
        -14    1    3    3    0    0 -0.48949348507E+02  0.35430455332E+02  0.13222336503E+02  0.61856172424E+02  0.00000000000E+00 0.  1.
        -11    1    4    4    0    0  0.44999608743E+02 -0.43882937288E+02 -0.22590509350E+03  0.23448622186E+03  0.00000000000E+00 0. -1.
         11    1    4    4    0    0  0.12633270578E+02  0.44718937260E+02 -0.89578060508E+02  0.10091388309E+03  0.00000000000E+00 0.  1.
         21    1    1    2  502  501 -0.20653037062E+02 -0.12006597115E+02  0.45918946590E+00  0.23893873046E+02  0.00000000000E+00 0.  1.
<scales pt_clust_5="13000.00000" pt_clust_6="13000.00000" pt_clust_7="13000.00000" pt_clust_8="13000.00000" pt_clust_9="23.88946"></scales>
<clustering>
<clus scale="   23.889">  1  9  2 -1</clus>
<clus scale="   80.471">  5  6 -1 -1</clus>
<clus scale="   97.381">  1  5  2 -1</clus>
<clus scale="   98.190">  7  8 -1 -1</clus>
<clus scale="  112.467">  2  5  1 -1</clus>
</clustering>
</event>
<event>
 9    1  0.2333971E-005  0.1867208E+03  0.7546771E-02  0.1162501E+00
         -2   -1    0    0    0  501 -0.00000000000E+00  0.00000000000E+00  0.24712271059E+03  0.24712271059E+03  0.00000000000E+00 0.  1.
          1   -1    0    0  502    0  0.00000000000E+00 -0.00000000000E+00 -0.34425998849E+03  0.34425998849E+03  0.00000000000E+00 0. -1.
        -24    2    1    2    0    0 -0.47927134011E+02  0.20216983504E+03  0.12581028109E+03  0.25577143441E+03  0.80132062609E+02 0.  0.
         23    2    1    2    0    0  0.24550212814E+02 -0.15428428889E+03 -0.21686028155E+03  0.28197768450E+03  0.89870340484E+02 0.  0.
         11    1    3    3    0    0  0.17546761289E+02  0.15070784731E+02  0.51015298218E+01  0.23686346081E+02  0.00000000000E+00 0. -1.
        -12    1    3    3    0    0 -0.65473895300E+02  0.18709905031E+03  0.12070875127E+03  0.23208508833E+03  0.00000000000E+00 0.  1.
        -13    1    4    4    0    0  0.32903587991E+02 -0.40950761772E+02 -0.12588840875E+03  0.13640931952E+03  0.00000000000E+00 0. -1.
         13    1    4    4    0    0 -0.83533751766E+01 -0.11333352712E+03 -0.90971872792E+02  0.14556836499E+03  0.00000000000E+00 0.  1.
         21    1    1    2  502  501  0.23376921197E+02 -0.47885546150E+02 -0.60872774456E+01  0.53633580166E+02  0.00000000000E+00 0. -1.
<scales pt_clust_5="13000.00000" pt_clust_6="13000.00000" pt_clust_7="13000.00000" pt_clust_8="13000.00000" pt_clust_9="53.28702"></scales>
<clustering>
<clus scale="   53.287">  1  9  2 -1</clus>
<clus scale="   80.132">  5  6 -1 -1</clus>
<clus scale="   89.870">  7  8 -1 -1</clus>
<clus scale="  182.234">  1  5  2 -1</clus>
<clus scale="  186.721">  2  5  1 -1</clus>
</clustering>
</event>
<event>
 9    1  0.2333971E-005  0.1116762E+03  0.7546771E-02  0.1261454E+00
          3   -1    0    0  502    0  0.00000000000E+00  0.00000000000E+00  0.35977948647E+03  0.35977948647E+03  0.00000000000E+00 0. -1.
         -4   -1    0    0    0  501 -0.00000000000E+00 -0.00000000000E+00 -0.74645679680E+02  0.74645679680E+02  0.00000000000E+00 0.  1.
         23    2    1    2    0    0  0.62992963191E+02 -0.43106194435E+01  0.90990699027E+01  0.11207246057E+03  0.92145257577E+02 0.  0.
        -24    2    1    2    0    0 -0.54543261606E+02  0.55943652314E+02  0.20483150584E+03  0.23399396152E+03  0.81808120756E+02 0.  0.
         13    1    4    4    0    0 -0.56344721671E+02  0.87964072389E+01  0.65273013158E+02  0.86675663754E+02  0.00000000000E+00 0. -1.
        -14    1    4    4    0    0  0.18014600650E+01  0.47147245075E+02  0.13955849268E+03  0.14731829777E+03  0.00000000000E+00 0.  1.
        -13    1    3    3    0    0 -0.23720424763E+02 -0.60229895637E+01 -0.23677651571E+01  0.24587420890E+02  0.00000000000E+00 0.  1.
         13    1    3    3    0    0  0.86713387954E+02  0.17123701201E+01  0.11466835060E+02  0.87485039682E+02  0.00000000000E+00 0. -1.
         21    1    1    2  502  501 -0.84497015850E+01 -0.51633032871E+02  0.71203231051E+02  0.88358744063E+02  0.00000000000E+00 0. -1.
<scales pt_clust_5="13000.00000" pt_clust_6="13000.00000" pt_clust_7="13000.00000" pt_clust_8="13000.00000" pt_clust_9="52.31986"></scales>
<clustering>
<clus scale="   52.320">  1  9  2 -1</clus>
<clus scale="   81.808">  5  6 -1 -1</clus>
<clus scale="   92.145">  7  8 -1 -1</clus>
<clus scale="  103.312">  1  5  2 -1</clus>
<clus scale="   52.320">  1  5  2 -1</clus>
</clustering>
</event>
<event>
 9    1  0.2333971E-005  0.1106796E+03  0.7546771E-02  0.1261587E+00
         -2   -1    0    0    0  501 -0.00000000000E+00  0.00000000000E+00  0.15123049268E+03  0.15123049268E+03  0.00000000000E+00 0.  1.
          1   -1    0    0  502    0  0.00000000000E+00 -0.00000000000E+00 -0.35357337803E+03  0.35357337803E+03  0.00000000000E+00 0. -1.
         23    2    1    2    0    0  0.10162361486E+03  0.57447705214E+02  0.24965418126E+02  0.14867896880E+03  0.88625987898E+02 0.  0.
        -24    2    1    2    0    0 -0.62195737802E+02  0.48968500085E+01 -0.25666801419E+03  0.27673098735E+03  0.82518367099E+02 0.  0.
         11    1    4    4    0    0 -0.61884728789E+02  0.33066638600E+02 -0.21711418558E+03  0.22817031320E+03  0.00000000000E+00 0. -1.
        -12    1    4    4    0    0 -0.31100901272E+00 -0.28169788591E+02 -0.39553828611E+02  0.48560674147E+02  0.00000000000E+00 0.  1.
        -11    1    3    3    0    0  0.39404228268E+02  0.39123912596E+02 -0.30484804915E+02  0.63345852847E+02  0.00000000000E+00 0. -1.
         11    1    3    3    0    0  0.62219386587E+02  0.18323792618E+02  0.55450223041E+02  0.85333115954E+02  0.00000000000E+00 0.  1.
         21    1    1    2  502  501 -0.39427877053E+02 -0.62344555223E+02  0.29359710722E+02  0.79393914556E+02  0.00000000000E+00 0. -1.
<scales pt_clust_5="13000.00000" pt_clust_6="13000.00000" pt_clust_7="13000.00000" pt_clust_8="13000.00000" pt_clust_9="73.76585"></scales>
<clustering>
<clus scale="   73.766">  1  9  2 -1</clus>
<clus scale="   82.518">  5  6 -1 -1</clus>
<clus scale="   88.626">  7  8 -1 -1</clus>
<clus scale="  105.852">  2  5  1 -1</clus>
<clus scale="  105.852">  2  5  1 -1</clus>
</clustering>
</event>
<event>
 9    1  0.2333971E-005  0.1062882E+03  0.7546771E-02  0.1275294E+00
         -2   -1    0    0    0  501 -0.00000000000E+00  0.00000000000E+00  0.34827741171E+02  0.34827741171E+02  0.00000000000E+00 0.  1.
          1   -1    0    0  502    0  0.00000000000E+00 -0.00000000000E+00 -0.68624939854E+03  0.68624939854E+03  0.00000000000E+00 0. -1.
        -24    2    1    2    0    0 -0.22141978681E+01  0.54185852347E+02 -0.70290464393E+02  0.11986369171E+03  0.80532887316E+02 0.  0.
         23    2    1    2    0    0  0.25992235002E+02 -0.34415543081E+02 -0.53671765418E+03  0.54709485040E+03  0.96886062630E+02 0.  0.
         13    1    3    3    0    0  0.18462216416E+02  0.26075683661E+02 -0.77856685821E+02  0.84157342166E+02  0.00000000000E+00 0. -1.
        -14    1    3    3    0    0 -0.20676414285E+02  0.28110168686E+02  0.75662214281E+01  0.35706349546E+02  0.00000000000E+00 0.  1.
        -11    1    4    4    0    0  0.60272152892E+02 -0.52220260775E+01 -0.33426587091E+03  0.33969644453E+03  0.00000000000E+00 0. -1.
         11    1    4    4    0    0 -0.34279917890E+02 -0.29193517004E+02 -0.20245178327E+03  0.20739840587E+03  0.00000000000E+00 0.  1.
         21    1    1    2  502  501 -0.23778037134E+02 -0.19770309266E+02 -0.44413538796E+02  0.54118597605E+02  0.00000000000E+00 0.  1.
<scales pt_clust_5="13000.00000" pt_clust_6="13000.00000" pt_clust_7="13000.00000" pt_clust_8="13000.00000" pt_clust_9="30.92346"></scales>
<clustering>
<clus scale="   30.923">  1  9  2 -1</clus>
<clus scale="   80.533">  5  6 -1 -1</clus>
<clus scale="   91.629">  1  5  2 -1</clus>
<clus scale="   96.886">  7  8 -1 -1</clus>
<clus scale="  106.288">  2  5  1 -1</clus>
</clustering>
</event>
<event>
 9    1  0.2333971E-005  0.1644876E+03  0.7546771E-02  0.1185611E+00
          1   -1    0    0  502    0  0.00000000000E+00  0.00000000000E+00  0.14323156522E+03  0.14323156522E+03  0.00000000000E+00 0. -1.
         -2   -1    0    0    0  501 -0.00000000000E+00 -0.00000000000E+00 -0.69546608793E+03  0.69546608793E+03  0.00000000000E+00 0.  1.
        -24    2    1    2    0    0 -0.46267781726E+02  0.11509952329E+03 -0.52491319570E+03  0.54533647134E+03  0.80432555986E+02 0.  0.
         23    2    1    2    0    0  0.66603767429E+02 -0.11955922613E+03  0.80161281931E+02  0.18388080691E+03  0.93036818731E+02 0.  0.
         13    1    3    3    0    0 -0.12062427947E+02  0.53730564973E+02 -0.95713798198E+02  0.11042466638E+03  0.00000000000E+00 0. -1.
        -14    1    3    3    0    0 -0.34205353780E+02  0.61368958319E+02 -0.42919939750E+03  0.43491180495E+03  0.00000000000E+00 0.  1.
        -13    1    4    4    0    0  0.27184307131E+01 -0.95941943905E+02  0.35024145361E+02  0.10217111737E+03  0.00000000000E+00 0. -1.
         13    1    4    4    0    0  0.63885336716E+02 -0.23617282224E+02  0.45137136570E+02  0.81709689540E+02  0.00000000000E+00 0.  1.
         21    1    1    2  502  501 -0.20335985703E+02  0.44597028363E+01 -0.10748260894E+03  0.10948037490E+03  0.00000000000E+00 0.  1.
<scales pt_clust_5="13000.00000" pt_clust_6="13000.00000" pt_clust_7="13000.00000" pt_clust_8="13000.00000" pt_clust_9="20.81925"></scales>
<clustering>
<clus scale="   20.819">  2  9  1 -1</clus>
<clus scale="   80.433">  5  6 -1 -1</clus>
<clus scale="   93.037">  7  8 -1 -1</clus>
<clus scale="  157.701">  2  5  1 -1</clus>
<clus scale="  164.488">  1  5  2 -1</clus>
</clustering>
</event>
<event>
 9    1  0.2333971E-005  0.9360714E+02  0.7546771E-02  0.1300853E+00
          1   -1    0    0  502    0  0.00000000000E+00  0.00000000000E+00  0.26786225351E+03  0.26786225351E+03  0.00000000000E+00 0. -1.
         -2   -1    0    0    0  501 -0.00000000000E+00 -0.00000000000E+00 -0.63185390417E+02  0.63185390417E+02  0.00000000000E+00 0.  1.
         23    2    1    2    0    0 -0.11184396461E+02 -0.82568495972E+01  0.55400316016E+02  0.10811688790E+03  0.91797604247E+02 0.  0.
        -24    2    1    2    0    0  0.19671638829E+02 -0.10901566607E+02  0.17236815840E+03  0.19174901926E+03  0.80938784460E+02 0.  0.
         11    1    4    4    0    0  0.30923614403E+02  0.15271186658E+02  0.15408573525E+03  0.15789836249E+03  0.00000000000E+00 0. -1.
        -12    1    4    4    0    0 -0.11251975573E+02 -0.26172753265E+02  0.18282423149E+02  0.33850656773E+02  0.00000000000E+00 0.  1.
        -11    1    3    3    0    0  0.32316396749E+01 -0.26257303846E+02 -0.17457545120E+02  0.31696299182E+02  0.00000000000E+00 0.  1.
         11    1    3    3    0    0 -0.14416036136E+02  0.18000454249E+02  0.72857861135E+02  0.76420588720E+02  0.00000000000E+00 0. -1.
         21    1    1    2  502  501 -0.84872423680E+01  0.19158416204E+02 -0.23091611318E+02  0.31181736766E+02  0.00000000000E+00 0. -1.
<scales pt_clust_5="13000.00000" pt_clust_6="13000.00000" pt_clust_7="13000.00000" pt_clust_8="13000.00000" pt_clust_9="20.95419"></scales>
<clustering>
<clus scale="   20.954">  2  9  1 -1</clus>
<clus scale="   80.939">  5  6 -1 -1</clus>
<clus scale="   82.985">  1  5  2 -1</clus>
<clus scale="   91.798">  7  8 -1 -1</clus>
<clus scale="   82.985">  1  5  2 -1</clus>
</clustering>
</event>
<event>
 9    1  0.2333971E-005  0.2288769E+03  0.7546771E-02  0.1128220E+00
          1   -1    0    0  502    0  0.00000000000E+00  0.00000000000E+00  0.23494937759E+03  0.23494937759E+03  0.00000000000E+00 0. -1.
         -2   -1    0    0    0  501 -0.00000000000E+00 -0.00000000000E+00 -0.82357290986E+03  0.82357290986E+03  0.00000000000E+00 0.  1.
         23    2    1    2    0    0  0.59960293363E+02 -0.20410057414E+03 -0.72161296575E+03  0.75794315336E+03  0.92196910143E+02 0.  0.
        -24    2    1    2    0    0 -0.61799576652E+02  0.16195026479E+03  0.16099063845E+03  0.24994220072E+03  0.80660040247E+02 0.  0.
         13    1    4    4    0    0  0.96161798523E+01  0.87371726072E+02  0.71765179952E+02  0.11347480110E+03  0.00000000000E+00 0. -1.
        -14    1    4    4    0    0 -0.71415756504E+02  0.74578538720E+02  0.89225458499E+02  0.13646739962E+03  0.00000000000E+00 0.  1.
        -11    1    3    3    0    0  0.81077244696E+02 -0.18906251042E+03 -0.65048103788E+03  0.68223436816E+03  0.00000000000E+00 0. -1.
         11    1    3    3    0    0 -0.21116951334E+02 -0.15038063720E+02 -0.71131927863E+02  0.75708785194E+02  0.00000000000E+00 0.  1.
         21    1    1    2  502  501  0.18392832894E+01  0.42150309353E+02 -0.28001204973E+02  0.50636933374E+02  0.00000000000E+00 0.  1.
<scales pt_clust_5="13000.00000" pt_clust_6="13000.00000" pt_clust_7="13000.00000" pt_clust_8="13000.00000" pt_clust_9="42.19042"></scales>
<clustering>
<clus scale="   42.190">  1  9  2 -1</clus>
<clus scale="   80.660">  5  6 -1 -1</clus>
<clus scale="   92.197">  7  8 -1 -1</clus>
<clus scale="  224.478">  1  5  2 -1</clus>
<clus scale="   42.190">  1  5  2 -1</clus>
</clustering>
</event>
<event>
 9    1  0.2333971E-005  0.9979005E+02  0.7546771E-02  0.1285538E+00
          3   -1    0    0  502    0  0.00000000000E+00  0.00000000000E+00  0.18650244702E+03  0.18650244702E+03  0.00000000000E+00 0. -1.
         -4   -1    0    0    0  501 -0.00000000000E+00 -0.00000000000E+00 -0.79588852767E+02  0.79588852767E+02  0.00000000000E+00 0.  1.
         23    2    1    2    0    0  0.40531617440E+02  0.14368337967E+02  0.44075183153E+01  0.10040461578E+03  0.90622290328E+02 0.  0.
        -24    2    1    2    0    0 -0.43991213436E+02  0.21034662982E+02  0.76951058513E+02  0.12188713839E+03  0.80977312824E+02 0.  0.
         11    1    4    4    0    0 -0.56546998176E+01 -0.19597426902E+02  0.60208021467E+02  0.63569179798E+02  0.00000000000E+00 0. -1.
        -12    1    4    4    0    0 -0.38336513619E+02  0.40632089884E+02  0.16743037046E+02  0.58317958592E+02  0.00000000000E+00 0.  1.
        -11    1    3    3    0    0  0.56013318168E+02 -0.18433621359E+02 -0.12668770899E+02  0.60314077666E+02  0.00000000000E+00 0. -1.
         11    1    3    3    0    0 -0.15481700728E+02  0.32801959326E+02  0.17076289214E+02  0.40090538115E+02  0.00000000000E+00 0.  1.
         21    1    1    2  502  501  0.34595959960E+01 -0.35403000948E+02  0.25555017427E+02  0.43799545618E+02  0.00000000000E+00 0. -1.
<scales pt_clust_5="13000.00000" pt_clust_6="13000.00000" pt_clust_7="13000.00000" pt_clust_8="13000.00000" pt_clust_9="35.57164"></scales>
<clustering>
<clus scale="   35.572">  1  9  2 -1</clus>
<clus scale="   80.977">  5  6 -1 -1</clus>
<clus scale="   90.622">  7  8 -1 -1</clus>
<clus scale="   91.121">  1  5  2 -1</clus>
<clus scale="   35.572">  1  5  2 -1</clus>
</clustering>
</event>
<event>
 9    1  0.2333971E-005  0.2538228E+03  0.7546771E-02  0.1111530E+00
         -2   -1    0    0    0  501 -0.00000000000E+00  0.00000000000E+00  0.34566793803E+03  0.34566793803E+03  0.00000000000E+00 0.  1.
          1   -1    0    0  502    0  0.00000000000E+00 -0.00000000000E+00 -0.28256126573E+03  0.28256126573E+03  0.00000000000E+00 0. -1.
         23    2    1    2    0    0  0.15601853494E+03  0.15383811022E+03  0.11763412035E+03  0.26641874851E+03  0.95567860127E+02 0.  0.
        -24    2    1    2    0    0 -0.15298063085E+03 -0.18786439874E+03 -0.12355926845E+03  0.28478831946E+03  0.84506735539E+02 0.  0.
         13    1    4    4    0    0 -0.12316349081E+03 -0.19006559630E+03 -0.11275505432E+03  0.25299778386E+03  0.00000000000E+00 0. -1.
        -14    1    4    4    0    0 -0.29817140032E+02  0.22011975575E+01 -0.10804214134E+02  0.31790535595E+02  0.00000000000E+00 0.  1.
        -11    1    3    3    0    0  0.62718696054E+02  0.11111216810E+03  0.29053572282E+02  0.13085739871E+03  0.00000000000E+00 0.  1.
         11    1    3    3    0    0  0.93299838887E+02  0.42725942123E+02  0.88580548063E+02  0.13556134981E+03  0.00000000000E+00 0. -1.
         21    1    1    2  502  501 -0.30379040956E+01  0.34026288520E+02  0.69031820409E+02  0.77022135784E+02  0.00000000000E+00 0.  1.
<scales pt_clust_5="13000.00000" pt_clust_6="13000.00000" pt_clust_7="13000.00000" pt_clust_8="13000.00000" pt_clust_9="34.16163"></scales>
<clustering>
<clus scale="   34.162">  1  9  2 -1</clus>
<clus scale="   84.507">  5  6 -1 -1</clus>
<clus scale="   95.568">  7  8 -1 -1</clus>
<clus scale="  249.868">  2  5  1 -1</clus>
<clus scale="  249.868">  2  5  1 -1</clus>
</clustering>
</event>
<event>
 9    1  0.2333971E-005  0.1398420E+03  0.7546771E-02  0.1217025E+00
         -2   -1    0    0    0  501 -0.00000000000E+00  0.00000000000E+00  0.20031418651E+03  0.20031418651E+03  0.00000000000E+00 0.  1.
          1   -1    0    0  502    0  0.00000000000E+00 -0.00000000000E+00 -0.18309838759E+03  0.18309838759E+03  0.00000000000E+00 0. -1.
        -24    2    1    2    0    0 -0.80097009515E+02  0.55899700294E+01  0.98180728316E+02  0.15019590779E+03  0.80452325059E+02 0.  0.
         23    2    1    2    0    0  0.10733269713E+03 -0.11720754929E+02 -0.11832458919E+03  0.18657855546E+03  0.95672174539E+02 0.  0.
         13    1    3    3    0    0 -0.25180094079E+02  0.32567157204E+02  0.91552648297E+01  0.42171978141E+02  0.00000000000E+00 0. -1.
        -14    1    3    3    0    0 -0.54916915436E+02 -0.26977187175E+02  0.89025463487E+02  0.10802392965E+03  0.00000000000E+00 0.  1.
        -13    1    4    4    0    0  0.54179881795E+02 -0.23164985197E+01 -0.12093496026E+03  0.13253712826E+03  0.00000000000E+00 0. -1.
         13    1    4    4    0    0  0.53152815331E+02 -0.94042564096E+01  0.26103710609E+01  0.54041427196E+02  0.00000000000E+00 0.  1.
         21    1    1    2  502  501 -0.27235687612E+02  0.61307848999E+01  0.37359659792E+02  0.46638110842E+02  0.00000000000E+00 0.  1.
<scales pt_clust_5="13000.00000" pt_clust_6="13000.00000" pt_clust_7="13000.00000" pt_clust_8="13000.00000" pt_clust_9="27.91718"></scales>
<clustering>
<clus scale="   27.917">  1  9  2 -1</clus>
<clus scale="   80.452">  5  6 -1 -1</clus>
<clus scale="   95.672">  7  8 -1 -1</clus>
<clus scale="  129.905">  1  5  2 -1</clus>
<clus scale="  139.842">  2  5  1 -1</clus>
</clustering>
</event>
<event>
 9    1  0.2333971E-005  0.1190138E+03  0.7546771E-02  0.1247482E+00
          1   -1    0    0  502    0  0.00000000000E+00  0.00000000000E+00  0.18061509606E+03  0.18061509606E+03  0.00000000000E+00 0. -1.
         -2   -1    0    0    0  501 -0.00000000000E+00 -0.00000000000E+00 -0.19315647710E+03  0.19315647710E+03  0.00000000000E+00 0.  1.
         23    2    1    2    0    0 -0.50776083554E+02 -0.31461954705E+02 -0.12851574173E+03  0.16798378028E+03  0.90189740611E+02 0.  0.
        -24    2    1    2    0    0  0.70729362624E+02  0.37804655052E+02  0.13538600740E+03  0.17723651933E+03  0.81557207546E+02 0.  0.
         11    1    4    4    0    0  0.69633816366E+02 -0.36607488504E+01  0.10403363597E+03  0.12524083550E+03  0.00000000000E+00 0. -1.
        -12    1    4    4    0    0  0.10955462581E+01  0.41465403902E+02  0.31352371434E+02  0.51995683830E+02  0.00000000000E+00 0.  1.
        -11    1    3    3    0    0 -0.89835978679E+00 -0.44050158555E+02 -0.99746133179E+02  0.10904363623E+03  0.00000000000E+00 0.  1.
         11    1    3    3    0    0 -0.49877723768E+02  0.12588203850E+02 -0.28769608548E+02  0.58940144048E+02  0.00000000000E+00 0. -1.
         21    1    1    2  502  501 -0.19953279069E+02 -0.63427003468E+01 -0.19411646717E+02  0.28551273554E+02  0.00000000000E+00 0.  1.
<scales pt_clust_5="13000.00000" pt_clust_6="13000.00000" pt_clust_7="13000.00000" pt_clust_8="13000.00000" pt_clust_9="20.93712"></scales>
<clustering>
<clus scale="   20.937">  2  9  1 -1</clus>
<clus scale="   81.557">  5  6 -1 -1</clus>
<clus scale="   90.190">  7  8 -1 -1</clus>
<clus scale="  112.613">  1  5  2 -1</clus>
<clus scale="  112.613">  1  5  2 -1</clus>
</clustering>
</event>
<event>
 9    1  0.2333971E-005  0.1035492E+03  0.7546771E-02  0.1275355E+00
         -2   -1    0    0    0  501 -0.00000000000E+00  0.00000000000E+00  0.11418624638E+03  0.11418624638E+03  0.00000000000E+00 0.  1.
          1   -1    0    0  502    0  0.00000000000E+00 -0.00000000000E+00 -0.17856846368E+03  0.17856846368E+03  0.00000000000E+00 0. -1.
         23    2    1    2    0    0 -0.38313175157E+02 -0.40443952406E+02  0.40200175161E+02  0.10742331144E+03  0.82583903276E+02 0.  0.
        -24    2    1    2    0    0  0.67408896455E+02  0.71484758795E+01 -0.95823926179E+02  0.14025523545E+03  0.76773994391E+02 0.  0.
         13    1    4    4    0    0  0.73781680588E+01  0.20777828052E+02 -0.70191990973E+02  0.73573576094E+02  0.00000000000E+00 0. -1.
        -14    1    4    4    0    0  0.60030728396E+02 -0.13629352173E+02 -0.25631935206E+02  0.66681659358E+02  0.00000000000E+00 0.  1.
        -11    1    3    3    0    0 -0.17089880750E+02 -0.61077123247E+02  0.44549257738E+02  0.77505582851E+02  0.00000000000E+00 0.  1.
         11    1    3    3    0    0 -0.21223294407E+02  0.20633170841E+02 -0.43490825770E+01  0.29917728586E+02  0.00000000000E+00 0. -1.
         21    1    1    2  502  501 -0.29095721297E+02  0.33295476526E+02 -0.87584662771E+01  0.45076163173E+02  0.00000000000E+00 0. -1.
<scales pt_clust_5="13000.00000" pt_clust_6="13000.00000" pt_clust_7="13000.00000" pt_clust_8="13000.00000" pt_clust_9="44.21708"></scales>
<clustering>
<clus scale="   44.217">  1  9  2 -1</clus>
<clus scale="   76.774">  5  6 -1 -1</clus>
<clus scale="   82.584">  7  8 -1 -1</clus>
<clus scale="   98.978">  2  5  1 -1</clus>
<clus scale="   98.978">  2  5  1 -1</clus>
</clustering>
</event>
<event>
 9    1  0.2333971E-005  0.1220678E+03  0.7546771E-02  0.1245129E+00
         -2   -1    0    0    0  501 -0.00000000000E+00  0.00000000000E+00  0.32264030177E+02  0.32264030177E+02  0.00000000000E+00 0.  1.
          1   -1    0    0  502    0  0.00000000000E+00 -0.00000000000E+00 -0.90086381588E+03  0.90086381588E+03  0.00000000000E+00 0. -1.
         23    2    1    2    0    0  0.63830612058E+02 -0.54892154620E+02 -0.17365542598E+03  0.21317417313E+03  0.90551231023E+02 0.  0.
        -24    2    1    2    0    0 -0.75635298391E+02  0.31875530262E+02 -0.68251144593E+03  0.69125362134E+03  0.72615063134E+02 0.  0.
         13    1    4    4    0    0 -0.84465839753E+02  0.40576910502E+02 -0.52842895827E+03  0.53667320381E+03  0.00000000000E+00 0. -1.
        -14    1    4    4    0    0  0.88305413626E+01 -0.87013802401E+01 -0.15408248766E+03  0.15458041753E+03  0.00000000000E+00 0.  1.
        -13    1    3    3    0    0  0.49922159960E+02  0.24510894430E+01 -0.31045530195E+02  0.58839228747E+02  0.00000000000E+00 0.  1.
         13    1    3    3    0    0  0.13908452098E+02 -0.57343244063E+02 -0.14260989579E+03  0.15433494438E+03  0.00000000000E+00 0. -1.
         21    1    1    2  502  501  0.11804686333E+02  0.23016624359E+02 -0.12432913791E+02  0.28700051596E+02  0.00000000000E+00 0. -1.
<scales pt_clust_5="13000.00000" pt_clust_6="13000.00000" pt_clust_7="13000.00000" pt_clust_8="13000.00000" pt_clust_9="25.86727"></scales>
<clustering>
<clus scale="   25.867">  1  9  2 -1</clus>
<clus scale="   72.615">  5  6 -1 -1</clus>
<clus scale="   90.551">  7  8 -1 -1</clus>
<clus scale="  109.426">  2  5  1 -1</clus>
<clus scale="  109.426">  2  5  1 -1</clus>
</clustering>
</event>
<event>
 9    1  0.2333971E-005  0.1150123E+03  0.7546771E-02  0.1255110E+00
          1   -1    0    0  502    0  0.00000000000E+00  0.00000000000E+00  0.62966008809E+03  0.62966008809E+03  0.00000000000E+00 0. -1.
         -2   -1    0    0    0  501 -0.00000000000E+00 -0.00000000000E+00 -0.90664547525E+02  0.90664547525E+02  0.00000000000E+00 0.  1.
        -24    2    1    2    0    0  0.27993181008E+02 -0.56377614111E+02  0.19221543382E+02  0.10449366175E+03  0.81162824369E+02 0.  0.
         23    2    1    2    0    0 -0.51343573018E+02  0.49669439097E+02  0.55834533233E+03  0.57024601677E+03  0.91256746784E+02 0.  0.
         13    1    3    3    0    0 -0.52908194875E+01 -0.53314482927E+02  0.38438103105E+02  0.65938718754E+02  0.00000000000E+00 0. -1.
        -14    1    3    3    0    0  0.33284000495E+02 -0.30631311840E+01 -0.19216559723E+02  0.38554942993E+02  0.00000000000E+00 0.  1.
        -13    1    4    4    0    0 -0.70714575767E+02  0.57493220931E+02  0.50081394536E+03  0.50903892734E+03  0.00000000000E+00 0. -1.
         13    1    4    4    0    0  0.19371002748E+02 -0.78237818337E+01  0.57531386974E+02  0.61207089432E+02  0.00000000000E+00 0.  1.
         21    1    1    2  502  501  0.23350392011E+02  0.67081750143E+01 -0.38571335145E+02  0.45584957101E+02  0.00000000000E+00 0.  1.
<scales pt_clust_5="13000.00000" pt_clust_6="13000.00000" pt_clust_7="13000.00000" pt_clust_8="13000.00000" pt_clust_9="24.29486"></scales>
<clustering>
<clus scale="   24.295">  2  9  1 -1</clus>
<clus scale="   81.163">  5  6 -1 -1</clus>
<clus scale="   91.257">  7  8 -1 -1</clus>
<clus scale="  107.179">  2  5  1 -1</clus>
<clus scale="  115.012">  1  5  2 -1</clus>
</clustering>
</event>
<event>
 9    1  0.2333971E-005  0.1354972E+03  0.7546771E-02  0.1221907E+00
         -2   -1    0    0    0  501 -0.00000000000E+00  0.00000000000E+00  0.68344580812E+03  0.68344580812E+03  0.00000000000E+00 0.  1.
          1   -1    0    0  502    0  0.00000000000E+00 -0.00000000000E+00 -0.16489451114E+03  0.16489451114E+03  0.00000000000E+00 0. -1.
         23    2    1    2    0    0  0.17586899425E+02  0.74928791683E+02  0.53308742474E+03  0.54665961201E+03  0.93439317936E+02 0.  0.
        -24    2    1    2    0    0  0.64685622843E+02 -0.77501999568E+02 -0.11321666323E+03  0.17317686528E+03  0.83554916634E+02 0.  0.
         13    1    4    4    0    0  0.60931412937E+02 -0.92096424685E+02 -0.11315251413E+03  0.15810717876E+03  0.00000000000E+00 0. -1.
        -14    1    4    4    0    0  0.37542099057E+01  0.14594425116E+02 -0.64149100813E-01  0.15069686513E+02  0.00000000000E+00 0.  1.
        -11    1    3    3    0    0 -0.28137435241E+01  0.90529305541E+02  0.46809336933E+03  0.47677549720E+03  0.00000000000E+00 0.  1.
         11    1    3    3    0    0  0.20400642949E+02 -0.15600513858E+02  0.64994055406E+02  0.69884114815E+02  0.00000000000E+00 0. -1.
         21    1    1    2  502  501 -0.82272522268E+02  0.25732078853E+01  0.98680535472E+02  0.12850384197E+03  0.00000000000E+00 0.  1.
<scales pt_clust_5="13000.00000" pt_clust_6="13000.00000" pt_clust_7="13000.00000" pt_clust_8="13000.00000" pt_clust_9="82.31275"></scales>
<clustering>
<clus scale="   82.313">  1  9  2 -1</clus>
<clus scale="   83.555">  5  6 -1 -1</clus>
<clus scale="   93.439">  7  8 -1 -1</clus>
<clus scale="  128.880">  2  5  1 -1</clus>
<clus scale="  128.880">  2  5  1 -1</clus>
</clustering>
</event>
<event>
 9    1  0.2333971E-005  0.1055057E+03  0.7546771E-02  0.1274041E+00
         -2   -1    0    0    0  501 -0.00000000000E+00  0.00000000000E+00  0.19497768881E+03  0.19497768881E+03  0.00000000000E+00 0.  1.
          1   -1    0    0  502    0  0.00000000000E+00 -0.00000000000E+00 -0.13503620680E+03  0.13503620680E+03  0.00000000000E+00 0. -1.
         23    2    1    2    0    0 -0.29035733962E+02  0.51781425254E+02  0.12744628126E+03  0.16797444833E+03  0.91915563622E+02 0.  0.
        -24    2    1    2    0    0  0.40891633462E+02 -0.31024266120E+02 -0.88401341890E+02  0.13028905355E+03  0.80782482323E+02 0.  0.
         13    1    4    4    0    0  0.38887108319E+02 -0.42525245679E+02 -0.20149444659E+02  0.61045915781E+02  0.00000000000E+00 0. -1.
        -14    1    4    4    0    0  0.20045251434E+01  0.11500979558E+02 -0.68251897231E+02  0.69243137764E+02  0.00000000000E+00 0.  1.
        -11    1    3    3    0    0 -0.48642941652E+02 -0.52598250058E+01  0.61849924451E+02  0.78861997732E+02  0.00000000000E+00 0.  1.
         11    1    3    3    0    0  0.19607207690E+02  0.57041250260E+02  0.65596356812E+02  0.89112450598E+02  0.00000000000E+00 0. -1.
         21    1    1    2  502  501 -0.11855899501E+02 -0.20757159134E+02  0.20896542630E+02  0.31750393732E+02  0.00000000000E+00 0.  1.
<scales pt_clust_5="13000.00000" pt_clust_6="13000.00000" pt_clust_7="13000.00000" pt_clust_8="13000.00000" pt_clust_9="23.90443"></scales>
<clustering>
<clus scale="   23.904">  1  9  2 -1</clus>
<clus scale="   80.782">  5  6 -1 -1</clus>
<clus scale="   91.916">  7  8 -1 -1</clus>
<clus scale="   95.962">  2  5  1 -1</clus>
<clus scale="   95.962">  2  5  1 -1</clus>
</clustering>
</event>
<event>
 9    1  0.2333971E-005  0.1181646E+03  0.7546771E-02  0.1247437E+00
         -2   -1    0    0    0  501 -0.00000000000E+00  0.00000000000E+00  0.23636401882E+03  0.23636401882E+03  0.00000000000E+00 0.  1.
          1   -1    0    0  502    0  0.00000000000E+00 -0.00000000000E+00 -0.12707648963E+03  0.12707648963E+03  0.00000000000E+00 0. -1.
         23    2    1    2    0    0  0.69596509875E+02 -0.54460789302E+02 -0.72395423460E+01  0.12282284123E+03  0.84990514746E+02 0.  0.
        -24    2    1    2    0    0 -0.44469196567E+02  0.64359856296E+02 -0.84478994935E+01  0.11275791286E+03  0.80766820915E+02 0.  0.
         13    1    4    4    0    0  0.81146920799E+01  0.48497190646E+02 -0.25310545116E+02  0.55303249653E+02  0.00000000000E+00 0. -1.
        -14    1    4    4    0    0 -0.52583888647E+02  0.15862665650E+02  0.16862645622E+02  0.57454663206E+02  0.00000000000E+00 0.  1.
        -11    1    3    3    0    0  0.51006447154E+02  0.93508180397E+00 -0.31055057609E+02  0.59723936845E+02  0.00000000000E+00 0. -1.
         11    1    3    3    0    0  0.18590062721E+02 -0.55395871106E+02  0.23815515263E+02  0.63098904387E+02  0.00000000000E+00 0.  1.
         21    1    1    2  502  501 -0.25127313308E+02 -0.98990669943E+01  0.12497497102E+03  0.12785975436E+03  0.00000000000E+00 0.  1.
<scales pt_clust_5="13000.00000" pt_clust_6="13000.00000" pt_clust_7="13000.00000" pt_clust_8="13000.00000" pt_clust_9="27.00691"></scales>
<clustering>
<clus scale="   27.007">  1  9  2 -1</clus>
<clus scale="   80.767">  5  6 -1 -1</clus>
<clus scale="   84.991">  7  8 -1 -1</clus>
<clus scale="  115.164">  2  5  1 -1</clus>
<clus scale="  115.164">  2  5  1 -1</clus>
</clustering>
</event>
<event>
 9    1  0.2333971E-005  0.9781737E+02  0.7546771E-02  0.1291336E+00
         -2   -1    0    0    0  501 -0.00000000000E+00  0.00000000000E+00  0.39812352635E+03  0.39812352635E+03  0.00000000000E+00 0.  1.
          1   -1    0    0  502    0  0.00000000000E+00 -0.00000000000E+00 -0.11527559317E+03  0.11527559317E+03  0.00000000000E+00 0. -1.
         23    2    1    2    0    0 -0.13944291259E+02  0.19299847975E+02  0.28711207257E+03  0.30157803206E+03  0.89157387889E+02 0.  0.
        -24    2    1    2    0    0  0.37998814392E+02 -0.16524143831E+02 -0.88406149683E+02  0.12426423443E+03  0.76869990455E+02 0.  0.
         11    1    4    4    0    0 -0.19091161474E+02  0.12799203191E+02 -0.20056892242E+02  0.30505261434E+02  0.00000000000E+00 0. -1.
        -12    1    4    4    0    0  0.57089975866E+02 -0.29323347022E+02 -0.68349257441E+02  0.93758972998E+02  0.00000000000E+00 0.  1.
        -11    1    3    3    0    0  0.15244273348E+01  0.53701948374E+02  0.18820029028E+03  0.19571809421E+03  0.00000000000E+00 0.  1.
         11    1    3    3    0    0 -0.15468718594E+02 -0.34402100399E+02  0.98911782289E+02  0.10585993785E+03  0.00000000000E+00 0. -1.
         21    1    1    2  502  501 -0.24054523133E+02 -0.27757041446E+01  0.84142010291E+02  0.87556853030E+02  0.00000000000E+00 0.  1.
<scales pt_clust_5="13000.00000" pt_clust_6="13000.00000" pt_clust_7="13000.00000" pt_clust_8="13000.00000" pt_clust_9="24.21414"></scales>
<clustering>
<clus scale="   24.214">  1  9  2 -1</clus>
<clus scale="   76.870">  5  6 -1 -1</clus>
<clus scale="   86.765">  2  5  1 -1</clus>
<clus scale="   89.157">  7  8 -1 -1</clus>
<clus scale="   86.765">  2  5  1 -1</clus>
</clustering>
</event>
<event>
 9    1  0.2333971E-005  0.1296399E+03  0.7546771E-02  0.1230420E+00
         -4   -1    0    0    0  501 -0.00000000000E+00  0.00000000000E+00  0.39440290365E+03  0.39440290365E+03  0.00000000000E+00 0.  1.
          3   -1    0    0  502    0  0.00000000000E+00 -0.00000000000E+00 -0.96768105124E+02  0.96768105124E+02  0.00000000000E+00 0. -1.
         23    2    1    2    0    0  0.11719990394E+03  0.66048969316E+02  0.16589311191E+03  0.23165313996E+03  0.89690405539E+02 0.  0.
        -24    2    1    2    0    0 -0.83512840600E+02 -0.59565736337E+01  0.59762687137E+01  0.11612032840E+03  0.80239264483E+02 0.  0.
         11    1    4    4    0    0 -0.89848098889E+02  0.17078094772E+02 -0.15178739058E+00  0.91456903700E+02  0.00000000000E+00 0. -1.
        -12    1    4    4    0    0  0.63352582889E+01 -0.23034668406E+02  0.61280561043E+01  0.24663424697E+02  0.00000000000E+00 0.  1.
        -11    1    3    3    0    0  0.34677040841E+02 -0.16750021002E+02  0.16342638592E+02  0.41834700922E+02  0.00000000000E+00 0. -1.
         11    1    3    3    0    0  0.82522863099E+02  0.82798990318E+02  0.14955047331E+03  0.18981843904E+03  0.00000000000E+00 0.  1.
         21    1    1    2  502  501 -0.33687063340E+02 -0.60092395683E+02  0.12576541791E+03  0.14339754042E+03  0.00000000000E+00 0. -1.
<scales pt_clust_5="13000.00000" pt_clust_6="13000.00000" pt_clust_7="13000.00000" pt_clust_8="13000.00000" pt_clust_9="68.89060"></scales>
<clustering>
<clus scale="   68.891">  1  9  2 -1</clus>
<clus scale="   80.239">  5  6 -1 -1</clus>
<clus scale="   89.690">  7  8 -1 -1</clus>
<clus scale="  123.290">  2  5  1 -1</clus>
<clus scale="  123.290">  2  5  1 -1</clus>
</clustering>
</event>
<event>
 9    1  0.2333971E-005  0.1283829E+03  0.7546771E-02  0.1238356E+00
          3   -1    0    0  502    0  0.00000000000E+00  0.00000000000E+00  0.16185568466E+03  0.16185568466E+03  0.00000000000E+00 0. -1.
         -4   -1    0    0    0  501 -0.00000000000E+00 -0.00000000000E+00 -0.30935962348E+03  0.30935962348E+03  0.00000000000E+00 0.  1.
         23    2    1    2    0    0  0.96307673511E+02 -0.61534066585E+02 -0.21205281075E+03  0.26351523637E+03  0.10682825434E+03 0.  0.
        -24    2    1    2    0    0 -0.64586443647E+02  0.19379105831E+02  0.99049318715E+02  0.14466390779E+03  0.81055044461E+02 0.  0.
         13    1    4    4    0    0 -0.63433814496E+02  0.31541812628E+02  0.34186173064E+02  0.78660213540E+02  0.00000000000E+00 0. -1.
        -14    1    4    4    0    0 -0.11526291510E+01 -0.12162706797E+02  0.64863145650E+02  0.66003694247E+02  0.00000000000E+00 0.  1.
        -11    1    3    3    0    0  0.11531267806E+03 -0.36803132731E+02 -0.19013354529E+03  0.22539354327E+03  0.00000000000E+00 0.  1.
         11    1    3    3    0    0 -0.19005004545E+02 -0.24730933854E+02 -0.21919265456E+02  0.38121693105E+02  0.00000000000E+00 0. -1.
         21    1    1    2  502  501 -0.31721229864E+02  0.42154960754E+02 -0.34500446784E+02  0.63036163974E+02  0.00000000000E+00 0. -1.
<scales pt_clust_5="13000.00000" pt_clust_6="13000.00000" pt_clust_7="13000.00000" pt_clust_8="13000.00000" pt_clust_9="52.75677"></scales>
<clustering>
<clus scale="   52.757">  2  9  1 -1</clus>
<clus scale="   81.055">  5  6 -1 -1</clus>
<clus scale="  106.828">  7  8 -1 -1</clus>
<clus scale="  107.888">  1  5  2 -1</clus>
<clus scale="  107.888">  1  5  2 -1</clus>
</clustering>
</event>
<event>
 9    1  0.2333971E-005  0.9525599E+02  0.7546771E-02  0.1293087E+00
         -2   -1    0    0    0  501 -0.00000000000E+00  0.00000000000E+00  0.52483372741E+02  0.52483372741E+02  0.00000000000E+00 0.  1.
          1   -1    0    0  502    0  0.00000000000E+00 -0.00000000000E+00 -0.40201281966E+03  0.40201281966E+03  0.00000000000E+00 0. -1.
         23    2    1    2    0    0 -0.45088934661E+01  0.56191821844E+02 -0.71747718465E+02  0.12536814282E+03  0.85974328528E+02 0.  0.
        -24    2    1    2    0    0  0.12530030056E+02 -0.35350426130E+02 -0.29014128944E+03  0.30360431249E+03  0.81160066809E+02 0.  0.
         13    1    4    4    0    0 -0.27262394616E+01  0.24745276149E+02 -0.11904710900E+03  0.12162226455E+03  0.00000000000E+00 0. -1.
        -14    1    4    4    0    0  0.15256269517E+02 -0.60095702279E+02 -0.17109418044E+03  0.18198204794E+03  0.00000000000E+00 0.  1.
        -13    1    3    3    0    0 -0.26019731979E+02 -0.13372479748E+02 -0.27577531693E+02  0.40204103287E+02  0.00000000000E+00 0. -1.
         13    1    3    3    0    0  0.21510838513E+02  0.69564301592E+02 -0.44170186772E+02  0.85164039530E+02  0.00000000000E+00 0.  1.
         21    1    1    2  502  501 -0.80211365897E+01 -0.20841395715E+02  0.12359560984E+02  0.25523737094E+02  0.00000000000E+00 0.  1.
<scales pt_clust_5="13000.00000" pt_clust_6="13000.00000" pt_clust_7="13000.00000" pt_clust_8="13000.00000" pt_clust_9="22.33165"></scales>
<clustering>
<clus scale="   22.332">  1  9  2 -1</clus>
<clus scale="   81.160">  5  6 -1 -1</clus>
<clus scale="   85.974">  7  8 -1 -1</clus>
<clus scale="   90.934">  2  5  1 -1</clus>
<clus scale="   90.934">  2  5  1 -1</clus>
</clustering>
</event>
<event>
 9    1  0.2333971E-005  0.9425210E+02  0.7546771E-02  0.1301128E+00
          3   -1    0    0  502    0  0.00000000000E+00  0.00000000000E+00  0.33712374908E+02  0.33712374908E+02  0.00000000000E+00 0. -1.
         -4   -1    0    0    0  501 -0.00000000000E+00 -0.00000000000E+00 -0.35290838882E+03  0.35290838882E+03  0.00000000000E+00 0.  1.
         23    2    1    2    0    0  0.26610414630E+02 -0.13338070918E+02 -0.23206514355E+03  0.25160084880E+03  0.92535063403E+02 0.  0.
        -24    2    1    2    0    0 -0.15108669143E+02 -0.34823142850E+01 -0.56591824052E+02  0.98306853811E+02  0.78874612904E+02 0.  0.
         13    1    4    4    0    0 -0.37309487464E+01 -0.38165287294E+02 -0.10981050331E+02  0.39888502092E+02  0.00000000000E+00 0. -1.
        -14    1    4    4    0    0 -0.11377720396E+02  0.34682973009E+02 -0.45610773721E+02  0.58418351719E+02  0.00000000000E+00 0.  1.
        -13    1    3    3    0    0  0.79462257696E+01  0.30336732552E+02 -0.17294506627E+03  0.17576534298E+03  0.00000000000E+00 0.  1.
         13    1    3    3    0    0  0.18664188861E+02 -0.43674803470E+02 -0.59120077282E+02  0.75835505812E+02  0.00000000000E+00 0. -1.
         21    1    1    2  502  501 -0.11501745487E+02  0.16820385203E+02 -0.30539046308E+02  0.36713061123E+02  0.00000000000E+00 0.  1.
<scales pt_clust_5="13000.00000" pt_clust_6="13000.00000" pt_clust_7="13000.00000" pt_clust_8="13000.00000" pt_clust_9="20.37684"></scales>
<clustering>
<clus scale="   20.377">  2  9  1 -1</clus>
<clus scale="   78.875">  5  6 -1 -1</clus>
<clus scale="   80.882">  1  5  2 -1</clus>
<clus scale="   92.535">  7  8 -1 -1</clus>
<clus scale="   80.882">  1  5  2 -1</clus>
</clustering>
</event>
<event>
 9    1  0.2333971E-005  0.1716830E+03  0.7546771E-02  0.1176382E+00
         -2   -1    0    0    0  501 -0.00000000000E+00  0.00000000000E+00  0.10602587790E+03  0.10602587790E+03  0.00000000000E+00 0.  1.
          1   -1    0    0  502    0  0.00000000000E+00 -0.00000000000E+00 -0.52596989222E+03  0.52596989222E+03  0.00000000000E+00 0. -1.
        -24    2    1    2    0    0  0.93917027542E+02 -0.13561717554E+03 -0.39243665476E+02  0.19343395284E+03  0.93081697813E+02 0.  0.
         23    2    1    2    0    0 -0.56915850249E+02  0.67377906329E+02 -0.30425468493E+03  0.32961401089E+03  0.91078463980E+02 0.  0.
         13    1    3    3    0    0  0.19646144640E+02 -0.40929285083E+02 -0.55825403925E+02  0.71955910807E+02  0.00000000000E+00 0. -1.
        -14    1    3    3    0    0  0.74270882902E+02 -0.94687890462E+02  0.16581738449E+02  0.12147804204E+03  0.00000000000E+00 0.  1.
        -11    1    4    4    0    0  0.95059185489E+01  0.58990702258E+02 -0.14949534505E+03  0.16099417266E+03  0.00000000000E+00 0.  1.
         11    1    4    4    0    0 -0.66421768798E+02  0.83872040708E+01 -0.15475933988E+03  0.16861983823E+03  0.00000000000E+00 0. -1.
         21    1    1    2  502  501 -0.37001177293E+02  0.68239269216E+02 -0.76445663916E+02  0.10894780638E+03  0.00000000000E+00 0.  1.
<scales pt_clust_5="13000.00000" pt_clust_6="13000.00000" pt_clust_7="13000.00000" pt_clust_8="13000.00000" pt_clust_9="77.62529"></scales>
<clustering>
<clus scale="   77.625">  2  9  1 -1</clus>
<clus scale="   91.078">  7  8 -1 -1</clus>
<clus scale="   93.082">  5  6 -1 -1</clus>
<clus scale="  170.605">  2  7  1 -1</clus>
<clus scale="   77.625">  2  5  1 -1</clus>
</clustering>
</event>
<event>
 9    1  0.2333971E-005  0.1176017E+03  0.7546771E-02  0.1253806E+00
          1   -1    0    0  502    0  0.00000000000E+00  0.00000000000E+00  0.13447963609E+03  0.13447963609E+03  0.00000000000E+00 0. -1.
         -2   -1    0    0    0  501 -0.00000000000E+00 -0.00000000000E+00 -0.39239611468E+03  0.39239611468E+03  0.00000000000E+00 0.  1.
        -24    2    1    2    0    0  0.10629891774E+02 -0.64183879091E+02 -0.26948176890E+03  0.28845239040E+03  0.79698135632E+02 0.  0.
         23    2    1    2    0    0 -0.36061935633E+02 -0.46697335201E+02  0.48324481169E+02  0.11887140242E+03  0.91181415408E+02 0.  0.
         13    1    3    3    0    0  0.14057123350E+02 -0.82674144105E+02 -0.21255602214E+03  0.22850093953E+03  0.00000000000E+00 0. -1.
        -14    1    3    3    0    0 -0.34272315761E+01  0.18490265014E+02 -0.56925746759E+02  0.59951450863E+02  0.00000000000E+00 0.  1.
        -13    1    4    4    0    0  0.29587768656E+02 -0.35997527164E+01  0.96226960124E+01  0.31320768704E+02  0.00000000000E+00 0. -1.
         13    1    4    4    0    0 -0.65649704289E+02 -0.43097582485E+02  0.38701785157E+02  0.87550633713E+02  0.00000000000E+00 0.  1.
         21    1    1    2  502  501  0.25432043859E+02  0.11088121429E+03 -0.36759190865E+02  0.11955195795E+03  0.00000000000E+00 0.  1.
<scales pt_clust_5="13000.00000" pt_clust_6="13000.00000" pt_clust_7="13000.00000" pt_clust_8="13000.00000" pt_clust_9="74.27052"></scales>
<clustering>
<clus scale="   79.698">  5  6 -1 -1</clus>
<clus scale="   91.181">  7  8 -1 -1</clus>
<clus scale="  102.880">  2  5  1 -1</clus>
<clus scale="   74.271">  2  9  1 -1</clus>
<clus scale="  117.602">  1  5  2 -1</clus>
</clustering>
</event>
<event>
 9    1  0.2333971E-005  0.9283892E+02  0.7546771E-02  0.1301270E+00
         -2   -1    0    0    0  501 -0.00000000000E+00  0.00000000000E+00  0.14318538471E+03  0.14318538471E+03  0.00000000000E+00 0.  1.
          1   -1    0    0  502    0  0.00000000000E+00 -0.00000000000E+00 -0.43628070040E+03  0.43628070040E+03  0.00000000000E+00 0. -1.
         23    2    1    2    0    0  0.23837538975E+02 -0.28143265864E+02  0.65953869248E+02  0.11757444934E+03  0.90075338421E+02 0.  0.
        -24    2    1    2    0    0 -0.81586859798E+01 -0.23074060145E+02 -0.39059510563E+03  0.39972905838E+03  0.81362197396E+02 0.  0.
         13    1    4    4    0    0 -0.40890405979E+01 -0.53693325676E+02 -0.26196254175E+03  0.26743983764E+03  0.00000000000E+00 0. -1.
        -14    1    4    4    0    0 -0.40696453819E+01  0.30619265531E+02 -0.12863256388E+03  0.13228922074E+03  0.00000000000E+00 0.  1.
        -11    1    3    3    0    0 -0.29862071515E+02 -0.31425107882E+02  0.33027442957E+02  0.54498556942E+02  0.00000000000E+00 0. -1.
         11    1    3    3    0    0  0.53699610490E+02  0.32818420184E+01  0.32926426291E+02  0.63075892400E+02  0.00000000000E+00 0.  1.
         21    1    1    2  502  501 -0.15678852995E+02  0.51217326009E+02  0.31545920691E+02  0.62162577384E+02  0.00000000000E+00 0.  1.
<scales pt_clust_5="13000.00000" pt_clust_6="13000.00000" pt_clust_7="13000.00000" pt_clust_8="13000.00000" pt_clust_9="53.56343"></scales>
<clustering>
<clus scale="   53.563">  1  9  2 -1</clus>
<clus scale="   81.362">  5  6 -1 -1</clus>
<clus scale="   84.412">  2  5  1 -1</clus>
<clus scale="   90.075">  7  8 -1 -1</clus>
<clus scale="   84.412">  2  5  1 -1</clus>
</clustering>
</event>
<event>
 9    1  0.2333971E-005  0.1289768E+03  0.7546771E-02  0.1231673E+00
         -2   -1    0    0    0  501 -0.00000000000E+00  0.00000000000E+00  0.69661955987E+02  0.69661955987E+02  0.00000000000E+00 0.  1.
          1   -1    0    0  502    0  0.00000000000E+00 -0.00000000000E+00 -0.30419944970E+03  0.30419944970E+03  0.00000000000E+00 0. -1.
        -24    2    1    2    0    0 -0.38357804911E+02 -0.98545373645E+02 -0.12400321004E+03  0.18149956119E+03  0.79892319695E+02 0.  0.
         23    2    1    2    0    0  0.41821287406E+02  0.68449205203E+02 -0.10800966691E+03  0.16196202944E+03  0.90173704934E+02 0.  0.
         11    1    3    3    0    0 -0.35539248882E+02 -0.35619386198E+02 -0.10379527700E+03  0.11534833511E+03  0.00000000000E+00 0. -1.
        -12    1    3    3    0    0 -0.28185560297E+01 -0.62925987447E+02 -0.20207933042E+02  0.66151226082E+02  0.00000000000E+00 0.  1.
        -11    1    4    4    0    0  0.34767285619E+02  0.17745603102E+02 -0.10344777692E+03  0.11056723352E+03  0.00000000000E+00 0. -1.
         11    1    4    4    0    0  0.70540017869E+01  0.50703602101E+02 -0.45618899862E+01  0.51394795918E+02  0.00000000000E+00 0.  1.
         21    1    1    2  502  501 -0.34634824944E+01  0.30096168442E+02 -0.25246167646E+01  0.30399815060E+02  0.00000000000E+00 0.  1.
<scales pt_clust_5="13000.00000" pt_clust_6="13000.00000" pt_clust_7="13000.00000" pt_clust_8="13000.00000" pt_clust_9="30.29480"></scales>
<clustering>
<clus scale="   30.295">  1  9  2 -1</clus>
<clus scale="   79.892">  5  6 -1 -1</clus>
<clus scale="   90.174">  7  8 -1 -1</clus>
<clus scale="  122.010">  1  5  2 -1</clus>
<clus scale="  128.977">  2  5  1 -1</clus>
</clustering>
</event>
<event>
 9    1  0.2333971E-005  0.1387746E+03  0.7546771E-02  0.1216159E+00
          1   -1    0    0  502    0  0.00000000000E+00  0.00000000000E+00  0.29560413027E+03  0.29560413027E+03  0.00000000000E+00 0. -1.
         -2   -1    0    0    0  501 -0.00000000000E+00 -0.00000000000E+00 -0.12025517738E+03  0.12025517738E+03  0.00000000000E+00 0.  1.
        -24    2    1    2    0    0  0.57109359350E+02 -0.78604785371E+02 -0.33250398927E+02  0.13437634699E+03  0.86667308672E+02 0.  0.
         23    2    1    2    0    0 -0.80129388618E+02  0.69718779484E+02  0.21424093097E+03  0.25617070546E+03  0.91884855679E+02 0.  0.
         13    1    3    3    0    0 -0.16394600301E+02 -0.11474434836E+02  0.13763252150E+02  0.24287294694E+02  0.00000000000E+00 0. -1.
        -14    1    3    3    0    0  0.73503959651E+02 -0.67130350535E+02 -0.47013651077E+02  0.11008905229E+03  0.00000000000E+00 0.  1.
        -13    1    4    4    0    0 -0.60548080533E+02  0.32248431450E+02  0.45750445980E+02  0.82456865660E+02  0.00000000000E+00 0.  1.
         13    1    4    4    0    0 -0.19581308086E+02  0.37470348034E+02  0.16849048499E+03  0.17371383980E+03  0.00000000000E+00 0. -1.
         21    1    1    2  502  501  0.23020029269E+02  0.88860058869E+01 -0.56415791496E+01  0.25312255203E+02  0.00000000000E+00 0. -1.
<scales pt_clust_5="13000.00000" pt_clust_6="13000.00000" pt_clust_7="13000.00000" pt_clust_8="13000.00000" pt_clust_9="24.67555"></scales>
<clustering>
<clus scale="   24.676">  2  9  1 -1</clus>
<clus scale="   86.667">  5  6 -1 -1</clus>
<clus scale="   91.885">  7  8 -1 -1</clus>
<clus scale="  135.376">  2  5  1 -1</clus>
<clus scale="  138.775">  1  5  2 -1</clus>
</clustering>
</event>
<event>
 9    1  0.2333971E-005  0.1693597E+03  0.7546771E-02  0.1180000E+00
         -2   -1    0    0    0  501 -0.00000000000E+00  0.00000000000E+00  0.26080727427E+03  0.26080727427E+03  0.00000000000E+00 0.  1.
          1   -1    0    0  502    0  0.00000000000E+00 -0.00000000000E+00 -0.59121672440E+03  0.59121672440E+03  0.00000000000E+00 0. -1.
        -24    2    1    2    0    0 -0.16794796333E+03  0.23275281394E+02  0.52825723210E+02  0.19442348604E+03  0.79130763801E+02 0.  0.
         23    2    1    2    0    0  0.13905984535E+03 -0.20600669746E+02 -0.50528225977E+03  0.53215264212E+03  0.90079100209E+02 0.  0.
         13    1    3    3    0    0 -0.15680858576E+03 -0.22396691000E+01  0.33037041091E+02  0.16026663649E+03  0.00000000000E+00 0. -1.
        -14    1    3    3    0    0 -0.11139377568E+02  0.25514950494E+02  0.19788682119E+02  0.34156849552E+02  0.00000000000E+00 0.  1.
        -13    1    4    4    0    0  0.30148814733E+02  0.32415732347E+02 -0.10517689496E+03  0.11411358362E+03  0.00000000000E+00 0.  1.
         13    1    4    4    0    0  0.10891103062E+03 -0.53016402093E+02 -0.40010536482E+03  0.41803905851E+03  0.00000000000E+00 0. -1.
         21    1    1    2  502  501  0.28888117981E+02 -0.26746116488E+01  0.12204708643E+03  0.12544787050E+03  0.00000000000E+00 0.  1.
<scales pt_clust_5="13000.00000" pt_clust_6="13000.00000" pt_clust_7="13000.00000" pt_clust_8="13000.00000" pt_clust_9="29.01167"></scales>
<clustering>
<clus scale="   29.012">  1  9  2 -1</clus>
<clus scale="   79.131">  5  6 -1 -1</clus>
<clus scale="   90.079">  7  8 -1 -1</clus>
<clus scale="  163.799">  1  5  2 -1</clus>
<clus scale="  169.360">  2  5  1 -1</clus>
</clustering>
</event>
<event>
 9    1  0.2333971E-005  0.1966270E+03  0.7546771E-02  0.1153416E+00
         -2   -1    0    0    0  501 -0.00000000000E+00  0.00000000000E+00  0.45070099739E+03  0.45070099739E+03  0.00000000000E+00 0.  1.
          1   -1    0    0  502    0  0.00000000000E+00 -0.00000000000E+00 -0.34412691990E+03  0.34412691990E+03  0.00000000000E+00 0. -1.
         23    2    1    2    0    0  0.49014633389E+02 -0.18820039365E+03  0.32213442384E+03  0.38722429022E+03  0.91379655607E+02 0.  0.
        -24    2    1    2    0    0 -0.39440058674E+02  0.16783628624E+03 -0.28009392026E+03  0.33925926729E+03  0.83184788689E+02 0.  0.
         11    1    4    4    0    0 -0.41140245818E+02  0.14139488010E+03 -0.27547399995E+03  0.31236350074E+03  0.00000000000E+00 0. -1.
        -12    1    4    4    0    0  0.17001871444E+01  0.26441406139E+02 -0.46199203134E+01  0.26895766556E+02  0.00000000000E+00 0.  1.
        -13    1    3    3    0    0  0.24459618022E+02 -0.93386782242E+02  0.77779756821E+02  0.12397199112E+03  0.00000000000E+00 0. -1.
         13    1    3    3    0    0  0.24555015368E+02 -0.94813611406E+02  0.24435466702E+03  0.26325229910E+03  0.00000000000E+00 0.  1.
         21    1    1    2  502  501 -0.95745747155E+01  0.20364107408E+02  0.64533573910E+02  0.68344359776E+02  0.00000000000E+00 0.  1.
<scales pt_clust_5="13000.00000" pt_clust_6="13000.00000" pt_clust_7="13000.00000" pt_clust_8="13000.00000" pt_clust_9="22.50265"></scales>
<clustering>
<clus scale="   22.503">  1  9  2 -1</clus>
<clus scale="   83.185">  5  6 -1 -1</clus>
<clus scale="   91.380">  7  8 -1 -1</clus>
<clus scale="  192.955">  2  5  1 -1</clus>
<clus scale="  192.955">  2  5  1 -1</clus>
</clustering>
</event>
<event>
 9    1  0.2333971E-005  0.1768722E+03  0.7546771E-02  0.1172001E+00
         -2   -1    0    0    0  501 -0.00000000000E+00  0.00000000000E+00  0.32963343840E+03  0.32963343840E+03  0.00000000000E+00 0.  1.
          1   -1    0    0  502    0  0.00000000000E+00 -0.00000000000E+00 -0.23734941066E+03  0.23734941066E+03  0.00000000000E+00 0. -1.
        -24    2    1    2    0    0  0.27235945091E+02  0.17115246267E+03  0.21348216288E+03  0.28607289752E+03  0.78918354304E+02 0.  0.
         23    2    1    2    0    0 -0.37931337587E+01 -0.15023624262E+03 -0.15605735925E+03  0.23398214347E+03  0.88365307818E+02 0.  0.
         13    1    3    3    0    0  0.23565915136E+02  0.31859807019E+02  0.12577643922E+02  0.41576396983E+02  0.00000000000E+00 0. -1.
        -14    1    3    3    0    0  0.36700299547E+01  0.13929265565E+03  0.20090451896E+03  0.24449650054E+03  0.00000000000E+00 0.  1.
        -13    1    4    4    0    0  0.37572197769E+01 -0.51245580941E+02 -0.11610421734E+03  0.12696619846E+03  0.00000000000E+00 0. -1.
         13    1    4    4    0    0 -0.75503535356E+01 -0.98990661679E+02 -0.39953141911E+02  0.10701594501E+03  0.00000000000E+00 0.  1.
         21    1    1    2  502  501 -0.23442811332E+02 -0.20916220048E+02  0.34859224121E+02  0.46927808073E+02  0.00000000000E+00 0.  1.
<scales pt_clust_5="13000.00000" pt_clust_6="13000.00000" pt_clust_7="13000.00000" pt_clust_8="13000.00000" pt_clust_9="31.41741"></scales>
<clustering>
<clus scale="   31.417">  1  9  2 -1</clus>
<clus scale="   78.918">  5  6 -1 -1</clus>
<clus scale="   88.365">  7  8 -1 -1</clus>
<clus scale="  172.347">  1  5  2 -1</clus>
<clus scale="  176.872">  2  5  1 -1</clus>
</clustering>
</event>
<event>
 9    1  0.2333971E-005  0.1296781E+03  0.7546771E-02  0.1230720E+00
          1   -1    0    0  502    0  0.00000000000E+00  0.00000000000E+00  0.17947179236E+03  0.17947179236E+03  0.00000000000E+00 0. -1.
         -2   -1    0    0    0  501 -0.00000000000E+00 -0.00000000000E+00 -0.20315945784E+03  0.20315945784E+03  0.00000000000E+00 0.  1.
        -24    2    1    2    0    0 -0.16333223777E+02 -0.52000508204E+02 -0.11820643609E+03  0.15227278484E+03  0.79015266978E+02 0.  0.
         23    2    1    2    0    0  0.11404778740E+01  0.10357842783E+03  0.10843596208E+03  0.17481758367E+03  0.89850087851E+02 0.  0.
         11    1    3    3    0    0 -0.33838097666E+01 -0.23297609324E+02  0.58701253295E+01  0.24262875760E+02  0.00000000000E+00 0. -1.
        -12    1    3    3    0    0 -0.12949414010E+02 -0.28702898880E+02 -0.12407656142E+03  0.12800990908E+03  0.00000000000E+00 0.  1.
        -11    1    4    4    0    0 -0.23790095170E+02  0.14597735360E+02 -0.51580944543E+01  0.28384299256E+02  0.00000000000E+00 0.  1.
         11    1    4    4    0    0  0.24930573044E+02  0.88980692474E+02  0.11359405653E+03  0.14643328442E+03  0.00000000000E+00 0. -1.
         21    1    1    2  502  501  0.15192745903E+02 -0.51577919629E+02 -0.13917191469E+02  0.55540881697E+02  0.00000000000E+00 0.  1.
<scales pt_clust_5="13000.00000" pt_clust_6="13000.00000" pt_clust_7="13000.00000" pt_clust_8="13000.00000" pt_clust_9="53.76896"></scales>
<clustering>
<clus scale="   53.769">  2  9  1 -1</clus>
<clus scale="   79.015">  5  6 -1 -1</clus>
<clus scale="   89.850">  7  8 -1 -1</clus>
<clus scale="  122.420">  2  5  1 -1</clus>
<clus scale="  129.678">  1  5  2 -1</clus>
</clustering>
</event>
<event>
 9    1  0.2333971E-005  0.1337811E+03  0.7546771E-02  0.1222223E+00
          1   -1    0    0  502    0  0.00000000000E+00  0.00000000000E+00  0.24048872201E+03  0.24048872201E+03  0.00000000000E+00 0. -1.
         -2   -1    0    0    0  501 -0.00000000000E+00 -0.00000000000E+00 -0.20577210677E+03  0.20577210677E+03  0.00000000000E+00 0.  1.
        -24    2    1    2    0    0 -0.56742779131E+02 -0.71552160355E+02 -0.94683311538E+02  0.15423064906E+03  0.80515271791E+02 0.  0.
         23    2    1    2    0    0  0.36047958970E+02  0.10324700206E+03  0.18181252993E+03  0.22737788246E+03  0.81764947340E+02 0.  0.
         11    1    3    3    0    0 -0.15692724754E+02 -0.78383750224E+02 -0.66335103879E+02  0.10387790870E+03  0.00000000000E+00 0. -1.
        -12    1    3    3    0    0 -0.41050054377E+02  0.68315898690E+01 -0.28348207659E+02  0.50352740362E+02  0.00000000000E+00 0.  1.
        -11    1    4    4    0    0 -0.19951035651E+01  0.97048226217E+02  0.11761647652E+03  0.15249909574E+03  0.00000000000E+00 0.  1.
         11    1    4    4    0    0  0.38043062535E+02  0.61987758434E+01  0.64196053401E+02  0.74878786724E+02  0.00000000000E+00 0. -1.
         21    1    1    2  502  501  0.20694820161E+02 -0.31694841705E+02 -0.52412603145E+02  0.64652297257E+02  0.00000000000E+00 0. -1.
<scales pt_clust_5="13000.00000" pt_clust_6="13000.00000" pt_clust_7="13000.00000" pt_clust_8="13000.00000" pt_clust_9="37.85285"></scales>
<clustering>
<clus scale="   37.853">  2  9  1 -1</clus>
<clus scale="   80.515">  5  6 -1 -1</clus>
<clus scale="   81.765">  7  8 -1 -1</clus>
<clus scale="  133.021">  2  5  1 -1</clus>
<clus scale="  133.781">  1  5  2 -1</clus>
</clustering>
</event>
<event>
 9    1  0.2333971E-005  0.1166635E+03  0.7546771E-02  0.1252909E+00
          1   -1    0    0  502    0  0.00000000000E+00  0.00000000000E+00  0.16404323781E+02  0.16404323781E+02  0.00000000000E+00 0. -1.
         -2   -1    0    0    0  501 -0.00000000000E+00 -0.00000000000E+00 -0.93088636824E+03  0.93088636824E+03  0.00000000000E+00 0.  1.
        -24    2    1    2    0    0 -0.37679328563E+02  0.72804013382E+02 -0.45625654779E+03  0.47038743150E+03  0.79838224809E+02 0.  0.
         23    2    1    2    0    0  0.22818229349E+02 -0.58967404812E+02 -0.37868046132E+03  0.39480748320E+03  0.92066446566E+02 0.  0.
         11    1    3    3    0    0  0.54346334196E+01  0.61424454814E+02 -0.34606039750E+03  0.35151144733E+03  0.00000000000E+00 0. -1.
        -12    1    3    3    0    0 -0.43113961983E+02  0.11379558568E+02 -0.11019615029E+03  0.11887598416E+03  0.00000000000E+00 0.  1.
        -11    1    4    4    0    0  0.32483934059E+02 -0.81090115986E+02 -0.28681297265E+03  0.29982077006E+03  0.00000000000E+00 0.  1.
         11    1    4    4    0    0 -0.96657047099E+01  0.22122711174E+02 -0.91867488674E+02  0.94986713137E+02  0.00000000000E+00 0. -1.
         21    1    1    2  502  501  0.14861099214E+02 -0.13836608570E+02 -0.79545035350E+02  0.82095777330E+02  0.00000000000E+00 0.  1.
<scales pt_clust_5="13000.00000" pt_clust_6="13000.00000" pt_clust_7="13000.00000" pt_clust_8="13000.00000" pt_clust_9="20.30527"></scales>
<clustering>
<clus scale="   20.305">  2  9  1 -1</clus>
<clus scale="   79.838">  5  6 -1 -1</clus>
<clus scale="   92.066">  7  8 -1 -1</clus>
<clus scale="  107.277">  2  5  1 -1</clus>
<clus scale="  116.663">  1  5  2 -1</clus>
</clustering>
</event>
<event>
 9    1  0.3966845E-005  0.5827185E+03  0.7546771E-02  0.9942598E-01
         -2   -1    0    0    0  501 -0.00000000000E+00  0.00000000000E+00  0.37738663454E+03  0.37738663454E+03  0.00000000000E+00 0.  1.
          1   -1    0    0  502    0  0.00000000000E+00 -0.00000000000E+00 -0.15575256759E+04  0.15575256759E+04  0.00000000000E+00 0. -1.
        -24    2    1    2    0    0 -0.39958746072E+03  0.46214420100E+03 -0.43940646562E+02  0.61810061957E+03  0.82886634639E+02 0.  0.
         23    2    1    2    0    0  0.40918491969E+03 -0.39291830892E+03 -0.10925092993E+04  0.12343915937E+04  0.91263034997E+02 0.  0.
         13    1    3    3    0    0 -0.13241616404E+03  0.17458248503E+03 -0.53147588691E+02  0.22547228380E+03  0.00000000000E+00 0. -1.
        -14    1    3    3    0    0 -0.26717129668E+03  0.28756171597E+03  0.92069421297E+01  0.39262833577E+03  0.00000000000E+00 0.  1.
        -13    1    4    4    0    0  0.36231369431E+03 -0.31317597858E+03 -0.95957406421E+03  0.10724424420E+04  0.00000000000E+00 0. -1.
         13    1    4    4    0    0  0.46871225389E+02 -0.79742330340E+02 -0.13293523509E+03  0.16194915173E+03  0.00000000000E+00 0.  1.
         21    1    1    2  502  501 -0.95974589710E+01 -0.69225892077E+02 -0.43689095521E+02  0.82420097185E+02  0.00000000000E+00 0. -1.
<scales pt_clust_5="13000.00000" pt_clust_6="13000.00000" pt_clust_7="13000.00000" pt_clust_8="13000.00000" pt_clust_9="69.88802"></scales>
<clustering>
<clus scale="   69.888">  1  9  2 -1</clus>
<clus scale="   82.887">  5  6 -1 -1</clus>
<clus scale="   91.263">  7  8 -1 -1</clus>
<clus scale="  581.465">  1  5  2 -1</clus>
<clus scale="  582.718">  2  5  1 -1</clus>
</clustering>
</event>
<event>
 9    1  0.2333971E-005  0.9911444E+02  0.7546771E-02  0.1287419E+00
          1   -1    0    0  502    0  0.00000000000E+00  0.00000000000E+00  0.15169093206E+03  0.15169093206E+03  0.00000000000E+00 0. -1.
         -2   -1    0    0    0  501 -0.00000000000E+00 -0.00000000000E+00 -0.15544456558E+03  0.15544456558E+03  0.00000000000E+00 0.  1.
        -24    2    1    2    0    0  0.30584246010E+02 -0.48200136585E+02 -0.82669702287E+02  0.12875280647E+03  0.80525500469E+02 0.  0.
         23    2    1    2    0    0 -0.23768891741E+02  0.27789556773E+02  0.10565930978E+03  0.14405716479E+03  0.90836982025E+02 0.  0.
         13    1    3    3    0    0  0.28508680356E+02 -0.70372055855E+02 -0.58201179497E+02  0.95667906822E+02  0.00000000000E+00 0. -1.
        -14    1    3    3    0    0  0.20755656532E+01  0.22171919270E+02 -0.24468522790E+02  0.33084899644E+02  0.00000000000E+00 0.  1.
        -13    1    4    4    0    0 -0.91306436304E+01  0.43577821592E+02  0.95121178354E+01  0.45528843314E+02  0.00000000000E+00 0.  1.
         13    1    4    4    0    0 -0.14638248111E+02 -0.15788264819E+02  0.96147191944E+02  0.98528321474E+02  0.00000000000E+00 0. -1.
         21    1    1    2  502  501 -0.68153542687E+01  0.20410579812E+02 -0.26743241010E+02  0.34325526388E+02  0.00000000000E+00 0.  1.
<scales pt_clust_5="13000.00000" pt_clust_6="13000.00000" pt_clust_7="13000.00000" pt_clust_8="13000.00000" pt_clust_9="21.51838"></scales>
<clustering>
<clus scale="   21.518">  2  9  1 -1</clus>
<clus scale="   80.526">  5  6 -1 -1</clus>
<clus scale="   89.759">  2  5  1 -1</clus>
<clus scale="   90.837">  7  8 -1 -1</clus>
<clus scale="   99.114">  1  5  2 -1</clus>
</clustering>
</event>
<event>
 9    1  0.2333971E-005  0.1119960E+03  0.7546771E-02  0.1262468E+00
          3   -1    0    0  502    0  0.00000000000E+00  0.00000000000E+00  0.12599607931E+03  0.12599607931E+03  0.00000000000E+00 0. -1.
         -4   -1    0    0    0  501 -0.00000000000E+00 -0.00000000000E+00 -0.14566155798E+03  0.14566155798E+03  0.00000000000E+00 0.  1.
        -24    2    1    2    0    0 -0.72713710035E+02  0.99003456374E+00 -0.35232578048E+02  0.11460773920E+03  0.81273215344E+02 0.  0.
         23    2    1    2    0    0  0.52237377940E+02 -0.57084977513E+01  0.47624174714E+02  0.11871975134E+03  0.95210223925E+02 0.  0.
         11    1    3    3    0    0 -0.37330259627E+02  0.38400515289E+02 -0.33329921485E+02  0.63079565031E+02  0.00000000000E+00 0. -1.
        -12    1    3    3    0    0 -0.35383450408E+02 -0.37410480725E+02 -0.19026565630E+01  0.51528174166E+02  0.00000000000E+00 0.  1.
        -11    1    4    4    0    0 -0.23763111151E+02 -0.11617560132E+02 -0.38622908129E+01  0.26731450490E+02  0.00000000000E+00 0.  1.
         11    1    4    4    0    0  0.76000489091E+02  0.59090623810E+01  0.51486465527E+02  0.91988300848E+02  0.00000000000E+00 0. -1.
         21    1    1    2  502  501  0.20476332095E+02  0.47184631876E+01 -0.32057075338E+02  0.38330146753E+02  0.00000000000E+00 0.  1.
<scales pt_clust_5="13000.00000" pt_clust_6="13000.00000" pt_clust_7="13000.00000" pt_clust_8="13000.00000" pt_clust_9="21.01295"></scales>
<clustering>
<clus scale="   21.013">  2  9  1 -1</clus>
<clus scale="   81.273">  5  6 -1 -1</clus>
<clus scale="   95.210">  7  8 -1 -1</clus>
<clus scale="  100.416">  2  5  1 -1</clus>
<clus scale="  111.996">  1  5  2 -1</clus>
</clustering>
</event>
<event>
 9    1  0.2333971E-005  0.1069925E+03  0.7546771E-02  0.1271947E+00
         -2   -1    0    0    0  501 -0.00000000000E+00  0.00000000000E+00  0.43172928420E+02  0.43172928420E+02  0.00000000000E+00 0.  1.
          1   -1    0    0  502    0  0.00000000000E+00 -0.00000000000E+00 -0.65342085755E+03  0.65342085755E+03  0.00000000000E+00 0. -1.
        -24    2    1    2    0    0 -0.29243957333E+02  0.11534549805E+02 -0.26104396072E+02  0.92262035696E+02  0.82719942316E+02 0.  0.
         23    2    1    2    0    0  0.51242040337E+02 -0.12648380375E+01 -0.55891260632E+03  0.56931772024E+03  0.95456893695E+02 0.  0.
         13    1    3    3    0    0  0.20280663896E+02  0.12527369770E+02 -0.34587446410E+02  0.42006330125E+02  0.00000000000E+00 0. -1.
        -14    1    3    3    0    0 -0.49524621229E+02 -0.99281996442E+00  0.84830503378E+01  0.50255705571E+02  0.00000000000E+00 0.  1.
        -11    1    4    4    0    0  0.72303452687E+02  0.21479131692E+02 -0.44072346427E+03  0.44713120482E+03  0.00000000000E+00 0. -1.
         11    1    4    4    0    0 -0.21061412350E+02 -0.22743969730E+02 -0.11818914206E+03  0.12218651542E+03  0.00000000000E+00 0.  1.
         21    1    1    2  502  501 -0.21998083004E+02 -0.10269711768E+02 -0.25230926731E+02  0.35014030035E+02  0.00000000000E+00 0.  1.
<scales pt_clust_5="13000.00000" pt_clust_6="13000.00000" pt_clust_7="13000.00000" pt_clust_8="13000.00000" pt_clust_9="24.27720"></scales>
<clustering>
<clus scale="   24.277">  1  9  2 -1</clus>
<clus scale="   82.720">  5  6 -1 -1</clus>
<clus scale="   95.457">  7  8 -1 -1</clus>
<clus scale="   95.802">  1  5  2 -1</clus>
<clus scale="  106.992">  2  5  1 -1</clus>
</clustering>
</event>
<event>
 9    1  0.2333971E-005  0.2917569E+03  0.7546771E-02  0.1089809E+00
          1   -1    0    0  502    0  0.00000000000E+00  0.00000000000E+00  0.52431142872E+03  0.52431142872E+03  0.00000000000E+00 0. -1.
         -2   -1    0    0    0  501 -0.00000000000E+00 -0.00000000000E+00 -0.38366831432E+03  0.38366831432E+03  0.00000000000E+00 0.  1.
        -24    2    1    2    0    0  0.23105222005E+03 -0.60476438020E+02 -0.12233967498E+03  0.28022142146E+03  0.80712582820E+02 0.  0.
         23    2    1    2    0    0 -0.28223772025E+03  0.54060598518E+02  0.38875190640E+03  0.49182087558E+03  0.90438099719E+02 0.  0.
         13    1    3    3    0    0  0.48934553980E+02 -0.90481512116E+01  0.80490439744E+01  0.50410779824E+02  0.00000000000E+00 0. -1.
        -14    1    3    3    0    0  0.18211766607E+03 -0.51428286808E+02 -0.13038871895E+03  0.22981064163E+03  0.00000000000E+00 0.  1.
        -11    1    4    4    0    0 -0.25954505131E+03  0.71991075260E+02  0.32710155688E+03  0.42372370372E+03  0.00000000000E+00 0. -1.
         11    1    4    4    0    0 -0.22692668941E+02 -0.17930476743E+02  0.61650349519E+02  0.68097171862E+02  0.00000000000E+00 0.  1.
         21    1    1    2  502  501  0.51185500208E+02  0.64158395024E+01 -0.12576911702E+03  0.13593744600E+03  0.00000000000E+00 0.  1.
<scales pt_clust_5="13000.00000" pt_clust_6="13000.00000" pt_clust_7="13000.00000" pt_clust_8="13000.00000" pt_clust_9="51.58603"></scales>
<clustering>
<clus scale="   51.586">  2  9  1 -1</clus>
<clus scale="   80.713">  5  6 -1 -1</clus>
<clus scale="   90.438">  7  8 -1 -1</clus>
<clus scale="  288.890">  2  5  1 -1</clus>
<clus scale="  291.757">  1  5  2 -1</clus>
</clustering>
</event>
<event>
 9    1  0.2333971E-005  0.1241359E+03  0.7546771E-02  0.1244576E+00
          1   -1    0    0  502    0  0.00000000000E+00  0.00000000000E+00  0.86030544976E+03  0.86030544976E+03  0.00000000000E+00 0. -1.
         -2   -1    0    0    0  501 -0.00000000000E+00 -0.00000000000E+00 -0.12634386463E+03  0.12634386463E+03  0.00000000000E+00 0.  1.
         23    2    1    2    0    0  0.73711783572E+02  0.44507059621E+02 -0.62687836007E+02  0.14917385748E+03  0.10444505531E+03 0.  0.
        -24    2    1    2    0    0 -0.50422279103E+02 -0.43382200687E+02  0.80567796893E+03  0.81247183715E+03  0.81049830181E+02 0.  0.
         13    1    4    4    0    0 -0.52551515280E+02 -0.35722017402E+02  0.29653361919E+03  0.30326541444E+03  0.00000000000E+00 0. -1.
        -14    1    4    4    0    0  0.21292361774E+01 -0.76601832858E+01  0.50914434974E+03  0.50920642271E+03  0.00000000000E+00 0.  1.
        -11    1    3    3    0    0 -0.20841561891E+02 -0.12908660959E+02 -0.81088204272E+01  0.25821642057E+02  0.00000000000E+00 0. -1.
         11    1    3    3    0    0  0.94553345462E+02  0.57415720580E+02 -0.54579015580E+02  0.12335221542E+03  0.00000000000E+00 0.  1.
         21    1    1    2  502  501 -0.23289504469E+02 -0.11248589331E+01 -0.90285477986E+01  0.25003619766E+02  0.00000000000E+00 0.  1.
<scales pt_clust_5="13000.00000" pt_clust_6="13000.00000" pt_clust_7="13000.00000" pt_clust_8="13000.00000" pt_clust_9="23.31665"></scales>
<clustering>
<clus scale="   23.317">  2  9  1 -1</clus>
<clus scale="   81.050">  5  6 -1 -1</clus>
<clus scale="  104.445">  7  8 -1 -1</clus>
<clus scale="  105.214">  1  5  2 -1</clus>
<clus scale="  105.214">  1  5  2 -1</clus>
</clustering>
</event>
<event>
 9    1  0.2333971E-005  0.1497534E+03  0.7546771E-02  0.1203285E+00
          1   -1    0    0  502    0  0.00000000000E+00  0.00000000000E+00  0.78471593098E+03  0.78471593098E+03  0.00000000000E+00 0. -1.
         -2   -1    0    0    0  501 -0.00000000000E+00 -0.00000000000E+00 -0.59786271781E+02  0.59786271781E+02  0.00000000000E+00 0.  1.
         23    2    1    2    0    0 -0.37017258329E+01  0.10456574319E+03  0.15078181980E+03  0.20615221875E+03  0.93892932058E+02 0.  0.
        -24    2    1    2    0    0  0.24609562143E+02 -0.11833267439E+03  0.59071821670E+03  0.60832926752E+03  0.80673625189E+02 0.  0.
         13    1    4    4    0    0  0.44024233203E+02 -0.11621016757E+03  0.47565919029E+03  0.49162445165E+03  0.00000000000E+00 0. -1.
        -14    1    4    4    0    0 -0.19414671061E+02 -0.21225068174E+01  0.11505902642E+03  0.11670481587E+03  0.00000000000E+00 0.  1.
        -11    1    3    3    0    0 -0.38665117357E+02  0.96868626125E+02  0.10455027360E+03  0.14767965919E+03  0.00000000000E+00 0.  1.
         11    1    3    3    0    0  0.34963391524E+02  0.76971170667E+01  0.46231546199E+02  0.58472559564E+02  0.00000000000E+00 0. -1.
         21    1    1    2  502  501 -0.20907836310E+02  0.13766931198E+02 -0.16570377313E+02  0.30020716481E+02  0.00000000000E+00 0.  1.
<scales pt_clust_5="13000.00000" pt_clust_6="13000.00000" pt_clust_7="13000.00000" pt_clust_8="13000.00000" pt_clust_9="25.03330"></scales>
<clustering>
<clus scale="   25.033">  2  9  1 -1</clus>
<clus scale="   80.674">  5  6 -1 -1</clus>
<clus scale="   93.893">  7  8 -1 -1</clus>
<clus scale="  141.839">  1  5  2 -1</clus>
<clus scale="  141.839">  1  5  2 -1</clus>
</clustering>
</event>
<event>
 9    1  0.2333971E-005  0.9282840E+02  0.7546771E-02  0.1301569E+00
         -2   -1    0    0    0  501 -0.00000000000E+00  0.00000000000E+00  0.10389321853E+03  0.10389321853E+03  0.00000000000E+00 0.  1.
          1   -1    0    0  502    0  0.00000000000E+00 -0.00000000000E+00 -0.19189451072E+03  0.19189451072E+03  0.00000000000E+00 0. -1.
        -24    2    1    2    0    0 -0.13728040482E+02  0.19630425667E+02  0.26768817804E+02  0.88207688463E+02  0.80561864365E+02 0.  0.
         23    2    1    2    0    0  0.26018289039E+02  0.80209890407E+01 -0.13977538422E+03  0.16832555462E+03  0.89749911835E+02 0.  0.
         11    1    3    3    0    0 -0.79140288635E+01  0.34091235150E+02 -0.19024745146E+02  0.39834471187E+02  0.00000000000E+00 0. -1.
        -12    1    3    3    0    0 -0.58140116186E+01 -0.14460809482E+02  0.45793562950E+02  0.48373217276E+02  0.00000000000E+00 0.  1.
        -13    1    4    4    0    0  0.35482803534E+02  0.36129353549E+02 -0.12565809615E+03  0.13547810400E+03  0.00000000000E+00 0. -1.
         13    1    4    4    0    0 -0.94645144948E+01 -0.28108364508E+02 -0.14117288070E+02  0.32847450623E+02  0.00000000000E+00 0.  1.
         21    1    1    2  502  501 -0.12290248557E+02 -0.27651414708E+02  0.25005274222E+02  0.39254486162E+02  0.00000000000E+00 0.  1.
<scales pt_clust_5="13000.00000" pt_clust_6="13000.00000" pt_clust_7="13000.00000" pt_clust_8="13000.00000" pt_clust_9="30.25972"></scales>
<clustering>
<clus scale="   30.260">  1  9  2 -1</clus>
<clus scale="   80.562">  5  6 -1 -1</clus>
<clus scale="   83.978">  1  5  2 -1</clus>
<clus scale="   89.750">  7  8 -1 -1</clus>
<clus scale="   92.828">  2  5  1 -1</clus>
</clustering>
</event>
<event>
 9    1  0.2333971E-005  0.1316301E+03  0.7546771E-02  0.1232375E+00
         -2   -1    0    0    0  501 -0.00000000000E+00  0.00000000000E+00  0.48921289307E+02  0.48921289307E+02  0.00000000000E+00 0.  1.
          1   -1    0    0  502    0  0.00000000000E+00 -0.00000000000E+00 -0.47294215954E+03  0.47294215954E+03  0.00000000000E+00 0. -1.
        -24    2    1    2    0    0 -0.30174792905E+01 -0.70212549688E+02 -0.60792765805E+02  0.12226079310E+03  0.79454602384E+02 0.  0.
         23    2    1    2    0    0 -0.22125211622E+02  0.83165777377E+02 -0.32577486529E+03  0.35266987258E+03  0.10411870464E+03 0.  0.
         11    1    3    3    0    0  0.28571854652E+02 -0.27541860385E+01 -0.30400959933E+02  0.41810940959E+02  0.00000000000E+00 0. -1.
        -12    1    3    3    0    0 -0.31589333943E+02 -0.67458363650E+02 -0.30391805872E+02  0.80449852140E+02  0.00000000000E+00 0.  1.
        -11    1    4    4    0    0 -0.50571815840E+02  0.16528866217E+02 -0.20533365996E+03  0.21211464798E+03  0.00000000000E+00 0. -1.
         11    1    4    4    0    0  0.28446604219E+02  0.66636911160E+02 -0.12044120533E+03  0.14055522459E+03  0.00000000000E+00 0.  1.
         21    1    1    2  502  501  0.25142690912E+02 -0.12953227689E+02 -0.37453239136E+02  0.46932783165E+02  0.00000000000E+00 0.  1.
<scales pt_clust_5="13000.00000" pt_clust_6="13000.00000" pt_clust_7="13000.00000" pt_clust_8="13000.00000" pt_clust_9="28.28323"></scales>
<clustering>
<clus scale="   28.283">  1  9  2 -1</clus>
<clus scale="   79.455">  5  6 -1 -1</clus>
<clus scale="  104.119">  7  8 -1 -1</clus>
<clus scale="  113.132">  1  5  2 -1</clus>
<clus scale="  131.630">  2  5  1 -1</clus>
</clustering>
</event>
<event>
 9    1  0.2333971E-005  0.1727681E+03  0.7546771E-02  0.1188460E+00
          1   -1    0    0  502    0  0.00000000000E+00  0.00000000000E+00  0.39483930088E+03  0.39483930088E+03  0.00000000000E+00 0. -1.
         -2   -1    0    0    0  501 -0.00000000000E+00 -0.00000000000E+00 -0.13824501083E+03  0.13824501083E+03  0.00000000000E+00 0.  1.
         23    2    1    2    0    0  0.44313102367E+02 -0.85954574549E+02  0.44519602819E+02  0.16254753948E+03  0.12283268143E+03 0.  0.
        -24    2    1    2    0    0 -0.46593731220E+02 -0.88990144540E+02  0.73830148459E+02  0.14755155186E+03  0.78932553621E+02 0.  0.
         13    1    4    4    0    0  0.18600477419E+02 -0.45963726700E+02  0.30781820057E+02  0.58362336985E+02  0.00000000000E+00 0. -1.
        -14    1    4    4    0    0 -0.65194208638E+02 -0.43026417840E+02  0.43048328403E+02  0.89189214877E+02  0.00000000000E+00 0.  1.
        -13    1    3    3    0    0  0.86019505321E+02 -0.71299084058E+02  0.37080977596E+02  0.11771963975E+03  0.00000000000E+00 0.  1.
         13    1    3    3    0    0 -0.41706402954E+02 -0.14655490491E+02  0.74386252229E+01  0.44827899729E+02  0.00000000000E+00 0. -1.
         21    1    1    2  502  501  0.22806288530E+01  0.17494471909E+03  0.13824453877E+03  0.22298522037E+03  0.00000000000E+00 0.  1.
<scales pt_clust_5="13000.00000" pt_clust_6="13000.00000" pt_clust_7="13000.00000" pt_clust_8="13000.00000" pt_clust_9="121.49462"></scales>
<clustering>
<clus scale="   78.933">  5  6 -1 -1</clus>
<clus scale="  122.833">  7  8 -1 -1</clus>
<clus scale="  127.752">  1  5  2 -1</clus>
<clus scale="  121.495">  1  9  2 -1</clus>
<clus scale="  127.752">  1  5  2 -1</clus>
</clustering>
</event>
<event>
 9    1  0.2333971E-005  0.9484500E+02  0.7546771E-02  0.1299086E+00
         -2   -1    0    0    0  501 -0.00000000000E+00  0.00000000000E+00  0.62489398177E+02  0.62489398177E+02  0.00000000000E+00 0.  1.
          1   -1    0    0  502    0  0.00000000000E+00 -0.00000000000E+00 -0.37743447182E+03  0.37743447182E+03  0.00000000000E+00 0. -1.
        -24    2    1    2    0    0  0.14025168180E+02 -0.91076546422E+01  0.15057255570E+02  0.81812722484E+02  0.78657141440E+02 0.  0.
         23    2    1    2    0    0  0.69358544645E+01  0.26510133765E+02 -0.30973836497E+03  0.32415766468E+03  0.91593905707E+02 0.  0.
         13    1    3    3    0    0  0.37840613664E+02 -0.28267891193E+02 -0.10853414550E+01  0.47245779505E+02  0.00000000000E+00 0. -1.
        -14    1    3    3    0    0 -0.23815445483E+02  0.19160236551E+02  0.16142597025E+02  0.34566942980E+02  0.00000000000E+00 0.  1.
        -11    1    4    4    0    0  0.95657784531E+01 -0.30694202038E+02 -0.61463053986E+02  0.69363860630E+02  0.00000000000E+00 0.  1.
         11    1    4    4    0    0 -0.26299239886E+01  0.57204335802E+02 -0.24827531099E+03  0.25479380405E+03  0.00000000000E+00 0. -1.
         21    1    1    2  502  501 -0.20961022645E+02 -0.17402479122E+02 -0.20263964234E+02  0.33953482832E+02  0.00000000000E+00 0. -1.
<scales pt_clust_5="13000.00000" pt_clust_6="13000.00000" pt_clust_7="13000.00000" pt_clust_8="13000.00000" pt_clust_9="27.24355"></scales>
<clustering>
<clus scale="   27.244">  1  9  2 -1</clus>
<clus scale="   78.657">  5  6 -1 -1</clus>
<clus scale="   82.420">  1  5  2 -1</clus>
<clus scale="   91.594">  7  8 -1 -1</clus>
<clus scale="   94.845">  2  5  1 -1</clus>
</clustering>
</event>
<event>
 9    1  0.2333971E-005  0.1542227E+03  0.7546771E-02  0.1196950E+00
          1   -1    0    0  502    0  0.00000000000E+00  0.00000000000E+00  0.15947965749E+03  0.15947965749E+03  0.00000000000E+00 0. -1.
         -2   -1    0    0    0  501 -0.00000000000E+00 -0.00000000000E+00 -0.96777346507E+03  0.96777346507E+03  0.00000000000E+00 0.  1.
         23    2    1    2    0    0  0.30854719256E+02  0.30368496981E+02 -0.22717374386E+03  0.24796034735E+03  0.89454819043E+02 0.  0.
        -24    2    1    2    0    0 -0.10856017807E+03 -0.90562529809E+02  0.10020102859E+03  0.19091795670E+03  0.80140726181E+02 0.  0.
         13    1    4    4    0    0 -0.28086971736E+02 -0.35328224331E+02  0.79081457407E+02  0.91054040665E+02  0.00000000000E+00 0. -1.
        -14    1    4    4    0    0 -0.80473206337E+02 -0.55234305477E+02  0.21119571182E+02  0.99863916039E+02  0.00000000000E+00 0.  1.
        -13    1    3    3    0    0  0.36100317866E+02 -0.20663848107E+02 -0.59382729981E+02  0.72501973688E+02  0.00000000000E+00 0.  1.
         13    1    3    3    0    0 -0.52455986103E+01  0.51032345089E+02 -0.16779101388E+03  0.17545837367E+03  0.00000000000E+00 0. -1.
         21    1    1    2  502  501  0.77705458818E+02  0.60194032827E+02 -0.68132109231E+03  0.68837481850E+03  0.00000000000E+00 0.  1.
<scales pt_clust_5="13000.00000" pt_clust_6="13000.00000" pt_clust_7="13000.00000" pt_clust_8="13000.00000" pt_clust_9="98.29273"></scales>
<clustering>
<clus scale="   80.141">  5  6 -1 -1</clus>
<clus scale="   89.455">  7  8 -1 -1</clus>
<clus scale="   98.293">  2  9  1 -1</clus>
<clus scale="  149.013">  1  5  2 -1</clus>
<clus scale="  149.013">  1  5  2 -1</clus>
</clustering>
</event>
<event>
 9    1  0.2333971E-005  0.2374117E+03  0.7546771E-02  0.1122075E+00
         -2   -1    0    0    0  501 -0.00000000000E+00  0.00000000000E+00  0.34602385102E+03  0.34602385102E+03  0.00000000000E+00 0.  1.
          1   -1    0    0  502    0  0.00000000000E+00 -0.00000000000E+00 -0.60835094752E+03  0.60835094752E+03  0.00000000000E+00 0. -1.
        -24    2    1    2    0    0  0.11380449980E+03 -0.18287417171E+03  0.23872250616E+03  0.33150555737E+03  0.80703610617E+02 0.  0.
         23    2    1    2    0    0 -0.13446718704E+03  0.17455860529E+03 -0.53314710075E+03  0.58380077983E+03  0.89584532259E+02 0.  0.
         13    1    3    3    0    0  0.11708273035E+02 -0.25829925397E+02  0.37525456395E+00  0.28362114157E+02  0.00000000000E+00 0. -1.
        -14    1    3    3    0    0  0.10209622677E+03 -0.15704424631E+03  0.23834725159E+03  0.30314344321E+03  0.00000000000E+00 0.  1.
        -11    1    4    4    0    0 -0.13754664292E+03  0.15221039070E+03 -0.51653875462E+03  0.55578715983E+03  0.00000000000E+00 0. -1.
         11    1    4    4    0    0  0.30794558822E+01  0.22348214590E+02 -0.16608346132E+02  0.28013619993E+02  0.00000000000E+00 0.  1.
         21    1    1    2  502  501  0.20662687233E+02  0.83155664191E+01  0.32097498085E+02  0.39068461345E+02  0.00000000000E+00 0.  1.
<scales pt_clust_5="13000.00000" pt_clust_6="13000.00000" pt_clust_7="13000.00000" pt_clust_8="13000.00000" pt_clust_9="22.27320"></scales>
<clustering>
<clus scale="   22.273">  1  9  2 -1</clus>
<clus scale="   80.704">  5  6 -1 -1</clus>
<clus scale="   89.585">  7  8 -1 -1</clus>
<clus scale="  234.205">  1  5  2 -1</clus>
<clus scale="  237.412">  2  5  1 -1</clus>
</clustering>
</event>
<event>
 9    1  0.2624538E-005  0.9827926E+02  0.7546771E-02  0.1289418E+00
         -2   -1    0    0    0  501 -0.00000000000E+00  0.00000000000E+00  0.31191855496E+03  0.31191855496E+03  0.00000000000E+00 0.  1.
          1   -1    0    0  502    0  0.00000000000E+00 -0.00000000000E+00 -0.15621087651E+03  0.15621087651E+03  0.00000000000E+00 0. -1.
         23    2    1    2    0    0 -0.44442663465E+01 -0.22712609098E+02  0.26603911595E+03  0.28160025989E+03  0.89365994870E+02 0.  0.
        -24    2    1    2    0    0  0.19230369225E+02  0.37154069163E+02 -0.13025551914E+03  0.15782109543E+03  0.78681420549E+02 0.  0.
         11    1    4    4    0    0  0.30133642364E+02  0.56325484649E+02 -0.11304680487E+03  0.12984674318E+03  0.00000000000E+00 0. -1.
        -12    1    4    4    0    0 -0.10903273139E+02 -0.19171415486E+02 -0.17208714271E+02  0.27974352249E+02  0.00000000000E+00 0.  1.
        -11    1    3    3    0    0 -0.44217766852E+02 -0.25212982731E+02  0.12307177221E+03  0.13318245574E+03  0.00000000000E+00 0.  1.
         11    1    3    3    0    0  0.39773500505E+02  0.25003736334E+01  0.14296734374E+03  0.14841780415E+03  0.00000000000E+00 0. -1.
         21    1    1    2  502  501 -0.14786102879E+02 -0.14441460065E+02  0.19924081639E+02  0.28708076152E+02  0.00000000000E+00 0.  1.
<scales pt_clust_5="13000.00000" pt_clust_6="13000.00000" pt_clust_7="13000.00000" pt_clust_8="13000.00000" pt_clust_9="20.66844"></scales>
<clustering>
<clus scale="   20.668">  1  9  2 -1</clus>
<clus scale="   78.681">  5  6 -1 -1</clus>
<clus scale="   88.675">  2  5  1 -1</clus>
<clus scale="   89.366">  7  8 -1 -1</clus>
<clus scale="   88.675">  2  5  1 -1</clus>
</clustering>
</event>
<event>
 9    1  0.2333971E-005  0.1113025E+03  0.7546771E-02  0.1262956E+00
          1   -1    0    0  502    0  0.00000000000E+00  0.00000000000E+00  0.72015119145E+02  0.72015119145E+02  0.00000000000E+00 0. -1.
         -2   -1    0    0    0  501 -0.00000000000E+00 -0.00000000000E+00 -0.23965069062E+03  0.23965069062E+03  0.00000000000E+00 0.  1.
        -24    2    1    2    0    0 -0.60782535768E+01 -0.43650752768E+02 -0.12600253592E+03  0.15596122327E+03  0.80653150734E+02 0.  0.
         23    2    1    2    0    0  0.14493344122E+02  0.67703497964E+02 -0.11754125709E+02  0.11643503653E+03  0.92871618920E+02 0.  0.
         13    1    3    3    0    0 -0.39541086415E+02 -0.58256188944E+01 -0.42240651843E+02  0.58152454965E+02  0.00000000000E+00 0. -1.
        -14    1    3    3    0    0  0.33462832838E+02 -0.37825133873E+02 -0.83761884075E+02  0.97808768308E+02  0.00000000000E+00 0.  1.
        -13    1    4    4    0    0  0.72421684014E+01 -0.19839810241E+02 -0.18845950885E+02  0.28306128988E+02  0.00000000000E+00 0.  1.
         13    1    4    4    0    0  0.72511757202E+01  0.87543308204E+02  0.70918251762E+01  0.88128907545E+02  0.00000000000E+00 0. -1.
         21    1    1    2  502  501 -0.84150905448E+01 -0.24052745196E+02 -0.29878909853E+02  0.39269549964E+02  0.00000000000E+00 0. -1.
<scales pt_clust_5="13000.00000" pt_clust_6="13000.00000" pt_clust_7="13000.00000" pt_clust_8="13000.00000" pt_clust_9="25.48231"></scales>
<clustering>
<clus scale="   25.482">  2  9  1 -1</clus>
<clus scale="   80.653">  5  6 -1 -1</clus>
<clus scale="   92.872">  7  8 -1 -1</clus>
<clus scale="  101.331">  2  5  1 -1</clus>
<clus scale="  111.302">  1  5  2 -1</clus>
</clustering>
</event>
<event>
 9    1  0.2333971E-005  0.1086640E+03  0.7546771E-02  0.1265785E+00
          1   -1    0    0  502    0  0.00000000000E+00  0.00000000000E+00  0.18455044299E+03  0.18455044299E+03  0.00000000000E+00 0. -1.
         -2   -1    0    0    0  501 -0.00000000000E+00 -0.00000000000E+00 -0.40252121768E+03  0.40252121768E+03  0.00000000000E+00 0.  1.
        -24    2    1    2    0    0 -0.17911257683E+02 -0.63825718386E+02 -0.37118517055E+03  0.38546601259E+03  0.80069223451E+02 0.  0.
         23    2    1    2    0    0  0.22643773315E+02  0.30809662598E+02  0.12929684745E+03  0.16056291711E+03  0.87182565974E+02 0.  0.
         11    1    3    3    0    0  0.21402078045E+02  0.71691879008E+01 -0.70731915478E+02  0.74245875758E+02  0.00000000000E+00 0. -1.
        -12    1    3    3    0    0 -0.39313335728E+02 -0.70994906287E+02 -0.30045325507E+03  0.31122013683E+03  0.00000000000E+00 0.  1.
        -13    1    4    4    0    0 -0.13666523932E+01 -0.28594216045E+02  0.58169108097E+02  0.64831644024E+02  0.00000000000E+00 0.  1.
         13    1    4    4    0    0  0.24010425708E+02  0.59403878643E+02  0.71127739353E+02  0.95731273082E+02  0.00000000000E+00 0. -1.
         21    1    1    2  502  501 -0.47325156317E+01  0.33016055788E+02  0.23917548414E+02  0.41042730978E+02  0.00000000000E+00 0. -1.
<scales pt_clust_5="13000.00000" pt_clust_6="13000.00000" pt_clust_7="13000.00000" pt_clust_8="13000.00000" pt_clust_9="33.35351"></scales>
<clustering>
<clus scale="   33.354">  1  9  2 -1</clus>
<clus scale="   80.069">  5  6 -1 -1</clus>
<clus scale="   87.183">  7  8 -1 -1</clus>
<clus scale="  103.044">  2  5  1 -1</clus>
<clus scale="   33.354">  1  5  2 -1</clus>
</clustering>
</event>
<event>
 9    1  0.2333971E-005  0.1132958E+03  0.7546771E-02  0.1258306E+00
         -4   -1    0    0    0  501 -0.00000000000E+00  0.00000000000E+00  0.12855289913E+03  0.12855289913E+03  0.00000000000E+00 0.  1.
          3   -1    0    0  502    0  0.00000000000E+00 -0.00000000000E+00 -0.29960866493E+03  0.29960866493E+03  0.00000000000E+00 0. -1.
        -24    2    1    2    0    0 -0.40739950133E+02  0.80264909917E+02  0.19586180536E+02  0.12277745916E+03  0.81169493710E+02 0.  0.
         23    2    1    2    0    0  0.99735293301E+01 -0.62711160805E+02 -0.22812875726E+03  0.25380922971E+03  0.91346780030E+02 0.  0.
         13    1    3    3    0    0 -0.70702980075E+01  0.51439743192E+02 -0.26958813583E+02  0.58504819659E+02  0.00000000000E+00 0. -1.
        -14    1    3    3    0    0 -0.33669652125E+02  0.28825166726E+02  0.46544994119E+02  0.64272639502E+02  0.00000000000E+00 0.  1.
        -13    1    4    4    0    0 -0.40473596510E+02 -0.21086525207E+02 -0.10149339477E+03  0.11128190662E+03  0.00000000000E+00 0.  1.
         13    1    4    4    0    0  0.50447125840E+02 -0.41624635598E+02 -0.12663536249E+03  0.14252732309E+03  0.00000000000E+00 0. -1.
         21    1    1    2  502  501  0.30766420803E+02 -0.17553749112E+02  0.37486810927E+02  0.51574875185E+02  0.00000000000E+00 0.  1.
<scales pt_clust_5="13000.00000" pt_clust_6="13000.00000" pt_clust_7="13000.00000" pt_clust_8="13000.00000" pt_clust_9="35.42184"></scales>
<clustering>
<clus scale="   35.422">  1  9  2 -1</clus>
<clus scale="   81.169">  5  6 -1 -1</clus>
<clus scale="   91.347">  7  8 -1 -1</clus>
<clus scale="  105.262">  1  5  2 -1</clus>
<clus scale="  113.296">  2  5  1 -1</clus>
</clustering>
</event>
<event>
 9    1  0.2333971E-005  0.9122673E+02  0.7546771E-02  0.1306873E+00
         -4   -1    0    0    0  501 -0.00000000000E+00  0.00000000000E+00  0.22391225768E+03  0.22391225768E+03  0.00000000000E+00 0.  1.
          3   -1    0    0  502    0  0.00000000000E+00 -0.00000000000E+00 -0.13530950580E+03  0.13530950580E+03  0.00000000000E+00 0. -1.
        -24    2    1    2    0    0  0.39976194368E+02  0.43405920876E+01  0.15883543817E+03  0.18164178630E+03  0.78409854333E+02 0.  0.
         23    2    1    2    0    0 -0.56316769138E+01 -0.15888003500E+02 -0.96564187312E+02  0.13278894532E+03  0.89577437376E+02 0.  0.
         11    1    3    3    0    0  0.60741445840E+02 -0.10648255736E+02  0.10017622256E+03  0.11763581155E+03  0.00000000000E+00 0. -1.
        -12    1    3    3    0    0 -0.20765251473E+02  0.14988847824E+02  0.58659215605E+02  0.64005974746E+02  0.00000000000E+00 0.  1.
        -13    1    4    4    0    0 -0.20639366938E+02  0.26154054904E+02 -0.90139173550E+01  0.34514761502E+02  0.00000000000E+00 0.  1.
         13    1    4    4    0    0  0.15007690024E+02 -0.42042058404E+02 -0.87550269957E+02  0.98274183813E+02  0.00000000000E+00 0. -1.
         21    1    1    2  502  501 -0.34344517454E+02  0.11547411413E+02  0.26331501019E+02  0.44791031863E+02  0.00000000000E+00 0. -1.
<scales pt_clust_5="13000.00000" pt_clust_6="13000.00000" pt_clust_7="13000.00000" pt_clust_8="13000.00000" pt_clust_9="36.23380"></scales>
<clustering>
<clus scale="   36.234">  1  9  2 -1</clus>
<clus scale="   78.410">  5  6 -1 -1</clus>
<clus scale="   80.289">  1  5  2 -1</clus>
<clus scale="   89.577">  7  8 -1 -1</clus>
<clus scale="   91.227">  2  5  1 -1</clus>
</clustering>
</event>
<event>
 9    1  0.2333971E-005  0.1030317E+03  0.7546771E-02  0.1289371E+00
          1   -1    0    0  502    0  0.00000000000E+00  0.00000000000E+00  0.37581350278E+03  0.37581350278E+03  0.00000000000E+00 0. -1.
         -2   -1    0    0    0  501 -0.00000000000E+00 -0.00000000000E+00 -0.91188066341E+02  0.91188066341E+02  0.00000000000E+00 0.  1.
        -24    2    1    2    0    0  0.16688905166E+02  0.54865491726E+02 -0.12044749687E+02  0.93903883066E+02  0.73376573386E+02 0.  0.
         23    2    1    2    0    0 -0.17606295773E+02 -0.95144221770E+01  0.30948963041E+03  0.32596065957E+03  0.10032952890E+03 0.  0.
         13    1    3    3    0    0  0.41005050128E+02  0.46605050534E+02  0.62247947061E+01  0.62387442169E+02  0.00000000000E+00 0. -1.
        -14    1    3    3    0    0 -0.24316144962E+02  0.82604411921E+01 -0.18269544393E+02  0.31516440897E+02  0.00000000000E+00 0.  1.
        -11    1    4    4    0    0  0.31927226121E+02 -0.88971711532E+01  0.39959124845E+02  0.51915692047E+02  0.00000000000E+00 0. -1.
         11    1    4    4    0    0 -0.49533521894E+02 -0.61725102379E+00  0.26953050557E+03  0.27404496752E+03  0.00000000000E+00 0.  1.
         21    1    1    2  502  501  0.91739060693E+00 -0.45351069549E+02 -0.12819444286E+02  0.47137026493E+02  0.00000000000E+00 0.  1.
<scales pt_clust_5="13000.00000" pt_clust_6="13000.00000" pt_clust_7="13000.00000" pt_clust_8="13000.00000" pt_clust_9="45.36035"></scales>
<clustering>
<clus scale="   45.360">  2  9  1 -1</clus>
<clus scale="   73.377">  5  6 -1 -1</clus>
<clus scale="   77.030">  2  5  1 -1</clus>
<clus scale="  100.330">  7  8 -1 -1</clus>
<clus scale="  103.032">  1  5  2 -1</clus>
</clustering>
</event>
<event>
 9    1  0.2333971E-005  0.1794697E+03  0.7546771E-02  0.1169736E+00
          1   -1    0    0  502    0  0.00000000000E+00  0.00000000000E+00  0.41134560499E+03  0.41134560499E+03  0.00000000000E+00 0. -1.
         -2   -1    0    0    0  501 -0.00000000000E+00 -0.00000000000E+00 -0.99556320755E+02  0.99556320755E+02  0.00000000000E+00 0.  1.
        -24    2    1    2    0    0  0.31168263309E+02 -0.13443443067E+03  0.82848489550E+02  0.18027490034E+03  0.81185532481E+02 0.  0.
         23    2    1    2    0    0 -0.66928292957E+02  0.15204462197E+03  0.21782527834E+03  0.28924522673E+03  0.92833107453E+02 0.  0.
         13    1    3    3    0    0  0.14260752393E+02 -0.11468322641E+03  0.96815866718E+02  0.15076114727E+03  0.00000000000E+00 0. -1.
        -14    1    3    3    0    0  0.16907510916E+02 -0.19751204254E+02 -0.13967377167E+02  0.29513753062E+02  0.00000000000E+00 0.  1.
        -11    1    4    4    0    0 -0.87324213961E+02  0.96754751490E+02  0.13558407636E+03  0.18806924799E+03  0.00000000000E+00 0.  1.
         11    1    4    4    0    0  0.20395921004E+02  0.55289870476E+02  0.82241201982E+02  0.10117597874E+03  0.00000000000E+00 0. -1.
         21    1    1    2  502  501  0.35760029648E+02 -0.17610191301E+02  0.11115516353E+02  0.41381798679E+02  0.00000000000E+00 0.  1.
<scales pt_clust_5="13000.00000" pt_clust_6="13000.00000" pt_clust_7="13000.00000" pt_clust_8="13000.00000" pt_clust_9="39.86099"></scales>
<clustering>
<clus scale="   39.861">  2  9  1 -1</clus>
<clus scale="   81.186">  5  6 -1 -1</clus>
<clus scale="   92.833">  7  8 -1 -1</clus>
<clus scale="  173.731">  2  5  1 -1</clus>
<clus scale="  179.470">  1  5  2 -1</clus>
</clustering>
</event>
<event>
 9    1  0.2333971E-005  0.9495860E+02  0.7546771E-02  0.1298407E+00
         -2   -1    0    0    0  501 -0.00000000000E+00  0.00000000000E+00  0.82536005322E+02  0.82536005322E+02  0.00000000000E+00 0.  1.
          1   -1    0    0  502    0  0.00000000000E+00 -0.00000000000E+00 -0.22460922333E+03  0.22460922333E+03  0.00000000000E+00 0. -1.
        -24    2    1    2    0    0 -0.10739438990E+02  0.28479147442E+02  0.28924234905E+02  0.92461288297E+02  0.82377673431E+02 0.  0.
         23    2    1    2    0    0  0.19835471137E+01 -0.72078211850E+01 -0.16614623634E+03  0.19117502150E+03  0.94273166133E+02 0.  0.
         11    1    3    3    0    0  0.21349967677E+02 -0.20111282886E+02  0.63611111451E+01  0.30012473309E+02  0.00000000000E+00 0. -1.
        -12    1    3    3    0    0 -0.32089406666E+02  0.48590430328E+02  0.22563123760E+02  0.62448814988E+02  0.00000000000E+00 0.  1.
        -11    1    4    4    0    0 -0.37785755232E+02  0.13781233586E+02 -0.37862859197E+02  0.55238408777E+02  0.00000000000E+00 0.  1.
         11    1    4    4    0    0  0.39769302346E+02 -0.20989054771E+02 -0.12828337714E+03  0.13593661273E+03  0.00000000000E+00 0. -1.
         21    1    1    2  502  501  0.87558918758E+01 -0.21271326257E+02 -0.48512165760E+01  0.23508918851E+02  0.00000000000E+00 0. -1.
<scales pt_clust_5="13000.00000" pt_clust_6="13000.00000" pt_clust_7="13000.00000" pt_clust_8="13000.00000" pt_clust_9="23.00293"></scales>
<clustering>
<clus scale="   23.003">  1  9  2 -1</clus>
<clus scale="   82.378">  5  6 -1 -1</clus>
<clus scale="   83.161">  1  5  2 -1</clus>
<clus scale="   94.273">  7  8 -1 -1</clus>
<clus scale="   94.959">  2  5  1 -1</clus>
</clustering>
</event>
<event>
 9    1  0.2333971E-005  0.1396499E+03  0.7546771E-02  0.1214541E+00
         -2   -1    0    0    0  501 -0.00000000000E+00  0.00000000000E+00  0.19510170850E+03  0.19510170850E+03  0.00000000000E+00 0.  1.
          1   -1    0    0  502    0  0.00000000000E+00 -0.00000000000E+00 -0.19362599736E+03  0.19362599736E+03  0.00000000000E+00 0. -1.
        -24    2    1    2    0    0  0.29151328852E+02  0.83172143921E+02  0.24250429297E+02  0.12648551743E+03  0.87424809415E+02 0.  0.
         23    2    1    2    0    0 -0.31912277976E+02 -0.11080455711E+03 -0.10170771163E+03  0.17856668092E+03  0.90805052557E+02 0.  0.
         13    1    3    3    0    0 -0.12030184830E+02  0.81694267811E+02  0.20665043878E+02  0.85121811416E+02  0.00000000000E+00 0. -1.
        -14    1    3    3    0    0  0.41181513682E+02  0.14778761099E+01  0.35853854195E+01  0.41363706018E+02  0.00000000000E+00 0.  1.
        -13    1    4    4    0    0 -0.41112838883E+02 -0.85805377160E+02 -0.26480931934E+02  0.98762685396E+02  0.00000000000E+00 0.  1.
         13    1    4    4    0    0  0.92005609074E+01 -0.24999179947E+02 -0.75226779692E+02  0.79803995525E+02  0.00000000000E+00 0. -1.
         21    1    1    2  502  501  0.27609491233E+01  0.27632413187E+02  0.78932993470E+02  0.83675507508E+02  0.00000000000E+00 0. -1.
<scales pt_clust_5="13000.00000" pt_clust_6="13000.00000" pt_clust_7="13000.00000" pt_clust_8="13000.00000" pt_clust_9="27.77000"></scales>
<clustering>
<clus scale="   27.770">  1  9  2 -1</clus>
<clus scale="   87.425">  5  6 -1 -1</clus>
<clus scale="   90.805">  7  8 -1 -1</clus>
<clus scale="  137.476">  1  5  2 -1</clus>
<clus scale="  139.650">  2  5  1 -1</clus>
</clustering>
</event>
<event>
 9    1  0.7560756E-005  0.1120385E+03  0.7546771E-02  0.1273579E+00
         -2   -1    0    0    0  501 -0.00000000000E+00  0.00000000000E+00  0.32369957823E+03  0.32369957823E+03  0.00000000000E+00 0.  1.
          1   -1    0    0  502    0  0.00000000000E+00 -0.00000000000E+00 -0.33222018052E+03  0.33222018052E+03  0.00000000000E+00 0. -1.
         23    2    1    2    0    0  0.11437673851E+02 -0.25218641557E+02  0.26261597340E+03  0.28634966124E+03  0.11073472238E+03 0.  0.
        -24    2    1    2    0    0  0.10296794523E+02  0.13661773795E+02 -0.31175665874E+03  0.32207336651E+03  0.79033987064E+02 0.  0.
         13    1    4    4    0    0  0.38328059521E+02  0.28838636402E+02 -0.21151858010E+03  0.21688895044E+03  0.00000000000E+00 0. -1.
        -14    1    4    4    0    0 -0.28031264998E+02 -0.15176862607E+02 -0.10023807864E+03  0.10518441607E+03  0.00000000000E+00 0.  1.
        -11    1    3    3    0    0 -0.47314624087E+02 -0.31333883822E+01  0.15131131906E+03  0.15856735808E+03  0.00000000000E+00 0. -1.
         11    1    3    3    0    0  0.58752297937E+02 -0.22085253175E+02  0.11130465434E+03  0.12778230315E+03  0.00000000000E+00 0.  1.
         21    1    1    2  502  501 -0.21734468374E+02  0.11556867762E+02  0.40620083052E+02  0.47496730994E+02  0.00000000000E+00 0. -1.
<scales pt_clust_5="13000.00000" pt_clust_6="13000.00000" pt_clust_7="13000.00000" pt_clust_8="13000.00000" pt_clust_9="24.61602"></scales>
<clustering>
<clus scale="   24.616">  1  9  2 -1</clus>
<clus scale="   79.034">  5  6 -1 -1</clus>
<clus scale="   80.851">  2  5  1 -1</clus>
<clus scale="  110.735">  7  8 -1 -1</clus>
<clus scale="   80.851">  2  5  1 -1</clus>
</clustering>
</event>
<event>
 9    1  0.2333971E-005  0.9407966E+02  0.7546771E-02  0.1294375E+00
          1   -1    0    0  502    0  0.00000000000E+00  0.00000000000E+00  0.36016064024E+03  0.36016064024E+03  0.00000000000E+00 0. -1.
         -2   -1    0    0    0  501 -0.00000000000E+00 -0.00000000000E+00 -0.11162260450E+03  0.11162260450E+03  0.00000000000E+00 0.  1.
        -24    2    1    2    0    0  0.99871863807E+01  0.74046269528E+02 -0.86925621779E+01  0.10988816099E+03  0.80107760964E+02 0.  0.
         23    2    1    2    0    0  0.23641780162E+02  0.11750045760E+02  0.25200510976E+03  0.26959545842E+03  0.92076807672E+02 0.  0.
         11    1    3    3    0    0 -0.59343470311E+01  0.80937147540E+02  0.12917267285E+02  0.82175994796E+02  0.00000000000E+00 0. -1.
        -12    1    3    3    0    0  0.15921533412E+02 -0.68908780126E+01 -0.21609829462E+02  0.27712166198E+02  0.00000000000E+00 0.  1.
        -13    1    4    4    0    0 -0.25321354291E+01  0.39614405444E+02  0.20595140248E+03  0.20974196769E+03  0.00000000000E+00 0. -1.
         13    1    4    4    0    0  0.26173915591E+02 -0.27864359683E+02  0.46053707279E+02  0.59853490726E+02  0.00000000000E+00 0.  1.
         21    1    1    2  502  501 -0.33628966543E+02 -0.85796315288E+02  0.52254881606E+01  0.92299625320E+02  0.00000000000E+00 0.  1.
<scales pt_clust_5="13000.00000" pt_clust_6="13000.00000" pt_clust_7="13000.00000" pt_clust_8="13000.00000" pt_clust_9="92.15159"></scales>
<clustering>
<clus scale="   80.108">  5  6 -1 -1</clus>
<clus scale="   92.077">  7  8 -1 -1</clus>
<clus scale="   92.152">  2  9  1 -1</clus>
<clus scale="   92.152">  2  5  1 -1</clus>
<clus scale="   94.080">  1  5  2 -1</clus>
</clustering>
</event>
<event>
 9    1  0.2333971E-005  0.1911457E+03  0.7546771E-02  0.1158789E+00
         -2   -1    0    0    0  501 -0.00000000000E+00  0.00000000000E+00  0.17085017999E+03  0.17085017999E+03  0.00000000000E+00 0.  1.
          1   -1    0    0  502    0  0.00000000000E+00 -0.00000000000E+00 -0.40073910019E+03  0.40073910019E+03  0.00000000000E+00 0. -1.
         23    2    1    2    0    0  0.23091879421E+02  0.18521906071E+03  0.13245366106E+01  0.20767933290E+03  0.91047326007E+02 0.  0.
        -24    2    1    2    0    0 -0.41064280727E+02 -0.15814087665E+03 -0.26248578414E+03  0.31880791056E+03  0.77748858142E+02 0.  0.
         11    1    4    4    0    0 -0.44253576726E+02 -0.15215434892E+03 -0.26712626363E+03  0.31058938434E+03  0.00000000000E+00 0. -1.
        -12    1    4    4    0    0  0.31892959988E+01 -0.59865277329E+01  0.46404794906E+01  0.82185262163E+01  0.00000000000E+00 0.  1.
        -13    1    3    3    0    0 -0.10508914485E+02  0.18175447546E+02 -0.27780882730E+02  0.34821855528E+02  0.00000000000E+00 0. -1.
         13    1    3    3    0    0  0.33600793906E+02  0.16704361316E+03  0.29105419341E+02  0.17285747737E+03  0.00000000000E+00 0.  1.
         21    1    1    2  502  501  0.17972401306E+02 -0.27078184057E+02  0.31272327315E+02  0.45102036719E+02  0.00000000000E+00 0. -1.
<scales pt_clust_5="13000.00000" pt_clust_6="13000.00000" pt_clust_7="13000.00000" pt_clust_8="13000.00000" pt_clust_9="32.49977"></scales>
<clustering>
<clus scale="   32.500">  1  9  2 -1</clus>
<clus scale="   77.749">  5  6 -1 -1</clus>
<clus scale="   91.047">  7  8 -1 -1</clus>
<clus scale="  185.181">  2  5  1 -1</clus>
<clus scale="  185.181">  2  5  1 -1</clus>
</clustering>
</event>
<event>
 9    1  0.2333971E-005  0.1239042E+03  0.7546771E-02  0.1240715E+00
          1   -1    0    0  502    0  0.00000000000E+00  0.00000000000E+00  0.57227588114E+03  0.57227588114E+03  0.00000000000E+00 0. -1.
         -2   -1    0    0    0  501 -0.00000000000E+00 -0.00000000000E+00 -0.74167492353E+02  0.74167492353E+02  0.00000000000E+00 0.  1.
        -24    2    1    2    0    0 -0.53612720289E+02  0.43547155011E+02  0.11628451169E+03  0.15591934176E+03  0.77576252753E+02 0.  0.
         23    2    1    2    0    0  0.97042736790E+02 -0.59331654203E+01  0.40667451942E+03  0.42792584509E+03  0.91015762012E+02 0.  0.
         13    1    3    3    0    0 -0.29447798546E+02 -0.51447088617E+01  0.91346208151E+02  0.96113321720E+02  0.00000000000E+00 0. -1.
        -14    1    3    3    0    0 -0.24164921743E+02  0.48691863872E+02  0.24938303538E+02  0.59806020045E+02  0.00000000000E+00 0.  1.
        -13    1    4    4    0    0  0.67524468367E+02  0.36768776415E+02  0.29367369050E+03  0.30357162786E+03  0.00000000000E+00 0. -1.
         13    1    4    4    0    0  0.29518268423E+02 -0.42701941835E+02  0.11300082892E+03  0.12435421723E+03  0.00000000000E+00 0.  1.
         21    1    1    2  502  501 -0.43430016500E+02 -0.37613989590E+02 -0.24850642325E+02  0.62598186636E+02  0.00000000000E+00 0. -1.
<scales pt_clust_5="13000.00000" pt_clust_6="13000.00000" pt_clust_7="13000.00000" pt_clust_8="13000.00000" pt_clust_9="57.45414"></scales>
<clustering>
<clus scale="   57.454">  2  9  1 -1</clus>
<clus scale="   77.576">  5  6 -1 -1</clus>
<clus scale="   91.016">  7  8 -1 -1</clus>
<clus scale="  114.396">  2  5  1 -1</clus>
<clus scale="  123.904">  1  5  2 -1</clus>
</clustering>
</event>
<event>
 9    1  0.2333971E-005  0.8912402E+02  0.7546771E-02  0.1309401E+00
          1   -1    0    0  502    0  0.00000000000E+00  0.00000000000E+00  0.29526162675E+03  0.29526162675E+03  0.00000000000E+00 0. -1.
         -2   -1    0    0    0  501 -0.00000000000E+00 -0.00000000000E+00 -0.12864006004E+03  0.12864006004E+03  0.00000000000E+00 0.  1.
        -24    2    1    2    0    0  0.10405301071E+02 -0.13411595473E+02 -0.91298920658E+02  0.12315834579E+03  0.80897120102E+02 0.  0.
         23    2    1    2    0    0  0.13986205959E+02  0.76455993822E+01  0.26065021878E+03  0.27553136449E+03  0.87891564548E+02 0.  0.
         13    1    3    3    0    0  0.48970876638E+01  0.26102655883E+02 -0.75867530917E+02  0.80381666810E+02  0.00000000000E+00 0. -1.
        -14    1    3    3    0    0  0.55082134071E+01 -0.39514251356E+02 -0.15431389740E+02  0.42776678979E+02  0.00000000000E+00 0.  1.
        -13    1    4    4    0    0  0.23510550432E+02  0.36037029291E+02  0.22451110525E+03  0.22859713437E+03  0.00000000000E+00 0. -1.
         13    1    4    4    0    0 -0.95243444727E+01 -0.28391429909E+02  0.36139113533E+02  0.46934230119E+02  0.00000000000E+00 0.  1.
         21    1    1    2  502  501 -0.24391507030E+02  0.57659960907E+01 -0.27297314127E+01  0.25211976513E+02  0.00000000000E+00 0.  1.
<scales pt_clust_5="13000.00000" pt_clust_6="13000.00000" pt_clust_7="13000.00000" pt_clust_8="13000.00000" pt_clust_9="25.06377"></scales>
<clustering>
<clus scale="   25.064">  2  9  1 -1</clus>
<clus scale="   80.897">  5  6 -1 -1</clus>
<clus scale="   82.234">  2  5  1 -1</clus>
<clus scale="   87.892">  7  8 -1 -1</clus>
<clus scale="   89.124">  1  5  2 -1</clus>
</clustering>
</event>
<event>
 9    1  0.2333971E-005  0.8808867E+02  0.7546771E-02  0.1311583E+00
         -2   -1    0    0    0  501 -0.00000000000E+00  0.00000000000E+00  0.62580183901E+02  0.62580183901E+02  0.00000000000E+00 0.  1.
          1   -1    0    0  502    0  0.00000000000E+00 -0.00000000000E+00 -0.49328893312E+03  0.49328893312E+03  0.00000000000E+00 0. -1.
         23    2    1    2    0    0 -0.86099885308E+01 -0.20479040557E+02 -0.95565336387E+01  0.90898143322E+02  0.87622041289E+02 0.  0.
        -24    2    1    2    0    0  0.90900840917E+01 -0.15655900438E+01 -0.43249271592E+03  0.44017574880E+03  0.81361291797E+02 0.  0.
         13    1    4    4    0    0 -0.26898094528E+02 -0.25904862399E+02 -0.16461206382E+03  0.16879484868E+03  0.00000000000E+00 0. -1.
        -14    1    4    4    0    0  0.35988178619E+02  0.24339272355E+02 -0.26788065210E+03  0.27138090012E+03  0.00000000000E+00 0.  1.
        -13    1    3    3    0    0 -0.40825209949E+02 -0.11790113892E+01 -0.27540305380E+02  0.49260087857E+02  0.00000000000E+00 0. -1.
         13    1    3    3    0    0  0.32215221418E+02 -0.19300029168E+02  0.17983771742E+02  0.41638055465E+02  0.00000000000E+00 0.  1.
         21    1    1    2  502  501 -0.48009556091E+00  0.22044630601E+02  0.11340500340E+02  0.24795224904E+02  0.00000000000E+00 0.  1.
<scales pt_clust_5="13000.00000" pt_clust_6="13000.00000" pt_clust_7="13000.00000" pt_clust_8="13000.00000" pt_clust_9="22.04986"></scales>
<clustering>
<clus scale="   22.050">  1  9  2 -1</clus>
<clus scale="   81.361">  5  6 -1 -1</clus>
<clus scale="   81.864">  2  5  1 -1</clus>
<clus scale="   87.622">  7  8 -1 -1</clus>
<clus scale="   81.864">  2  5  1 -1</clus>
</clustering>
</event>
<event>
 9    1  0.2333971E-005  0.1101761E+03  0.7546771E-02  0.1264486E+00
         -2   -1    0    0    0  501 -0.00000000000E+00  0.00000000000E+00  0.26731174863E+03  0.26731174863E+03  0.00000000000E+00 0.  1.
          1   -1    0    0  502    0  0.00000000000E+00 -0.00000000000E+00 -0.13514458269E+03  0.13514458269E+03  0.00000000000E+00 0. -1.
         23    2    1    2    0    0  0.36926469980E+02 -0.61429485719E+02  0.20347311549E+03  0.23408485893E+03  0.90869502857E+02 0.  0.
        -24    2    1    2    0    0 -0.79374252631E+01  0.61373415904E+02 -0.88733616534E+02  0.13454705171E+03  0.79997221965E+02 0.  0.
         11    1    4    4    0    0 -0.35998144322E+02  0.66749914648E+01 -0.17890825732E+02  0.40749276693E+02  0.00000000000E+00 0. -1.
        -12    1    4    4    0    0  0.28060719058E+02  0.54698424439E+02 -0.70842790802E+02  0.93797775020E+02  0.00000000000E+00 0.  1.
        -11    1    3    3    0    0  0.43099697357E+02 -0.39024007078E+01  0.14698969673E+03  0.15322788124E+03  0.00000000000E+00 0.  1.
         11    1    3    3    0    0 -0.61732273767E+01 -0.57527085011E+02  0.56483418765E+02  0.80856977692E+02  0.00000000000E+00 0. -1.
         21    1    1    2  502  501 -0.28989044717E+02  0.56069814705E-01  0.17427666983E+02  0.33824420674E+02  0.00000000000E+00 0. -1.
<scales pt_clust_5="13000.00000" pt_clust_6="13000.00000" pt_clust_7="13000.00000" pt_clust_8="13000.00000" pt_clust_9="28.98910"></scales>
<clustering>
<clus scale="   28.989">  1  9  2 -1</clus>
<clus scale="   79.997">  5  6 -1 -1</clus>
<clus scale="   90.870">  7  8 -1 -1</clus>
<clus scale="  101.396">  2  5  1 -1</clus>
<clus scale="  101.396">  2  5  1 -1</clus>
</clustering>
</event>
<event>
 9    1  0.2333971E-005  0.1828343E+03  0.7546771E-02  0.1166136E+00
         -2   -1    0    0    0  501 -0.00000000000E+00  0.00000000000E+00  0.63949679923E+02  0.63949679923E+02  0.00000000000E+00 0.  1.
          1   -1    0    0  502    0  0.00000000000E+00 -0.00000000000E+00 -0.88148711671E+03  0.88148711671E+03  0.00000000000E+00 0. -1.
         23    2    1    2    0    0  0.83277009811E+02 -0.15805652246E+03 -0.17280249039E+03  0.26415132382E+03  0.89433195941E+02 0.  0.
        -24    2    1    2    0    0 -0.56374051747E+02  0.14395943220E+03 -0.61342900664E+03  0.63766713985E+03  0.80136653446E+02 0.  0.
         11    1    4    4    0    0 -0.60898024236E+02  0.92910577935E+02 -0.51331388374E+03  0.52519718972E+03  0.00000000000E+00 0. -1.
        -12    1    4    4    0    0  0.45239724888E+01  0.51048854266E+02 -0.10011512290E+03  0.11246995013E+03  0.00000000000E+00 0.  1.
        -13    1    3    3    0    0 -0.54943838599E+01 -0.54426043964E+02 -0.17534329300E+02  0.57444192217E+02  0.00000000000E+00 0.  1.
         13    1    3    3    0    0  0.88771393671E+02 -0.10363047850E+03 -0.15526816109E+03  0.20670713160E+03  0.00000000000E+00 0. -1.
         21    1    1    2  502  501 -0.26902958064E+02  0.14097090259E+02 -0.31305939762E+02  0.43618332966E+02  0.00000000000E+00 0.  1.
<scales pt_clust_5="13000.00000" pt_clust_6="13000.00000" pt_clust_7="13000.00000" pt_clust_8="13000.00000" pt_clust_9="30.37264"></scales>
<clustering>
<clus scale="   30.373">  1  9  2 -1</clus>
<clus scale="   80.137">  5  6 -1 -1</clus>
<clus scale="   89.433">  7  8 -1 -1</clus>
<clus scale="  178.471">  2  5  1 -1</clus>
<clus scale="  178.471">  2  5  1 -1</clus>
</clustering>
</event>
<event>
 9    1  0.2333971E-005  0.1366894E+03  0.7546771E-02  0.1220580E+00
         -2   -1    0    0    0  501 -0.00000000000E+00  0.00000000000E+00  0.68775294013E+02  0.68775294013E+02  0.00000000000E+00 0.  1.
          1   -1    0    0  502    0  0.00000000000E+00 -0.00000000000E+00 -0.58124228033E+03  0.58124228033E+03  0.00000000000E+00 0. -1.
         23    2    1    2    0    0 -0.90276899279E+02  0.72103586294E+02 -0.75554088082E+02  0.16519419965E+03  0.90729585430E+02 0.  0.
        -24    2    1    2    0    0  0.48389054509E+02 -0.88580168183E+02 -0.41586636183E+03  0.43513408022E+03  0.78796510567E+02 0.  0.
         11    1    4    4    0    0 -0.11248960250E+02 -0.55840161942E+02 -0.14332389734E+03  0.15422840965E+03  0.00000000000E+00 0. -1.
        -12    1    4    4    0    0  0.59638014759E+02 -0.32740006240E+02 -0.27254246449E+03  0.28090567057E+03  0.00000000000E+00 0.  1.
        -13    1    3    3    0    0 -0.60861419620E+02  0.49196977336E+02  0.29207079838E+01  0.78313380161E+02  0.00000000000E+00 0.  1.
         13    1    3    3    0    0 -0.29415479659E+02  0.22906608957E+02 -0.78474796065E+02  0.86880819489E+02  0.00000000000E+00 0. -1.
         21    1    1    2  502  501  0.41887844770E+02  0.16476581889E+02 -0.21046536404E+02  0.49689294469E+02  0.00000000000E+00 0.  1.
<scales pt_clust_5="13000.00000" pt_clust_6="13000.00000" pt_clust_7="13000.00000" pt_clust_8="13000.00000" pt_clust_9="45.01188"></scales>
<clustering>
<clus scale="   45.012">  1  9  2 -1</clus>
<clus scale="   78.797">  5  6 -1 -1</clus>
<clus scale="   90.730">  7  8 -1 -1</clus>
<clus scale="  129.078">  2  5  1 -1</clus>
<clus scale="  129.078">  2  5  1 -1</clus>
</clustering>
</event>
<event>
 9    1  0.2333971E-005  0.9552508E+02  0.7546771E-02  0.1298425E+00
         -2   -1    0    0    0  501 -0.00000000000E+00  0.00000000000E+00  0.24147428907E+03  0.24147428907E+03  0.00000000000E+00 0.  1.
          1   -1    0    0  502    0  0.00000000000E+00 -0.00000000000E+00 -0.11891446765E+03  0.11891446765E+03  0.00000000000E+00 0. -1.
         23    2    1    2    0    0  0.28935612909E+00  0.10392712481E+02  0.16736025783E+03  0.19209925676E+03  0.93726070783E+02 0.  0.
        -24    2    1    2    0    0 -0.15425849969E+02  0.13893596807E+02 -0.85448651162E+02  0.11857817704E+03  0.79550758666E+02 0.  0.
         13    1    4    4    0    0 -0.41285052031E+02 -0.11042002713E+02 -0.63299638186E+02  0.76375555903E+02  0.00000000000E+00 0. -1.
        -14    1    4    4    0    0  0.25859202062E+02  0.24935599520E+02 -0.22149012977E+02  0.42202621134E+02  0.00000000000E+00 0.  1.
        -13    1    3    3    0    0 -0.16832704550E+02  0.34821490153E+02  0.15509469323E+03  0.15984442432E+03  0.00000000000E+00 0. -1.
         13    1    3    3    0    0  0.17122060679E+02 -0.24428777672E+02  0.12265564608E+02  0.32254832438E+02  0.00000000000E+00 0.  1.
         21    1    1    2  502  501  0.15136493840E+02 -0.24286309288E+02  0.40648214755E+02  0.49711322929E+02  0.00000000000E+00 0.  1.
<scales pt_clust_5="13000.00000" pt_clust_6="13000.00000" pt_clust_7="13000.00000" pt_clust_8="13000.00000" pt_clust_9="28.61710"></scales>
<clustering>
<clus scale="   28.617">  1  9  2 -1</clus>
<clus scale="   79.551">  5  6 -1 -1</clus>
<clus scale="   81.663">  2  5  1 -1</clus>
<clus scale="   93.726">  7  8 -1 -1</clus>
<clus scale="   81.663">  2  5  1 -1</clus>
</clustering>
</event>
<event>
 9    1  0.2333971E-005  0.1014360E+03  0.7546771E-02  0.1282401E+00
          1   -1    0    0  502    0  0.00000000000E+00  0.00000000000E+00  0.27536599464E+03  0.27536599464E+03  0.00000000000E+00 0. -1.
         -2   -1    0    0    0  501 -0.00000000000E+00 -0.00000000000E+00 -0.59443224782E+03  0.59443224782E+03  0.00000000000E+00 0.  1.
         23    2    1    2    0    0  0.71759814207E+01  0.67603626520E+01 -0.20165723923E+03  0.22011389561E+03  0.87677178870E+02 0.  0.
        -24    2    1    2    0    0  0.26594724349E+02 -0.45734524386E+02  0.25616583116E+03  0.27256684429E+03  0.76634362189E+02 0.  0.
         11    1    4    4    0    0  0.53037200553E+02 -0.25213414304E+02  0.14402230840E+03  0.15553483925E+03  0.00000000000E+00 0. -1.
        -12    1    4    4    0    0 -0.26442476204E+02 -0.20521110082E+02  0.11214352276E+03  0.11703200504E+03  0.00000000000E+00 0.  1.
        -13    1    3    3    0    0  0.37228213053E+02  0.16983098343E+01 -0.36484041451E+02  0.52152750493E+02  0.00000000000E+00 0. -1.
         13    1    3    3    0    0 -0.30052231632E+02  0.50620528177E+01 -0.16517319777E+03  0.16796114511E+03  0.00000000000E+00 0.  1.
         21    1    1    2  502  501 -0.33770705769E+02  0.38974161734E+02 -0.37357484510E+03  0.37711750257E+03  0.00000000000E+00 0.  1.
<scales pt_clust_5="13000.00000" pt_clust_6="13000.00000" pt_clust_7="13000.00000" pt_clust_8="13000.00000" pt_clust_9="51.56982"></scales>
<clustering>
<clus scale="   51.570">  2  9  1 -1</clus>
<clus scale="   76.634">  5  6 -1 -1</clus>
<clus scale="   87.677">  7  8 -1 -1</clus>
<clus scale="   92.059">  1  5  2 -1</clus>
<clus scale="   92.059">  1  5  2 -1</clus>
</clustering>
</event>
<event>
 9    1  0.2333971E-005  0.2257609E+03  0.7546771E-02  0.1130046E+00
         -4   -1    0    0    0  501 -0.00000000000E+00  0.00000000000E+00  0.58269819108E+03  0.58269819108E+03  0.00000000000E+00 0.  1.
          3   -1    0    0  502    0  0.00000000000E+00 -0.00000000000E+00 -0.13406320198E+03  0.13406320198E+03  0.00000000000E+00 0. -1.
        -24    2    1    2    0    0  0.29344129428E+02  0.22746822903E+03  0.30066980368E+03  0.38660024636E+03  0.80340192230E+02 0.  0.
         23    2    1    2    0    0 -0.22480966984E+02 -0.19940008130E+03  0.44641868605E+02  0.22287353459E+03  0.86104179274E+02 0.  0.
         11    1    3    3    0    0 -0.25098008488E+02  0.10996342084E+03  0.12517340091E+03  0.16849404811E+03  0.00000000000E+00 0. -1.
        -12    1    3    3    0    0  0.54442137916E+02  0.11750480820E+03  0.17549640277E+03  0.21810619825E+03  0.00000000000E+00 0.  1.
        -11    1    4    4    0    0  0.79087461752E+01 -0.11862835458E+03 -0.12230961984E+02  0.11951916670E+03  0.00000000000E+00 0. -1.
         11    1    4    4    0    0 -0.30389713160E+02 -0.80771726714E+02  0.56872830589E+02  0.10335436789E+03  0.00000000000E+00 0.  1.
         21    1    1    2  502  501 -0.68631624435E+01 -0.28068147737E+02  0.10332331682E+03  0.10728761212E+03  0.00000000000E+00 0. -1.
<scales pt_clust_5="13000.00000" pt_clust_6="13000.00000" pt_clust_7="13000.00000" pt_clust_8="13000.00000" pt_clust_9="28.89505"></scales>
<clustering>
<clus scale="   28.895">  1  9  2 -1</clus>
<clus scale="   80.340">  5  6 -1 -1</clus>
<clus scale="   86.104">  7  8 -1 -1</clus>
<clus scale="  223.626">  1  5  2 -1</clus>
<clus scale="  225.761">  2  5  1 -1</clus>
</clustering>
</event>
<event>
 9    1  0.2333971E-005  0.1199694E+03  0.7546771E-02  0.1246543E+00
         -2   -1    0    0    0  501 -0.00000000000E+00  0.00000000000E+00  0.74261502832E+02  0.74261502832E+02  0.00000000000E+00 0.  1.
          1   -1    0    0  502    0  0.00000000000E+00 -0.00000000000E+00 -0.32662013829E+03  0.32662013829E+03  0.00000000000E+00 0. -1.
         23    2    1    2    0    0  0.95132694670E+02 -0.89011654833E+01 -0.63192980088E+02  0.14605513172E+03  0.90605123622E+02 0.  0.
        -24    2    1    2    0    0 -0.59616899183E+02  0.47050138789E+02 -0.16238052467E+03  0.19622481045E+03  0.79805082648E+02 0.  0.
         11    1    4    4    0    0 -0.64197216720E+02  0.29907436664E+02 -0.61505868836E+02  0.93801435510E+02  0.00000000000E+00 0. -1.
        -12    1    4    4    0    0  0.45803175364E+01  0.17142702125E+02 -0.10087465584E+03  0.10242337494E+03  0.00000000000E+00 0.  1.
        -13    1    3    3    0    0  0.36046605078E+02 -0.47596466540E+02 -0.39364342498E+02  0.71514563727E+02  0.00000000000E+00 0. -1.
         13    1    3    3    0    0  0.59086089592E+02  0.38695301056E+02 -0.23828637591E+02  0.74540567991E+02  0.00000000000E+00 0.  1.
         21    1    1    2  502  501 -0.35515795486E+02 -0.38148973306E+02 -0.26785130696E+02  0.58601698949E+02  0.00000000000E+00 0. -1.
<scales pt_clust_5="13000.00000" pt_clust_6="13000.00000" pt_clust_7="13000.00000" pt_clust_8="13000.00000" pt_clust_9="52.12212"></scales>
<clustering>
<clus scale="   52.122">  1  9  2 -1</clus>
<clus scale="   79.805">  5  6 -1 -1</clus>
<clus scale="   90.605">  7  8 -1 -1</clus>
<clus scale="  112.037">  2  5  1 -1</clus>
<clus scale="  112.037">  2  5  1 -1</clus>
</clustering>
</event>
<event>
 9    1  0.2333971E-005  0.1660673E+03  0.7546771E-02  0.1182490E+00
          1   -1    0    0  502    0  0.00000000000E+00  0.00000000000E+00  0.88028655670E+03  0.88028655670E+03  0.00000000000E+00 0. -1.
         -2   -1    0    0    0  501 -0.00000000000E+00 -0.00000000000E+00 -0.63397831764E+02  0.63397831764E+02  0.00000000000E+00 0.  1.
         23    2    1    2    0    0  0.11592463400E+03 -0.76148408980E+02  0.96009246375E+02  0.19347529721E+03  0.94751328653E+02 0.  0.
        -24    2    1    2    0    0 -0.12915476748E+03  0.44592993060E+02  0.66175883658E+03  0.68190073881E+03  0.91620798962E+02 0.  0.
         13    1    4    4    0    0 -0.12473635686E+03  0.28954016771E+02  0.64822544659E+03  0.66075239192E+03  0.00000000000E+00 0. -1.
        -14    1    4    4    0    0 -0.44184106232E+01  0.15638976289E+02  0.13533389986E+02  0.21148346893E+02  0.00000000000E+00 0.  1.
        -11    1    3    3    0    0  0.64124980478E+02  0.71833098082E+01  0.15026244479E+02  0.66252555303E+02  0.00000000000E+00 0.  1.
         11    1    3    3    0    0  0.51799653521E+02 -0.83331718788E+02  0.80983001896E+02  0.12722274190E+03  0.00000000000E+00 0. -1.
         21    1    1    2  502  501  0.13230133485E+02  0.31555415921E+02  0.59120641977E+02  0.68308352445E+02  0.00000000000E+00 0.  1.
<scales pt_clust_5="13000.00000" pt_clust_6="13000.00000" pt_clust_7="13000.00000" pt_clust_8="13000.00000" pt_clust_9="34.21667"></scales>
<clustering>
<clus scale="   34.217">  2  9  1 -1</clus>
<clus scale="   91.621">  5  6 -1 -1</clus>
<clus scale="   94.751">  7  8 -1 -1</clus>
<clus scale="  164.301">  1  5  2 -1</clus>
<clus scale="  164.301">  1  5  2 -1</clus>
</clustering>
</event>
<event>
 9    1  0.2333971E-005  0.1361069E+03  0.7546771E-02  0.1219755E+00
         -2   -1    0    0    0  501 -0.00000000000E+00  0.00000000000E+00  0.12188069232E+03  0.12188069232E+03  0.00000000000E+00 0.  1.
          1   -1    0    0  502    0  0.00000000000E+00 -0.00000000000E+00 -0.34644113942E+03  0.34644113942E+03  0.00000000000E+00 0. -1.
         23    2    1    2    0    0 -0.10599261863E+03  0.32408534728E+02 -0.12895436407E+03  0.19195429784E+03  0.89064449239E+02 0.  0.
        -24    2    1    2    0    0  0.77951267014E+02 -0.47345124791E+02 -0.15878400585E+03  0.20565071091E+03  0.93604986590E+02 0.  0.
         11    1    4    4    0    0 -0.19354676029E+02 -0.17386072536E+02 -0.51780934634E+02  0.57949496926E+02  0.00000000000E+00 0. -1.
        -12    1    4    4    0    0  0.97305943043E+02 -0.29959052256E+02 -0.10700307122E+03  0.14770121399E+03  0.00000000000E+00 0.  1.
        -13    1    3    3    0    0 -0.17170536450E+02  0.48292434139E+02 -0.37729131331E+02  0.63643333256E+02  0.00000000000E+00 0.  1.
         13    1    3    3    0    0 -0.88822082184E+02 -0.15883899411E+02 -0.91225232735E+02  0.12831096458E+03  0.00000000000E+00 0. -1.
         21    1    1    2  502  501  0.28041351620E+02  0.14936590063E+02  0.63177922808E+02  0.70716822990E+02  0.00000000000E+00 0.  1.
<scales pt_clust_5="13000.00000" pt_clust_6="13000.00000" pt_clust_7="13000.00000" pt_clust_8="13000.00000" pt_clust_9="31.77136"></scales>
<clustering>
<clus scale="   31.771">  1  9  2 -1</clus>
<clus scale="   89.064">  7  8 -1 -1</clus>
<clus scale="   93.605">  5  6 -1 -1</clus>
<clus scale="  133.025">  1  7  2 -1</clus>
<clus scale="  136.107">  2  5  1 -1</clus>
</clustering>
</event>
<event>
 9    1  0.2333971E-005  0.1025792E+03  0.7546771E-02  0.1280225E+00
          1   -1    0    0  502    0  0.00000000000E+00  0.00000000000E+00  0.13931422894E+03  0.13931422894E+03  0.00000000000E+00 0. -1.
         -2   -1    0    0    0  501 -0.00000000000E+00 -0.00000000000E+00 -0.36965549960E+03  0.36965549960E+03  0.00000000000E+00 0.  1.
        -24    2    1    2    0    0 -0.27255740578E+00 -0.29674669954E+02 -0.21127714535E+03  0.22796277431E+03  0.80301519270E+02 0.  0.
         23    2    1    2    0    0 -0.32434164988E+02  0.36386622141E+02  0.10796947417E+03  0.14965888463E+03  0.91457165200E+02 0.  0.
         13    1    3    3    0    0 -0.33212774281E+02 -0.31480703408E+02 -0.16433684126E+03  0.17058933278E+03  0.00000000000E+00 0. -1.
        -14    1    3    3    0    0  0.32940216875E+02  0.18060334542E+01 -0.46940304096E+02  0.57373441532E+02  0.00000000000E+00 0.  1.
        -13    1    4    4    0    0 -0.93934408738E+01 -0.22162291793E+02  0.74705476036E+02  0.78487655454E+02  0.00000000000E+00 0. -1.
         13    1    4    4    0    0 -0.23040724114E+02  0.58548913934E+02  0.33263998139E+02  0.71171229178E+02  0.00000000000E+00 0.  1.
         21    1    1    2  502  501  0.32706722393E+02 -0.67119521871E+01 -0.12703359948E+03  0.13134806960E+03  0.00000000000E+00 0.  1.
<scales pt_clust_5="13000.00000" pt_clust_6="13000.00000" pt_clust_7="13000.00000" pt_clust_8="13000.00000" pt_clust_9="33.38832"></scales>
<clustering>
<clus scale="   33.388">  2  9  1 -1</clus>
<clus scale="   80.302">  5  6 -1 -1</clus>
<clus scale="   91.457">  7  8 -1 -1</clus>
<clus scale="   92.771">  2  5  1 -1</clus>
<clus scale="  102.579">  1  5  2 -1</clus>
</clustering>
</event>
<event>
 9    1  0.2333971E-005  0.9113731E+02  0.7546771E-02  0.1304741E+00
         -2   -1    0    0    0  501 -0.00000000000E+00  0.00000000000E+00  0.62221266651E+02  0.62221266651E+02  0.00000000000E+00 0.  1.
          1   -1    0    0  502    0  0.00000000000E+00 -0.00000000000E+00 -0.54120750057E+03  0.54120750057E+03  0.00000000000E+00 0. -1.
        -24    2    1    2    0    0  0.32143709935E+01  0.91541388521E+01  0.57285719989E+01  0.81694088460E+02  0.80913392669E+02 0.  0.
         23    2    1    2    0    0  0.16693971301E+02 -0.16086870112E+02 -0.49121612319E+03  0.49967403548E+03  0.88562892832E+02 0.  0.
         11    1    3    3    0    0  0.39910733982E+01  0.34711413454E+02 -0.24070534597E+02  0.42428781819E+02  0.00000000000E+00 0. -1.
        -12    1    3    3    0    0 -0.77670240465E+00 -0.25557274602E+02  0.29799106596E+02  0.39265306641E+02  0.00000000000E+00 0.  1.
        -13    1    4    4    0    0  0.52126621921E+02 -0.20106194991E+02 -0.29508468644E+03  0.30032718153E+03  0.00000000000E+00 0. -1.
         13    1    4    4    0    0 -0.35432650620E+02  0.40193248790E+01 -0.19613143674E+03  0.19934685395E+03  0.00000000000E+00 0.  1.
         21    1    1    2  502  501 -0.19908342294E+02  0.69327312602E+01  0.65013172704E+01  0.22060643279E+02  0.00000000000E+00 0.  1.
<scales pt_clust_5="13000.00000" pt_clust_6="13000.00000" pt_clust_7="13000.00000" pt_clust_8="13000.00000" pt_clust_9="21.08091"></scales>
<clustering>
<clus scale="   21.081">  1  9  2 -1</clus>
<clus scale="   80.913">  5  6 -1 -1</clus>
<clus scale="   83.723">  1  5  2 -1</clus>
<clus scale="   88.563">  7  8 -1 -1</clus>
<clus scale="   91.137">  2  5  1 -1</clus>
</clustering>
</event>
<event>
 9    1  0.2333971E-005  0.1382513E+03  0.7546771E-02  0.1217544E+00
          1   -1    0    0  502    0  0.00000000000E+00  0.00000000000E+00  0.26395874972E+03  0.26395874972E+03  0.00000000000E+00 0. -1.
         -2   -1    0    0    0  501 -0.00000000000E+00 -0.00000000000E+00 -0.51500277196E+03  0.51500277196E+03  0.00000000000E+00 0.  1.
        -24    2    1    2    0    0  0.77674988406E+02  0.31053002553E+02 -0.39488590647E+03  0.41179291543E+03  0.81491308010E+02 0.  0.
         23    2    1    2    0    0 -0.10445418867E+03 -0.19020348441E+02  0.23407616476E+03  0.27227848182E+03  0.89841357766E+02 0.  0.
         13    1    3    3    0    0  0.28462612047E+02 -0.11490224848E+02 -0.37147560063E+02  0.48188035551E+02  0.00000000000E+00 0. -1.
        -14    1    3    3    0    0  0.49212376359E+02  0.42543227401E+02 -0.35773834641E+03  0.36360487988E+03  0.00000000000E+00 0.  1.
        -13    1    4    4    0    0 -0.78123676766E+02  0.32028034537E+01  0.71042588650E+02  0.10564381772E+03  0.00000000000E+00 0.  1.
         13    1    4    4    0    0 -0.26330511906E+02 -0.22223151894E+02  0.16303357611E+03  0.16663466409E+03  0.00000000000E+00 0. -1.
         21    1    1    2  502  501  0.26779200266E+02 -0.12032654112E+02 -0.90234280532E+02  0.94890124433E+02  0.00000000000E+00 0. -1.
<scales pt_clust_5="13000.00000" pt_clust_6="13000.00000" pt_clust_7="13000.00000" pt_clust_8="13000.00000" pt_clust_9="29.35831"></scales>
<clustering>
<clus scale="   29.358">  2  9  1 -1</clus>
<clus scale="   81.491">  5  6 -1 -1</clus>
<clus scale="   89.841">  7  8 -1 -1</clus>
<clus scale="  132.977">  2  5  1 -1</clus>
<clus scale="  138.251">  1  5  2 -1</clus>
</clustering>
</event>
<event>
 9    1  0.2333971E-005  0.9564099E+02  0.7546771E-02  0.1295954E+00
         -2   -1    0    0    0  501 -0.00000000000E+00  0.00000000000E+00  0.40698234703E+02  0.40698234703E+02  0.00000000000E+00 0.  1.
          1   -1    0    0  502    0  0.00000000000E+00 -0.00000000000E+00 -0.30301901846E+03  0.30301901846E+03  0.00000000000E+00 0. -1.
        -24    2    1    2    0    0  0.11044556959E+02  0.36881561079E+01 -0.61561377049E+02  0.10309247694E+03  0.81869841351E+02 0.  0.
         23    2    1    2    0    0 -0.18854954601E+02 -0.24706389741E+02 -0.19392870057E+03  0.21718491695E+03  0.92709396725E+02 0.  0.
         11    1    3    3    0    0 -0.17906843847E+02 -0.24745695778E+02 -0.53669713416E+02  0.61753078095E+02  0.00000000000E+00 0. -1.
        -12    1    3    3    0    0  0.28951400806E+02  0.28433851886E+02 -0.78916636334E+01  0.41339398842E+02  0.00000000000E+00 0.  1.
        -13    1    4    4    0    0 -0.36006754963E+02  0.25555523806E+02 -0.77013040935E+02  0.88772629081E+02  0.00000000000E+00 0.  1.
         13    1    4    4    0    0  0.17151800363E+02 -0.50261913547E+02 -0.11691565963E+03  0.12841228787E+03  0.00000000000E+00 0. -1.
         21    1    1    2  502  501  0.78103976418E+01  0.21018233633E+02 -0.68307061420E+01  0.23439859274E+02  0.00000000000E+00 0.  1.
<scales pt_clust_5="13000.00000" pt_clust_6="13000.00000" pt_clust_7="13000.00000" pt_clust_8="13000.00000" pt_clust_9="22.42250"></scales>
<clustering>
<clus scale="   22.422">  1  9  2 -1</clus>
<clus scale="   81.870">  5  6 -1 -1</clus>
<clus scale="   85.175">  1  5  2 -1</clus>
<clus scale="   92.709">  7  8 -1 -1</clus>
<clus scale="   95.641">  2  5  1 -1</clus>
</clustering>
</event>
<event>
 9    1  0.2333971E-005  0.1448109E+03  0.7546771E-02  0.1208855E+00
         -2   -1    0    0    0  501 -0.00000000000E+00  0.00000000000E+00  0.21674924943E+03  0.21674924943E+03  0.00000000000E+00 0.  1.
          1   -1    0    0  502    0  0.00000000000E+00 -0.00000000000E+00 -0.21401076039E+03  0.21401076039E+03  0.00000000000E+00 0. -1.
        -24    2    1    2    0    0 -0.15263297461E+03  0.74726381740E+02  0.55161553854E+02  0.19671102592E+03  0.82289571802E+02 0.  0.
         23    2    1    2    0    0  0.86944348173E+02 -0.38732106566E+02 -0.79818990038E+02  0.15429235278E+03  0.91518103119E+02 0.  0.
         11    1    3    3    0    0 -0.76719472558E+02  0.63354471183E+02 -0.43364923910E+01  0.99591524011E+02  0.00000000000E+00 0. -1.
        -12    1    3    3    0    0 -0.75913502053E+02  0.11371910556E+02  0.59498046245E+02  0.97119501907E+02  0.00000000000E+00 0.  1.
        -11    1    4    4    0    0  0.27994623526E+02 -0.24799901196E+02 -0.85629481137E+02  0.93440580507E+02  0.00000000000E+00 0. -1.
         11    1    4    4    0    0  0.58949724647E+02 -0.13932205369E+02  0.58104910987E+01  0.60851772277E+02  0.00000000000E+00 0.  1.
         21    1    1    2  502  501  0.65688626438E+02 -0.35994275174E+02  0.27395925227E+02  0.79756631120E+02  0.00000000000E+00 0. -1.
<scales pt_clust_5="13000.00000" pt_clust_6="13000.00000" pt_clust_7="13000.00000" pt_clust_8="13000.00000" pt_clust_9="74.90383"></scales>
<clustering>
<clus scale="   74.904">  1  9  2 -1</clus>
<clus scale="   82.290">  5  6 -1 -1</clus>
<clus scale="   91.518">  7  8 -1 -1</clus>
<clus scale="  139.163">  1  5  2 -1</clus>
<clus scale="  144.811">  2  5  1 -1</clus>
</clustering>
</event>
<event>
 9    1  0.2333971E-005  0.1012043E+03  0.7546771E-02  0.1290427E+00
          1   -1    0    0  502    0  0.00000000000E+00  0.00000000000E+00  0.17758514730E+03  0.17758514730E+03  0.00000000000E+00 0. -1.
         -2   -1    0    0    0  501 -0.00000000000E+00 -0.00000000000E+00 -0.16859445095E+03  0.16859445095E+03  0.00000000000E+00 0.  1.
         23    2    1    2    0    0 -0.30749283995E+02 -0.38686704016E+01 -0.96030600311E+02  0.14145599997E+03  0.99133438634E+02 0.  0.
        -24    2    1    2    0    0 -0.23367960340E+02 -0.10281517517E+02  0.12176644732E+03  0.14633435250E+03  0.77038327182E+02 0.  0.
         11    1    4    4    0    0 -0.49527061227E+02 -0.19764925338E+02  0.79033799392E+02  0.95341090374E+02  0.00000000000E+00 0. -1.
        -12    1    4    4    0    0  0.26159100886E+02  0.94834078213E+01  0.42732647930E+02  0.50993262125E+02  0.00000000000E+00 0.  1.
        -13    1    3    3    0    0  0.20107709990E+02 -0.10111591812E+02 -0.86446801124E+02  0.89328683604E+02  0.00000000000E+00 0.  1.
         13    1    3    3    0    0 -0.50856993984E+02  0.62429214108E+01 -0.95837991871E+01  0.52127316368E+02  0.00000000000E+00 0. -1.
         21    1    1    2  502  501  0.54117244335E+02  0.14150187918E+02 -0.16745150656E+02  0.58389245783E+02  0.00000000000E+00 0.  1.
<scales pt_clust_5="13000.00000" pt_clust_6="13000.00000" pt_clust_7="13000.00000" pt_clust_8="13000.00000" pt_clust_9="55.93661"></scales>
<clustering>
<clus scale="   55.937">  2  9  1 -1</clus>
<clus scale="   77.038">  5  6 -1 -1</clus>
<clus scale="   79.686">  1  5  2 -1</clus>
<clus scale="   99.133">  7  8 -1 -1</clus>
<clus scale="   79.686">  1  5  2 -1</clus>
</clustering>
</event>
<event>
 9    1  0.2333971E-005  0.1189762E+03  0.7546771E-02  0.1248213E+00
         -2   -1    0    0    0  501 -0.00000000000E+00  0.00000000000E+00  0.64479739328E+03  0.64479739328E+03  0.00000000000E+00 0.  1.
          1   -1    0    0  502    0  0.00000000000E+00 -0.00000000000E+00 -0.33055895988E+03  0.33055895988E+03  0.00000000000E+00 0. -1.
        -24    2    1    2    0    0 -0.18781491423E+02  0.92178966778E+01  0.21402409058E+03  0.22943878211E+03  0.79988307553E+02 0.  0.
         23    2    1    2    0    0  0.73993734832E+02  0.31317906919E+02 -0.30854090621E+03  0.33146323484E+03  0.90633885255E+02 0.  0.
         13    1    3    3    0    0 -0.29362941180E+02  0.29736122159E+02  0.56736304600E+02  0.70465789823E+02  0.00000000000E+00 0. -1.
        -14    1    3    3    0    0  0.10581449756E+02 -0.20518225481E+02  0.15728778598E+03  0.15897299228E+03  0.00000000000E+00 0.  1.
        -13    1    4    4    0    0  0.63946218153E+02 -0.19251595541E+02 -0.13817773966E+03  0.15346931447E+03  0.00000000000E+00 0.  1.
         13    1    4    4    0    0  0.10047516679E+02  0.50569502460E+02 -0.17036316655E+03  0.17799392036E+03  0.00000000000E+00 0. -1.
         21    1    1    2  502  501 -0.55212243408E+02 -0.40535803597E+02  0.40875524903E+03  0.41445433621E+03  0.00000000000E+00 0.  1.
<scales pt_clust_5="13000.00000" pt_clust_6="13000.00000" pt_clust_7="13000.00000" pt_clust_8="13000.00000" pt_clust_9="68.49484"></scales>
<clustering>
<clus scale="   68.495">  1  9  2 -1</clus>
<clus scale="   79.988">  5  6 -1 -1</clus>
<clus scale="   90.634">  7  8 -1 -1</clus>
<clus scale="  111.081">  1  5  2 -1</clus>
<clus scale="  118.976">  2  5  1 -1</clus>
</clustering>
</event>
<event>
 9    1  0.2333971E-005  0.1043537E+03  0.7546771E-02  0.1276111E+00
          1   -1    0    0  502    0  0.00000000000E+00  0.00000000000E+00  0.23912313522E+03  0.23912313522E+03  0.00000000000E+00 0. -1.
         -2   -1    0    0    0  501 -0.00000000000E+00 -0.00000000000E+00 -0.60998156664E+02  0.60998156664E+02  0.00000000000E+00 0.  1.
        -24    2    1    2    0    0  0.25761380147E+02  0.56386923597E+02  0.67944114438E+02  0.12182802457E+03  0.79890744303E+02 0.  0.
         23    2    1    2    0    0  0.23444137729E+01 -0.47063179952E+02  0.10805417152E+03  0.14860504290E+03  0.90483786445E+02 0.  0.
         13    1    3    3    0    0  0.18988512877E+02  0.41093536788E+02  0.86017855659E+02  0.97202437620E+02  0.00000000000E+00 0. -1.
        -14    1    3    3    0    0  0.67728672696E+01  0.15293386809E+02 -0.18073741221E+02  0.24625586955E+02  0.00000000000E+00 0.  1.
        -13    1    4    4    0    0  0.42368216751E+02 -0.54339075871E+01  0.33406365540E+02  0.54227100244E+02  0.00000000000E+00 0. -1.
         13    1    4    4    0    0 -0.40023802978E+02 -0.41629272365E+02  0.74647805978E+02  0.94377942655E+02  0.00000000000E+00 0.  1.
         21    1    1    2  502  501 -0.28105793919E+02 -0.93237436453E+01  0.21266926034E+01  0.29688224414E+02  0.00000000000E+00 0.  1.
<scales pt_clust_5="13000.00000" pt_clust_6="13000.00000" pt_clust_7="13000.00000" pt_clust_8="13000.00000" pt_clust_9="29.61195"></scales>
<clustering>
<clus scale="   29.612">  2  9  1 -1</clus>
<clus scale="   79.891">  5  6 -1 -1</clus>
<clus scale="   90.484">  7  8 -1 -1</clus>
<clus scale="   95.315">  2  5  1 -1</clus>
<clus scale="  104.354">  1  5  2 -1</clus>
</clustering>
</event>
<event>
 9    1  0.2333971E-005  0.1183720E+03  0.7546771E-02  0.1262502E+00
          3   -1    0    0  502    0  0.00000000000E+00  0.00000000000E+00  0.46213749581E+03  0.46213749581E+03  0.00000000000E+00 0. -1.
         -4   -1    0    0    0  501 -0.00000000000E+00 -0.00000000000E+00 -0.13506454266E+03  0.13506454266E+03  0.00000000000E+00 0.  1.
        -24    2    1    2    0    0  0.16236745786E+02 -0.11182156031E+02 -0.28998546034E+02  0.89802074186E+02  0.82672996370E+02 0.  0.
         23    2    1    2    0    0  0.68939493580E+02 -0.20200125599E+02  0.39250377770E+03  0.40958815380E+03  0.92425869600E+02 0.  0.
         13    1    3    3    0    0  0.27583174420E+02 -0.37832669552E+02  0.26554784581E+01  0.46895564421E+02  0.00000000000E+00 0. -1.
        -14    1    3    3    0    0 -0.11346428634E+02  0.26650513521E+02 -0.31654024492E+02  0.42906509765E+02  0.00000000000E+00 0.  1.
        -11    1    4    4    0    0  0.76341686331E+02 -0.46166384730E+02  0.27899919342E+03  0.29291626462E+03  0.00000000000E+00 0. -1.
         11    1    4    4    0    0 -0.74021927510E+01  0.25966259130E+02  0.11350458429E+03  0.11667188918E+03  0.00000000000E+00 0.  1.
         21    1    1    2  502  501 -0.85176239366E+02  0.31382281630E+02 -0.36432278519E+02  0.97811810488E+02  0.00000000000E+00 0.  1.
<scales pt_clust_5="13000.00000" pt_clust_6="13000.00000" pt_clust_7="13000.00000" pt_clust_8="13000.00000" pt_clust_9="73.95536"></scales>
<clustering>
<clus scale="   82.673">  5  6 -1 -1</clus>
<clus scale="   84.991">  2  5  1 -1</clus>
<clus scale="   73.955">  2  9  1 -1</clus>
<clus scale="   92.426">  7  8 -1 -1</clus>
<clus scale="  118.372">  1  5  2 -1</clus>
</clustering>
</event>
<event>
 9    1  0.2333971E-005  0.9339561E+02  0.7546771E-02  0.1300544E+00
         -2   -1    0    0    0  501 -0.00000000000E+00  0.00000000000E+00  0.57596474660E+02  0.57596474660E+02  0.00000000000E+00 0.  1.
          1   -1    0    0  502    0  0.00000000000E+00 -0.00000000000E+00 -0.31719199535E+03  0.31719199535E+03  0.00000000000E+00 0. -1.
        -24    2    1    2    0    0  0.44716622877E+02  0.39932357654E+02 -0.10531503370E+03  0.14599280398E+03  0.81415434296E+02 0.  0.
         23    2    1    2    0    0  0.35792656999E+01  0.94079892619E+01 -0.12203672722E+03  0.15259446701E+03  0.91053759761E+02 0.  0.
         11    1    3    3    0    0  0.38353386887E+02  0.64872534320E+02 -0.79191009485E+02  0.10931900099E+03  0.00000000000E+00 0. -1.
        -12    1    3    3    0    0  0.63632359895E+01 -0.24940176666E+02 -0.26124024218E+02  0.36673802990E+02  0.00000000000E+00 0.  1.
        -11    1    4    4    0    0  0.14568944067E+02  0.37422640757E+02 -0.17488312899E+02  0.43801247249E+02  0.00000000000E+00 0.  1.
         11    1    4    4    0    0 -0.10989678367E+02 -0.28014651495E+02 -0.10454841432E+03  0.10879321976E+03  0.00000000000E+00 0. -1.
         21    1    1    2  502  501 -0.48295888577E+02 -0.49340346916E+02 -0.32243759761E+02  0.76201199011E+02  0.00000000000E+00 0.  1.
<scales pt_clust_5="13000.00000" pt_clust_6="13000.00000" pt_clust_7="13000.00000" pt_clust_8="13000.00000" pt_clust_9="69.04319"></scales>
<clustering>
<clus scale="   69.043">  1  9  2 -1</clus>
<clus scale="   81.415">  5  6 -1 -1</clus>
<clus scale="   84.026">  1  5  2 -1</clus>
<clus scale="   91.054">  7  8 -1 -1</clus>
<clus scale="   93.396">  2  5  1 -1</clus>
</clustering>
</event>
<event>
 9    1  0.2333971E-005  0.1501250E+03  0.7546771E-02  0.1202440E+00
          1   -1    0    0  502    0  0.00000000000E+00  0.00000000000E+00  0.28815475320E+03  0.28815475320E+03  0.00000000000E+00 0. -1.
         -2   -1    0    0    0  501 -0.00000000000E+00 -0.00000000000E+00 -0.23090018253E+03  0.23090018253E+03  0.00000000000E+00 0.  1.
         23    2    1    2    0    0  0.15712464725E+03 -0.29583519812E+02 -0.10804890148E+03  0.21360960505E+03  0.91603268715E+02 0.  0.
        -24    2    1    2    0    0 -0.11339990889E+03  0.62799550307E+01  0.20101202666E+03  0.24437152499E+03  0.80078899794E+02 0.  0.
         13    1    4    4    0    0 -0.91531461438E+02 -0.13958076432E+02  0.19213566407E+03  0.21328138629E+03  0.00000000000E+00 0. -1.
        -14    1    4    4    0    0 -0.21868447451E+02  0.20238031463E+02  0.88763625904E+01  0.31090138698E+02  0.00000000000E+00 0.  1.
        -13    1    3    3    0    0  0.15128730195E+03 -0.52560514777E+02 -0.89197818548E+02  0.18332131976E+03  0.00000000000E+00 0.  1.
         13    1    3    3    0    0  0.58373452982E+01  0.22976994965E+02 -0.18851082936E+02  0.30288285287E+02  0.00000000000E+00 0. -1.
         21    1    1    2  502  501 -0.43724738361E+02  0.23303564781E+02 -0.35708554514E+02  0.61073805692E+02  0.00000000000E+00 0. -1.
<scales pt_clust_5="13000.00000" pt_clust_6="13000.00000" pt_clust_7="13000.00000" pt_clust_8="13000.00000" pt_clust_9="49.54704"></scales>
<clustering>
<clus scale="   49.547">  2  9  1 -1</clus>
<clus scale="   80.079">  5  6 -1 -1</clus>
<clus scale="   91.603">  7  8 -1 -1</clus>
<clus scale="  143.384">  1  5  2 -1</clus>
<clus scale="  143.384">  1  5  2 -1</clus>
</clustering>
</event>
<event>
 9    1  0.2333971E-005  0.1308135E+03  0.7546771E-02  0.1248081E+00
         -2   -1    0    0    0  501 -0.00000000000E+00  0.00000000000E+00  0.56063718081E+02  0.56063718081E+02  0.00000000000E+00 0.  1.
          1   -1    0    0  502    0  0.00000000000E+00 -0.00000000000E+00 -0.58446489346E+03  0.58446489346E+03  0.00000000000E+00 0. -1.
        -24    2    1    2    0    0  0.25871402327E+02  0.20252502171E+02 -0.30297981914E+02  0.89102325967E+02  0.77082835198E+02 0.  0.
         23    2    1    2    0    0  0.23290520635E+02 -0.96366754731E+02 -0.37635571508E+03  0.39966093180E+03  0.90863834210E+02 0.  0.
         11    1    3    3    0    0 -0.16267945502E+02 -0.17764848880E+02 -0.20242488404E+02  0.31464173966E+02  0.00000000000E+00 0. -1.
        -12    1    3    3    0    0  0.42139347829E+02  0.38017351051E+02 -0.10055493510E+02  0.57638152001E+02  0.00000000000E+00 0.  1.
        -13    1    4    4    0    0  0.11965908093E+02 -0.60911857816E+02 -0.34630403118E+03  0.35182370498E+03  0.00000000000E+00 0. -1.
         13    1    4    4    0    0  0.11324612542E+02 -0.35454896914E+02 -0.30051683906E+02  0.47837226822E+02  0.00000000000E+00 0.  1.
         21    1    1    2  502  501 -0.49161922962E+02  0.76114252560E+02 -0.12174747838E+03  0.15176535377E+03  0.00000000000E+00 0.  1.
<scales pt_clust_5="13000.00000" pt_clust_6="13000.00000" pt_clust_7="13000.00000" pt_clust_8="13000.00000" pt_clust_9="94.10594"></scales>
<clustering>
<clus scale="   77.083">  5  6 -1 -1</clus>
<clus scale="   83.793">  1  5  2 -1</clus>
<clus scale="   90.864">  7  8 -1 -1</clus>
<clus scale="   94.106">  1  9  2 -1</clus>
<clus scale="  130.813">  2  5  1 -1</clus>
</clustering>
</event>
<event>
 9    1  0.2333971E-005  0.1338923E+03  0.7546771E-02  0.1224754E+00
         -2   -1    0    0    0  501 -0.00000000000E+00  0.00000000000E+00  0.11129343619E+03  0.11129343619E+03  0.00000000000E+00 0.  1.
          1   -1    0    0  502    0  0.00000000000E+00 -0.00000000000E+00 -0.52864792994E+03  0.52864792994E+03  0.00000000000E+00 0. -1.
         23    2    1    2    0    0  0.22564965316E+01 -0.85623699649E+02 -0.12734990035E+03  0.17915231586E+03  0.92417776657E+02 0.  0.
        -24    2    1    2    0    0 -0.22194392606E+02  0.99863343073E+02 -0.36204124428E+03  0.38469985121E+03  0.80341985380E+02 0.  0.
         11    1    4    4    0    0  0.93778335072E-01  0.72269954929E+02 -0.32681158235E+03  0.33470698460E+03  0.00000000000E+00 0. -1.
        -12    1    4    4    0    0 -0.22288170941E+02  0.27593388145E+02 -0.35229661923E+02  0.49992866615E+02  0.00000000000E+00 0.  1.
        -13    1    3    3    0    0  0.22930489721E+02 -0.78642033096E+02 -0.43984872787E+02  0.92978738228E+02  0.00000000000E+00 0.  1.
         13    1    3    3    0    0 -0.20673993190E+02 -0.69816665528E+01 -0.83365027559E+02  0.86173577633E+02  0.00000000000E+00 0. -1.
         21    1    1    2  502  501  0.19937896074E+02 -0.14239643424E+02  0.72036650873E+02  0.76089199061E+02  0.00000000000E+00 0.  1.
<scales pt_clust_5="13000.00000" pt_clust_6="13000.00000" pt_clust_7="13000.00000" pt_clust_8="13000.00000" pt_clust_9="24.50076"></scales>
<clustering>
<clus scale="   24.501">  1  9  2 -1</clus>
<clus scale="   80.342">  5  6 -1 -1</clus>
<clus scale="   92.418">  7  8 -1 -1</clus>
<clus scale="  125.861">  2  5  1 -1</clus>
<clus scale="  125.861">  2  5  1 -1</clus>
</clustering>
</event>
<event>
 9    1  0.2333971E-005  0.1939490E+03  0.7546771E-02  0.1156435E+00
         -2   -1    0    0    0  501 -0.00000000000E+00  0.00000000000E+00  0.13270875860E+03  0.13270875860E+03  0.00000000000E+00 0.  1.
          1   -1    0    0  502    0  0.00000000000E+00 -0.00000000000E+00 -0.52793034706E+03  0.52793034706E+03  0.00000000000E+00 0. -1.
         23    2    1    2    0    0  0.69433971286E+02 -0.15438279476E+03  0.17729128733E+02  0.19356504334E+03  0.92184490626E+02 0.  0.
        -24    2    1    2    0    0 -0.53780473662E+02  0.16966938770E+03 -0.38857848993E+03  0.43432169793E+03  0.77214337931E+02 0.  0.
         13    1    4    4    0    0 -0.25917029792E+01  0.92738626406E+02 -0.25943284177E+03  0.27552235688E+03  0.00000000000E+00 0. -1.
        -14    1    4    4    0    0 -0.51188770682E+02  0.76930761298E+02 -0.12914564816E+03  0.15879934104E+03  0.00000000000E+00 0.  1.
        -13    1    3    3    0    0  0.86742644787E+02 -0.12254765905E+03 -0.59832332791E+01  0.15025982245E+03  0.00000000000E+00 0.  1.
         13    1    3    3    0    0 -0.17308673501E+02 -0.31835135714E+02  0.23712362012E+02  0.43305220892E+02  0.00000000000E+00 0. -1.
         21    1    1    2  502  501 -0.15653497625E+02 -0.15286592944E+02 -0.24372227264E+02  0.32752364396E+02  0.00000000000E+00 0.  1.
<scales pt_clust_5="13000.00000" pt_clust_6="13000.00000" pt_clust_7="13000.00000" pt_clust_8="13000.00000" pt_clust_9="21.87949"></scales>
<clustering>
<clus scale="   21.879">  2  9  1 -1</clus>
<clus scale="   77.214">  5  6 -1 -1</clus>
<clus scale="   92.184">  7  8 -1 -1</clus>
<clus scale="  187.297">  2  5  1 -1</clus>
<clus scale="   21.879">  2  5  1 -1</clus>
</clustering>
</event>
<event>
 9    1  0.2333971E-005  0.1188841E+03  0.7546771E-02  0.1247112E+00
          1   -1    0    0  502    0  0.00000000000E+00  0.00000000000E+00  0.10622587083E+04  0.10622587083E+04  0.00000000000E+00 0. -1.
         -2   -1    0    0    0  501 -0.00000000000E+00 -0.00000000000E+00 -0.45486764698E+02  0.45486764698E+02  0.00000000000E+00 0.  1.
         23    2    1    2    0    0 -0.53644082716E+02  0.66310007634E+02  0.81041701074E+02  0.14765717778E+03  0.89219841489E+02 0.  0.
        -24    2    1    2    0    0  0.73081839302E+02 -0.29684141447E+02  0.89405895241E+03  0.90130243913E+03  0.82356377493E+02 0.  0.
         13    1    4    4    0    0  0.63838455183E+02  0.12000786494E+02  0.38359504688E+03  0.38905594357E+03  0.00000000000E+00 0. -1.
        -14    1    4    4    0    0  0.92433841189E+01 -0.41684927941E+02  0.51046390552E+03  0.51224649555E+03  0.00000000000E+00 0.  1.
        -11    1    3    3    0    0 -0.26238193962E+02 -0.17851879254E+02  0.37152967109E+02  0.48861798782E+02  0.00000000000E+00 0. -1.
         11    1    3    3    0    0 -0.27405888754E+02  0.84161886888E+02  0.43888733966E+02  0.98795379001E+02  0.00000000000E+00 0.  1.
         21    1    1    2  502  501 -0.19437756587E+02 -0.36625866186E+02  0.41671290117E+02  0.58785856080E+02  0.00000000000E+00 0. -1.
<scales pt_clust_5="13000.00000" pt_clust_6="13000.00000" pt_clust_7="13000.00000" pt_clust_8="13000.00000" pt_clust_9="41.46421"></scales>
<clustering>
<clus scale="   41.464">  2  9  1 -1</clus>
<clus scale="   82.356">  5  6 -1 -1</clus>
<clus scale="   89.220">  7  8 -1 -1</clus>
<clus scale="  113.824">  1  5  2 -1</clus>
<clus scale="  113.824">  1  5  2 -1</clus>
</clustering>
</event>
<event>
 9    1  0.2333971E-005  0.1173875E+03  0.7546771E-02  0.1248287E+00
         -2   -1    0    0    0  501 -0.00000000000E+00  0.00000000000E+00  0.80194220588E+02  0.80194220588E+02  0.00000000000E+00 0.  1.
          1   -1    0    0  502    0  0.00000000000E+00 -0.00000000000E+00 -0.43002023402E+03  0.43002023402E+03  0.00000000000E+00 0. -1.
        -24    2    1    2    0    0  0.90547844805E+02 -0.36397201262E+01 -0.43514249933E+01  0.12428043854E+03  0.84938405579E+02 0.  0.
         23    2    1    2    0    0 -0.74162649062E+02  0.18896010379E+02 -0.34443011389E+03  0.36352152047E+03  0.87513626179E+02 0.  0.
         11    1    3    3    0    0  0.34626668265E+02  0.39965293471E+02 -0.68668265012E+01  0.53323392086E+02  0.00000000000E+00 0. -1.
        -12    1    3    3    0    0  0.55921176541E+02 -0.43605013597E+02  0.25154015078E+01  0.70957046452E+02  0.00000000000E+00 0.  1.
        -11    1    4    4    0    0 -0.19540461053E+02  0.47551113302E+02 -0.11544979637E+03  0.12637876988E+03  0.00000000000E+00 0.  1.
         11    1    4    4    0    0 -0.54622188009E+02 -0.28655102923E+02 -0.22898031752E+03  0.23714275059E+03  0.00000000000E+00 0. -1.
         21    1    1    2  502  501 -0.16385195744E+02 -0.15256290253E+02 -0.10444745468E+01  0.22412495598E+02  0.00000000000E+00 0.  1.
<scales pt_clust_5="13000.00000" pt_clust_6="13000.00000" pt_clust_7="13000.00000" pt_clust_8="13000.00000" pt_clust_9="22.38814"></scales>
<clustering>
<clus scale="   22.388">  1  9  2 -1</clus>
<clus scale="   84.938">  5  6 -1 -1</clus>
<clus scale="   87.514">  7  8 -1 -1</clus>
<clus scale="  115.480">  1  5  2 -1</clus>
<clus scale="  117.387">  2  5  1 -1</clus>
</clustering>
</event>
<event>
 9    1  0.2333971E-005  0.1029152E+03  0.7546771E-02  0.1282015E+00
         -4   -1    0    0    0  501 -0.00000000000E+00  0.00000000000E+00  0.27806013445E+03  0.27806013445E+03  0.00000000000E+00 0.  1.
          3   -1    0    0  502    0  0.00000000000E+00 -0.00000000000E+00 -0.84590335256E+02  0.84590335256E+02  0.00000000000E+00 0. -1.
         23    2    1    2    0    0 -0.32667500029E+02  0.47463083700E+02  0.18365483570E+03  0.21122402465E+03  0.86986091092E+02 0.  0.
        -24    2    1    2    0    0 -0.61509793042E+01 -0.58918815623E+02  0.41083916551E+02  0.10028100971E+03  0.69707469675E+02 0.  0.
         11    1    4    4    0    0  0.26598600265E+02 -0.51105344064E+02  0.29083699866E+02  0.64537611715E+02  0.00000000000E+00 0. -1.
        -12    1    4    4    0    0 -0.32749579569E+02 -0.78134715588E+01  0.12000216684E+02  0.35743397995E+02  0.00000000000E+00 0.  1.
        -11    1    3    3    0    0  0.24624031641E+02  0.18414413209E+02  0.10639536015E+03  0.11074929440E+03  0.00000000000E+00 0.  1.
         11    1    3    3    0    0 -0.57291531670E+02  0.29048670490E+02  0.77259475551E+02  0.10047473026E+03  0.00000000000E+00 0. -1.
         21    1    1    2  502  501  0.38818479333E+02  0.11455731923E+02 -0.31268953051E+02  0.51145435344E+02  0.00000000000E+00 0. -1.
<scales pt_clust_5="13000.00000" pt_clust_6="13000.00000" pt_clust_7="13000.00000" pt_clust_8="13000.00000" pt_clust_9="40.47355"></scales>
<clustering>
<clus scale="   40.474">  2  9  1 -1</clus>
<clus scale="   69.707">  5  6 -1 -1</clus>
<clus scale="   86.986">  7  8 -1 -1</clus>
<clus scale="   88.792">  2  5  1 -1</clus>
<clus scale="   40.474">  2  5  1 -1</clus>
</clustering>
</event>
<event>
 9    1  0.2333971E-005  0.1080776E+03  0.7546771E-02  0.1268219E+00
          1   -1    0    0  502    0  0.00000000000E+00  0.00000000000E+00  0.23314386353E+03  0.23314386353E+03  0.00000000000E+00 0. -1.
         -2   -1    0    0    0  501 -0.00000000000E+00 -0.00000000000E+00 -0.18365433420E+03  0.18365433420E+03  0.00000000000E+00 0.  1.
        -24    2    1    2    0    0  0.10270332745E+02  0.19032054398E+02 -0.40240244777E+02  0.91693135657E+02  0.79502547114E+02 0.  0.
         23    2    1    2    0    0 -0.12250911943E+02 -0.69129339427E+02  0.18514139659E+03  0.21732269632E+03  0.89570459373E+02 0.  0.
         13    1    3    3    0    0  0.42675541609E+00 -0.29090145983E+02 -0.14935677888E+01  0.29131588667E+02  0.00000000000E+00 0. -1.
        -14    1    3    3    0    0  0.98435773287E+01  0.48122200381E+02 -0.38746676988E+02  0.62561546990E+02  0.00000000000E+00 0.  1.
        -13    1    4    4    0    0 -0.23958085737E+02  0.78130593974E+01  0.12890757392E+02  0.28305571809E+02  0.00000000000E+00 0.  1.
         13    1    4    4    0    0  0.11707173794E+02 -0.76942398824E+02  0.17225063920E+03  0.18901712451E+03  0.00000000000E+00 0. -1.
         21    1    1    2  502  501  0.19805791982E+01  0.50097285029E+02 -0.95411622485E+02  0.10778236575E+03  0.00000000000E+00 0.  1.
<scales pt_clust_5="13000.00000" pt_clust_6="13000.00000" pt_clust_7="13000.00000" pt_clust_8="13000.00000" pt_clust_9="50.13642"></scales>
<clustering>
<clus scale="   50.136">  2  9  1 -1</clus>
<clus scale="   79.503">  5  6 -1 -1</clus>
<clus scale="   89.570">  7  8 -1 -1</clus>
<clus scale="   99.893">  2  5  1 -1</clus>
<clus scale="  108.078">  1  5  2 -1</clus>
</clustering>
</event>
<event>
 9    1  0.2333971E-005  0.1335173E+03  0.7546771E-02  0.1224540E+00
          1   -1    0    0  502    0  0.00000000000E+00  0.00000000000E+00  0.35719192398E+03  0.35719192398E+03  0.00000000000E+00 0. -1.
         -2   -1    0    0    0  501 -0.00000000000E+00 -0.00000000000E+00 -0.97145594037E+02  0.97145594037E+02  0.00000000000E+00 0.  1.
        -24    2    1    2    0    0 -0.10559814463E+03 -0.67815038078E+01 -0.68340257081E+01  0.13280677048E+03  0.79962350118E+02 0.  0.
         23    2    1    2    0    0  0.94795895585E+02  0.25761724688E+02  0.26862054066E+03  0.29962263002E+03  0.89256917229E+02 0.  0.
         13    1    3    3    0    0 -0.66284508108E+02  0.26855865174E+02  0.20353985446E+02  0.74358309777E+02  0.00000000000E+00 0. -1.
        -14    1    3    3    0    0 -0.39313636518E+02 -0.33637368982E+02 -0.27188011154E+02  0.58448460706E+02  0.00000000000E+00 0.  1.
        -13    1    4    4    0    0  0.72446230101E+02  0.47138539192E+02  0.12040959096E+03  0.14821932306E+03  0.00000000000E+00 0. -1.
         13    1    4    4    0    0  0.22349665484E+02 -0.21376814504E+02  0.14821094971E+03  0.15140330696E+03  0.00000000000E+00 0.  1.
         21    1    1    2  502  501  0.10802249041E+02 -0.18980220880E+02 -0.17401850175E+01  0.21908117511E+02  0.00000000000E+00 0. -1.
<scales pt_clust_5="13000.00000" pt_clust_6="13000.00000" pt_clust_7="13000.00000" pt_clust_8="13000.00000" pt_clust_9="21.83890"></scales>
<clustering>
<clus scale="   21.839">  2  9  1 -1</clus>
<clus scale="   79.962">  5  6 -1 -1</clus>
<clus scale="   89.257">  7  8 -1 -1</clus>
<clus scale="  127.491">  2  5  1 -1</clus>
<clus scale="  133.517">  1  5  2 -1</clus>
</clustering>
</event>
<event>
 9    1  0.2333971E-005  0.1331822E+03  0.7546771E-02  0.1226539E+00
         -4   -1    0    0    0  501 -0.00000000000E+00  0.00000000000E+00  0.43433814948E+03  0.43433814948E+03  0.00000000000E+00 0.  1.
          3   -1    0    0  502    0  0.00000000000E+00 -0.00000000000E+00 -0.58939621547E+02  0.58939621547E+02  0.00000000000E+00 0. -1.
        -24    2    1    2    0    0  0.77288994406E+02  0.71074370895E+02  0.14991731175E+03  0.19961002068E+03  0.79648007747E+02 0.  0.
         23    2    1    2    0    0 -0.68549962115E+02 -0.52697166576E+02  0.89451801335E+02  0.15612468790E+03  0.94324995301E+02 0.  0.
         11    1    3    3    0    0  0.61951604794E+02  0.55605707068E+02  0.49488237311E+02  0.96845658794E+02  0.00000000000E+00 0. -1.
        -12    1    3    3    0    0  0.15337389612E+02  0.15468663827E+02  0.10042907444E+03  0.10276436188E+03  0.00000000000E+00 0.  1.
        -11    1    4    4    0    0 -0.25137202199E+02 -0.66698405096E+02  0.21810879860E+02  0.74540396142E+02  0.00000000000E+00 0. -1.
         11    1    4    4    0    0 -0.43412759916E+02  0.14001238520E+02  0.67640921474E+02  0.81584291757E+02  0.00000000000E+00 0.  1.
         21    1    1    2  502  501 -0.87390322908E+01 -0.18377204320E+02  0.13602941485E+03  0.13754306245E+03  0.00000000000E+00 0.  1.
<scales pt_clust_5="13000.00000" pt_clust_6="13000.00000" pt_clust_7="13000.00000" pt_clust_8="13000.00000" pt_clust_9="20.34926"></scales>
<clustering>
<clus scale="   20.349">  1  9  2 -1</clus>
<clus scale="   79.648">  5  6 -1 -1</clus>
<clus scale="   94.325">  7  8 -1 -1</clus>
<clus scale="  123.224">  1  5  2 -1</clus>
<clus scale="  133.182">  2  5  1 -1</clus>
</clustering>
</event>
<event>
 9    1  0.2333971E-005  0.3950470E+03  0.7546771E-02  0.1084982E+00
          1   -1    0    0  502    0  0.00000000000E+00  0.00000000000E+00  0.59601945843E+03  0.59601945843E+03  0.00000000000E+00 0. -1.
         -2   -1    0    0    0  501 -0.00000000000E+00 -0.00000000000E+00 -0.11089725710E+04  0.11089725710E+04  0.00000000000E+00 0.  1.
        -24    2    1    2    0    0  0.19058728006E+03 -0.40018780677E+03 -0.10695810690E+03  0.46303577007E+03  0.80549957958E+02 0.  0.
         23    2    1    2    0    0 -0.87494002969E+02  0.40460588521E+02  0.36321237801E+03  0.38655466102E+03  0.90603612722E+02 0.  0.
         13    1    3    3    0    0  0.89213033554E+02 -0.26573270560E+03 -0.86823967005E+02  0.29344716292E+03  0.00000000000E+00 0. -1.
        -14    1    3    3    0    0  0.10137424651E+03 -0.13445510117E+03 -0.20134139898E+02  0.16958860715E+03  0.00000000000E+00 0.  1.
        -11    1    4    4    0    0 -0.57758460981E+02 -0.22977049035E+02  0.16447032136E+03  0.17582511540E+03  0.00000000000E+00 0. -1.
         11    1    4    4    0    0 -0.29735541988E+02  0.63437637556E+02  0.19874205665E+03  0.21072954563E+03  0.00000000000E+00 0.  1.
         21    1    1    2  502  501 -0.10309327710E+03  0.35972721825E+03 -0.76920738369E+03  0.85540159835E+03  0.00000000000E+00 0.  1.
<scales pt_clust_5="13000.00000" pt_clust_6="13000.00000" pt_clust_7="13000.00000" pt_clust_8="13000.00000" pt_clust_9="386.74773"></scales>
<clustering>
<clus scale="   80.550">  5  6 -1 -1</clus>
<clus scale="   90.604">  7  8 -1 -1</clus>
<clus scale="  132.292">  1  7  2 -1</clus>
<clus scale="  386.748">  2  9  1 -1</clus>
<clus scale="  132.292">  1  5  2 -1</clus>
</clustering>
</event>
<event>
 9    1  0.2333971E-005  0.9126616E+02  0.7546771E-02  0.1306825E+00
         -2   -1    0    0    0  501 -0.00000000000E+00  0.00000000000E+00  0.33348800810E+03  0.33348800810E+03  0.00000000000E+00 0.  1.
          1   -1    0    0  502    0  0.00000000000E+00 -0.00000000000E+00 -0.99561146391E+02  0.99561146391E+02  0.00000000000E+00 0. -1.
         23    2    1    2    0    0 -0.31723186724E+02  0.10436805475E+02  0.23888826204E+03  0.25756226932E+03  0.90307437977E+02 0.  0.
        -24    2    1    2    0    0  0.40776123530E+01 -0.11856784066E+02 -0.68976031561E+02  0.10574330387E+03  0.79162763542E+02 0.  0.
         11    1    4    4    0    0  0.23455538339E+02 -0.20643551545E+01 -0.78558286255E+02  0.82011146683E+02  0.00000000000E+00 0. -1.
        -12    1    4    4    0    0 -0.19377925986E+02 -0.97924289111E+01  0.95822546936E+01  0.23732157182E+02  0.00000000000E+00 0.  1.
        -11    1    3    3    0    0 -0.57311987361E+02  0.29078537673E+02  0.17019271407E+03  0.18192247022E+03  0.00000000000E+00 0.  1.
         11    1    3    3    0    0  0.25588800638E+02 -0.18641732198E+02  0.68695547972E+02  0.75639799105E+02  0.00000000000E+00 0. -1.
         21    1    1    2  502  501  0.27645574371E+02  0.14199785907E+01  0.64014631233E+02  0.69743581306E+02  0.00000000000E+00 0. -1.
<scales pt_clust_5="13000.00000" pt_clust_6="13000.00000" pt_clust_7="13000.00000" pt_clust_8="13000.00000" pt_clust_9="27.68202"></scales>
<clustering>
<clus scale="   27.682">  1  9  2 -1</clus>
<clus scale="   79.163">  5  6 -1 -1</clus>
<clus scale="   80.255">  2  5  1 -1</clus>
<clus scale="   90.307">  7  8 -1 -1</clus>
<clus scale="   80.255">  2  5  1 -1</clus>
</clustering>
</event>
<event>
 9    1  0.2333971E-005  0.1402111E+03  0.7546771E-02  0.1216422E+00
          1   -1    0    0  502    0  0.00000000000E+00  0.00000000000E+00  0.10384322793E+03  0.10384322793E+03  0.00000000000E+00 0. -1.
         -2   -1    0    0    0  501 -0.00000000000E+00 -0.00000000000E+00 -0.41994367373E+03  0.41994367373E+03  0.00000000000E+00 0.  1.
        -24    2    1    2    0    0  0.90438118062E+02 -0.44474667287E+02 -0.30868894020E+03  0.33452753142E+03  0.80391282172E+02 0.  0.
         23    2    1    2    0    0 -0.10144933722E+03  0.21368937896E+02  0.29945746032E+02  0.14397487037E+03  0.95306957064E+02 0.  0.
         11    1    3    3    0    0  0.43782821633E+02 -0.21508312062E+02 -0.47059057054E+02  0.67779774334E+02  0.00000000000E+00 0. -1.
        -12    1    3    3    0    0  0.46655296429E+02 -0.22966355224E+02 -0.26162988315E+03  0.26674775709E+03  0.00000000000E+00 0.  1.
        -13    1    4    4    0    0 -0.70643614142E+02 -0.14844320581E+02 -0.20113673389E+02  0.74936199061E+02  0.00000000000E+00 0.  1.
         13    1    4    4    0    0 -0.30805723077E+02  0.36213258476E+02  0.50059419422E+02  0.69038671313E+02  0.00000000000E+00 0. -1.
         21    1    1    2  502  501  0.11011219158E+02  0.23105729391E+02 -0.37357251635E+02  0.45284499862E+02  0.00000000000E+00 0.  1.
<scales pt_clust_5="13000.00000" pt_clust_6="13000.00000" pt_clust_7="13000.00000" pt_clust_8="13000.00000" pt_clust_9="25.59534"></scales>
<clustering>
<clus scale="   25.595">  2  9  1 -1</clus>
<clus scale="   80.391">  5  6 -1 -1</clus>
<clus scale="   95.307">  7  8 -1 -1</clus>
<clus scale="  130.532">  2  5  1 -1</clus>
<clus scale="  140.211">  1  5  2 -1</clus>
</clustering>
</event>
